Automatically generated mesh
       3
Reciprocal lattice
    0.00000000000000    0.25000000000000    0.25000000000000             4
    0.20000000000000    0.25000000000000    0.25000000000000             8
    0.40000000000000    0.25000000000000    0.25000000000000             8
