 vasp.5.4.4.18Apr17-6-g9f103f2a35 (build Oct 27 2022 13:04:57) complex          
  
 executed on             LinuxIFC date 2024.07.04  00:13:22
 running on   14 total cores
 distrk:  each k-point on   14 cores,    1 groups
 distr:  one band on NCORES_PER_BAND=   1 cores,   14 groups


--------------------------------------------------------------------------------------------------------


 INCAR:
 POTCAR:    PAW_PBE Li 17Jan2003                  
 POTCAR:    PAW_PBE Bi 08Apr2002                  
 POTCAR:    PAW_PBE S 06Sep2000                   

 ----------------------------------------------------------------------------- 
|                                                                             |
|           W    W    AA    RRRRR   N    N  II  N    N   GGGG   !!!           |
|           W    W   A  A   R    R  NN   N  II  NN   N  G    G  !!!           |
|           W    W  A    A  R    R  N N  N  II  N N  N  G       !!!           |
|           W WW W  AAAAAA  RRRRR   N  N N  II  N  N N  G  GGG   !            |
|           WW  WW  A    A  R   R   N   NN  II  N   NN  G    G                |
|           W    W  A    A  R    R  N    N  II  N    N   GGGG   !!!           |
|                                                                             |
|      For optimal performance we recommend to set                            |
|        NCORE= 4 - approx SQRT( number of cores)                             |
|      NCORE specifies how many cores store one orbital (NPAR=cpu/NCORE).     |
|      This setting can  greatly improve the performance of VASP for DFT.     |
|      The default,   NCORE=1            might be grossly inefficient         |
|      on modern multi-core architectures or massively parallel machines.     |
|      Do your own testing !!!!                                               |
|      Unfortunately you need to use the default for GW and RPA calculations. |
|      (for HF NCORE is supported but not extensively tested yet)             |
|                                                                             |
 ----------------------------------------------------------------------------- 

 POTCAR:    PAW_PBE Li 17Jan2003                  
   VRHFIN =Li: s1p0                                                             
   LEXCH  = PE                                                                  
   EATOM  =     5.3001 eV,    0.3895 Ry                                         
                                                                                
   TITEL  = PAW_PBE Li 17Jan2003                                                
   LULTRA =        F    use ultrasoft PP ?                                      
   IUNSCR =        1    unscreen: 0-lin 1-nonlin 2-no                           
   RPACOR =    1.500    partial core radius                                     
   POMASS =    7.010; ZVAL   =    1.000    mass and valenz                      
   RCORE  =    2.050    outmost cutoff radius                                   
   RWIGS  =    2.600; RWIGS  =    1.376    wigner-seitz radius (au A)           
   ENMAX  =  140.000; ENMIN  =  100.000 eV                                      
   ICORE  =        2    local potential                                         
   LCOR   =        T    correct aug charges                                     
   LPAW   =        T    paw PP                                                  
   EAUG   =  331.638                                                            
   DEXC   =    0.000                                                            
   RMAX   =    2.098    core radius for proj-oper                               
   RAUG   =    1.300    factor for augmentation sphere                          
   RDEP   =    2.094    radius for radial grids                                 
   RDEPT  =    1.810    core radius for aug-charge                              
                                                                                
   Atomic configuration                                                         
    4 entries                                                                   
     n  l   j            E        occ.                                          
     1  0  0.50       -51.8549   2.0000                                         
     2  0  0.50        -2.8742   1.0000                                         
     2  1  0.50        -1.3606   0.0000                                         
     3  2  1.50        -1.3606   0.0000                                         
   Description                                                                  
     l       E           TYP  RCUT    TYP  RCUT                                 
     0     -2.8742052     23  2.050                                             
     0     27.2116520     23  2.050                                             
     1     -1.3605826     23  2.050                                             
     2     -1.3605826     23  2.050                                             
  local pseudopotential read in
  partial core-charges read in
  partial kinetic energy density read in
  atomic valenz-charges read in
  non local Contribution for L=           0  read in
    real space projection operators read in
  non local Contribution for L=           0  read in
    real space projection operators read in
  non local Contribution for L=           1  read in
    real space projection operators read in
    PAW grid and wavefunctions read in
 
   number of l-projection  operators is LMAX  =           3
   number of lm-projection operators is LMMAX =           5
 
 POTCAR:    PAW_PBE Bi 08Apr2002                  
   VRHFIN =Bi:                                                                  
   LEXCH  = PE                                                                  
   EATOM  =   150.8133 eV,   11.0845 Ry                                         
                                                                                
   TITEL  = PAW_PBE Bi 08Apr2002                                                
   LULTRA =        F    use ultrasoft PP ?                                      
   IUNSCR =        1    unscreen: 0-lin 1-nonlin 2-no                           
   RPACOR =    2.200    partial core radius                                     
   POMASS =  208.980; ZVAL   =    5.000    mass and valenz                      
   RCORE  =    3.000    outmost cutoff radius                                   
   RWIGS  =    3.090; RWIGS  =    1.635    wigner-seitz radius (au A)           
   ENMAX  =  105.037; ENMIN  =   78.777 eV                                      
   ICORE  =        3    local potential                                         
   LCOR   =        T    correct aug charges                                     
   LPAW   =        T    paw PP                                                  
   EAUG   =  265.427                                                            
   DEXC   =    0.000                                                            
   RMAX   =    3.067    core radius for proj-oper                               
   RAUG   =    1.300    factor for augmentation sphere                          
   RDEP   =    3.012    radius for radial grids                                 
   RDEPT  =    2.604    core radius for aug-charge                              
                                                                                
   Atomic configuration                                                         
   17 entries                                                                   
     n  l   j            E        occ.                                          
     1  0  0.50    -90639.6582   2.0000                                         
     2  0  0.50    -16282.4667   2.0000                                         
     2  1  1.50    -13922.8287   6.0000                                         
     3  0  0.50     -3930.4763   2.0000                                         
     3  1  1.50     -3256.7013   6.0000                                         
     3  2  2.50     -2581.6169  10.0000                                         
     4  0  0.50      -902.2614   2.0000                                         
     4  1  1.50      -681.5915   6.0000                                         
     4  2  2.50      -429.8249  10.0000                                         
     4  3  3.50      -152.6004  14.0000                                         
     5  0  0.50      -157.7156   2.0000                                         
     5  1  1.50       -95.8054   6.0000                                         
     5  2  2.50       -27.0806  10.0000                                         
     6  0  0.50       -14.4732   2.0000                                         
     6  1  1.50        -4.5702   3.0000                                         
     6  2  2.50        -2.7212   0.0000                                         
     5  3  2.50        -2.7212   0.0000                                         
   Description                                                                  
     l       E           TYP  RCUT    TYP  RCUT                                 
     0    -14.4732299     23  3.000                                             
     0    -12.2452434     23  3.000                                             
     1     -4.5701666     23  3.000                                             
     1    -13.6058260     23  3.000                                             
     2     -2.7211652     23  3.000                                             
     3     -1.3605826      7  3.000                                             
  local pseudopotential read in
  partial core-charges read in
  partial kinetic energy density read in
  kinetic energy density of atom read in
  atomic valenz-charges read in
  non local Contribution for L=           0  read in
    real space projection operators read in
  non local Contribution for L=           0  read in
    real space projection operators read in
  non local Contribution for L=           1  read in
    real space projection operators read in
  non local Contribution for L=           1  read in
    real space projection operators read in
  non local Contribution for L=           2  read in
    real space projection operators read in
    PAW grid and wavefunctions read in
 
   number of l-projection  operators is LMAX  =           5
   number of lm-projection operators is LMMAX =          13
 
 POTCAR:    PAW_PBE S 06Sep2000                   
   VRHFIN =S : s2p4                                                             
   LEXCH  = PE                                                                  
   EATOM  =   276.8230 eV,   20.3459 Ry                                         
                                                                                
   TITEL  = PAW_PBE S 06Sep2000                                                 
   LULTRA =        F    use ultrasoft PP ?                                      
   IUNSCR =        1    unscreen: 0-lin 1-nonlin 2-no                           
   RPACOR =    1.500    partial core radius                                     
   POMASS =   32.066; ZVAL   =    6.000    mass and valenz                      
   RCORE  =    1.900    outmost cutoff radius                                   
   RWIGS  =    2.200; RWIGS  =    1.164    wigner-seitz radius (au A)           
   ENMAX  =  258.689; ENMIN  =  194.016 eV                                      
   ICORE  =        2    local potential                                         
   LCOR   =        T    correct aug charges                                     
   LPAW   =        T    paw PP                                                  
   EAUG   =  335.092                                                            
   DEXC   =    0.000                                                            
   RMAX   =    1.942    core radius for proj-oper                               
   RAUG   =    1.300    factor for augmentation sphere                          
   RDEP   =    1.954    radius for radial grids                                 
   RDEPT  =    1.744    core radius for aug-charge                              
                                                                                
   Atomic configuration                                                         
    6 entries                                                                   
     n  l   j            E        occ.                                          
     1  0  0.50     -2405.8406   2.0000                                         
     2  0  0.50      -211.7007   2.0000                                         
     2  1  1.50      -156.4958   6.0000                                         
     3  0  0.50       -17.2562   2.0000                                         
     3  1  0.50        -7.0085   4.0000                                         
     3  2  1.50        -6.8029   0.0000                                         
   Description                                                                  
     l       E           TYP  RCUT    TYP  RCUT                                 
     0    -17.2561641     23  1.900                                             
     0    -15.8743224     23  1.900                                             
     1     -7.0085400     23  1.900                                             
     1     -2.7779785     23  1.900                                             
     2     -6.8029130     23  1.900                                             
  local pseudopotential read in
  partial core-charges read in
  partial kinetic energy density read in
  atomic valenz-charges read in
  non local Contribution for L=           0  read in
    real space projection operators read in
  non local Contribution for L=           0  read in
    real space projection operators read in
  non local Contribution for L=           1  read in
    real space projection operators read in
  non local Contribution for L=           1  read in
    real space projection operators read in
    PAW grid and wavefunctions read in
 
   number of l-projection  operators is LMAX  =           4
   number of lm-projection operators is LMMAX =           8
 
 Optimization of the real space projectors (new method)

 maximal supplied QI-value         = 18.33
 optimisation between [QCUT,QGAM] = [  8.80, 17.60] = [ 21.68, 86.71] Ry 
 Optimized for a Real-space Cutoff    1.15 Angstroem

   l    n(q)    QCUT    max X(q) W(low)/X(q) W(high)/X(q)  e(spline) 
   0      6     8.799    33.825    0.11E-02    0.11E-02    0.82E-07
   0      6     8.799     8.944    0.75E-03    0.85E-03    0.59E-07
   1      5     8.799     4.214    0.92E-03    0.27E-03    0.41E-07
 Optimization of the real space projectors (new method)

 maximal supplied QI-value         = 12.47
 optimisation between [QCUT,QGAM] = [  8.86, 17.71] = [ 21.96, 87.83] Ry 
 Optimized for a Real-space Cutoff    1.59 Angstroem

   l    n(q)    QCUT    max X(q) W(low)/X(q) W(high)/X(q)  e(spline) 
   0      8     8.855    93.365    0.12E-03    0.22E-03    0.92E-07
   0      8     8.855    75.373    0.13E-03    0.24E-03    0.10E-06
   1      8     8.855    32.978    0.17E-02    0.62E-03    0.17E-06
   1      8     8.855    35.433    0.19E-02    0.68E-03    0.19E-06
   2      7     8.855     8.108    0.22E-03    0.34E-03    0.64E-07
 Optimization of the real space projectors (new method)

 maximal supplied QI-value         = 19.84
 optimisation between [QCUT,QGAM] = [  8.73, 17.66] = [ 21.34, 87.33] Ry 
 Optimized for a Real-space Cutoff    1.22 Angstroem

   l    n(q)    QCUT    max X(q) W(low)/X(q) W(high)/X(q)  e(spline) 
   0      6     8.731   187.594    0.15E-02    0.56E-03    0.90E-07
   0      6     8.731   164.243    0.15E-02    0.56E-03    0.89E-07
   1      6     8.731    67.533    0.37E-03    0.20E-02    0.11E-06
   1      6     8.731    50.729    0.36E-03    0.19E-02    0.10E-06
  PAW_PBE Li 17Jan2003                  :
 energy of atom  1       EATOM=   -5.3001
 kinetic energy error for atom=    0.0000 (will be added to EATOM!!)
  PAW_PBE Bi 08Apr2002                  :
 energy of atom  2       EATOM= -150.8133
 kinetic energy error for atom=    0.0003 (will be added to EATOM!!)
  PAW_PBE S 06Sep2000                   :
 energy of atom  3       EATOM= -276.8230
 kinetic energy error for atom=    0.0077 (will be added to EATOM!!)
 
 
 POSCAR: Li16 Bi8 S20                            
  positions in direct lattice
  No initial velocities read in
 exchange correlation table for  LEXCH =        8
   RHO(1)=    0.500       N(1)  =     2000
   RHO(2)=  100.500       N(2)  =     4000
 


--------------------------------------------------------------------------------------------------------


 ion  position               nearest neighbor table
   1  0.250  0.192  0.920-  28 2.97  28 2.97
   2  0.250  0.692  0.580-  26 2.97  26 2.97
   3  0.750  0.808  0.080-  27 2.97  27 2.97
   4  0.250  0.428  0.917-  29 2.91  29 2.91
   5  0.750  0.572  0.083-  42 2.91  42 2.91
   6  0.250  0.928  0.583-  31 2.91  31 2.91
   7  0.750  0.072  0.417-  30 2.91  30 2.91
   8  0.250  0.185  0.265-  43 2.97
   9  0.750  0.815  0.735-  44 2.97
  10  0.250  0.685  0.235-  41 2.97
  11  0.750  0.315  0.765-  40 2.97
  12  0.250  0.183  0.569-  32 2.89
  13  0.750  0.817  0.431-  33 2.89
  14  0.250  0.683  0.931-  34 2.89
  15  0.750  0.317  0.069-  35 2.89
  16  0.750  0.308  0.420-  25 2.97  25 2.97
  17  0.750  0.570  0.757-  29 2.66  34 2.80  34 2.80  36 2.86  36 2.86  26 3.08
  18  0.250  0.430  0.243-  42 2.66  35 2.80  35 2.80  37 2.86  37 2.86  25 3.08
  19  0.250  0.930  0.257-  30 2.66  33 2.80  33 2.80  39 2.86  39 2.86  27 3.08
  20  0.750  0.070  0.743-  31 2.66  32 2.80  32 2.80  38 2.86  38 2.86  28 3.08
  21  0.250  0.442  0.589-  36 2.70  40 2.75  40 2.75  26 2.97  26 2.97  25 3.00
  22  0.750  0.558  0.411-  37 2.70  41 2.75  41 2.75  25 2.97  25 2.97  26 3.00
  23  0.250  0.942  0.911-  38 2.70  44 2.75  44 2.75  28 2.97  28 2.97  27 3.00
  24  0.750  0.058  0.089-  39 2.70  43 2.75  43 2.75  27 2.97  27 2.97  28 3.00
  25  0.250  0.433  0.418-  22 2.97  22 2.97  16 2.97  16 2.97  21 3.00  18 3.08
  26  0.750  0.567  0.582-  21 2.97  21 2.97   2 2.97   2 2.97  22 3.00  17 3.08
  27  0.250  0.933  0.082-  24 2.97  24 2.97   3 2.97   3 2.97  23 3.00  19 3.08
  28  0.750  0.067  0.918-  23 2.97  23 2.97   1 2.97   1 2.97  24 3.00  20 3.08
  29  0.750  0.548  0.907-  17 2.66   4 2.91   4 2.91
  30  0.250  0.952  0.407-  19 2.66   7 2.91   7 2.91
  31  0.750  0.048  0.593-  20 2.66   6 2.91   6 2.91
  32  0.250  0.181  0.734-  20 2.80  20 2.80  12 2.89
  33  0.750  0.819  0.266-  19 2.80  19 2.80  13 2.89
  34  0.250  0.681  0.766-  17 2.80  17 2.80  14 2.89
  35  0.750  0.319  0.234-  18 2.80  18 2.80  15 2.89
  36  0.250  0.455  0.742-  21 2.70  17 2.86  17 2.86
  37  0.750  0.545  0.258-  22 2.70  18 2.86  18 2.86
  38  0.250  0.955  0.758-  23 2.70  20 2.86  20 2.86
  39  0.750  0.045  0.242-  24 2.70  19 2.86  19 2.86
  40  0.750  0.335  0.598-  21 2.75  21 2.75  11 2.97
  41  0.250  0.665  0.402-  22 2.75  22 2.75  10 2.97
  42  0.250  0.452  0.093-  18 2.66   5 2.91   5 2.91
  43  0.250  0.165  0.098-  24 2.75  24 2.75   8 2.97
  44  0.750  0.835  0.902-  23 2.75  23 2.75   9 2.97
 
  LATTYP: Found a simple orthorhombic cell.
 ALAT       =     4.1137554600
 B/A-ratio  =     4.1578771651
 C/A-ratio  =     4.2772772813
  
  Lattice vectors:
  
 A1 = (   4.1137554600,   0.0000000000,   0.0000000000)
 A2 = (   0.0000000000,  17.1044898900,   0.0000000000)
 A3 = (   0.0000000000,   0.0000000000,  17.5956727700)


Analysis of symmetry for initial positions (statically):
=====================================================================
 Subroutine PRICEL returns:
 Original cell was already a primitive cell.
 

 Routine SETGRP: Setting up the symmetry group for a 
 simple orthorhombic supercell.


 Subroutine GETGRP returns: Found  8 space group operations
 (whereof  2 operations were pure point group operations)
 out of a pool of  8 trial point group operations.


The static configuration has the point symmetry S_2 .
 The point group associated with its full space group is D_2h.


Analysis of symmetry for dynamics (positions and initial velocities):
=====================================================================
 Subroutine PRICEL returns:
 Original cell was already a primitive cell.
 

 Routine SETGRP: Setting up the symmetry group for a 
 simple orthorhombic supercell.


 Subroutine GETGRP returns: Found  8 space group operations
 (whereof  2 operations were pure point group operations)
 out of a pool of  8 trial point group operations.


The dynamic configuration has the point symmetry S_2 .
 The point group associated with its full space group is D_2h.


 Subroutine INISYM returns: Found  8 space group operations
 (whereof  2 operations are pure point group operations),
 and found     1 'primitive' translations

 
 
 KPOINTS: pymatgen with grid density = 807 / numbe

Automatic generation of k-mesh.
Space group operators:
 irot       det(A)        alpha          n_x          n_y          n_z        tau_x        tau_y        tau_z
    1     1.000000     0.000001     1.000000     0.000000     0.000000     0.000000     0.000000     0.000000
    2    -1.000000     0.000001     1.000000     0.000000     0.000000     0.000000     0.000000     0.000000
    3     1.000000   180.000000     0.000000     0.000000     1.000000     0.000000     0.500000     0.500000
    4    -1.000000   180.000000     0.000000     0.000000     1.000000     0.000000     0.500000     0.500000
    5     1.000000   180.000000     0.000000     1.000000     0.000000     0.500000     0.500000     0.500000
    6    -1.000000   180.000000     0.000000     1.000000     0.000000     0.500000     0.500000     0.500000
    7     1.000000   179.999999     1.000000     0.000000     0.000000     0.500000     0.000000     0.000000
    8    -1.000000   179.999999     1.000000     0.000000     0.000000     0.500000     0.000000     0.000000
 
 Subroutine IBZKPT returns following result:
 ===========================================
 
 Found      3 irreducible k-points:
 
 Following reciprocal coordinates:
            Coordinates               Weight
  0.000000  0.250000  0.250000      4.000000
  0.200000  0.250000  0.250000      8.000000
  0.400000  0.250000  0.250000      8.000000
 
 Following cartesian coordinates:
            Coordinates               Weight
  0.000000  0.014616  0.014208      4.000000
  0.048617  0.014616  0.014208      8.000000
  0.097235  0.014616  0.014208      8.000000
 


--------------------------------------------------------------------------------------------------------




 Dimension of arrays:
   k-points           NKPTS =      3   k-points in BZ     NKDIM =      3   number of bands    NBANDS=    112
   number of dos      NEDOS =    301   number of ions     NIONS =     44
   non local maximal  LDIM  =      5   non local SUM 2l+1 LMDIM =     13
   total plane-waves  NPLWV = 103680
   max r-space proj   IRMAX =   1470   max aug-charges    IRDMAX=   2891
   dimension x,y,z NGX =    18 NGY =   72 NGZ =   80
   dimension x,y,z NGXF=    24 NGYF=  108 NGZF=  108
   support grid    NGXF=    24 NGYF=  108 NGZF=  108
   ions per type =              16   8  20
   NGX,Y,Z   is equivalent  to a cutoff of   7.27,  7.00,  7.56 a.u.
   NGXF,Y,Z  is equivalent  to a cutoff of   9.70, 10.50, 10.20 a.u.

 SYSTEM =  CIS                                     
 POSCAR =  Li16 Bi8 S20                            

 Startparameter for this run:
   NWRITE =      2    write-flag & timer
   PREC   = medium    normal or accurate (medium, high low for compatibility)
   ISTART =      0    job   : 0-new  1-cont  2-samecut
   ICHARG =      2    charge: 1-file 2-atom 10-const
   ISPIN  =      1    spin polarized calculation?
   LNONCOLLINEAR =      F non collinear calculations
   LSORBIT =      F    spin-orbit coupling
   INIWAV =      1    electr: 0-lowe 1-rand  2-diag
   LASPH  =      T    aspherical Exc in radial PAW
   METAGGA=      F    non-selfconsistent MetaGGA calc.

 Electronic Relaxation 1
   ENCUT  =  300.0 eV  22.05 Ry    4.70 a.u.   5.81 24.16 24.85*2*pi/ulx,y,z
   ENINI  =  300.0     initial cutoff
   ENAUG  =  335.1 eV  augmentation charge cutoff
   NELM   =     60;   NELMIN=  2; NELMDL= -5     # of ELM steps 
   EDIFF  = 0.1E-03   stopping-criterion for ELM
   LREAL  =      T    real-space projection
   NLSPLINE    = F    spline interpolate recip. space projectors
   LCOMPAT=      F    compatible to vasp.4.4
   GGA_COMPAT  = T    GGA compatible to vasp.4.4-vasp.4.6
   LMAXPAW     = -100 max onsite density
   LMAXMIX     =    4 max onsite mixed and CHGCAR
   VOSKOWN=      0    Vosko Wilk Nusair interpolation
   ROPT   =   -0.00200  -0.00200  -0.00200
 Ionic relaxation
   EDIFFG = -.5E-01   stopping-criterion for IOM
   NSW    =     99    number of steps for IOM
   NBLOCK =      1;   KBLOCK =     99    inner block; outer block 
   IBRION =      2    ionic relax: 0-MD 1-quasi-New 2-CG
   NFREE  =      1    steps in history (QN), initial steepest desc. (CG)
   ISIF   =      3    stress and relaxation
   IWAVPR =     11    prediction:  0-non 1-charg 2-wave 3-comb
   ISYM   =      2    0-nonsym 1-usesym 2-fastsym
   LCORR  =      T    Harris-Foulkes like correction to forces

   POTIM  = 0.1000    time-step for ionic-motion
   TEIN   =    0.0    initial temperature
   TEBEG  =    0.0;   TEEND  =   0.0 temperature during run
   SMASS  =  -3.00    Nose mass-parameter (am)
   estimated Nose-frequenzy (Omega)   =  0.10E-29 period in steps =****** mass=  -0.387E-27a.u.
   SCALEE = 1.0000    scale energy and forces
   NPACO  =    256;   APACO  = 16.0  distance and # of slots for P.C.
   PSTRESS=    0.0 pullay stress

  Mass of Ions in am
   POMASS =   7.01208.98 32.07
  Ionic Valenz
   ZVAL   =   1.00  5.00  6.00
  Atomic Wigner-Seitz radii
   RWIGS  =  -1.00 -1.00 -1.00
  virtual crystal weights 
   VCA    =   1.00  1.00  1.00
   NELECT =     176.0000    total number of electrons
   NUPDOWN=      -1.0000    fix difference up-down

 DOS related values:
   EMIN   =  10.00;   EMAX   =-10.00  energy-range for DOS
   EFERMI =   0.00
   ISMEAR =     0;   SIGMA  =   0.05  broadening in eV -4-tet -1-fermi 0-gaus

 Electronic relaxation 2 (details)
   IALGO  =     38    algorithm
   LDIAG  =      T    sub-space diagonalisation (order eigenvalues)
   LSUBROT=      F    optimize rotation matrix (better conditioning)
   TURBO    =      0    0=normal 1=particle mesh
   IRESTART =      0    0=no restart 2=restart with 2 vectors
   NREBOOT  =      0    no. of reboots
   NMIN     =      0    reboot dimension
   EREF     =   0.00    reference energy to select bands
   IMIX   =      4    mixing-type and parameters
     AMIX     =   0.40;   BMIX     =  1.00
     AMIX_MAG =   1.60;   BMIX_MAG =  1.00
     AMIN     =   0.10
     WC   =   100.;   INIMIX=   1;  MIXPRE=   1;  MAXMIX= -45

 Intra band minimization:
   WEIMIN = 0.0010     energy-eigenvalue tresh-hold
   EBREAK =  0.22E-06  absolut break condition
   DEPER  =   0.30     relativ break condition  

   TIME   =   0.40     timestep for ELM

  volume/ion in A,a.u.               =      28.14       189.89
  Fermi-wavevector in a.u.,A,eV,Ry     =   0.854399  1.614581  9.932229  0.729998
  Thomas-Fermi vector in A             =   1.970990
 
 Write flags
   LWAVE        =      F    write WAVECAR
   LDOWNSAMPLE  =      F    k-point downsampling of WAVECAR
   LCHARG       =      F    write CHGCAR
   LVTOT        =      F    write LOCPOT, total local potential
   LVHAR        =      F    write LOCPOT, Hartree potential only
   LELF         =      F    write electronic localiz. function (ELF)
   LORBIT       =     10    0 simple, 1 ext, 2 COOP (PROOUT), +10 PAW based schemes


 Dipole corrections
   LMONO  =      F    monopole corrections only (constant potential shift)
   LDIPOL =      F    correct potential (dipole corrections)
   IDIPOL =      0    1-x, 2-y, 3-z, 4-all directions 
   EPSILON=  1.0000000 bulk dielectric constant

 Exchange correlation treatment:
   GGA     =    --    GGA type
   LEXCH   =     8    internal setting for exchange type
   VOSKOWN=      0    Vosko Wilk Nusair interpolation
   LHFCALC =     F    Hartree Fock is set to
   LHFONE  =     F    Hartree Fock one center treatment
   AEXX    =    0.0000 exact exchange contribution

 Linear response parameters
   LEPSILON=     F    determine dielectric tensor
   LRPA    =     F    only Hartree local field effects (RPA)
   LNABLA  =     F    use nabla operator in PAW spheres
   LVEL    =     F    velocity operator in full k-point grid
   LINTERFAST=   F  fast interpolation
   KINTER  =     0    interpolate to denser k-point grid
   CSHIFT  =0.1000    complex shift for real part using Kramers Kronig
   OMEGAMAX=  -1.0    maximum frequency
   DEG_THRESHOLD= 0.2000000E-02 threshold for treating states as degnerate
   RTIME   =   -0.100 relaxation time in fs
  (WPLASMAI=    0.000 imaginary part of plasma frequency in eV, 0.658/RTIME)
   DFIELD  = 0.0000000 0.0000000 0.0000000 field for delta impulse in time
 
 Orbital magnetization related:
   ORBITALMAG=     F  switch on orbital magnetization
   LCHIMAG   =     F  perturbation theory with respect to B field
   DQ        =  0.001000  dq finite difference perturbation B field
   LLRAUG    =     F  two centre corrections for induced B field



--------------------------------------------------------------------------------------------------------


 conjugate gradient relaxation of ions
 charge density and potential will be updated during run
 non-spin polarized calculation
 Variant of blocked Davidson
 Davidson routine will perform the subspace rotation
 perform sub-space diagonalisation
    after iterative eigenvector-optimisation
 modified Broyden-mixing scheme, WC =      100.0
 initial mixing is a Kerker type mixing with AMIX =  0.4000 and BMIX =      1.0000
 Hartree-type preconditioning will be used
 using additional bands           24
 real space projection scheme for non local part
 use partial core corrections
 calculate Harris-corrections to forces 
   (improved forces if not selfconsistent)
 use gradient corrections 
 use of overlap-Matrix (Vanderbilt PP)
 Gauss-broadening in eV      SIGMA  =   0.05


--------------------------------------------------------------------------------------------------------


  energy-cutoff  :      300.00
  volume of cell :     1238.10
      direct lattice vectors                 reciprocal lattice vectors
     4.113755460  0.000000000  0.000000000     0.243086885  0.000000000  0.000000000
     0.000000000 17.104489890  0.000000000     0.000000000  0.058464181  0.000000000
     0.000000000  0.000000000 17.595672770     0.000000000  0.000000000  0.056832155

  length of vectors
     4.113755460 17.104489890 17.595672770     0.243086885  0.058464181  0.056832155


 
 k-points in units of 2pi/SCALE and weight: pymatgen with grid density = 807 / numbe
   0.00000000  0.01461605  0.01420804       0.200
   0.04861738  0.01461605  0.01420804       0.400
   0.09723475  0.01461605  0.01420804       0.400
 
 k-points in reciprocal lattice and weights: pymatgen with grid density = 807 / numbe
   0.00000000  0.25000000  0.25000000       0.200
   0.20000000  0.25000000  0.25000000       0.400
   0.40000000  0.25000000  0.25000000       0.400
 
 position of ions in fractional coordinates (direct lattice) 
   0.25000000  0.19218602  0.91958062
   0.25000000  0.69218602  0.58041938
   0.75000000  0.80781398  0.08041938
   0.25000000  0.42780610  0.91708645
   0.75000000  0.57219390  0.08291355
   0.25000000  0.92780610  0.58291355
   0.75000000  0.07219390  0.41708645
   0.25000000  0.18489487  0.26518294
   0.75000000  0.81510513  0.73481706
   0.25000000  0.68489487  0.23481706
   0.75000000  0.31510513  0.76518294
   0.25000000  0.18330456  0.56938156
   0.75000000  0.81669544  0.43061844
   0.25000000  0.68330456  0.93061844
   0.75000000  0.31669544  0.06938156
   0.75000000  0.30781398  0.41958062
   0.75000000  0.57000813  0.75694783
   0.25000000  0.42999187  0.24305217
   0.25000000  0.92999187  0.25694783
   0.75000000  0.07000813  0.74305217
   0.25000000  0.44168188  0.58860454
   0.75000000  0.55831812  0.41139546
   0.25000000  0.94168188  0.91139546
   0.75000000  0.05831812  0.08860454
   0.25000000  0.43344078  0.41825133
   0.75000000  0.56655922  0.58174867
   0.25000000  0.93344078  0.08174867
   0.75000000  0.06655922  0.91825133
   0.75000000  0.54802805  0.90686239
   0.25000000  0.95197195  0.40686239
   0.75000000  0.04802805  0.59313761
   0.25000000  0.18077916  0.73365928
   0.75000000  0.81922084  0.26634072
   0.25000000  0.68077916  0.76634072
   0.75000000  0.31922084  0.23365928
   0.25000000  0.45471405  0.74177240
   0.75000000  0.54528595  0.25822760
   0.25000000  0.95471405  0.75822760
   0.75000000  0.04528595  0.24177240
   0.75000000  0.33524303  0.59781178
   0.25000000  0.66475697  0.40218822
   0.25000000  0.45197195  0.09313761
   0.25000000  0.16475697  0.09781178
   0.75000000  0.83524303  0.90218822
 
 position of ions in cartesian coordinates  (Angst):
   1.02843887  3.28724384 16.18063968
   1.02843887 11.83948878 10.21286948
   3.08531660 13.81724605  1.41503309
   1.02843887  7.31740511 16.13675308
   3.08531660  9.78708478  1.45891969
   1.02843887 15.86965006 10.25675608
   3.08531660  1.23483983  7.33891669
   1.02843887  3.16253243  4.66607224
   3.08531660 13.94195746 12.92960053
   1.02843887 11.71477738  4.13176415
   3.08531660  5.38971251 13.46390862
   1.02843887  3.13533099 10.01865161
   3.08531660 13.96915890  7.57702116
   1.02843887 11.68757594 16.37485754
   3.08531660  5.41691395  1.22081523
   3.08531660  5.26500111  7.38280329
   3.08531660  9.74969830 13.31900632
   1.02843887  7.35479159  4.27666645
   1.02843887 15.90703654  4.52116994
   3.08531660  1.19745335 13.07450283
   1.02843887  7.55474325 10.35689288
   3.08531660  9.54974664  7.23877989
   1.02843887 16.10698820 16.03661628
   3.08531660  0.99750169  1.55905649
   1.02843887  7.41378344  7.35941354
   3.08531660  9.69070645 10.23625923
   1.02843887 15.96602838  1.43842285
   3.08531660  1.13846151 16.15724992
   3.08531660  9.37374024 15.95685386
   1.02843887 16.28299459  7.15901748
   3.08531660  0.82149530 10.43665529
   1.02843887  3.09213531 12.90922862
   3.08531660 14.01235458  4.68644415
   1.02843887 11.64438026 13.48428054
   3.08531660  5.46010963  4.11139223
   1.02843887  7.77765187 13.05198442
   3.08531660  9.32683802  4.54368835
   1.02843887 16.32989682 13.34152473
   3.08531660  0.77459307  4.25414804
   3.08531660  5.73416102 10.51890046
   1.02843887 11.37032887  7.07677231
   1.02843887  7.73074965  1.63881891
   1.02843887  2.81808393  1.72106407
   3.08531660 14.28640596 15.87460870
 


--------------------------------------------------------------------------------------------------------


 k-point  1 :   0.0000 0.2500 0.2500  plane waves:   14605
 k-point  2 :   0.2000 0.2500 0.2500  plane waves:   14570
 k-point  3 :   0.4000 0.2500 0.2500  plane waves:   14631

 maximum and minimum number of plane-waves per node :     14631    14570

 maximum number of plane-waves:     14631
 maximum index in each direction: 
   IXMAX=    5   IYMAX=   23   IZMAX=   24
   IXMIN=   -6   IYMIN=  -24   IZMIN=  -25


 serial   3D FFT for wavefunctions
 parallel 3D FFT for charge:
    minimum data exchange during FFTs selected (reduces bandwidth)


 total amount of memory used by VASP MPI-rank0    46657. kBytes
=======================================================================

   base      :      30000. kBytes
   nonlr-proj:       3582. kBytes
   fftplans  :       1281. kBytes
   grid      :       5681. kBytes
   one-center:        356. kBytes
   wavefun   :       5757. kBytes
 
     INWAV:  cpu time    0.0000: real time    0.0001
 Broyden mixing: mesh for mixing (old mesh)
   NGX = 11   NGY = 49   NGZ = 49
  (NGX  = 24   NGY  =108   NGZ  =108)
  gives a total of  26411 points

 initial charge density was supplied:
 charge density of overlapping atoms calculated
 number of electron     176.0000000 magnetization 
 keeping initial charge density in first step


--------------------------------------------------------------------------------------------------------


 Maximum index for non-local projection operator         1390
 Maximum index for augmentation-charges          296 (set IRDMAX)


--------------------------------------------------------------------------------------------------------


 First call to EWALD:  gamma=   0.165
 Maximum number of real-space cells 6x 2x 2
 Maximum number of reciprocal cells 1x 4x 4

    FEWALD:  cpu time    0.0032: real time    0.0032


--------------------------------------- Iteration      1(   1)  ---------------------------------------


    POTLOK:  cpu time    0.0202: real time    0.0206
    SETDIJ:  cpu time    0.2045: real time    0.2080
     EDDAV:  cpu time    0.7561: real time    0.7565
       DOS:  cpu time    0.0004: real time    0.0004
    --------------------------------------------
      LOOP:  cpu time    0.9812: real time    0.9855

 eigenvalue-minimisations  :   672
 total energy-change (2. order) : 0.7204787E+03  (-0.4691181E+04)
 number of electron     176.0000000 magnetization 
 augmentation part      176.0000000 magnetization 

 Free energy of the ion-electron system (eV)
  ---------------------------------------------------
  alpha Z        PSCENC =        91.12746943
  Ewald energy   TEWEN  =     -4356.15199014
  -Hartree energ DENC   =     -2410.59421655
  -exchange      EXHF   =         0.00000000
  -V(xc)+E(xc)   XCENC  =      -711.76864935
  PAW double counting   =      6273.02716403    -5184.84839029
  entropy T*S    EENTRO =        -0.01591101
  eigenvalues    EBANDS =       192.09099469
  atomic energy  EATOM  =      6827.61226944
  Solvation  Ediel_sol  =         0.00000000
  ---------------------------------------------------
  free energy    TOTEN  =       720.47874024 eV

  energy without entropy =      720.49465125  energy(sigma->0) =      720.48669575


--------------------------------------------------------------------------------------------------------




--------------------------------------- Iteration      1(   2)  ---------------------------------------


     EDDAV:  cpu time    0.9911: real time    0.9951
       DOS:  cpu time    0.0004: real time    0.0004
    --------------------------------------------
      LOOP:  cpu time    0.9915: real time    0.9954

 eigenvalue-minimisations  :   910
 total energy-change (2. order) :-0.7926937E+03  (-0.7588011E+03)
 number of electron     176.0000000 magnetization 
 augmentation part      176.0000000 magnetization 

 Free energy of the ion-electron system (eV)
  ---------------------------------------------------
  alpha Z        PSCENC =        91.12746943
  Ewald energy   TEWEN  =     -4356.15199014
  -Hartree energ DENC   =     -2410.59421655
  -exchange      EXHF   =         0.00000000
  -V(xc)+E(xc)   XCENC  =      -711.76864935
  PAW double counting   =      6273.02716403    -5184.84839029
  entropy T*S    EENTRO =        -0.00026781
  eigenvalues    EBANDS =      -600.61837248
  atomic energy  EATOM  =      6827.61226944
  Solvation  Ediel_sol  =         0.00000000
  ---------------------------------------------------
  free energy    TOTEN  =       -72.21498373 eV

  energy without entropy =      -72.21471592  energy(sigma->0) =      -72.21484983


--------------------------------------------------------------------------------------------------------




--------------------------------------- Iteration      1(   3)  ---------------------------------------


     EDDAV:  cpu time    0.8634: real time    0.8684
       DOS:  cpu time    0.0002: real time    0.0002
    --------------------------------------------
      LOOP:  cpu time    0.8637: real time    0.8687

 eigenvalue-minimisations  :   798
 total energy-change (2. order) :-0.1057734E+03  (-0.1047951E+03)
 number of electron     176.0000000 magnetization 
 augmentation part      176.0000000 magnetization 

 Free energy of the ion-electron system (eV)
  ---------------------------------------------------
  alpha Z        PSCENC =        91.12746943
  Ewald energy   TEWEN  =     -4356.15199014
  -Hartree energ DENC   =     -2410.59421655
  -exchange      EXHF   =         0.00000000
  -V(xc)+E(xc)   XCENC  =      -711.76864935
  PAW double counting   =      6273.02716403    -5184.84839029
  entropy T*S    EENTRO =        -0.00000000
  eigenvalues    EBANDS =      -706.39207653
  atomic energy  EATOM  =      6827.61226944
  Solvation  Ediel_sol  =         0.00000000
  ---------------------------------------------------
  free energy    TOTEN  =      -177.98841997 eV

  energy without entropy =     -177.98841997  energy(sigma->0) =     -177.98841997


--------------------------------------------------------------------------------------------------------




--------------------------------------- Iteration      1(   4)  ---------------------------------------


     EDDAV:  cpu time    1.0761: real time    1.0802
       DOS:  cpu time    0.0003: real time    0.0003
    --------------------------------------------
      LOOP:  cpu time    1.0764: real time    1.0804

 eigenvalue-minimisations  :   994
 total energy-change (2. order) :-0.3775376E+01  (-0.3762824E+01)
 number of electron     176.0000000 magnetization 
 augmentation part      176.0000000 magnetization 

 Free energy of the ion-electron system (eV)
  ---------------------------------------------------
  alpha Z        PSCENC =        91.12746943
  Ewald energy   TEWEN  =     -4356.15199014
  -Hartree energ DENC   =     -2410.59421655
  -exchange      EXHF   =         0.00000000
  -V(xc)+E(xc)   XCENC  =      -711.76864935
  PAW double counting   =      6273.02716403    -5184.84839029
  entropy T*S    EENTRO =        -0.00000000
  eigenvalues    EBANDS =      -710.16745245
  atomic energy  EATOM  =      6827.61226944
  Solvation  Ediel_sol  =         0.00000000
  ---------------------------------------------------
  free energy    TOTEN  =      -181.76379589 eV

  energy without entropy =     -181.76379589  energy(sigma->0) =     -181.76379589


--------------------------------------------------------------------------------------------------------




--------------------------------------- Iteration      1(   5)  ---------------------------------------


     EDDAV:  cpu time    1.0028: real time    1.0073
       DOS:  cpu time    0.0002: real time    0.0002
    CHARGE:  cpu time    0.0466: real time    0.0466
    MIXING:  cpu time    0.0008: real time    0.0008
    --------------------------------------------
      LOOP:  cpu time    1.0503: real time    1.0550

 eigenvalue-minimisations  :   910
 total energy-change (2. order) :-0.7124153E-01  (-0.7110701E-01)
 number of electron     176.0001295 magnetization 
 augmentation part      -29.2504320 magnetization 

 Broyden mixing:
  rms(total) = 0.20298E+01    rms(broyden)= 0.20297E+01
  rms(prec ) = 0.23524E+01
  weight for this iteration     100.00

 Free energy of the ion-electron system (eV)
  ---------------------------------------------------
  alpha Z        PSCENC =        91.12746943
  Ewald energy   TEWEN  =     -4356.15199014
  -Hartree energ DENC   =     -2410.59421655
  -exchange      EXHF   =         0.00000000
  -V(xc)+E(xc)   XCENC  =      -711.76864935
  PAW double counting   =      6273.02716403    -5184.84839029
  entropy T*S    EENTRO =        -0.00000000
  eigenvalues    EBANDS =      -710.23869398
  atomic energy  EATOM  =      6827.61226944
  Solvation  Ediel_sol  =         0.00000000
  ---------------------------------------------------
  free energy    TOTEN  =      -181.83503742 eV

  energy without entropy =     -181.83503742  energy(sigma->0) =     -181.83503742


--------------------------------------------------------------------------------------------------------




--------------------------------------- Iteration      1(   6)  ---------------------------------------


    POTLOK:  cpu time    0.0127: real time    0.0129
    SETDIJ:  cpu time    0.2017: real time    0.2037
     EDDAV:  cpu time    0.7853: real time    0.7855
       DOS:  cpu time    0.0002: real time    0.0002
    CHARGE:  cpu time    0.0470: real time    0.0470
    MIXING:  cpu time    0.0009: real time    0.0009
    --------------------------------------------
      LOOP:  cpu time    1.0478: real time    1.0502

 eigenvalue-minimisations  :   784
 total energy-change (2. order) : 0.1436452E+02  (-0.3495708E+01)
 number of electron     176.0001225 magnetization 
 augmentation part      -28.8719719 magnetization 

 Broyden mixing:
  rms(total) = 0.14471E+01    rms(broyden)= 0.14469E+01
  rms(prec ) = 0.15161E+01
  weight for this iteration     100.00

 eigenvalues of (default mixing * dielectric matrix)
  average eigenvalue GAMMA=   1.1304
  1.1304

 Free energy of the ion-electron system (eV)
  ---------------------------------------------------
  alpha Z        PSCENC =        91.12746943
  Ewald energy   TEWEN  =     -4356.15199014
  -Hartree energ DENC   =     -2532.36350998
  -exchange      EXHF   =         0.00000000
  -V(xc)+E(xc)   XCENC  =      -702.90706325
  PAW double counting   =      7774.12285236    -6688.41001339
  entropy T*S    EENTRO =        -0.00000000
  eigenvalues    EBANDS =      -580.50053142
  atomic energy  EATOM  =      6827.61226944
  Solvation  Ediel_sol  =         0.00000000
  ---------------------------------------------------
  free energy    TOTEN  =      -167.47051695 eV

  energy without entropy =     -167.47051695  energy(sigma->0) =     -167.47051695


--------------------------------------------------------------------------------------------------------




--------------------------------------- Iteration      1(   7)  ---------------------------------------


    POTLOK:  cpu time    0.0125: real time    0.0126
    SETDIJ:  cpu time    0.2021: real time    0.2103
     EDDAV:  cpu time    0.9000: real time    0.9026
       DOS:  cpu time    0.0002: real time    0.0002
    CHARGE:  cpu time    0.0378: real time    0.0410
    MIXING:  cpu time    0.0007: real time    0.0007
    --------------------------------------------
      LOOP:  cpu time    1.1533: real time    1.1674

 eigenvalue-minimisations  :   882
 total energy-change (2. order) : 0.8968248E+00  (-0.7809176E+00)
 number of electron     176.0001181 magnetization 
 augmentation part      -29.0382139 magnetization 

 Broyden mixing:
  rms(total) = 0.92845E+00    rms(broyden)= 0.92841E+00
  rms(prec ) = 0.95622E+00
  weight for this iteration     100.00

 eigenvalues of (default mixing * dielectric matrix)
  average eigenvalue GAMMA=   1.4596
  0.9849  1.9342

 Free energy of the ion-electron system (eV)
  ---------------------------------------------------
  alpha Z        PSCENC =        91.12746943
  Ewald energy   TEWEN  =     -4356.15199014
  -Hartree energ DENC   =     -2574.04593236
  -exchange      EXHF   =         0.00000000
  -V(xc)+E(xc)   XCENC  =      -700.21584569
  PAW double counting   =      9538.28335698    -8452.99098044
  entropy T*S    EENTRO =        -0.00000000
  eigenvalues    EBANDS =      -540.19203941
  atomic energy  EATOM  =      6827.61226944
  Solvation  Ediel_sol  =         0.00000000
  ---------------------------------------------------
  free energy    TOTEN  =      -166.57369219 eV

  energy without entropy =     -166.57369219  energy(sigma->0) =     -166.57369219


--------------------------------------------------------------------------------------------------------




--------------------------------------- Iteration      1(   8)  ---------------------------------------


    POTLOK:  cpu time    0.0127: real time    0.0128
    SETDIJ:  cpu time    0.2044: real time    0.2044
     EDDAV:  cpu time    0.9665: real time    0.9737
       DOS:  cpu time    0.0003: real time    0.0003
    CHARGE:  cpu time    0.0473: real time    0.0473
    MIXING:  cpu time    0.0009: real time    0.0009
    --------------------------------------------
      LOOP:  cpu time    1.2321: real time    1.2393

 eigenvalue-minimisations  :   924
 total energy-change (2. order) : 0.3315109E+00  (-0.7689327E-01)
 number of electron     176.0001189 magnetization 
 augmentation part      -29.1436932 magnetization 

 Broyden mixing:
  rms(total) = 0.27972E+00    rms(broyden)= 0.27972E+00
  rms(prec ) = 0.29609E+00
  weight for this iteration     100.00

 eigenvalues of (default mixing * dielectric matrix)
  average eigenvalue GAMMA=   1.4906
  2.3806  1.0455  1.0455

 Free energy of the ion-electron system (eV)
  ---------------------------------------------------
  alpha Z        PSCENC =        91.12746943
  Ewald energy   TEWEN  =     -4356.15199014
  -Hartree energ DENC   =     -2581.56103503
  -exchange      EXHF   =         0.00000000
  -V(xc)+E(xc)   XCENC  =      -700.07586984
  PAW double counting   =     11036.54197683    -9950.80287026
  entropy T*S    EENTRO =        -0.00009833
  eigenvalues    EBANDS =      -532.93203341
  atomic energy  EATOM  =      6827.61226944
  Solvation  Ediel_sol  =         0.00000000
  ---------------------------------------------------
  free energy    TOTEN  =      -166.24218131 eV

  energy without entropy =     -166.24208298  energy(sigma->0) =     -166.24213215


--------------------------------------------------------------------------------------------------------




--------------------------------------- Iteration      1(   9)  ---------------------------------------


    POTLOK:  cpu time    0.0139: real time    0.0141
    SETDIJ:  cpu time    0.2040: real time    0.2041
     EDDAV:  cpu time    0.8715: real time    0.8745
       DOS:  cpu time    0.0004: real time    0.0004
    CHARGE:  cpu time    0.0473: real time    0.0473
    MIXING:  cpu time    0.0007: real time    0.0007
    --------------------------------------------
      LOOP:  cpu time    1.1379: real time    1.1411

 eigenvalue-minimisations  :   812
 total energy-change (2. order) : 0.4182492E-01  (-0.1856698E-01)
 number of electron     176.0001198 magnetization 
 augmentation part      -29.1376639 magnetization 

 Broyden mixing:
  rms(total) = 0.10854E+00    rms(broyden)= 0.10854E+00
  rms(prec ) = 0.11226E+00
  weight for this iteration     100.00

 eigenvalues of (default mixing * dielectric matrix)
  average eigenvalue GAMMA=   1.2631
  2.2559  0.9907  0.9907  0.8154

 Free energy of the ion-electron system (eV)
  ---------------------------------------------------
  alpha Z        PSCENC =        91.12746943
  Ewald energy   TEWEN  =     -4356.15199014
  -Hartree energ DENC   =     -2588.43216506
  -exchange      EXHF   =         0.00000000
  -V(xc)+E(xc)   XCENC  =      -699.73983448
  PAW double counting   =     11626.41937258   -10540.41044385
  entropy T*S    EENTRO =        -0.00155932
  eigenvalues    EBANDS =      -526.62347499
  atomic energy  EATOM  =      6827.61226944
  Solvation  Ediel_sol  =         0.00000000
  ---------------------------------------------------
  free energy    TOTEN  =      -166.20035639 eV

  energy without entropy =     -166.19879707  energy(sigma->0) =     -166.19957673


--------------------------------------------------------------------------------------------------------




--------------------------------------- Iteration      1(  10)  ---------------------------------------


    POTLOK:  cpu time    0.0131: real time    0.0133
    SETDIJ:  cpu time    0.2047: real time    0.2049
     EDDAV:  cpu time    0.8906: real time    0.8936
       DOS:  cpu time    0.0003: real time    0.0003
    CHARGE:  cpu time    0.0414: real time    0.0414
    MIXING:  cpu time    0.0008: real time    0.0008
    --------------------------------------------
      LOOP:  cpu time    1.1511: real time    1.1543

 eigenvalue-minimisations  :   854
 total energy-change (2. order) :-0.1506183E-02  (-0.2230185E-02)
 number of electron     176.0001198 magnetization 
 augmentation part      -29.1616569 magnetization 

 Broyden mixing:
  rms(total) = 0.72063E-01    rms(broyden)= 0.72062E-01
  rms(prec ) = 0.75749E-01
  weight for this iteration     100.00

 eigenvalues of (default mixing * dielectric matrix)
  average eigenvalue GAMMA=   1.3270
  2.0314  1.0305  1.0305  1.2713  1.2713

 Free energy of the ion-electron system (eV)
  ---------------------------------------------------
  alpha Z        PSCENC =        91.12746943
  Ewald energy   TEWEN  =     -4356.15199014
  -Hartree energ DENC   =     -2587.15451556
  -exchange      EXHF   =         0.00000000
  -V(xc)+E(xc)   XCENC  =      -699.83880547
  PAW double counting   =     11477.73206306   -10391.66753096
  entropy T*S    EENTRO =        -0.00102782
  eigenvalues    EBANDS =      -527.85979454
  atomic energy  EATOM  =      6827.61226944
  Solvation  Ediel_sol  =         0.00000000
  ---------------------------------------------------
  free energy    TOTEN  =      -166.20186257 eV

  energy without entropy =     -166.20083475  energy(sigma->0) =     -166.20134866


--------------------------------------------------------------------------------------------------------




--------------------------------------- Iteration      1(  11)  ---------------------------------------


    POTLOK:  cpu time    0.0125: real time    0.0126
    SETDIJ:  cpu time    0.2046: real time    0.2048
     EDDAV:  cpu time    0.9712: real time    0.9760
       DOS:  cpu time    0.0004: real time    0.0004
    CHARGE:  cpu time    0.0489: real time    0.0489
    MIXING:  cpu time    0.0012: real time    0.0011
    --------------------------------------------
      LOOP:  cpu time    1.2387: real time    1.2438

 eigenvalue-minimisations  :   882
 total energy-change (2. order) :-0.1229634E-02  (-0.2926980E-03)
 number of electron     176.0001198 magnetization 
 augmentation part      -29.1585742 magnetization 

 Broyden mixing:
  rms(total) = 0.27932E-01    rms(broyden)= 0.27931E-01
  rms(prec ) = 0.32349E-01
  weight for this iteration     100.00

 eigenvalues of (default mixing * dielectric matrix)
  average eigenvalue GAMMA=   1.4904
  2.4489  2.4489  1.0095  1.0095  1.0127  1.0127

 Free energy of the ion-electron system (eV)
  ---------------------------------------------------
  alpha Z        PSCENC =        91.12746943
  Ewald energy   TEWEN  =     -4356.15199014
  -Hartree energ DENC   =     -2587.58786093
  -exchange      EXHF   =         0.00000000
  -V(xc)+E(xc)   XCENC  =      -699.87940136
  PAW double counting   =     11346.46675863   -10260.32306105
  entropy T*S    EENTRO =        -0.00121146
  eigenvalues    EBANDS =      -527.46606476
  atomic energy  EATOM  =      6827.61226944
  Solvation  Ediel_sol  =         0.00000000
  ---------------------------------------------------
  free energy    TOTEN  =      -166.20309221 eV

  energy without entropy =     -166.20188075  energy(sigma->0) =     -166.20248648


--------------------------------------------------------------------------------------------------------




--------------------------------------- Iteration      1(  12)  ---------------------------------------


    POTLOK:  cpu time    0.0138: real time    0.0139
    SETDIJ:  cpu time    0.2037: real time    0.2038
     EDDAV:  cpu time    0.6675: real time    0.6706
       DOS:  cpu time    0.0003: real time    0.0003
    CHARGE:  cpu time    0.0481: real time    0.0481
    MIXING:  cpu time    0.0010: real time    0.0010
    --------------------------------------------
      LOOP:  cpu time    0.9344: real time    0.9376

 eigenvalue-minimisations  :   756
 total energy-change (2. order) :-0.2861265E-03  (-0.3568218E-03)
 number of electron     176.0001199 magnetization 
 augmentation part      -29.1601419 magnetization 

 Broyden mixing:
  rms(total) = 0.11172E-01    rms(broyden)= 0.11172E-01
  rms(prec ) = 0.12472E-01
  weight for this iteration     100.00

 eigenvalues of (default mixing * dielectric matrix)
  average eigenvalue GAMMA=   1.4271
  2.5313  2.5313  0.9006  1.0425  1.0425  0.9706  0.9706

 Free energy of the ion-electron system (eV)
  ---------------------------------------------------
  alpha Z        PSCENC =        91.12746943
  Ewald energy   TEWEN  =     -4356.15199014
  -Hartree energ DENC   =     -2587.88809948
  -exchange      EXHF   =         0.00000000
  -V(xc)+E(xc)   XCENC  =      -699.92830841
  PAW double counting   =     11236.35895956   -10150.11364249
  entropy T*S    EENTRO =        -0.00130168
  eigenvalues    EBANDS =      -527.21873456
  atomic energy  EATOM  =      6827.61226944
  Solvation  Ediel_sol  =         0.00000000
  ---------------------------------------------------
  free energy    TOTEN  =      -166.20337833 eV

  energy without entropy =     -166.20207665  energy(sigma->0) =     -166.20272749


--------------------------------------------------------------------------------------------------------




--------------------------------------- Iteration      1(  13)  ---------------------------------------


    POTLOK:  cpu time    0.0142: real time    0.0145
    SETDIJ:  cpu time    0.2037: real time    0.2037
     EDDAV:  cpu time    0.8945: real time    0.8994
       DOS:  cpu time    0.0002: real time    0.0002
    CHARGE:  cpu time    0.0372: real time    0.0372
    MIXING:  cpu time    0.0009: real time    0.0009
    --------------------------------------------
      LOOP:  cpu time    1.1508: real time    1.1561

 eigenvalue-minimisations  :   896
 total energy-change (2. order) :-0.2062859E-04  (-0.1032799E-03)
 number of electron     176.0001199 magnetization 
 augmentation part      -29.1606368 magnetization 

 Broyden mixing:
  rms(total) = 0.79141E-02    rms(broyden)= 0.79137E-02
  rms(prec ) = 0.83668E-02
  weight for this iteration     100.00

 eigenvalues of (default mixing * dielectric matrix)
  average eigenvalue GAMMA=   1.3748
  2.5011  2.5011  1.1934  1.1934  1.1134  0.8870  0.8870  0.7219

 Free energy of the ion-electron system (eV)
  ---------------------------------------------------
  alpha Z        PSCENC =        91.12746943
  Ewald energy   TEWEN  =     -4356.15199014
  -Hartree energ DENC   =     -2588.16855698
  -exchange      EXHF   =         0.00000000
  -V(xc)+E(xc)   XCENC  =      -699.92295078
  PAW double counting   =     11243.98986252   -10157.73956005
  entropy T*S    EENTRO =        -0.00141059
  eigenvalues    EBANDS =      -526.94853182
  atomic energy  EATOM  =      6827.61226944
  Solvation  Ediel_sol  =         0.00000000
  ---------------------------------------------------
  free energy    TOTEN  =      -166.20339896 eV

  energy without entropy =     -166.20198838  energy(sigma->0) =     -166.20269367


--------------------------------------------------------------------------------------------------------




--------------------------------------- Iteration      1(  14)  ---------------------------------------


    POTLOK:  cpu time    0.0119: real time    0.0121
    SETDIJ:  cpu time    0.2042: real time    0.2084
     EDDAV:  cpu time    0.6457: real time    0.6460
       DOS:  cpu time    0.0003: real time    0.0003
    --------------------------------------------
      LOOP:  cpu time    0.8620: real time    0.8666

 eigenvalue-minimisations  :   462
 total energy-change (2. order) :-0.1655573E-04  (-0.5212546E-05)
 number of electron     176.0001199 magnetization 
 augmentation part      -29.1606368 magnetization 

 Free energy of the ion-electron system (eV)
  ---------------------------------------------------
  alpha Z        PSCENC =        91.12746943
  Ewald energy   TEWEN  =     -4356.15199014
  -Hartree energ DENC   =     -2588.25841461
  -exchange      EXHF   =         0.00000000
  -V(xc)+E(xc)   XCENC  =      -699.91891346
  PAW double counting   =     11244.58036019   -10158.34102883
  entropy T*S    EENTRO =        -0.00143647
  eigenvalues    EBANDS =      -526.85173105
  atomic energy  EATOM  =      6827.61226944
  Solvation  Ediel_sol  =         0.00000000
  ---------------------------------------------------
  free energy    TOTEN  =      -166.20341552 eV

  energy without entropy =     -166.20197904  energy(sigma->0) =     -166.20269728


--------------------------------------------------------------------------------------------------------




 average (electrostatic) potential at core
  the test charge radii are     0.9748  1.4024  0.9698
  (the norm of the test charge is              1.0000)
       1 -30.0236       2 -30.0236       3 -30.0236       4 -29.7993       5 -29.7993
       6 -29.7993       7 -29.7993       8 -29.8271       9 -29.8271      10 -29.8271
      11 -29.8271      12 -29.7787      13 -29.7787      14 -29.7787      15 -29.7787
      16 -30.0236      17 -65.2149      18 -65.2149      19 -65.2149      20 -65.2149
      21 -65.2891      22 -65.2891      23 -65.2891      24 -65.2891      25 -88.6208
      26 -88.6208      27 -88.6208      28 -88.6208      29 -88.4506      30 -88.4506
      31 -88.4506      32 -88.6390      33 -88.6390      34 -88.6390      35 -88.6390
      36 -88.9203      37 -88.9203      38 -88.9203      39 -88.9203      40 -88.7268
      41 -88.7268      42 -88.4506      43 -88.7268      44 -88.7268
 
 
 
 E-fermi :   1.7148     XC(G=0):  -7.6151     alpha+bet : -7.4870


 k-point     1 :       0.0000    0.2500    0.2500
  band No.  band energies     occupation 
      1     -11.4826      2.00000
      2     -11.4746      2.00000
      3     -11.3003      2.00000
      4     -11.2895      2.00000
      5     -10.7468      2.00000
      6     -10.7274      2.00000
      7     -10.5864      2.00000
      8     -10.5560      2.00000
      9      -9.7765      2.00000
     10      -9.7673      2.00000
     11      -9.7199      2.00000
     12      -9.6938      2.00000
     13      -9.5700      2.00000
     14      -9.5470      2.00000
     15      -9.5206      2.00000
     16      -9.5168      2.00000
     17      -9.2412      2.00000
     18      -9.2388      2.00000
     19      -9.1491      2.00000
     20      -9.1489      2.00000
     21      -7.3125      2.00000
     22      -7.2855      2.00000
     23      -7.1988      2.00000
     24      -7.1750      2.00000
     25      -6.7343      2.00000
     26      -6.6984      2.00000
     27      -6.4050      2.00000
     28      -6.3740      2.00000
     29      -2.4137      2.00000
     30      -2.4029      2.00000
     31      -1.5502      2.00000
     32      -1.5117      2.00000
     33      -1.3101      2.00000
     34      -1.2779      2.00000
     35      -0.9932      2.00000
     36      -0.9884      2.00000
     37      -0.8884      2.00000
     38      -0.8734      2.00000
     39      -0.8685      2.00000
     40      -0.8101      2.00000
     41      -0.7648      2.00000
     42      -0.7280      2.00000
     43      -0.7023      2.00000
     44      -0.6550      2.00000
     45      -0.5554      2.00000
     46      -0.5185      2.00000
     47      -0.3937      2.00000
     48      -0.3343      2.00000
     49      -0.3060      2.00000
     50      -0.2757      2.00000
     51      -0.2623      2.00000
     52      -0.2045      2.00000
     53      -0.1567      2.00000
     54      -0.1345      2.00000
     55      -0.1120      2.00000
     56      -0.0191      2.00000
     57       0.0404      2.00000
     58       0.1371      2.00000
     59       0.3288      2.00000
     60       0.3787      2.00000
     61       0.4427      2.00000
     62       0.4885      2.00000
     63       0.5678      2.00000
     64       0.5841      2.00000
     65       0.6367      2.00000
     66       0.6574      2.00000
     67       0.6949      2.00000
     68       0.7336      2.00000
     69       0.7448      2.00000
     70       0.7628      2.00000
     71       0.7808      2.00000
     72       0.7900      2.00000
     73       0.7997      2.00000
     74       0.8673      2.00000
     75       0.9320      2.00000
     76       0.9459      2.00000
     77       0.9485      2.00000
     78       0.9604      2.00000
     79       0.9608      2.00000
     80       1.1700      2.00000
     81       1.2850      2.00000
     82       1.3639      2.00000
     83       1.3765      2.00000
     84       1.3784      2.00000
     85       1.4309      2.00000
     86       1.5032      2.00000
     87       1.5695      1.99996
     88       1.5716      1.99995
     89       1.7920      0.02909
     90       1.8071      0.00906
     91       1.8967      0.00000
     92       1.9976      0.00000
     93       3.4024      0.00000
     94       3.4557      0.00000
     95       3.4983      0.00000
     96       3.6322      0.00000
     97       3.7323      0.00000
     98       3.7971      0.00000
     99       3.8643      0.00000
    100       3.9724      0.00000
    101       4.1289      0.00000
    102       4.2522      0.00000
    103       4.3535      0.00000
    104       4.5015      0.00000
    105       4.5564      0.00000
    106       4.7109      0.00000
    107       4.8568      0.00000
    108       4.9360      0.00000
    109       4.9407      0.00000
    110       4.9575      0.00000
    111       5.0073      0.00000
    112       5.0397      0.00000

 k-point     2 :       0.2000    0.2500    0.2500
  band No.  band energies     occupation 
      1     -11.2279      2.00000
      2     -11.2203      2.00000
      3     -11.0518      2.00000
      4     -11.0417      2.00000
      5     -10.4980      2.00000
      6     -10.4794      2.00000
      7     -10.3522      2.00000
      8     -10.3230      2.00000
      9      -9.6868      2.00000
     10      -9.6795      2.00000
     11      -9.6162      2.00000
     12      -9.5930      2.00000
     13      -9.4760      2.00000
     14      -9.4583      2.00000
     15      -9.4502      2.00000
     16      -9.4472      2.00000
     17      -9.2310      2.00000
     18      -9.2287      2.00000
     19      -9.1650      2.00000
     20      -9.1642      2.00000
     21      -7.5714      2.00000
     22      -7.5567      2.00000
     23      -7.4780      2.00000
     24      -7.4657      2.00000
     25      -7.0375      2.00000
     26      -7.0188      2.00000
     27      -6.7132      2.00000
     28      -6.6985      2.00000
     29      -2.2071      2.00000
     30      -2.2033      2.00000
     31      -1.6480      2.00000
     32      -1.6308      2.00000
     33      -1.6239      2.00000
     34      -1.5811      2.00000
     35      -1.5651      2.00000
     36      -1.4964      2.00000
     37      -1.4780      2.00000
     38      -1.4315      2.00000
     39      -1.3362      2.00000
     40      -1.3187      2.00000
     41      -1.0574      2.00000
     42      -1.0457      2.00000
     43      -0.9061      2.00000
     44      -0.8654      2.00000
     45      -0.8151      2.00000
     46      -0.7784      2.00000
     47      -0.6667      2.00000
     48      -0.6377      2.00000
     49      -0.5852      2.00000
     50      -0.5122      2.00000
     51      -0.4400      2.00000
     52      -0.3947      2.00000
     53      -0.3207      2.00000
     54      -0.2224      2.00000
     55      -0.1765      2.00000
     56      -0.1165      2.00000
     57      -0.0021      2.00000
     58       0.0504      2.00000
     59       0.0851      2.00000
     60       0.1647      2.00000
     61       0.2406      2.00000
     62       0.3101      2.00000
     63       0.3613      2.00000
     64       0.4107      2.00000
     65       0.4650      2.00000
     66       0.5093      2.00000
     67       0.5530      2.00000
     68       0.5750      2.00000
     69       0.6057      2.00000
     70       0.6386      2.00000
     71       0.7079      2.00000
     72       0.7665      2.00000
     73       0.7885      2.00000
     74       0.8290      2.00000
     75       0.8565      2.00000
     76       0.8747      2.00000
     77       0.9434      2.00000
     78       1.0005      2.00000
     79       1.0814      2.00000
     80       1.1035      2.00000
     81       1.2988      2.00000
     82       1.3271      2.00000
     83       1.4210      2.00000
     84       1.4438      2.00000
     85       1.5189      2.00000
     86       1.5325      2.00000
     87       1.5786      1.99988
     88       1.6318      1.98108
     89       1.9814      0.00000
     90       1.9938      0.00000
     91       2.1025      0.00000
     92       2.1848      0.00000
     93       3.7908      0.00000
     94       3.9503      0.00000
     95       4.0435      0.00000
     96       4.0822      0.00000
     97       4.1980      0.00000
     98       4.2608      0.00000
     99       4.4334      0.00000
    100       4.4506      0.00000
    101       4.5457      0.00000
    102       4.5979      0.00000
    103       4.7203      0.00000
    104       4.7414      0.00000
    105       4.8213      0.00000
    106       4.8409      0.00000
    107       4.8961      0.00000
    108       4.9795      0.00000
    109       5.0271      0.00000
    110       5.0741      0.00000
    111       5.1135      0.00000
    112       5.1671      0.00000

 k-point     3 :       0.4000    0.2500    0.2500
  band No.  band energies     occupation 
      1     -10.5539      2.00000
      2     -10.5485      2.00000
      3     -10.4148      2.00000
      4     -10.4079      2.00000
      5      -9.8690      2.00000
      6      -9.8541      2.00000
      7      -9.8426      2.00000
      8      -9.8269      2.00000
      9      -9.6663      2.00000
     10      -9.6643      2.00000
     11      -9.5809      2.00000
     12      -9.5805      2.00000
     13      -9.3779      2.00000
     14      -9.3722      2.00000
     15      -9.3499      2.00000
     16      -9.3423      2.00000
     17      -9.3055      2.00000
     18      -9.3026      2.00000
     19      -9.2943      2.00000
     20      -9.2936      2.00000
     21      -8.0000      2.00000
     22      -7.9991      2.00000
     23      -7.9947      2.00000
     24      -7.9938      2.00000
     25      -7.6745      2.00000
     26      -7.6734      2.00000
     27      -7.4561      2.00000
     28      -7.4551      2.00000
     29      -2.3018      2.00000
     30      -2.2572      2.00000
     31      -2.1781      2.00000
     32      -2.1435      2.00000
     33      -2.0831      2.00000
     34      -2.0616      2.00000
     35      -2.0089      2.00000
     36      -1.9788      2.00000
     37      -1.7238      2.00000
     38      -1.7036      2.00000
     39      -1.5463      2.00000
     40      -1.5314      2.00000
     41      -1.5216      2.00000
     42      -1.4846      2.00000
     43      -1.3811      2.00000
     44      -1.3179      2.00000
     45      -1.0976      2.00000
     46      -1.0443      2.00000
     47      -1.0231      2.00000
     48      -1.0131      2.00000
     49      -0.7404      2.00000
     50      -0.7208      2.00000
     51      -0.5076      2.00000
     52      -0.4860      2.00000
     53      -0.1656      2.00000
     54      -0.1496      2.00000
     55      -0.1209      2.00000
     56      -0.1087      2.00000
     57       0.0011      2.00000
     58       0.0152      2.00000
     59       0.1162      2.00000
     60       0.1653      2.00000
     61       0.1840      2.00000
     62       0.2310      2.00000
     63       0.3047      2.00000
     64       0.3140      2.00000
     65       0.3625      2.00000
     66       0.3746      2.00000
     67       0.4202      2.00000
     68       0.4408      2.00000
     69       0.4518      2.00000
     70       0.4944      2.00000
     71       0.5153      2.00000
     72       0.5333      2.00000
     73       0.6221      2.00000
     74       0.6597      2.00000
     75       0.6810      2.00000
     76       0.7058      2.00000
     77       0.7724      2.00000
     78       0.7970      2.00000
     79       0.8338      2.00000
     80       0.8461      2.00000
     81       0.9384      2.00000
     82       0.9912      2.00000
     83       1.0169      2.00000
     84       1.1095      2.00000
     85       1.3744      2.00000
     86       1.3898      2.00000
     87       1.4118      2.00000
     88       1.4814      2.00000
     89       2.5685      0.00000
     90       2.6361      0.00000
     91       2.7784      0.00000
     92       2.8129      0.00000
     93       3.6908      0.00000
     94       3.8519      0.00000
     95       3.8837      0.00000
     96       4.0317      0.00000
     97       4.1642      0.00000
     98       4.2200      0.00000
     99       4.3682      0.00000
    100       4.4436      0.00000
    101       4.6309      0.00000
    102       4.6623      0.00000
    103       4.7904      0.00000
    104       4.8482      0.00000
    105       4.9428      0.00000
    106       4.9873      0.00000
    107       5.0695      0.00000
    108       5.0962      0.00000
    109       5.1173      0.00000
    110       5.2169      0.00000
    111       5.2311      0.00000
    112       5.3069      0.00000


--------------------------------------------------------------------------------------------------------


 soft charge-density along one line, spin component           1
         0         1         2         3         4         5         6         7         8         9
 total charge-density along one line
 
 pseudopotential strength for first ion, spin component:           1
  1.148   5.248   0.011  -0.000   0.000
  5.248  22.824   0.039  -0.001   0.000
  0.011   0.039  -0.493  -0.000   0.000
 -0.000  -0.001  -0.000  -0.491  -0.000
  0.000   0.000   0.000  -0.000  -0.492
 total augmentation occupancy for first ion, spin component:           1
  0.420  -0.005  -0.023   0.003   0.000
 -0.005   0.000   0.001  -0.000   0.000
 -0.023   0.001   0.020  -0.000   0.000
  0.003  -0.000  -0.000   0.025   0.000
  0.000   0.000   0.000   0.000   0.024


------------------------ aborting loop because EDIFF is reached ----------------------------------------


 


 total charge     
 
# of ion       s       p       d       tot
------------------------------------------
    1        0.044   0.050   0.000   0.094
    2        0.044   0.050   0.000   0.094
    3        0.044   0.050   0.000   0.094
    4        0.047   0.053   0.000   0.100
    5        0.047   0.053   0.000   0.100
    6        0.047   0.053   0.000   0.100
    7        0.047   0.053   0.000   0.100
    8        0.038   0.046   0.000   0.084
    9        0.038   0.046   0.000   0.084
   10        0.038   0.046   0.000   0.084
   11        0.038   0.046   0.000   0.084
   12        0.039   0.045   0.000   0.084
   13        0.039   0.045   0.000   0.084
   14        0.039   0.045   0.000   0.084
   15        0.039   0.045   0.000   0.084
   16        0.044   0.050   0.000   0.094
   17        1.832   1.429   0.178   3.439
   18        1.832   1.429   0.178   3.439
   19        1.832   1.429   0.178   3.439
   20        1.832   1.429   0.178   3.439
   21        1.833   1.418   0.175   3.426
   22        1.833   1.418   0.175   3.426
   23        1.833   1.418   0.175   3.426
   24        1.833   1.418   0.175   3.426
   25        1.344   2.326   0.000   3.671
   26        1.344   2.326   0.000   3.671
   27        1.344   2.326   0.000   3.670
   28        1.344   2.326   0.000   3.670
   29        1.340   2.318   0.000   3.658
   30        1.340   2.317   0.000   3.657
   31        1.340   2.317   0.000   3.657
   32        1.344   2.322   0.000   3.665
   33        1.344   2.322   0.000   3.665
   34        1.344   2.322   0.000   3.666
   35        1.344   2.322   0.000   3.666
   36        1.347   2.342   0.000   3.689
   37        1.347   2.342   0.000   3.689
   38        1.347   2.342   0.000   3.689
   39        1.347   2.342   0.000   3.689
   40        1.347   2.322   0.000   3.669
   41        1.347   2.322   0.000   3.669
   42        1.340   2.318   0.000   3.658
   43        1.347   2.322   0.000   3.669
   44        1.347   2.322   0.000   3.669
--------------------------------------------------
tot         42.219  58.681   1.414 102.314
 
    CHARGE:  cpu time    0.0430: real time    0.0430
    FORLOC:  cpu time    0.0039: real time    0.0039
    FORNL :  cpu time    0.1882: real time    0.1882
    STRESS:  cpu time    0.5631: real time    0.5638
    FORCOR:  cpu time    0.0140: real time    0.0140
    FORHAR:  cpu time    0.0058: real time    0.0058
    MIXING:  cpu time    0.0009: real time    0.0009
    OFIELD:  cpu time    0.0000: real time    0.0000

  FORCE on cell =-STRESS in cart. coord.  units (eV):
  Direction    XX          YY          ZZ          XY          YZ          ZX
  --------------------------------------------------------------------------------------
  Alpha Z    91.12747    91.12747    91.12747
  Ewald    -252.15366 -2448.70351 -1655.31614    -0.00000     0.00000    -0.00000
  Hartree  1906.16933    15.18395   667.25865    -0.00000    -0.00000    -0.00000
  E(xc)    -622.68838  -621.96456  -622.88668     0.00000     0.00000    -0.00000
  Local   -4581.67454  -474.67284 -1921.12460     0.00000     0.00000     0.00000
  n-local  2055.20273  2043.88812  2052.41007     0.23062     0.03480    -0.58887
  augment  -563.53192  -560.38510  -562.53163    -0.00000     0.00000    -0.00000
  Kinetic  1949.15647  1918.32670  1919.05303     0.46892     0.00409    -0.80516
  Fock        0.00000     0.00000     0.00000     0.00000     0.00000     0.00000
  -------------------------------------------------------------------------------------
  Total     -18.39250   -37.19978   -32.00984    -0.00000     0.00000     0.00000
  in kB     -23.80109   -48.13893   -41.42281    -0.00000     0.00000     0.00000
  external pressure =      -37.79 kB  Pullay stress =        0.00 kB


 VOLUME and BASIS-vectors are now :
 -----------------------------------------------------------------------------
  energy-cutoff  :      300.00
  volume of cell :     1238.10
      direct lattice vectors                 reciprocal lattice vectors
     4.113755460  0.000000000  0.000000000     0.243086885  0.000000000  0.000000000
     0.000000000 17.104489890  0.000000000     0.000000000  0.058464181  0.000000000
     0.000000000  0.000000000 17.595672770     0.000000000  0.000000000  0.056832155

  length of vectors
     4.113755460 17.104489890 17.595672770     0.243086885  0.058464181  0.056832155


 FORCES acting on ions
    electron-ion (+dipol)            ewald-force                    non-local-force                 convergence-correction
 -----------------------------------------------------------------------------------------------
   -.175E-11 -.268E+02 0.537E+00   -.195E-14 0.252E+02 -.484E+00   0.000E+00 0.251E+00 -.360E-01   0.300E-15 0.278E-02 0.146E-04
   -.106E-11 -.268E+02 -.537E+00   0.431E-15 0.252E+02 0.484E+00   0.000E+00 0.251E+00 0.360E-01   0.340E-15 0.278E-02 -.146E-04
   -.176E-11 0.268E+02 -.537E+00   0.127E-14 -.252E+02 0.484E+00   0.000E+00 -.251E+00 0.360E-01   0.605E-15 -.278E-02 -.146E-04
   -.243E-11 0.159E+02 -.764E+01   -.158E-15 -.141E+02 0.766E+01   -.108E-18 -.345E+00 0.268E-01   0.987E-15 -.141E-02 0.142E-04
   -.243E-11 -.159E+02 0.764E+01   0.205E-15 0.141E+02 -.766E+01   0.108E-18 0.345E+00 -.268E-01   0.660E-15 0.141E-02 -.142E-04
   -.300E-11 0.159E+02 0.764E+01   -.222E-15 -.141E+02 -.766E+01   -.108E-18 -.345E+00 -.268E-01   0.864E-15 -.141E-02 -.142E-04
   -.301E-11 -.159E+02 -.764E+01   -.640E-15 0.141E+02 0.766E+01   0.108E-18 0.345E+00 0.268E-01   0.593E-15 0.141E-02 0.142E-04
   -.743E-12 -.339E+01 -.189E+02   0.947E-15 0.345E+01 0.176E+02   0.000E+00 -.223E-01 0.213E+00   -.390E-15 0.340E-03 0.804E-03
[...]
    106       6.1297      0.00000
    107       6.1393      0.00000
    108       6.1755      0.00000
    109       6.7398      0.00000
    110       6.7683      0.00000
    111       6.9126      0.00000
    112       6.9938      0.00000


--------------------------------------------------------------------------------------------------------


 soft charge-density along one line, spin component           1
         0         1         2         3         4         5         6         7         8         9
 total charge-density along one line
 
 pseudopotential strength for first ion, spin component:           1
  1.168   5.257   0.002   0.001   0.000
  5.257  22.592   0.006   0.003   0.000
  0.002   0.006  -0.390  -0.001   0.000
  0.001   0.003  -0.001  -0.382  -0.000
  0.000   0.000   0.000  -0.000  -0.386
 total augmentation occupancy for first ion, spin component:           1
  0.747  -0.015  -0.065  -0.026   0.000
 -0.015   0.000   0.002   0.001  -0.000
 -0.065   0.002   0.044  -0.006  -0.000
 -0.026   0.001  -0.006   0.073   0.000
  0.000  -0.000  -0.000   0.000   0.062


------------------------ aborting loop because EDIFF is reached ----------------------------------------


 


 total charge     
 
# of ion       s       p       d       tot
------------------------------------------
    1        0.075   0.129   0.000   0.204
    2        0.075   0.129   0.000   0.204
    3        0.075   0.129   0.000   0.204
    4        0.080   0.140   0.000   0.220
    5        0.080   0.140   0.000   0.220
    6        0.080   0.140   0.000   0.220
    7        0.080   0.140   0.000   0.220
    8        0.062   0.103   0.000   0.165
    9        0.062   0.103   0.000   0.165
   10        0.062   0.103   0.000   0.165
   11        0.062   0.103   0.000   0.165
   12        0.067   0.117   0.000   0.185
   13        0.067   0.117   0.000   0.185
   14        0.067   0.117   0.000   0.185
   15        0.067   0.117   0.000   0.185
   16        0.075   0.129   0.000   0.204
   17        1.843   1.431   0.186   3.461
   18        1.843   1.431   0.186   3.461
   19        1.843   1.431   0.186   3.461
   20        1.843   1.431   0.186   3.461
   21        1.846   1.428   0.185   3.460
   22        1.846   1.428   0.185   3.460
   23        1.846   1.428   0.185   3.460
   24        1.846   1.428   0.185   3.460
   25        1.340   2.388   0.000   3.729
   26        1.340   2.388   0.000   3.729
   27        1.340   2.388   0.000   3.729
   28        1.340   2.388   0.000   3.729
   29        1.325   2.424   0.000   3.749
   30        1.325   2.424   0.000   3.749
   31        1.325   2.424   0.000   3.749
   32        1.331   2.392   0.000   3.722
   33        1.331   2.392   0.000   3.722
   34        1.331   2.392   0.000   3.723
   35        1.331   2.392   0.000   3.723
   36        1.345   2.340   0.000   3.685
   37        1.345   2.340   0.000   3.685
   38        1.345   2.340   0.000   3.685
   39        1.345   2.340   0.000   3.685
   40        1.341   2.373   0.000   3.714
   41        1.341   2.373   0.000   3.714
   42        1.325   2.424   0.000   3.749
   43        1.341   2.373   0.000   3.714
   44        1.341   2.373   0.000   3.714
--------------------------------------------------
tot         42.626  61.064   1.486 105.176
 
    CHARGE:  cpu time    0.0475: real time    0.0475
    FORLOC:  cpu time    0.0040: real time    0.0040
    FORNL :  cpu time    0.2043: real time    0.2043
    STRESS:  cpu time    0.6300: real time    0.6301
    FORCOR:  cpu time    0.0152: real time    0.0152
    FORHAR:  cpu time    0.0068: real time    0.0068
    MIXING:  cpu time    0.0007: real time    0.0007
    OFIELD:  cpu time    0.0000: real time    0.0000

  FORCE on cell =-STRESS in cart. coord.  units (eV):
  Direction    XX          YY          ZZ          XY          YZ          ZX
  --------------------------------------------------------------------------------------
  Alpha Z   113.04762   113.04762   113.04762
  Ewald   -1195.58736 -2172.25955 -2013.02944     0.00000     0.00000     0.00000
  Hartree  1041.33608   309.76911   373.51733    -0.00000    -0.00000    -0.00000
  E(xc)    -633.68681  -633.16479  -634.54228     0.00000     0.00000    -0.00000
  Local   -2806.33215 -1092.72987 -1313.19266     0.00000     0.00000    -0.00000
  n-local  2071.66435  2059.78813  2074.91953    -0.06194    -0.00088    -0.00054
  augment  -562.25279  -560.53996  -561.81459     0.00000    -0.00000     0.00000
  Kinetic  1971.47282  1975.71527  1960.44916     0.15425    -0.00067    -0.11864
  Fock        0.00000     0.00000     0.00000     0.00000     0.00000     0.00000
  -------------------------------------------------------------------------------------
  Total      -0.33823    -0.37405    -0.64531    -0.00000     0.00000     0.00000
  in kB      -0.54298    -0.60047    -1.03595    -0.00000     0.00000     0.00000
  external pressure =       -0.73 kB  Pullay stress =        0.00 kB


 VOLUME and BASIS-vectors are now :
 -----------------------------------------------------------------------------
  energy-cutoff  :      300.00
  volume of cell :      998.03
      direct lattice vectors                 reciprocal lattice vectors
     3.941255684 -0.000000000  0.000000000     0.253726244  0.000000000  0.000000000
    -0.000000000 15.821604216  0.000000000     0.000000000  0.063204716  0.000000000
     0.000000000  0.000000000 16.005057380     0.000000000  0.000000000  0.062480251

  length of vectors
     3.941255684 15.821604216 16.005057380     0.253726244  0.063204716  0.062480251


 FORCES acting on ions
    electron-ion (+dipol)            ewald-force                    non-local-force                 convergence-correction
 -----------------------------------------------------------------------------------------------
   -.116E-11 -.233E+02 0.122E+00   -.122E-14 0.226E+02 -.425E+00   -.124E-19 0.753E+00 0.303E+00   0.269E-15 0.922E-03 -.138E-03
   -.155E-11 -.233E+02 -.122E+00   -.255E-14 0.226E+02 0.425E+00   -.139E-20 0.753E+00 -.303E+00   0.530E-15 0.922E-03 0.138E-03
   -.116E-11 0.233E+02 -.122E+00   0.490E-15 -.226E+02 0.425E+00   0.124E-19 -.753E+00 -.303E+00   0.253E-15 -.922E-03 0.138E-03
   -.104E-11 0.107E+02 -.412E+01   -.690E-15 -.993E+01 0.451E+01   0.218E-20 -.732E+00 -.392E+00   -.326E-16 -.340E-03 0.255E-03
   -.104E-11 -.107E+02 0.412E+01   0.821E-15 0.993E+01 -.451E+01   -.218E-20 0.732E+00 0.392E+00   0.177E-16 0.340E-03 -.255E-03
   -.719E-12 0.107E+02 0.412E+01   -.252E-14 -.993E+01 -.451E+01   0.218E-20 -.732E+00 0.392E+00   0.548E-16 -.340E-03 -.255E-03
   -.716E-12 -.107E+02 -.412E+01   0.111E-14 0.993E+01 0.451E+01   -.218E-20 0.732E+00 -.392E+00   0.176E-15 0.340E-03 0.255E-03
   -.167E-11 0.185E+01 -.136E+02   0.865E-15 -.135E+01 0.131E+02   -.257E-19 -.459E+00 0.581E+00   -.119E-15 -.255E-03 0.553E-03
   -.167E-11 -.185E+01 0.136E+02   -.118E-14 0.135E+01 -.131E+02   0.257E-19 0.459E+00 -.581E+00   -.314E-15 0.255E-03 -.553E-03
   -.122E-11 0.185E+01 0.136E+02   0.100E-14 -.135E+01 -.131E+02   -.257E-19 -.459E+00 -.581E+00   -.291E-15 -.255E-03 -.553E-03
   -.121E-11 -.185E+01 -.136E+02   -.272E-15 0.135E+01 0.131E+02   0.257E-19 0.459E+00 0.581E+00   0.228E-16 0.255E-03 0.553E-03
   -.130E-11 0.382E+00 0.135E+02   0.742E-15 -.811E+00 -.130E+02   -.129E-20 0.432E+00 -.522E+00   -.258E-15 -.360E-04 -.472E-03
   -.130E-11 -.382E+00 -.135E+02   0.113E-14 0.811E+00 0.130E+02   0.129E-20 -.432E+00 0.522E+00   -.281E-16 0.360E-04 0.472E-03
   -.156E-11 0.382E+00 -.135E+02   0.259E-14 -.811E+00 0.130E+02   -.129E-20 0.432E+00 0.522E+00   -.841E-16 -.360E-04 0.472E-03
   -.157E-11 -.382E+00 0.135E+02   -.171E-14 0.811E+00 -.130E+02   0.129E-20 -.432E+00 -.522E+00   -.277E-15 0.360E-04 -.472E-03
   -.155E-11 0.233E+02 0.122E+00   0.144E-14 -.226E+02 -.425E+00   0.139E-20 -.753E+00 0.303E+00   0.238E-15 -.922E-03 -.138E-03
   0.975E-11 0.537E+00 -.295E+02   0.149E-14 -.990E+00 0.276E+02   -.133E-20 0.449E+00 0.195E+01   0.533E-15 -.368E-03 0.189E-02
   0.978E-11 -.537E+00 0.295E+02   -.141E-14 0.990E+00 -.276E+02   0.133E-20 -.449E+00 -.195E+01   0.258E-14 0.368E-03 -.189E-02
   -.396E-12 -.537E+00 -.295E+02   -.127E-13 0.990E+00 0.276E+02   0.134E-20 -.449E+00 0.195E+01   -.139E-14 0.368E-03 0.189E-02
   -.416E-12 0.537E+00 0.295E+02   0.170E-13 -.990E+00 -.276E+02   -.134E-20 0.449E+00 -.195E+01   0.174E-14 -.368E-03 -.189E-02
   0.121E-11 0.299E+02 -.189E+02   -.157E-14 -.283E+02 0.193E+02   -.429E-18 -.157E+01 -.465E+00   0.352E-17 -.196E-02 0.228E-02
   0.119E-11 -.299E+02 0.189E+02   0.843E-14 0.283E+02 -.193E+02   0.429E-18 0.157E+01 0.465E+00   0.417E-15 0.196E-02 -.228E-02
   0.771E-11 0.299E+02 0.189E+02   -.729E-14 -.283E+02 -.193E+02   -.863E-18 -.157E+01 0.465E+00   0.437E-15 -.196E-02 -.228E-02
   0.769E-11 -.299E+02 -.189E+02   0.109E-13 0.283E+02 0.193E+02   0.863E-18 0.157E+01 -.465E+00   0.656E-15 0.196E-02 0.228E-02
   0.220E-10 0.623E+02 0.186E+02   -.102E-13 -.642E+02 -.191E+02   -.223E-18 0.191E+01 0.588E+00   0.620E-14 -.169E-02 -.390E-03
   0.220E-10 -.623E+02 -.186E+02   0.350E-15 0.642E+02 0.191E+02   0.223E-18 -.191E+01 -.588E+00   -.119E-13 0.169E-02 0.390E-03
   0.210E-10 0.623E+02 -.186E+02   -.122E-13 -.642E+02 0.191E+02   -.568E-20 0.191E+01 -.588E+00   -.288E-14 -.169E-02 0.390E-03
   0.210E-10 -.623E+02 0.186E+02   0.334E-14 0.642E+02 -.191E+02   0.568E-20 -.191E+01 0.588E+00   0.740E-14 0.169E-02 -.390E-03
   0.233E-10 0.394E+01 -.807E+02   0.598E-14 -.301E+01 0.826E+02   -.173E-17 -.954E+00 -.189E+01   0.327E-14 0.245E-02 0.495E-02
   0.185E-10 -.394E+01 -.807E+02   0.291E-14 0.301E+01 0.826E+02   0.173E-17 0.954E+00 -.189E+01   -.279E-14 -.245E-02 0.495E-02
   0.185E-10 0.394E+01 0.807E+02   -.385E-14 -.301E+01 -.826E+02   -.173E-17 -.954E+00 0.189E+01   0.110E-14 0.245E-02 -.495E-02
   0.299E-10 -.649E+02 -.264E+02   -.561E-14 0.669E+02 0.270E+02   0.873E-18 -.202E+01 -.628E+00   -.130E-13 0.480E-02 0.424E-02
   0.299E-10 0.649E+02 0.264E+02   0.459E-14 -.669E+02 -.270E+02   -.873E-18 0.202E+01 0.628E+00   0.123E-13 -.480E-02 -.424E-02
   0.269E-10 -.649E+02 0.264E+02   0.359E-14 0.669E+02 -.270E+02   0.174E-17 -.202E+01 0.628E+00   0.129E-13 0.480E-02 -.424E-02
   0.269E-10 0.649E+02 -.264E+02   -.788E-14 -.669E+02 0.270E+02   0.173E-17 0.202E+01 -.628E+00   -.924E-14 -.480E-02 0.424E-02
   0.192E-10 0.654E+02 -.861E+02   -.131E-13 -.674E+02 0.876E+02   -.874E-18 0.206E+01 -.154E+01   -.902E-14 -.950E-02 0.305E-02
   0.192E-10 -.654E+02 0.861E+02   0.163E-13 0.674E+02 -.876E+02   0.874E-18 -.206E+01 0.154E+01   0.407E-14 0.950E-02 -.305E-02
   0.227E-10 0.654E+02 0.861E+02   -.106E-13 -.674E+02 -.876E+02   -.613E-20 0.206E+01 0.154E+01   0.615E-14 -.950E-02 -.305E-02
   0.227E-10 -.654E+02 -.861E+02   0.735E-14 0.674E+02 0.876E+02   0.873E-18 -.206E+01 -.154E+01   -.414E-14 0.950E-02 0.305E-02
   0.293E-10 0.843E+02 0.285E+02   0.182E-13 -.872E+02 -.290E+02   -.861E-20 0.290E+01 0.498E+00   0.595E-14 -.592E-02 -.424E-03
   0.293E-10 -.843E+02 -.285E+02   -.244E-13 0.872E+02 0.290E+02   0.861E-20 -.290E+01 -.498E+00   -.106E-13 0.592E-02 0.424E-03
   0.233E-10 -.394E+01 0.807E+02   -.775E-14 0.301E+01 -.826E+02   0.173E-17 0.954E+00 0.189E+01   0.183E-14 -.245E-02 -.495E-02
   0.274E-10 -.843E+02 0.285E+02   -.154E-13 0.872E+02 -.290E+02   -.185E-19 -.290E+01 0.498E+00   0.830E-14 0.592E-02 -.424E-03
   0.274E-10 0.843E+02 -.285E+02   0.143E-13 -.872E+02 0.290E+02   0.185E-19 0.290E+01 -.498E+00   -.629E-14 -.592E-02 0.424E-03
 -----------------------------------------------------------------------------------------------
   0.497E-09 0.748E-09 -.380E-09   -.192E-13 -.568E-13 0.000E+00   0.434E-17 0.000E+00 -.555E-16   0.469E-14 0.362E-12 0.313E-12
 
 
 POSITION                                       TOTAL-FORCE (eV/Angst)
 -----------------------------------------------------------------------------------
      0.98531      2.51290     14.57550         0.000000     -0.018276     -0.000173
      0.98531     10.42370      9.43208         0.000000     -0.018276      0.000173
      2.95594     13.30871      1.42955        -0.000000      0.018276      0.000173
      0.98531      7.71476     14.88029        -0.000000      0.012460     -0.001384
      2.95594      8.10685      1.12477         0.000000     -0.012460      0.001384
      0.98531     15.62556      9.12729        -0.000000      0.012460      0.001384
      2.95594      0.19605      6.87776         0.000000     -0.012460     -0.001384
      0.98531      3.19115      3.73139        -0.000000      0.034595     -0.001413
      2.95594     12.63045     12.27367         0.000000     -0.034595      0.001413
      0.98531     11.10196      4.27114        -0.000000      0.034595      0.001413
      2.95594      4.71965     11.73392         0.000000     -0.034595     -0.001413
      0.98531      2.92635      9.56972        -0.000000      0.003070     -0.001173
      2.95594     12.89525      6.43534         0.000000     -0.003070      0.001173
      0.98531     10.83715     14.43787        -0.000000      0.003070      0.001173
      2.95594      4.98445      1.56719         0.000000     -0.003070     -0.001173
      2.95594      5.39791      6.57298        -0.000000      0.018276     -0.000173
      2.95594      8.92587     12.26958         0.000000     -0.003872     -0.002193
      0.98531      6.89573      3.73548        -0.000000      0.003872      0.002193
      0.98531     14.80654      4.26705        -0.000000      0.003872     -0.002193
      2.95594      1.01507     11.73801         0.000000     -0.003872      0.002193
      0.98531      6.73006      9.44403        -0.000000      0.017543     -0.020883
      2.95594      9.09155      6.56103         0.000000     -0.017543      0.020883
      0.98531     14.64086     14.56356        -0.000000      0.017543      0.020883
      2.95594      1.18074      1.44150         0.000000     -0.017543     -0.020883
      0.98531      6.92457      6.65744         0.000000     -0.001997      0.037142
      2.95594      8.89703      9.34762        -0.000000      0.001997     -0.037142
      0.98531     14.83537      1.34509         0.000000     -0.001997     -0.037142
      2.95594      0.98623     14.65997        -0.000000      0.001997      0.037142
      2.95594      9.21375     14.91556         0.000000     -0.021661      0.006320
      0.98531     14.51866      6.91303        -0.000000      0.021661      0.006320
      2.95594      1.30295      9.09203         0.000000     -0.021661     -0.006320
      0.98531      3.04559     12.11178        -0.000000      0.010143     -0.025483
      2.95594     12.77601      3.89328         0.000000     -0.010143      0.025483
      0.98531     10.95640     11.89581        -0.000000      0.010143      0.025483
      2.95594      4.86521      4.10925         0.000000     -0.010143     -0.025483
      0.98531      6.81636     12.32039        -0.000000      0.011309     -0.034529
      2.95594      9.00524      3.68466         0.000000     -0.011309      0.034529
      0.98531     14.72716     11.68719        -0.000000      0.011309      0.034529
      2.95594      1.09444      4.31787         0.000000     -0.011309     -0.034529
      2.95594      4.83310      9.17381        -0.000000      0.042765      0.000570
      0.98531     10.98851      6.83125         0.000000     -0.042765     -0.000570
      0.98531      6.60785      1.08950        -0.000000      0.021661     -0.006320
      0.98531      3.07771      1.17128         0.000000     -0.042765      0.000570
      2.95594     12.74390     14.83378        -0.000000      0.042765     -0.000570
 -----------------------------------------------------------------------------------
    total drift:                                0.000000      0.000000     -0.000000


--------------------------------------------------------------------------------------------------------



  FREE ENERGIE OF THE ION-ELECTRON SYSTEM (eV)
  ---------------------------------------------------
  free  energy   TOTEN  =      -182.33448566 eV

  energy  without entropy=     -182.33448566  energy(sigma->0) =     -182.33448566
 
 d Force = 0.2132564E-02[ 0.122E-02, 0.305E-02]  d Energy = 0.1475866E-02 0.657E-03
 d Force = 0.4991978E-01[ 0.317E-01, 0.681E-01]  d Ewald  =-0.3985366E+01 0.404E+01


--------------------------------------------------------------------------------------------------------


    POTLOK:  cpu time    0.2202: real time    0.2202


--------------------------------------------------------------------------------------------------------




--------------------------------------------------------------------------------------------------------


  
 reached required accuracy - stopping structural energy minimisation
     LOOP+:  cpu time    6.9205: real time    6.9215
    4ORBIT:  cpu time    0.0000: real time    0.0000
 


 total charge     
 
# of ion       s       p       d       tot
------------------------------------------
    1        0.075   0.129   0.000   0.204
    2        0.075   0.129   0.000   0.204
    3        0.075   0.129   0.000   0.204
    4        0.080   0.140   0.000   0.220
    5        0.080   0.140   0.000   0.220
    6        0.080   0.140   0.000   0.220
    7        0.080   0.140   0.000   0.220
    8        0.062   0.103   0.000   0.165
    9        0.062   0.103   0.000   0.165
   10        0.062   0.103   0.000   0.165
   11        0.062   0.103   0.000   0.165
   12        0.067   0.117   0.000   0.185
   13        0.067   0.117   0.000   0.185
   14        0.067   0.117   0.000   0.185
   15        0.067   0.117   0.000   0.185
   16        0.075   0.129   0.000   0.204
   17        1.843   1.431   0.186   3.461
   18        1.843   1.431   0.186   3.461
   19        1.843   1.431   0.186   3.461
   20        1.843   1.431   0.186   3.461
   21        1.846   1.428   0.185   3.460
   22        1.846   1.428   0.185   3.460
   23        1.846   1.428   0.185   3.460
   24        1.846   1.428   0.185   3.460
   25        1.340   2.388   0.000   3.729
   26        1.340   2.388   0.000   3.729
   27        1.340   2.388   0.000   3.729
   28        1.340   2.388   0.000   3.729
   29        1.325   2.424   0.000   3.749
   30        1.325   2.424   0.000   3.749
   31        1.325   2.424   0.000   3.749
   32        1.331   2.392   0.000   3.722
   33        1.331   2.392   0.000   3.722
   34        1.331   2.392   0.000   3.723
   35        1.331   2.392   0.000   3.723
   36        1.345   2.340   0.000   3.685
   37        1.345   2.340   0.000   3.685
   38        1.345   2.340   0.000   3.685
   39        1.345   2.340   0.000   3.685
   40        1.341   2.373   0.000   3.714
   41        1.341   2.373   0.000   3.714
   42        1.325   2.424   0.000   3.749
   43        1.341   2.373   0.000   3.714
   44        1.341   2.373   0.000   3.714
--------------------------------------------------
tot         42.626  61.064   1.486 105.176
 

 total amount of memory used by VASP MPI-rank0    47419. kBytes
=======================================================================

   base      :      30000. kBytes
   nonlr-proj:       4344. kBytes
   fftplans  :       1281. kBytes
   grid      :       5681. kBytes
   one-center:        356. kBytes
   wavefun   :       5757. kBytes
 
  
  
 General timing and accounting informations for this job:
 ========================================================
  
                  Total CPU time used (sec):      379.074
                            User time (sec):      373.491
                          System time (sec):        5.583
                         Elapsed time (sec):      379.895
  
                   Maximum memory used (kb):       92516.
                   Average memory used (kb):           0.
  
                          Minor page faults:       413396
                          Major page faults:            0
                 Voluntary context switches:          869
