PROCAR new format
# of k-points:    3         # of bands:  112         # of ions:   44

 k-point     1 :    0.00000000 0.25000000 0.25000000     weight = 0.20000000

band     1 # energy  -11.00628063 # occ.  2.00000000
 
ion      s      p      d    tot
    1  0.000  0.000  0.000  0.001
    2  0.000  0.000  0.000  0.001
    3  0.000  0.000  0.000  0.001
    4  0.000  0.000  0.000  0.000
    5  0.000  0.000  0.000  0.000
    6  0.000  0.000  0.000  0.000
    7  0.000  0.000  0.000  0.000
    8  0.000  0.000  0.000  0.000
    9  0.000  0.000  0.000  0.000
   10  0.000  0.000  0.000  0.000
   11  0.000  0.000  0.000  0.000
   12  0.000  0.000  0.000  0.000
   13  0.000  0.000  0.000  0.000
   14  0.000  0.000  0.000  0.000
   15  0.000  0.000  0.000  0.000
   16  0.000  0.000  0.000  0.001
   17  0.015  0.000  0.000  0.015
   18  0.015  0.000  0.000  0.015
   19  0.016  0.000  0.000  0.017
   20  0.016  0.000  0.000  0.017
   21  0.068  0.000  0.000  0.069
   22  0.068  0.000  0.000  0.069
   23  0.068  0.000  0.000  0.068
   24  0.068  0.000  0.000  0.068
   25  0.050  0.000  0.000  0.051
   26  0.050  0.000  0.000  0.051
   27  0.051  0.000  0.000  0.051
   28  0.051  0.000  0.000  0.051
   29  0.001  0.000  0.000  0.001
   30  0.001  0.000  0.000  0.002
   31  0.001  0.000  0.000  0.002
   32  0.004  0.000  0.000  0.004
   33  0.004  0.000  0.000  0.004
   34  0.003  0.000  0.000  0.003
   35  0.003  0.000  0.000  0.003
   36  0.010  0.000  0.000  0.010
   37  0.010  0.000  0.000  0.010
   38  0.010  0.000  0.000  0.010
   39  0.010  0.000  0.000  0.010
   40  0.022  0.001  0.000  0.023
   41  0.022  0.001  0.000  0.023
   42  0.001  0.000  0.000  0.001
   43  0.021  0.001  0.000  0.021
   44  0.021  0.001  0.000  0.021
tot    0.683  0.009  0.000  0.692
 
band     2 # energy  -10.99190284 # occ.  2.00000000
 
ion      s      p      d    tot
    1  0.000  0.000  0.000  0.001
    2  0.000  0.000  0.000  0.001
    3  0.000  0.000  0.000  0.001
    4  0.000  0.000  0.000  0.000
    5  0.000  0.000  0.000  0.000
    6  0.000  0.000  0.000  0.000
    7  0.000  0.000  0.000  0.000
    8  0.000  0.000  0.000  0.000
    9  0.000  0.000  0.000  0.000
   10  0.000  0.000  0.000  0.000
   11  0.000  0.000  0.000  0.000
   12  0.000  0.000  0.000  0.000
   13  0.000  0.000  0.000  0.000
   14  0.000  0.000  0.000  0.000
   15  0.000  0.000  0.000  0.000
   16  0.000  0.000  0.000  0.001
   17  0.015  0.000  0.000  0.016
   18  0.015  0.000  0.000  0.016
   19  0.013  0.000  0.000  0.014
   20  0.013  0.000  0.000  0.014
   21  0.069  0.000  0.000  0.070
   22  0.069  0.000  0.000  0.070
   23  0.070  0.000  0.000  0.070
   24  0.070  0.000  0.000  0.070
   25  0.052  0.000  0.000  0.053
   26  0.052  0.000  0.000  0.053
   27  0.052  0.000  0.000  0.052
   28  0.052  0.000  0.000  0.052
   29  0.001  0.000  0.000  0.001
   30  0.001  0.000  0.000  0.001
   31  0.001  0.000  0.000  0.001
   32  0.002  0.000  0.000  0.002
   33  0.002  0.000  0.000  0.002
   34  0.003  0.000  0.000  0.003
   35  0.003  0.000  0.000  0.003
   36  0.010  0.000  0.000  0.010
   37  0.010  0.000  0.000  0.010
   38  0.009  0.000  0.000  0.010
   39  0.009  0.000  0.000  0.010
   40  0.021  0.001  0.000  0.021
   41  0.021  0.001  0.000  0.021
   42  0.001  0.000  0.000  0.001
   43  0.022  0.001  0.000  0.022
   44  0.022  0.001  0.000  0.022
tot    0.684  0.010  0.000  0.693
 
band     3 # energy  -10.48180425 # occ.  2.00000000
 
ion      s      p      d    tot
    1  0.000  0.000  0.000  0.000
    2  0.000  0.000  0.000  0.000
    3  0.000  0.000  0.000  0.000
    4  0.000  0.000  0.000  0.000
    5  0.000  0.000  0.000  0.000
    6  0.000  0.000  0.000  0.000
    7  0.000  0.000  0.000  0.000
    8  0.000  0.000  0.000  0.000
    9  0.000  0.000  0.000  0.000
   10  0.000  0.000  0.000  0.000
   11  0.000  0.000  0.000  0.000
   12  0.000  0.000  0.000  0.000
   13  0.000  0.000  0.000  0.000
   14  0.000  0.000  0.000  0.000
   15  0.000  0.000  0.000  0.000
   16  0.000  0.000  0.000  0.000
   17  0.048  0.000  0.000  0.049
   18  0.048  0.000  0.000  0.049
   19  0.063  0.000  0.000  0.063
   20  0.063  0.000  0.000  0.063
   21  0.031  0.001  0.000  0.032
   22  0.031  0.001  0.000  0.032
   23  0.028  0.001  0.000  0.029
   24  0.028  0.001  0.000  0.029
   25  0.010  0.001  0.000  0.011
   26  0.010  0.001  0.000  0.011
   27  0.013  0.001  0.000  0.014
   28  0.013  0.001  0.000  0.014
   29  0.008  0.000  0.000  0.008
   30  0.011  0.000  0.000  0.011
   31  0.011  0.000  0.000  0.011
   32  0.020  0.000  0.000  0.021
   33  0.020  0.000  0.000  0.021
   34  0.013  0.000  0.000  0.014
   35  0.013  0.000  0.000  0.014
   36  0.030  0.000  0.000  0.030
   37  0.030  0.000  0.000  0.030
   38  0.033  0.001  0.000  0.034
   39  0.033  0.001  0.000  0.034
   40  0.020  0.000  0.000  0.020
   41  0.020  0.000  0.000  0.020
   42  0.008  0.000  0.000  0.008
   43  0.014  0.000  0.000  0.015
   44  0.014  0.000  0.000  0.015
tot    0.686  0.013  0.000  0.699
 
band     4 # energy  -10.44274255 # occ.  2.00000000
 
ion      s      p      d    tot
    1  0.000  0.000  0.000  0.000
    2  0.000  0.000  0.000  0.000
    3  0.000  0.000  0.000  0.000
    4  0.000  0.000  0.000  0.000
    5  0.000  0.000  0.000  0.000
    6  0.000  0.000  0.000  0.000
    7  0.000  0.000  0.000  0.000
    8  0.000  0.000  0.000  0.000
    9  0.000  0.000  0.000  0.000
   10  0.000  0.000  0.000  0.000
   11  0.000  0.000  0.000  0.000
   12  0.000  0.000  0.000  0.000
   13  0.000  0.000  0.000  0.000
   14  0.000  0.000  0.000  0.000
   15  0.000  0.000  0.000  0.000
   16  0.000  0.000  0.000  0.000
   17  0.066  0.000  0.000  0.066
   18  0.066  0.000  0.000  0.066
   19  0.050  0.000  0.000  0.050
   20  0.050  0.000  0.000  0.050
   21  0.027  0.001  0.000  0.028
   22  0.027  0.001  0.000  0.028
   23  0.030  0.001  0.000  0.031
   24  0.030  0.001  0.000  0.031
   25  0.015  0.001  0.000  0.015
   26  0.015  0.001  0.000  0.015
   27  0.012  0.001  0.000  0.012
   28  0.012  0.001  0.000  0.012
   29  0.011  0.000  0.000  0.012
   30  0.007  0.000  0.000  0.008
   31  0.007  0.000  0.000  0.008
   32  0.012  0.000  0.000  0.012
   33  0.012  0.000  0.000  0.012
   34  0.019  0.000  0.000  0.020
   35  0.019  0.000  0.000  0.020
   36  0.035  0.001  0.000  0.035
   37  0.035  0.001  0.000  0.035
   38  0.031  0.000  0.000  0.031
   39  0.031  0.000  0.000  0.031
   40  0.012  0.000  0.000  0.012
   41  0.012  0.000  0.000  0.012
   42  0.011  0.000  0.000  0.012
   43  0.017  0.000  0.000  0.017
   44  0.017  0.000  0.000  0.017
tot    0.688  0.014  0.000  0.702
 
band     5 # energy  -10.10412131 # occ.  2.00000000
 
ion      s      p      d    tot
    1  0.000  0.000  0.000  0.000
    2  0.000  0.000  0.000  0.000
    3  0.000  0.000  0.000  0.000
    4  0.000  0.000  0.000  0.001
    5  0.000  0.000  0.000  0.001
    6  0.000  0.000  0.000  0.000
    7  0.000  0.000  0.000  0.000
    8  0.000  0.000  0.000  0.000
    9  0.000  0.000  0.000  0.000
   10  0.000  0.000  0.000  0.000
   11  0.000  0.000  0.000  0.000
   12  0.000  0.000  0.000  0.000
   13  0.000  0.000  0.000  0.000
   14  0.001  0.000  0.000  0.001
   15  0.001  0.000  0.000  0.001
   16  0.000  0.000  0.000  0.000
   17  0.085  0.001  0.000  0.086
   18  0.085  0.001  0.000  0.086
   19  0.042  0.001  0.000  0.043
   20  0.042  0.001  0.000  0.043
   21  0.014  0.001  0.000  0.015
   22  0.014  0.001  0.000  0.015
   23  0.014  0.001  0.000  0.015
   24  0.014  0.001  0.000  0.015
   25  0.003  0.001  0.000  0.003
   26  0.003  0.001  0.000  0.003
   27  0.004  0.000  0.000  0.004
   28  0.004  0.000  0.000  0.004
   29  0.027  0.001  0.000  0.028
   30  0.015  0.000  0.000  0.016
   31  0.015  0.000  0.000  0.016
   32  0.020  0.000  0.000  0.020
   33  0.020  0.000  0.000  0.020
   34  0.040  0.001  0.000  0.040
   35  0.040  0.001  0.000  0.040
   36  0.023  0.001  0.000  0.023
   37  0.023  0.001  0.000  0.023
   38  0.010  0.000  0.000  0.010
   39  0.010  0.000  0.000  0.010
   40  0.021  0.000  0.000  0.021
   41  0.021  0.000  0.000  0.021
   42  0.027  0.001  0.000  0.028
   43  0.023  0.000  0.000  0.023
   44  0.023  0.000  0.000  0.023
tot    0.685  0.019  0.000  0.704
 
band     6 # energy  -10.07030447 # occ.  2.00000000
 
ion      s      p      d    tot
    1  0.000  0.000  0.000  0.000
    2  0.000  0.000  0.000  0.000
    3  0.000  0.000  0.000  0.000
    4  0.000  0.000  0.000  0.000
    5  0.000  0.000  0.000  0.000
    6  0.000  0.000  0.000  0.001
    7  0.000  0.000  0.000  0.001
    8  0.000  0.000  0.000  0.000
    9  0.000  0.000  0.000  0.000
   10  0.000  0.000  0.000  0.000
   11  0.000  0.000  0.000  0.000
   12  0.000  0.000  0.000  0.001
   13  0.000  0.000  0.000  0.001
   14  0.000  0.000  0.000  0.000
   15  0.000  0.000  0.000  0.000
   16  0.000  0.000  0.000  0.000
   17  0.025  0.000  0.000  0.025
   18  0.025  0.000  0.000  0.025
   19  0.104  0.001  0.000  0.105
   20  0.104  0.001  0.000  0.105
   21  0.009  0.001  0.000  0.010
   22  0.009  0.001  0.000  0.010
   23  0.022  0.002  0.000  0.024
   24  0.022  0.002  0.000  0.024
   25  0.004  0.000  0.000  0.004
   26  0.004  0.000  0.000  0.004
   27  0.005  0.001  0.000  0.006
   28  0.005  0.001  0.000  0.006
   29  0.009  0.000  0.000  0.009
   30  0.031  0.001  0.000  0.032
   31  0.031  0.001  0.000  0.032
   32  0.047  0.001  0.000  0.048
   33  0.047  0.001  0.000  0.048
   34  0.012  0.000  0.000  0.012
   35  0.012  0.000  0.000  0.012
   36  0.007  0.000  0.000  0.008
   37  0.007  0.000  0.000  0.008
   38  0.029  0.001  0.000  0.030
   39  0.029  0.001  0.000  0.030
   40  0.007  0.000  0.000  0.007
   41  0.007  0.000  0.000  0.007
   42  0.009  0.000  0.000  0.009
   43  0.031  0.000  0.000  0.031
   44  0.031  0.000  0.000  0.031
tot    0.688  0.020  0.001  0.708
 
band     7 # energy  -10.00343869 # occ.  2.00000000
 
ion      s      p      d    tot
    1  0.000  0.000  0.000  0.000
    2  0.000  0.000  0.000  0.001
    3  0.000  0.000  0.000  0.000
    4  0.000  0.000  0.000  0.000
    5  0.000  0.000  0.000  0.000
    6  0.000  0.000  0.000  0.000
    7  0.000  0.000  0.000  0.000
    8  0.000  0.000  0.000  0.000
    9  0.000  0.000  0.000  0.000
   10  0.000  0.000  0.000  0.000
   11  0.000  0.000  0.000  0.000
   12  0.000  0.000  0.000  0.000
   13  0.000  0.000  0.000  0.000
   14  0.000  0.000  0.000  0.000
   15  0.000  0.000  0.000  0.000
   16  0.000  0.000  0.000  0.001
   17  0.044  0.001  0.000  0.045
   18  0.044  0.001  0.000  0.045
   19  0.007  0.000  0.000  0.008
   20  0.007  0.000  0.000  0.008
   21  0.060  0.005  0.000  0.065
   22  0.060  0.005  0.000  0.065
   23  0.030  0.001  0.000  0.031
   24  0.030  0.001  0.000  0.031
   25  0.008  0.001  0.000  0.008
   26  0.008  0.001  0.000  0.008
   27  0.001  0.000  0.000  0.001
   28  0.001  0.000  0.000  0.001
   29  0.014  0.000  0.000  0.015
   30  0.005  0.000  0.000  0.005
   31  0.005  0.000  0.000  0.005
   32  0.007  0.000  0.000  0.007
   33  0.007  0.000  0.000  0.007
   34  0.023  0.000  0.000  0.023
   35  0.023  0.000  0.000  0.023
   36  0.006  0.000  0.000  0.007
   37  0.006  0.000  0.000  0.007
   38  0.001  0.000  0.000  0.001
   39  0.001  0.000  0.000  0.001
   40  0.097  0.001  0.000  0.098
   41  0.097  0.001  0.000  0.098
   42  0.014  0.000  0.000  0.015
   43  0.037  0.001  0.000  0.037
   44  0.037  0.001  0.000  0.037
tot    0.684  0.024  0.001  0.708
 
band     8 # energy   -9.94303026 # occ.  2.00000000
 
ion      s      p      d    tot
    1  0.000  0.000  0.000  0.000
    2  0.000  0.000  0.000  0.000
    3  0.000  0.000  0.000  0.000
    4  0.000  0.000  0.000  0.000
    5  0.000  0.000  0.000  0.000
    6  0.000  0.000  0.000  0.000
    7  0.000  0.000  0.000  0.000
    8  0.000  0.000  0.000  0.000
    9  0.000  0.000  0.000  0.000
   10  0.000  0.000  0.000  0.000
   11  0.000  0.000  0.000  0.000
   12  0.000  0.000  0.000  0.000
   13  0.000  0.000  0.000  0.000
   14  0.000  0.000  0.000  0.000
   15  0.000  0.000  0.000  0.000
   16  0.000  0.000  0.000  0.000
   17  0.026  0.000  0.000  0.026
   18  0.026  0.000  0.000  0.026
   19  0.028  0.000  0.000  0.028
   20  0.028  0.000  0.000  0.028
   21  0.037  0.003  0.000  0.039
   22  0.037  0.003  0.000  0.039
   23  0.054  0.005  0.000  0.058
   24  0.054  0.005  0.000  0.058
   25  0.003  0.000  0.000  0.003
   26  0.003  0.000  0.000  0.003
   27  0.008  0.000  0.000  0.009
   28  0.008  0.000  0.000  0.009
   29  0.007  0.000  0.000  0.007
   30  0.007  0.000  0.000  0.007
   31  0.007  0.000  0.000  0.007
   32  0.015  0.000  0.000  0.015
   33  0.015  0.000  0.000  0.015
   34  0.013  0.000  0.000  0.013
   35  0.013  0.000  0.000  0.013
   36  0.006  0.000  0.000  0.006
   37  0.006  0.000  0.000  0.006
   38  0.001  0.000  0.000  0.002
   39  0.001  0.000  0.000  0.002
   40  0.053  0.001  0.000  0.054
   41  0.053  0.001  0.000  0.054
   42  0.007  0.000  0.000  0.007
   43  0.087  0.001  0.000  0.088
   44  0.087  0.001  0.000  0.088
tot    0.688  0.026  0.001  0.714
 
band     9 # energy   -9.22201055 # occ.  2.00000000
 
ion      s      p      d    tot
    1  0.000  0.000  0.000  0.001
    2  0.001  0.000  0.000  0.001
    3  0.000  0.000  0.000  0.001
    4  0.000  0.000  0.000  0.000
    5  0.000  0.000  0.000  0.000
    6  0.000  0.000  0.000  0.000
    7  0.000  0.000  0.000  0.000
    8  0.000  0.000  0.000  0.001
    9  0.000  0.000  0.000  0.001
   10  0.000  0.000  0.000  0.000
   11  0.000  0.000  0.000  0.000
   12  0.000  0.000  0.000  0.000
   13  0.000  0.000  0.000  0.000
   14  0.001  0.000  0.000  0.001
   15  0.001  0.000  0.000  0.001
   16  0.001  0.000  0.000  0.001
   17  0.001  0.003  0.000  0.005
   18  0.001  0.003  0.000  0.005
   19  0.000  0.002  0.000  0.002
   20  0.000  0.002  0.000  0.002
   21  0.001  0.004  0.000  0.006
   22  0.001  0.004  0.000  0.006
   23  0.001  0.010  0.000  0.011
   24  0.001  0.010  0.000  0.011
   25  0.091  0.000  0.000  0.091
   26  0.091  0.000  0.000  0.091
   27  0.073  0.000  0.000  0.073
   28  0.073  0.000  0.000  0.073
   29  0.022  0.000  0.000  0.023
   30  0.004  0.000  0.000  0.004
   31  0.004  0.000  0.000  0.004
   32  0.002  0.000  0.000  0.002
   33  0.002  0.000  0.000  0.002
   34  0.009  0.000  0.000  0.009
   35  0.009  0.000  0.000  0.009
   36  0.002  0.000  0.000  0.002
   37  0.002  0.000  0.000  0.002
   38  0.019  0.000  0.000  0.019
   39  0.019  0.000  0.000  0.019
   40  0.005  0.000  0.000  0.005
   41  0.005  0.000  0.000  0.005
   42  0.022  0.000  0.000  0.023
   43  0.079  0.000  0.000  0.079
   44  0.079  0.000  0.000  0.079
tot    0.626  0.043  0.001  0.670
 
band    10 # energy   -9.19184234 # occ.  2.00000000
 
ion      s      p      d    tot
    1  0.000  0.000  0.000  0.000
    2  0.000  0.001  0.000  0.001
    3  0.000  0.000  0.000  0.000
    4  0.000  0.000  0.000  0.000
    5  0.000  0.000  0.000  0.000
    6  0.000  0.000  0.000  0.000
    7  0.000  0.000  0.000  0.000
    8  0.000  0.000  0.000  0.000
    9  0.000  0.000  0.000  0.000
   10  0.001  0.000  0.000  0.001
   11  0.001  0.000  0.000  0.001
   12  0.000  0.000  0.000  0.000
   13  0.000  0.000  0.000  0.000
   14  0.000  0.000  0.000  0.000
   15  0.000  0.000  0.000  0.000
   16  0.000  0.001  0.000  0.001
   17  0.000  0.004  0.000  0.004
   18  0.000  0.004  0.000  0.004
   19  0.001  0.001  0.000  0.002
   20  0.001  0.001  0.000  0.002
   21  0.002  0.016  0.000  0.018
   22  0.002  0.016  0.000  0.018
   23  0.000  0.000  0.000  0.000
   24  0.000  0.000  0.000  0.000
   25  0.116  0.000  0.000  0.116
   26  0.116  0.000  0.000  0.116
   27  0.002  0.000  0.000  0.002
   28  0.002  0.000  0.000  0.002
   29  0.007  0.000  0.000  0.007
   30  0.000  0.000  0.000  0.000
   31  0.000  0.000  0.000  0.000
   32  0.004  0.000  0.000  0.004
   33  0.004  0.000  0.000  0.004
   34  0.007  0.000  0.000  0.007
   35  0.007  0.000  0.000  0.007
   36  0.037  0.000  0.000  0.037
   37  0.037  0.000  0.000  0.037
   38  0.014  0.000  0.000  0.014
   39  0.014  0.000  0.000  0.014
   40  0.121  0.000  0.000  0.121
   41  0.121  0.000  0.000  0.121
   42  0.007  0.000  0.000  0.007
   43  0.000  0.000  0.000  0.000
   44  0.000  0.000  0.000  0.000
tot    0.626  0.045  0.001  0.672
 
band    11 # energy   -9.17021361 # occ.  2.00000000
 
ion      s      p      d    tot
    1  0.001  0.001  0.000  0.002
    2  0.000  0.000  0.000  0.000
    3  0.001  0.001  0.000  0.002
    4  0.000  0.000  0.000  0.000
    5  0.000  0.000  0.000  0.000
    6  0.001  0.000  0.000  0.001
    7  0.001  0.000  0.000  0.001
    8  0.000  0.000  0.000  0.000
    9  0.000  0.000  0.000  0.000
   10  0.000  0.000  0.000  0.000
   11  0.000  0.000  0.000  0.000
   12  0.000  0.000  0.000  0.001
   13  0.000  0.000  0.000  0.001
   14  0.000  0.000  0.000  0.000
   15  0.000  0.000  0.000  0.000
   16  0.000  0.000  0.000  0.000
   17  0.000  0.000  0.000  0.001
   18  0.000  0.000  0.000  0.001
   19  0.008  0.007  0.000  0.015
   20  0.008  0.007  0.000  0.015
   21  0.001  0.000  0.000  0.001
   22  0.001  0.000  0.000  0.001
   23  0.004  0.008  0.001  0.014
   24  0.004  0.008  0.001  0.014
   25  0.003  0.000  0.000  0.003
   26  0.003  0.000  0.000  0.003
   27  0.226  0.000  0.000  0.226
   28  0.226  0.000  0.000  0.226
   29  0.001  0.000  0.000  0.001
   30  0.054  0.000  0.000  0.054
   31  0.054  0.000  0.000  0.054
   32  0.011  0.000  0.000  0.011
   33  0.011  0.000  0.000  0.011
   34  0.000  0.000  0.000  0.000
   35  0.000  0.000  0.000  0.000
   36  0.000  0.000  0.000  0.000
   37  0.000  0.000  0.000  0.000
   38  0.001  0.000  0.000  0.001
   39  0.001  0.000  0.000  0.001
   40  0.001  0.000  0.000  0.001
   41  0.001  0.000  0.000  0.001
   42  0.001  0.000  0.000  0.001
   43  0.007  0.000  0.000  0.007
   44  0.007  0.000  0.000  0.007
tot    0.639  0.037  0.003  0.679
 
band    12 # energy   -9.13423819 # occ.  2.00000000
 
ion      s      p      d    tot
    1  0.000  0.000  0.000  0.000
    2  0.001  0.001  0.000  0.001
    3  0.000  0.000  0.000  0.000
    4  0.000  0.000  0.000  0.001
    5  0.000  0.000  0.000  0.001
    6  0.000  0.000  0.000  0.000
    7  0.000  0.000  0.000  0.000
    8  0.000  0.000  0.000  0.000
    9  0.000  0.000  0.000  0.000
   10  0.000  0.000  0.000  0.000
   11  0.000  0.000  0.000  0.000
   12  0.000  0.000  0.000  0.000
   13  0.000  0.000  0.000  0.000
   14  0.000  0.000  0.000  0.000
   15  0.000  0.000  0.000  0.000
   16  0.001  0.001  0.000  0.001
   17  0.007  0.004  0.000  0.012
   18  0.007  0.004  0.000  0.012
   19  0.000  0.002  0.000  0.002
   20  0.000  0.002  0.000  0.002
   21  0.003  0.004  0.001  0.008
   22  0.003  0.004  0.001  0.008
   23  0.002  0.006  0.000  0.008
   24  0.002  0.006  0.000  0.008
   25  0.144  0.000  0.000  0.144
   26  0.144  0.000  0.000  0.144
   27  0.051  0.000  0.000  0.051
   28  0.051  0.000  0.000  0.051
   29  0.030  0.000  0.000  0.031
   30  0.003  0.000  0.000  0.003
   31  0.003  0.000  0.000  0.003
   32  0.003  0.000  0.000  0.003
   33  0.003  0.000  0.000  0.003
   34  0.002  0.000  0.000  0.002
   35  0.002  0.000  0.000  0.002
   36  0.007  0.000  0.000  0.007
   37  0.007  0.000  0.000  0.007
   38  0.015  0.000  0.000  0.015
   39  0.015  0.000  0.000  0.015
   40  0.004  0.000  0.000  0.004
   41  0.004  0.000  0.000  0.004
   42  0.030  0.000  0.000  0.031
   43  0.046  0.000  0.000  0.046
   44  0.046  0.000  0.000  0.046
tot    0.640  0.039  0.003  0.681
 
band    13 # energy   -8.89317200 # occ.  2.00000000
 
ion      s      p      d    tot
    1  0.000  0.000  0.000  0.000
    2  0.000  0.000  0.000  0.000
    3  0.000  0.000  0.000  0.000
    4  0.000  0.000  0.000  0.000
    5  0.000  0.000  0.000  0.000
    6  0.000  0.000  0.000  0.000
    7  0.000  0.000  0.000  0.000
    8  0.000  0.000  0.000  0.001
    9  0.000  0.000  0.000  0.001
   10  0.000  0.000  0.000  0.001
   11  0.000  0.000  0.000  0.001
   12  0.000  0.000  0.000  0.000
   13  0.000  0.000  0.000  0.000
   14  0.000  0.000  0.000  0.000
   15  0.000  0.000  0.000  0.000
   16  0.000  0.000  0.000  0.000
   17  0.000  0.007  0.000  0.007
   18  0.000  0.007  0.000  0.007
   19  0.000  0.006  0.000  0.006
   20  0.000  0.006  0.000  0.006
   21  0.000  0.002  0.000  0.003
   22  0.000  0.002  0.000  0.003
   23  0.000  0.001  0.000  0.002
   24  0.000  0.001  0.000  0.002
   25  0.001  0.000  0.000  0.001
   26  0.001  0.000  0.000  0.001
   27  0.001  0.000  0.000  0.001
   28  0.001  0.000  0.000  0.001
   29  0.001  0.000  0.000  0.001
   30  0.006  0.000  0.000  0.006
   31  0.006  0.000  0.000  0.006
   32  0.058  0.000  0.000  0.058
   33  0.058  0.000  0.000  0.058
   34  0.069  0.000  0.000  0.069
   35  0.069  0.000  0.000  0.069
   36  0.075  0.000  0.000  0.075
   37  0.075  0.000  0.000  0.075
   38  0.068  0.000  0.000  0.068
   39  0.068  0.000  0.000  0.068
   40  0.018  0.000  0.000  0.018
   41  0.018  0.000  0.000  0.018
   42  0.001  0.000  0.000  0.001
   43  0.016  0.000  0.000  0.016
   44  0.016  0.000  0.000  0.016
tot    0.631  0.035  0.001  0.668
 
band    14 # energy   -8.87897927 # occ.  2.00000000
 
ion      s      p      d    tot
    1  0.000  0.000  0.000  0.000
    2  0.000  0.000  0.000  0.000
    3  0.000  0.000  0.000  0.000
    4  0.000  0.000  0.000  0.000
    5  0.000  0.000  0.000  0.000
    6  0.000  0.000  0.000  0.000
    7  0.000  0.000  0.000  0.000
    8  0.000  0.000  0.000  0.000
    9  0.000  0.000  0.000  0.000
   10  0.000  0.000  0.000  0.000
   11  0.000  0.000  0.000  0.000
   12  0.000  0.000  0.000  0.000
   13  0.000  0.000  0.000  0.000
   14  0.000  0.000  0.000  0.000
   15  0.000  0.000  0.000  0.000
   16  0.000  0.000  0.000  0.000
   17  0.000  0.009  0.000  0.009
   18  0.000  0.009  0.000  0.009
   19  0.000  0.005  0.000  0.005
   20  0.000  0.005  0.000  0.005
   21  0.001  0.002  0.001  0.003
   22  0.001  0.002  0.001  0.003
   23  0.000  0.001  0.000  0.001
   24  0.000  0.001  0.000  0.001
   25  0.002  0.000  0.000  0.002
   26  0.002  0.000  0.000  0.002
   27  0.003  0.000  0.000  0.003
   28  0.003  0.000  0.000  0.003
   29  0.009  0.000  0.000  0.009
   30  0.003  0.000  0.000  0.003
   31  0.003  0.000  0.000  0.003
   32  0.040  0.000  0.000  0.040
   33  0.040  0.000  0.000  0.040
   34  0.063  0.000  0.000  0.063
   35  0.063  0.000  0.000  0.063
   36  0.113  0.000  0.000  0.113
   37  0.113  0.000  0.000  0.113
   38  0.055  0.000  0.000  0.055
   39  0.055  0.000  0.000  0.055
   40  0.022  0.000  0.000  0.022
   41  0.022  0.000  0.000  0.022
   42  0.009  0.000  0.000  0.009
   43  0.004  0.000  0.000  0.004
   44  0.004  0.000  0.000  0.004
tot    0.632  0.036  0.002  0.670
 
band    15 # energy   -8.86815650 # occ.  2.00000000
 
ion      s      p      d    tot
    1  0.000  0.000  0.000  0.000
    2  0.000  0.000  0.000  0.000
    3  0.000  0.000  0.000  0.000
    4  0.000  0.000  0.000  0.000
    5  0.000  0.000  0.000  0.000
    6  0.000  0.000  0.000  0.000
    7  0.000  0.000  0.000  0.000
    8  0.000  0.000  0.000  0.000
    9  0.000  0.000  0.000  0.000
   10  0.000  0.000  0.000  0.001
   11  0.000  0.000  0.000  0.001
   12  0.000  0.000  0.000  0.000
   13  0.000  0.000  0.000  0.000
   14  0.000  0.000  0.000  0.000
   15  0.000  0.000  0.000  0.000
   16  0.000  0.000  0.000  0.000
   17  0.000  0.001  0.000  0.002
   18  0.000  0.001  0.000  0.002
   19  0.001  0.010  0.000  0.011
   20  0.001  0.010  0.000  0.011
   21  0.000  0.002  0.000  0.002
   22  0.000  0.002  0.000  0.002
   23  0.000  0.004  0.001  0.005
   24  0.000  0.004  0.001  0.005
   25  0.007  0.000  0.000  0.007
   26  0.007  0.000  0.000  0.007
   27  0.005  0.000  0.000  0.005
   28  0.005  0.000  0.000  0.005
   29  0.004  0.000  0.000  0.004
   30  0.006  0.000  0.000  0.006
   31  0.006  0.000  0.000  0.006
   32  0.093  0.000  0.000  0.093
   33  0.093  0.000  0.000  0.093
   34  0.014  0.000  0.000  0.014
   35  0.014  0.000  0.000  0.014
   36  0.010  0.000  0.000  0.010
   37  0.010  0.000  0.000  0.010
   38  0.112  0.000  0.000  0.112
   39  0.112  0.000  0.000  0.112
   40  0.021  0.000  0.000  0.021
   41  0.021  0.000  0.000  0.021
   42  0.004  0.000  0.000  0.004
   43  0.045  0.000  0.000  0.045
   44  0.045  0.000  0.000  0.045
tot    0.635  0.037  0.002  0.674
 
band    16 # energy   -8.86459157 # occ.  2.00000000
 
ion      s      p      d    tot
    1  0.000  0.000  0.000  0.000
    2  0.000  0.000  0.000  0.000
    3  0.000  0.000  0.000  0.000
    4  0.000  0.000  0.000  0.000
    5  0.000  0.000  0.000  0.000
    6  0.000  0.000  0.000  0.000
    7  0.000  0.000  0.000  0.000
    8  0.000  0.000  0.000  0.001
    9  0.000  0.000  0.000  0.001
   10  0.000  0.000  0.000  0.000
   11  0.000  0.000  0.000  0.000
   12  0.000  0.000  0.000  0.000
   13  0.000  0.000  0.000  0.000
   14  0.000  0.000  0.000  0.000
   15  0.000  0.000  0.000  0.000
   16  0.000  0.000  0.000  0.000
   17  0.000  0.009  0.000  0.009
   18  0.000  0.009  0.000  0.009
   19  0.000  0.005  0.000  0.005
   20  0.000  0.005  0.000  0.005
   21  0.000  0.001  0.001  0.002
   22  0.000  0.001  0.001  0.002
   23  0.000  0.001  0.000  0.001
   24  0.000  0.001  0.000  0.001
   25  0.004  0.000  0.000  0.004
   26  0.004  0.000  0.000  0.004
   27  0.007  0.000  0.000  0.007
   28  0.007  0.000  0.000  0.007
   29  0.003  0.000  0.000  0.003
   30  0.002  0.000  0.000  0.002
   31  0.002  0.000  0.000  0.002
   32  0.034  0.000  0.000  0.034
   33  0.034  0.000  0.000  0.034
   34  0.080  0.000  0.000  0.080
   35  0.080  0.000  0.000  0.080
   36  0.102  0.000  0.000  0.103
   37  0.102  0.000  0.000  0.103
   38  0.064  0.000  0.000  0.064
   39  0.064  0.000  0.000  0.064
   40  0.012  0.000  0.000  0.012
   41  0.012  0.000  0.000  0.012
   42  0.003  0.000  0.000  0.003
   43  0.007  0.000  0.000  0.007
   44  0.007  0.000  0.000  0.007
tot    0.634  0.034  0.002  0.670
 
band    17 # energy   -8.65065473 # occ.  2.00000000
 
ion      s      p      d    tot
    1  0.000  0.000  0.000  0.000
    2  0.000  0.000  0.000  0.000
    3  0.000  0.000  0.000  0.000
    4  0.002  0.001  0.000  0.002
    5  0.002  0.001  0.000  0.002
    6  0.001  0.000  0.000  0.002
    7  0.001  0.000  0.000  0.002
    8  0.000  0.000  0.000  0.000
    9  0.000  0.000  0.000  0.000
   10  0.000  0.000  0.000  0.000
   11  0.000  0.000  0.000  0.000
   12  0.000  0.000  0.000  0.001
   13  0.000  0.000  0.000  0.001
   14  0.000  0.000  0.000  0.001
   15  0.000  0.000  0.000  0.001
   16  0.000  0.000  0.000  0.000
   17  0.000  0.003  0.001  0.005
   18  0.000  0.003  0.001  0.005
   19  0.000  0.003  0.001  0.004
   20  0.000  0.003  0.001  0.004
   21  0.000  0.001  0.000  0.001
   22  0.000  0.001  0.000  0.001
   23  0.000  0.001  0.000  0.001
   24  0.000  0.001  0.000  0.001
   25  0.010  0.000  0.000  0.010
   26  0.010  0.000  0.000  0.010
   27  0.008  0.000  0.000  0.008
   28  0.008  0.000  0.000  0.008
   29  0.109  0.000  0.000  0.109
   30  0.088  0.000  0.000  0.088
   31  0.088  0.000  0.000  0.088
   32  0.040  0.000  0.000  0.040
   33  0.040  0.000  0.000  0.040
   34  0.043  0.000  0.000  0.043
   35  0.043  0.000  0.000  0.043
   36  0.015  0.000  0.000  0.015
   37  0.015  0.000  0.000  0.015
   38  0.005  0.000  0.000  0.005
   39  0.005  0.000  0.000  0.005
   40  0.003  0.000  0.000  0.003
   41  0.003  0.000  0.000  0.003
   42  0.109  0.000  0.000  0.109
   43  0.001  0.000  0.000  0.001
   44  0.001  0.000  0.000  0.001
tot    0.650  0.019  0.005  0.675
 
band    18 # energy   -8.63739151 # occ.  2.00000000
 
ion      s      p      d    tot
    1  0.000  0.000  0.000  0.000
    2  0.000  0.000  0.000  0.000
    3  0.000  0.000  0.000  0.000
    4  0.001  0.000  0.000  0.002
    5  0.001  0.000  0.000  0.002
    6  0.002  0.001  0.000  0.002
    7  0.002  0.001  0.000  0.002
    8  0.000  0.000  0.000  0.000
    9  0.000  0.000  0.000  0.000
   10  0.000  0.000  0.000  0.000
   11  0.000  0.000  0.000  0.000
   12  0.000  0.000  0.000  0.001
   13  0.000  0.000  0.000  0.001
   14  0.000  0.000  0.000  0.001
   15  0.000  0.000  0.000  0.001
   16  0.000  0.000  0.000  0.000
   17  0.001  0.003  0.001  0.004
   18  0.001  0.003  0.001  0.004
   19  0.001  0.003  0.001  0.005
   20  0.001  0.003  0.001  0.005
   21  0.000  0.000  0.000  0.001
   22  0.000  0.000  0.000  0.001
   23  0.000  0.000  0.000  0.001
   24  0.000  0.000  0.000  0.001
   25  0.009  0.000  0.000  0.009
   26  0.009  0.000  0.000  0.009
   27  0.010  0.000  0.000  0.010
   28  0.010  0.000  0.000  0.010
   29  0.095  0.000  0.000  0.095
   30  0.112  0.000  0.000  0.112
   31  0.112  0.000  0.000  0.112
   32  0.029  0.000  0.000  0.029
   33  0.029  0.000  0.000  0.029
   34  0.034  0.000  0.000  0.034
   35  0.034  0.000  0.000  0.034
   36  0.010  0.000  0.000  0.010
   37  0.010  0.000  0.000  0.010
   38  0.021  0.000  0.000  0.021
   39  0.021  0.000  0.000  0.021
   40  0.000  0.000  0.000  0.000
   41  0.000  0.000  0.000  0.000
   42  0.095  0.000  0.000  0.095
   43  0.001  0.000  0.000  0.001
   44  0.001  0.000  0.000  0.001
tot    0.652  0.018  0.006  0.676
 
band    19 # energy   -8.53564665 # occ.  2.00000000
 
ion      s      p      d    tot
    1  0.000  0.000  0.000  0.000
    2  0.000  0.000  0.000  0.000
    3  0.000  0.000  0.000  0.000
    4  0.000  0.001  0.000  0.001
    5  0.000  0.001  0.000  0.001
    6  0.000  0.001  0.000  0.001
    7  0.000  0.001  0.000  0.001
    8  0.000  0.000  0.000  0.000
    9  0.000  0.000  0.000  0.000
   10  0.000  0.000  0.000  0.000
   11  0.000  0.000  0.000  0.000
   12  0.000  0.000  0.000  0.001
   13  0.000  0.000  0.000  0.001
   14  0.000  0.000  0.000  0.001
   15  0.000  0.000  0.000  0.001
   16  0.000  0.000  0.000  0.000
   17  0.000  0.003  0.001  0.004