 running on   14 total cores
 distrk:  each k-point on   14 cores,    1 groups
 distr:  one band on    1 cores,   14 groups
 using from now: INCAR     
 vasp.5.4.4.18Apr17-6-g9f103f2a35 (build Oct 27 2022 13:04:57) complex          
  
 POSCAR found type information on POSCAR  Li Bi S 
 POSCAR found :  3 types and      44 ions
 scaLAPACK will be used

 ----------------------------------------------------------------------------- 
|                                                                             |
|           W    W    AA    RRRRR   N    N  II  N    N   GGGG   !!!           |
|           W    W   A  A   R    R  NN   N  II  NN   N  G    G  !!!           |
|           W    W  A    A  R    R  N N  N  II  N N  N  G       !!!           |
|           W WW W  AAAAAA  RRRRR   N  N N  II  N  N N  G  GGG   !            |
|           WW  WW  A    A  R   R   N   NN  II  N   NN  G    G                |
|           W    W  A    A  R    R  N    N  II  N    N   GGGG   !!!           |
|                                                                             |
|      For optimal performance we recommend to set                            |
|        NCORE= 4 - approx SQRT( number of cores)                             |
|      NCORE specifies how many cores store one orbital (NPAR=cpu/NCORE).     |
|      This setting can  greatly improve the performance of VASP for DFT.     |
|      The default,   NCORE=1            might be grossly inefficient         |
|      on modern multi-core architectures or massively parallel machines.     |
|      Do your own testing !!!!                                               |
|      Unfortunately you need to use the default for GW and RPA calculations. |
|      (for HF NCORE is supported but not extensively tested yet)             |
|                                                                             |
 ----------------------------------------------------------------------------- 

 LDA part: xc-table for Pade appr. of Perdew
 POSCAR, INCAR and KPOINTS ok, starting setup
 FFT: planning ...
 WAVECAR not read
 entering main loop
       N       E                     dE             d eps       ncg     rms          rms(c)
DAV:   1     0.720478740243E+03    0.72048E+03   -0.46912E+04   672   0.805E+02
DAV:   2    -0.722149837342E+02   -0.79269E+03   -0.75880E+03   910   0.163E+02
DAV:   3    -0.177988419972E+03   -0.10577E+03   -0.10480E+03   798   0.654E+01
DAV:   4    -0.181763795889E+03   -0.37754E+01   -0.37628E+01   994   0.136E+01
DAV:   5    -0.181835037417E+03   -0.71242E-01   -0.71107E-01   910   0.186E+00    0.203E+01
DAV:   6    -0.167470516954E+03    0.14365E+02   -0.34957E+01   784   0.108E+01    0.145E+01
DAV:   7    -0.166573692191E+03    0.89682E+00   -0.78092E+00   882   0.476E+00    0.928E+00
DAV:   8    -0.166242181312E+03    0.33151E+00   -0.76893E-01   924   0.201E+00    0.280E+00
DAV:   9    -0.166200356391E+03    0.41825E-01   -0.18567E-01   812   0.108E+00    0.109E+00
DAV:  10    -0.166201862573E+03   -0.15062E-02   -0.22302E-02   854   0.312E-01    0.721E-01
DAV:  11    -0.166203092207E+03   -0.12296E-02   -0.29270E-03   882   0.146E-01    0.279E-01
DAV:  12    -0.166203378334E+03   -0.28613E-03   -0.35682E-03   756   0.161E-01    0.112E-01
DAV:  13    -0.166203398962E+03   -0.20629E-04   -0.10328E-03   896   0.645E-02    0.791E-02
DAV:  14    -0.166203415518E+03   -0.16556E-04   -0.52125E-05   462   0.191E-02
   1 F= -.16620342E+03 E0= -.16620270E+03  d E =-.166203E+03
 curvature:   0.00 expect dE= 0.000E+00 dE for cont linesearch  0.000E+00
 trial: gam= 0.00000 g(F)=  0.410E+00 g(S)=  0.602E+00 ort = 0.000E+00 (trialstep = 0.100E+01)
 search vector abs. value=  0.101E+01
 bond charge predicted
       N       E                     dE             d eps       ncg     rms          rms(c)
DAV:   1    -0.167488469057E+03   -0.12851E+01   -0.72152E+00   756   0.561E+00    0.352E+00
DAV:   2    -0.167201942570E+03    0.28653E+00   -0.12036E+00   798   0.204E+00    0.116E+00
DAV:   3    -0.167189937662E+03    0.12005E-01   -0.64267E-02   798   0.541E-01    0.599E-01
DAV:   4    -0.167184721302E+03    0.52164E-02   -0.78283E-03   896   0.190E-01    0.420E-01
DAV:   5    -0.167183349313E+03    0.13720E-02   -0.26651E-03   798   0.957E-02    0.254E-01
DAV:   6    -0.167183014130E+03    0.33518E-03   -0.10049E-03   868   0.622E-02    0.127E-01
DAV:   7    -0.167183004880E+03    0.92501E-05   -0.16783E-04   560   0.283E-02
   2 F= -.16718300E+03 E0= -.16718280E+03  d E =-.979589E+00
 ZBRENT: can't locate minimum, use default step
 trial-energy change:   -0.979589  1 .order   -0.977720   -1.012540   -0.942901
 step:   4.0000(harm= 14.5397)  dis= 0.05653  next Energy=  -173.564439 (dE=-0.736E+01)
 bond charge predicted
       N       E                     dE             d eps       ncg     rms          rms(c)
DAV:   1    -0.172533772701E+03   -0.53508E+01   -0.67096E+01   714   0.173E+01    0.117E+01
DAV:   2    -0.169858634047E+03    0.26751E+01   -0.10977E+01   784   0.630E+00    0.386E+00
DAV:   3    -0.169753937417E+03    0.10470E+00   -0.71420E-01   756   0.177E+00    0.202E+00
DAV:   4    -0.169714556576E+03    0.39381E-01   -0.55610E-02   896   0.532E-01    0.156E+00
DAV:   5    -0.169697818323E+03    0.16738E-01   -0.25522E-02   770   0.292E-01    0.848E-01
DAV:   6    -0.169694035357E+03    0.37830E-02   -0.10772E-02   952   0.195E-01    0.331E-01
DAV:   7    -0.169694056919E+03   -0.21562E-04   -0.14741E-03   966   0.780E-02    0.944E-02
DAV:   8    -0.169694045844E+03    0.11075E-04   -0.11800E-04   462   0.327E-02
   3 F= -.16969405E+03 E0= -.16969405E+03  d E =-.349063E+01
 curvature:  -2.86 expect dE=-0.186E+01 dE for cont linesearch -0.146E+01
 ZBRENT: increasing intervall
 opt :  10.0000  next Energy=  -172.660859 (dE=-0.646E+01)
 bond charge predicted
       N       E                     dE             d eps       ncg     rms          rms(c)
DAV:   1    -0.183674689197E+03   -0.13981E+02   -0.28317E+02   714   0.363E+01    0.278E+01
DAV:   2    -0.173050600747E+03    0.10624E+02   -0.41243E+01   756   0.128E+01    0.948E+00
DAV:   3    -0.172470744554E+03    0.57986E+00   -0.42054E+00   812   0.411E+00    0.536E+00
DAV:   4    -0.172365117999E+03    0.10563E+00   -0.20409E-01   840   0.107E+00    0.417E+00
DAV:   5    -0.172282131138E+03    0.82987E-01   -0.15537E-01   798   0.735E-01    0.169E+00
DAV:   6    -0.172276267437E+03    0.58637E-02   -0.43825E-02   938   0.395E-01    0.590E-01
DAV:   7    -0.172276358852E+03   -0.91416E-04   -0.51335E-03   826   0.162E-01    0.276E-01
DAV:   8    -0.172276300298E+03    0.58555E-04   -0.73849E-04   770   0.684E-02
   4 F= -.17227630E+03 E0= -.17227630E+03  d E =-.607288E+01
 curvature:  -5.82 expect dE=-0.662E+01 dE for cont linesearch -0.109E+00
 trial: gam= 0.98806 g(F)=  0.834E+00 g(S)=  0.305E+00 ort = 0.138E+00 (trialstep = 0.118E+01)
 search vector abs. value=  0.240E+01
 bond charge predicted
       N       E                     dE             d eps       ncg     rms          rms(c)
DAV:   1    -0.173617560867E+03   -0.13412E+01   -0.24002E+01   700   0.104E+01    0.382E+00
DAV:   2    -0.173709153201E+03   -0.91592E-01   -0.16665E+00   826   0.306E+00    0.151E+00
DAV:   3    -0.173691183647E+03    0.17970E-01   -0.47460E-02   868   0.601E-01    0.122E+00
DAV:   4    -0.173684757810E+03    0.64258E-02   -0.22887E-02   840   0.343E-01    0.703E-01
DAV:   5    -0.173684606812E+03    0.15100E-03   -0.41854E-03   868   0.152E-01    0.216E-01
DAV:   6    -0.173684345586E+03    0.26123E-03   -0.16353E-03   798   0.937E-02    0.767E-02
DAV:   7    -0.173684386986E+03   -0.41400E-04   -0.40213E-04   756   0.450E-02
   5 F= -.17368439E+03 E0= -.17368439E+03  d E =-.140809E+01
 ZBRENT: can't locate minimum, use default step
 trial-energy change:   -1.408087  1 .order   -1.415686   -1.505974   -1.325398
 step:   4.7278(harm=  9.8573)  dis= 0.12225  next Energy=  -178.556078 (dE=-0.628E+01)
 bond charge predicted
       N       E                     dE             d eps       ncg     rms          rms(c)
DAV:   1    -0.176264706892E+03   -0.25804E+01   -0.21452E+02   672   0.312E+01    0.171E+01
DAV:   2    -0.177057437189E+03   -0.79273E+00   -0.15585E+01   812   0.929E+00    0.614E+00
DAV:   3    -0.176884809196E+03    0.17263E+00   -0.47415E-01   854   0.190E+00    0.542E+00
DAV:   4    -0.176830356734E+03    0.54452E-01   -0.19342E-01   826   0.101E+00    0.329E+00
DAV:   5    -0.176824119714E+03    0.62370E-02   -0.32504E-02   840   0.423E-01    0.120E+00
DAV:   6    -0.176820215346E+03    0.39044E-02   -0.12647E-02   826   0.278E-01    0.387E-01
DAV:   7    -0.176820597400E+03   -0.38205E-03   -0.54536E-03   896   0.154E-01    0.200E-01
DAV:   8    -0.176820620674E+03   -0.23274E-04   -0.48578E-04   728   0.520E-02
   6 F= -.17682062E+03 E0= -.17682062E+03  d E =-.454432E+01
 curvature:  -6.03 expect dE=-0.269E+01 dE for cont linesearch -0.112E+01
 ZBRENT: increasing intervall
 opt :  11.8196  next Energy=  -178.324408 (dE=-0.605E+01)
 bond charge predicted
       N       E                     dE             d eps       ncg     rms          rms(c)
DAV:   1    -0.175674140785E+03    0.11465E+01   -0.83665E+02   672   0.625E+01    0.615E+01
DAV:   2    -0.179211065997E+03   -0.35369E+01   -0.69329E+01   784   0.193E+01    0.199E+01
DAV:   3    -0.178496574748E+03    0.71449E+00   -0.21322E+00   798   0.415E+00    0.185E+01
DAV:   4    -0.178334422346E+03    0.16215E+00   -0.70821E-01   840   0.192E+00    0.120E+01
DAV:   5    -0.178290053790E+03    0.44369E-01   -0.86668E-02   854   0.709E-01    0.638E+00
DAV:   6    -0.178258248812E+03    0.31805E-01   -0.82331E-02   868   0.724E-01    0.147E+00
DAV:   7    -0.178261283174E+03   -0.30344E-02   -0.34836E-02   854   0.402E-01    0.574E-01
DAV:   8    -0.178262329673E+03   -0.10465E-02   -0.19552E-03   770   0.108E-01    0.283E-01
DAV:   9    -0.178263242092E+03   -0.91242E-03   -0.12259E-03   700   0.756E-02    0.129E-01
DAV:  10    -0.178263442821E+03   -0.20073E-03   -0.15865E-04   602   0.289E-02    0.774E-02
DAV:  11    -0.178263696066E+03   -0.25324E-03   -0.28923E-04   602   0.341E-02    0.362E-02
DAV:  12    -0.178263744009E+03   -0.47943E-04   -0.37702E-05   546   0.143E-02
   7 F= -.17826374E+03 E0= -.17826374E+03  d E =-.598744E+01
 curvature:  -8.12 expect dE=-0.446E+01 dE for cont linesearch -0.175E+00
 ZBRENT: bracketing found
 ZBRENT: interpolating
 opt :  10.0159  next Energy=  -178.468827 (dE=-0.619E+01)
 bond charge predicted
       N       E                     dE             d eps       ncg     rms          rms(c)
DAV:   1    -0.178333189773E+03   -0.69494E-01   -0.53847E+01   672   0.157E+01    0.615E+00
DAV:   2    -0.178552170701E+03   -0.21898E+00   -0.35187E+00   812   0.460E+00    0.271E+00
DAV:   3    -0.178511699949E+03    0.40471E-01   -0.85297E-02   840   0.835E-01    0.200E+00
DAV:   4    -0.178486867751E+03    0.24832E-01   -0.62870E-02   798   0.570E-01    0.937E-01
DAV:   5    -0.178486594495E+03    0.27326E-03   -0.15318E-02   854   0.282E-01    0.325E-01
DAV:   6    -0.178486184447E+03    0.41005E-03   -0.22646E-03   826   0.102E-01    0.161E-01
DAV:   7    -0.178486449104E+03   -0.26466E-03   -0.87315E-04   714   0.676E-02    0.445E-02
DAV:   8    -0.178486585819E+03   -0.13671E-03   -0.22993E-04   574   0.365E-02    0.393E-02
DAV:   9    -0.178486672639E+03   -0.86820E-04   -0.89780E-05   462   0.205E-02
   8 F= -.17848667E+03 E0= -.17848667E+03  d E =-.621037E+01
 curvature:  -9.51 expect dE=-0.410E+01 dE for cont linesearch -0.103E-03
 trial: gam= 0.23916 g(F)=  0.356E+00 g(S)=  0.756E-01 ort =-0.509E-02 (trialstep = 0.295E+01)
 search vector abs. value=  0.566E+00
 bond charge predicted
       N       E                     dE             d eps       ncg     rms          rms(c)
DAV:   1    -0.179548498344E+03   -0.10619E+01   -0.21898E+01   672   0.106E+01    0.355E+00
DAV:   2    -0.179554345201E+03   -0.58469E-02   -0.18800E+00   812   0.332E+00    0.256E+00
DAV:   3    -0.179537313431E+03    0.17032E-01   -0.10927E-01   896   0.775E-01    0.181E+00
DAV:   4    -0.179520429784E+03    0.16884E-01   -0.20502E-02   826   0.347E-01    0.948E-01
DAV:   5    -0.179513288167E+03    0.71416E-02   -0.16588E-02   854   0.327E-01    0.500E-01
DAV:   6    -0.179513191525E+03    0.96642E-04   -0.49904E-03   882   0.157E-01    0.315E-01
DAV:   7    -0.179513106670E+03    0.84855E-04   -0.49099E-04   756   0.531E-02
   9 F= -.17951311E+03 E0= -.17951311E+03  d E =-.102643E+01
 trial-energy change:   -1.026434  1 .order   -1.033654   -1.268034   -0.799275
 step:  10.4121(harm=  7.9766)  dis= 0.15719  next Energy=  -180.407530 (dE=-0.192E+01)
 bond charge predicted
       N       E                     dE             d eps       ncg     rms          rms(c)
DAV:   1    -0.180386010984E+03   -0.87282E+00   -0.13760E+02   672   0.266E+01    0.107E+01
DAV:   2    -0.180463335077E+03   -0.77324E-01   -0.11951E+01   812   0.841E+00    0.693E+00
DAV:   3    -0.180355268555E+03    0.10807E+00   -0.76002E-01   854   0.208E+00    0.510E+00
DAV:   4    -0.180253902201E+03    0.10137E+00   -0.11370E-01   812   0.801E-01    0.287E+00
DAV:   5    -0.180195071416E+03    0.58831E-01   -0.13302E-01   812   0.922E-01    0.128E+00
DAV:   6    -0.180195817742E+03   -0.74633E-03   -0.37325E-02   868   0.425E-01    0.856E-01
DAV:   7    -0.180195411624E+03    0.40612E-03   -0.23921E-03   854   0.117E-01    0.496E-01
DAV:   8    -0.180195125473E+03    0.28615E-03   -0.18446E-03   938   0.142E-01    0.142E-01
DAV:   9    -0.180195179939E+03   -0.54466E-04   -0.10748E-03   882   0.801E-02    0.173E-01
DAV:  10    -0.180195182939E+03   -0.30001E-05   -0.11125E-04   434   0.256E-02
  10 F= -.18019518E+03 E0= -.18019518E+03  d E =-.170851E+01
 curvature:  -4.02 expect dE=-0.538E+00 dE for cont linesearch -0.321E-01
 ZBRENT: interpolating
 opt :   8.9289  next Energy=  -180.245034 (dE=-0.176E+01)
 bond charge predicted
       N       E                     dE             d eps       ncg     rms          rms(c)
DAV:   1    -0.180263663413E+03   -0.68483E-01   -0.55928E+00   672   0.529E+00    0.191E+00
DAV:   2    -0.180264266888E+03   -0.60347E-03   -0.48019E-01   812   0.168E+00    0.104E+00
DAV:   3    -0.180260004935E+03    0.42620E-02   -0.31082E-02   882   0.420E-01    0.593E-01
DAV:   4    -0.180257062533E+03    0.29424E-02   -0.42159E-03   798   0.155E-01    0.328E-01
DAV:   5    -0.180255663055E+03    0.13995E-02   -0.22086E-03   812   0.125E-01    0.206E-01
DAV:   6    -0.180255531716E+03    0.13134E-03   -0.97156E-04   882   0.714E-02    0.124E-01
DAV:   7    -0.180255526797E+03    0.49190E-05   -0.12573E-04   462   0.337E-02
  11 F= -.18025553E+03 E0= -.18025553E+03  d E =-.176885E+01
 curvature:  -6.24 expect dE=-0.650E+00 dE for cont linesearch -0.242E-02
 trial: gam= 0.23988 g(F)=  0.578E-01 g(S)=  0.464E-01 ort =-0.148E-01 (trialstep = 0.414E+01)
 search vector abs. value=  0.130E+00
 bond charge predicted
       N       E                     dE             d eps       ncg     rms          rms(c)
DAV:   1    -0.180663915289E+03   -0.40838E+00   -0.12893E+01   672   0.791E+00    0.360E+00
DAV:   2    -0.180602299837E+03    0.61615E-01   -0.10036E+00   798   0.243E+00    0.156E+00
DAV:   3    -0.180588813743E+03    0.13486E-01   -0.87122E-02   826   0.631E-01    0.856E-01
DAV:   4    -0.180582731391E+03    0.60824E-02   -0.81564E-03   812   0.231E-01    0.494E-01
DAV:   5    -0.180580660016E+03    0.20714E-02   -0.44325E-03   812   0.144E-01    0.236E-01
DAV:   6    -0.180580466237E+03    0.19378E-03   -0.10326E-03   924   0.703E-02    0.151E-01
DAV:   7    -0.180580495674E+03   -0.29437E-04   -0.18485E-04   532   0.396E-02
  12 F= -.18058050E+03 E0= -.18058050E+03  d E =-.324969E+00
 trial-energy change:   -0.324969  1 .order   -0.321036   -0.417006   -0.225066
 step:   8.0665(harm=  9.0049)  dis= 0.05776  next Energy=  -180.690304 (dE=-0.435E+00)
 bond charge predicted
       N       E                     dE             d eps       ncg     rms          rms(c)
DAV:   1    -0.180781059031E+03   -0.20059E+00   -0.11569E+01   672   0.752E+00    0.339E+00
DAV:   2    -0.180725295286E+03    0.55764E-01   -0.90566E-01   812   0.232E+00    0.154E+00
DAV:   3    -0.180712904144E+03    0.12391E-01   -0.79451E-02   826   0.603E-01    0.833E-01
DAV:   4    -0.180707360863E+03    0.55433E-02   -0.73490E-03   812   0.219E-01    0.479E-01
DAV:   5    -0.180705405187E+03    0.19557E-02   -0.40925E-03   798   0.140E-01    0.224E-01
DAV:   6    -0.180705238596E+03    0.16659E-03   -0.96512E-04   910   0.687E-02    0.146E-01
DAV:   7    -0.180705269241E+03   -0.30645E-04   -0.17399E-04   532   0.396E-02
  13 F= -.18070527E+03 E0= -.18070527E+03  d E =-.449742E+00
 curvature:  -5.58 expect dE=-0.472E+00 dE for cont linesearch -0.253E-02
 trial: gam= 0.69262 g(F)=  0.689E-01 g(S)=  0.156E-01 ort = 0.766E-02 (trialstep = 0.406E+01)
 search vector abs. value=  0.157E+00
 bond charge predicted
       N       E                     dE             d eps       ncg     rms          rms(c)
DAV:   1    -0.180934852661E+03   -0.22961E+00   -0.20258E+01   672   0.962E+00    0.314E+00
DAV:   2    -0.181040040436E+03   -0.10519E+00   -0.13367E+00   812   0.278E+00    0.151E+00
DAV:   3    -0.181032893562E+03    0.71469E-02   -0.37595E-02   826   0.534E-01    0.106E+00
DAV:   4    -0.181028168239E+03    0.47253E-02   -0.75230E-03   826   0.210E-01    0.657E-01
DAV:   5    -0.181026482696E+03    0.16855E-02   -0.29656E-03   826   0.133E-01    0.375E-01
DAV:   6    -0.181026099431E+03    0.38326E-03   -0.29066E-03   798   0.126E-01    0.176E-01
DAV:   7    -0.181026116902E+03   -0.17471E-04   -0.63216E-04   756   0.619E-02
  14 F= -.18102612E+03 E0= -.18102612E+03  d E =-.320848E+00
 ZBRENT: can't locate minimum, use default step
 trial-energy change:   -0.320848  1 .order   -0.322947   -0.364863   -0.281031
 step:  16.2449(harm= 17.6758)  dis= 0.16417  next Energy=  -181.499270 (dE=-0.794E+00)
 bond charge predicted
       N       E                     dE             d eps       ncg     rms          rms(c)
DAV:   1    -0.180583216536E+03    0.44288E+00   -0.18223E+02   672   0.294E+01    0.149E+01
DAV:   2    -0.181637162706E+03   -0.10539E+01   -0.13147E+01   826   0.864E+00    0.620E+00
DAV:   3    -0.181565068086E+03    0.72095E-01   -0.36479E-01   826   0.170E+00    0.474E+00
DAV:   4    -0.181524336780E+03    0.40731E-01   -0.67794E-02   812   0.626E-01    0.302E+00
DAV:   5    -0.181505348120E+03    0.18989E-01   -0.32323E-02   812   0.438E-01    0.143E+00
DAV:   6    -0.181502940518E+03    0.24076E-02   -0.23782E-02   826   0.353E-01    0.540E-01
DAV:   7    -0.181503103221E+03   -0.16270E-03   -0.45429E-03   770   0.163E-01    0.400E-01
DAV:   8    -0.181503041524E+03    0.61697E-04   -0.57827E-04   714   0.567E-02
  15 F= -.18150304E+03 E0= -.18150304E+03  d E =-.797772E+00
 curvature: -15.31 expect dE=-0.826E+00 dE for cont linesearch -0.547E-02
 trial: gam= 0.55964 g(F)=  0.347E-01 g(S)=  0.192E-01 ort = 0.750E-02 (trialstep = 0.650E+01)
 search vector abs. value=  0.112E+00
 bond charge predicted
       N       E                     dE             d eps       ncg     rms          rms(c)
DAV:   1    -0.181765832287E+03   -0.26273E+00   -0.32480E+01   672   0.125E+01    0.488E+00
DAV:   2    -0.181830873243E+03   -0.65041E-01   -0.22962E+00   812   0.366E+00    0.252E+00
DAV:   3    -0.181798892084E+03    0.31981E-01   -0.81756E-02   840   0.739E-01    0.167E+00
DAV:   4    -0.181775299405E+03    0.23593E-01   -0.33967E-02   812   0.450E-01    0.754E-01
DAV:   5    -0.181771787142E+03    0.35123E-02   -0.12317E-02   868   0.256E-01    0.311E-01
DAV:   6    -0.181771382971E+03    0.40417E-03   -0.17325E-03   938   0.957E-02    0.173E-01
DAV:   7    -0.181771364913E+03    0.18058E-04   -0.37304E-04   672   0.483E-02
  16 F= -.18177136E+03 E0= -.18177136E+03  d E =-.268323E+00
 trial-energy change:   -0.268323  1 .order   -0.272103   -0.377844   -0.166361
 step:  13.0065(harm= 11.6095)  dis= 0.10163  next Energy=  -181.850883 (dE=-0.348E+00)
 bond charge predicted
       N       E                     dE             d eps       ncg     rms          rms(c)
DAV:   1    -0.181835395967E+03   -0.64013E-01   -0.32300E+01   672   0.125E+01    0.473E+00
DAV:   2    -0.181899885481E+03   -0.64490E-01   -0.22693E+00   798   0.364E+00    0.249E+00
DAV:   3    -0.181868571912E+03    0.31314E-01   -0.81866E-02   868   0.739E-01    0.166E+00
DAV:   4    -0.181844996303E+03    0.23576E-01   -0.34063E-02   812   0.447E-01    0.764E-01
DAV:   5    -0.181841452874E+03    0.35434E-02   -0.12121E-02   840   0.256E-01    0.302E-01
DAV:   6    -0.181841055786E+03    0.39709E-03   -0.18549E-03   966   0.983E-02    0.167E-01
DAV:   7    -0.181841034168E+03    0.21618E-04   -0.36159E-04   672   0.473E-02
  17 F= -.18184103E+03 E0= -.18184103E+03  d E =-.337993E+00
 curvature: -10.31 expect dE=-0.412E+00 dE for cont linesearch -0.750E-03
 trial: gam= 0.89526 g(F)=  0.221E-01 g(S)=  0.178E-01 ort =-0.285E-02 (trialstep = 0.701E+01)
 search vector abs. value=  0.124E+00
 bond charge predicted
       N       E                     dE             d eps       ncg     rms          rms(c)
DAV:   1    -0.181857603673E+03   -0.16548E-01   -0.38160E+01   686   0.133E+01    0.449E+00
DAV:   2    -0.182027137730E+03   -0.16953E+00   -0.27220E+00   798   0.391E+00    0.198E+00
DAV:   3    -0.182013192482E+03    0.13945E-01   -0.77023E-02   854   0.717E-01    0.133E+00
DAV:   4    -0.182003184050E+03    0.10008E-01   -0.17860E-02   812   0.320E-01    0.818E-01
DAV:   5    -0.182001249836E+03    0.19342E-02   -0.66452E-03   840   0.189E-01    0.343E-01
DAV:   6    -0.182001046883E+03    0.20295E-03   -0.12739E-03   910   0.818E-02    0.170E-01
DAV:   7    -0.182001073711E+03   -0.26828E-04   -0.25849E-04   588   0.502E-02
  18 F= -.18200107E+03 E0= -.18200107E+03  d E =-.160040E+00
 trial-energy change:   -0.160040  1 .order   -0.161931   -0.261767   -0.062096
 step:   9.3629(harm=  9.1838)  dis= 0.07932  next Energy=  -182.011451 (dE=-0.170E+00)
 bond charge predicted
       N       E                     dE             d eps       ncg     rms          rms(c)
DAV:   1    -0.181994762108E+03    0.62848E-02   -0.43166E+00   686   0.448E+00    0.139E+00
DAV:   2    -0.182013986996E+03   -0.19225E-01   -0.30260E-01   798   0.131E+00    0.693E-01
DAV:   3    -0.182012477141E+03    0.15099E-02   -0.87075E-03   840   0.239E-01    0.470E-01
DAV:   4    -0.182011312105E+03    0.11650E-02   -0.19472E-03   840   0.106E-01    0.291E-01
DAV:   5    -0.182011064709E+03    0.24740E-03   -0.89248E-04   798   0.689E-02    0.116E-01
DAV:   6    -0.182011050189E+03    0.14520E-04   -0.15988E-04   462   0.325E-02
  19 F= -.18201105E+03 E0= -.18201105E+03  d E =-.170016E+00
 curvature: -15.17 expect dE=-0.304E+00 dE for cont linesearch -0.232E-04
 trial: gam= 0.25334 g(F)=  0.142E-01 g(S)=  0.587E-02 ort = 0.436E-03 (trialstep = 0.748E+01)
 search vector abs. value=  0.283E-01
 bond charge predicted
       N       E                     dE             d eps       ncg     rms          rms(c)
DAV:   1    -0.182077385931E+03   -0.66321E-01   -0.93525E+00   728   0.680E+00    0.250E+00
DAV:   2    -0.182112222457E+03   -0.34837E-01   -0.70939E-01   812   0.206E+00    0.116E+00
DAV:   3    -0.182103864104E+03    0.83584E-02   -0.31252E-02   798   0.458E-01    0.769E-01
DAV:   4    -0.182098604437E+03    0.52597E-02   -0.56952E-03   798   0.185E-01    0.473E-01
DAV:   5    -0.182095694293E+03    0.29101E-02   -0.57605E-03   798   0.186E-01    0.222E-01
DAV:   6    -0.182095667568E+03    0.26725E-04   -0.15703E-03   882   0.886E-02    0.146E-01
DAV:   7    -0.182095639902E+03    0.27666E-04   -0.99031E-05   462   0.262E-02
  20 F= -.18209564E+03 E0= -.18209564E+03  d E =-.845897E-01
 trial-energy change:   -0.084590  1 .order   -0.085139   -0.150886   -0.019393
 step:   8.6122(harm=  8.5794)  dis= 0.02677  next Energy=  -182.097111 (dE=-0.861E-01)
 bond charge predicted
       N       E                     dE             d eps       ncg     rms          rms(c)
DAV:   1    -0.182096960630E+03   -0.12931E-02   -0.21869E-01   756   0.104E+00    0.376E-01
DAV:   2    -0.182097833109E+03   -0.87248E-03   -0.16907E-02   812   0.317E-01    0.168E-01
DAV:   3    -0.182097641575E+03    0.19153E-03   -0.69767E-04   798   0.691E-02    0.113E-01
DAV:   4    -0.182097519734E+03    0.12184E-03   -0.11723E-04   462   0.286E-02    0.719E-02
DAV:   5    -0.182097449274E+03    0.70461E-04   -0.22233E-04   504   0.376E-02
  21 F= -.18209745E+03 E0= -.18209745E+03  d E =-.863991E-01
 curvature:  -6.00 expect dE=-0.552E-01 dE for cont linesearch -0.379E-04
 trial: gam= 0.40667 g(F)=  0.759E-02 g(S)=  0.160E-02 ort = 0.423E-03 (trialstep = 0.770E+01)
 search vector abs. value=  0.142E-01
 bond charge predicted
       N       E                     dE             d eps       ncg     rms          rms(c)
DAV:   1    -0.182140330475E+03   -0.42811E-01   -0.23207E+00   686   0.336E+00    0.117E+00
DAV:   2    -0.182153852718E+03   -0.13522E-01   -0.19431E-01   798   0.106E+00    0.531E-01
DAV:   3    -0.182152287492E+03    0.15652E-02   -0.54652E-03   854   0.206E-01    0.350E-01
DAV:   4    -0.182151296244E+03    0.99125E-03   -0.22400E-03   798   0.110E-01    0.190E-01
DAV:   5    -0.182151126515E+03    0.16973E-03   -0.58930E-04   756   0.581E-02    0.110E-01
DAV:   6    -0.182151092524E+03    0.33990E-04   -0.18800E-04   490   0.366E-02
  22 F= -.18215109E+03 E0= -.18215109E+03  d E =-.536433E-01
 trial-energy change:   -0.053643  1 .order   -0.053837   -0.072133   -0.035541
 step:  15.1863(harm= 15.1863)  dis= 0.03597  next Energy=  -182.168546 (dE=-0.711E-01)
 bond charge predicted
       N       E                     dE             d eps       ncg     rms          rms(c)
DAV:   1    -0.182158605203E+03   -0.74787E-02   -0.21976E+00   686   0.327E+00    0.115E+00
DAV:   2    -0.182171589428E+03   -0.12984E-01   -0.18587E-01   798   0.104E+00    0.509E-01
DAV:   3    -0.182170101171E+03    0.14883E-02   -0.51807E-03   840   0.201E-01    0.333E-01
DAV:   4    -0.182169183787E+03    0.91738E-03   -0.20933E-03   812   0.107E-01    0.183E-01
DAV:   5    -0.182169020301E+03    0.16349E-03   -0.55204E-04   756   0.565E-02    0.106E-01
DAV:   6    -0.182168991557E+03    0.28744E-04   -0.20072E-04   532   0.379E-02
  23 F= -.18216899E+03 E0= -.18216899E+03  d E =-.715423E-01
 curvature: -11.52 expect dE=-0.600E-01 dE for cont linesearch -0.828E-04
 trial: gam= 0.58029 g(F)=  0.466E-02 g(S)=  0.542E-03 ort = 0.320E-03 (trialstep = 0.920E+01)
 search vector abs. value=  0.104E-01
 bond charge predicted
       N       E                     dE             d eps       ncg     rms          rms(c)
DAV:   1    -0.182213532510E+03   -0.44512E-01   -0.11644E+00   672   0.242E+00    0.914E-01
DAV:   2    -0.182209018541E+03    0.45140E-02   -0.91459E-02   798   0.794E-01    0.508E-01
DAV:   3    -0.182208192742E+03    0.82580E-03   -0.12029E-02   826   0.249E-01    0.274E-01
DAV:   4    -0.182207515940E+03    0.67680E-03   -0.95127E-04   826   0.790E-02    0.161E-01
DAV:   5    -0.182207204202E+03    0.31174E-03   -0.83279E-04   798   0.678E-02    0.983E-02
DAV:   6    -0.182207203411E+03    0.79043E-06   -0.13071E-04   434   0.260E-02
  24 F= -.18220720E+03 E0= -.18220720E+03  d E =-.382119E-01
 trial-energy change:   -0.038212  1 .order   -0.039403   -0.049596   -0.029210
 step:  22.3832(harm= 22.3832)  dis= 0.05057  next Energy=  -182.229322 (dE=-0.603E-01)
 bond charge predicted
       N       E                     dE             d eps       ncg     rms          rms(c)
DAV:   1    -0.182239698094E+03   -0.32494E-01   -0.23872E+00   672   0.347E+00    0.131E+00
DAV:   2    -0.182230456097E+03    0.92420E-02   -0.18792E-01   812   0.114E+00    0.727E-01
DAV:   3    -0.182228766844E+03    0.16893E-02   -0.24950E-02   812   0.359E-01    0.388E-01
DAV:   4    -0.182227381594E+03    0.13852E-02   -0.19707E-03   826   0.114E-01    0.227E-01
DAV:   5    -0.182226728969E+03    0.65263E-03   -0.16464E-03   798   0.956E-02    0.144E-01
DAV:   6    -0.182226717063E+03    0.11906E-04   -0.29170E-04   546   0.375E-02
  25 F= -.18222672E+03 E0= -.18222672E+03  d E =-.577255E-01
 curvature: -21.51 expect dE=-0.131E+00 dE for cont linesearch -0.212E-04
 trial: gam= 1.22083 g(F)=  0.345E-02 g(S)=  0.264E-02 ort =-0.101E-03 (trialstep = 0.576E+01)
 search vector abs. value=  0.213E-01
 bond charge predicted
       N       E                     dE             d eps       ncg     rms          rms(c)
DAV:   1    -0.182257840853E+03   -0.31112E-01   -0.12711E+00   700   0.246E+00    0.982E-01
DAV:   2    -0.182252413308E+03    0.54275E-02   -0.96806E-02   840   0.789E-01    0.536E-01
DAV:   3    -0.182251170160E+03    0.12431E-02   -0.99344E-03   756   0.219E-01    0.300E-01
DAV:   4    -0.182250436980E+03    0.73318E-03   -0.98678E-04   812   0.774E-02    0.142E-01
DAV:   5    -0.182250167185E+03    0.26979E-03   -0.59116E-04   798   0.526E-02    0.715E-02
DAV:   6    -0.182250146424E+03    0.20761E-04   -0.68435E-05   462   0.207E-02
  26 F= -.18225015E+03 E0= -.18225015E+03  d E =-.234294E-01
 trial-energy change:   -0.023429  1 .order   -0.023838   -0.034398   -0.013278
 step:  10.3353(harm=  9.3821)  dis= 0.03639  next Energy=  -182.255214 (dE=-0.285E-01)
 bond charge predicted
       N       E                     dE             d eps       ncg     rms          rms(c)
DAV:   1    -0.182259562195E+03   -0.93950E-02   -0.79551E-01   700   0.195E+00    0.778E-01
DAV:   2    -0.182256107824E+03    0.34544E-02   -0.60273E-02   826   0.621E-01    0.402E-01
DAV:   3    -0.182255278719E+03    0.82910E-03   -0.61006E-03   770   0.172E-01    0.224E-01
DAV:   4    -0.182254815416E+03    0.46330E-03   -0.59435E-04   798   0.600E-02    0.110E-01
DAV:   5    -0.182254637963E+03    0.17745E-03   -0.33869E-04   630   0.407E-02    0.535E-02
DAV:   6    -0.182254621091E+03    0.16872E-04   -0.67132E-05   462   0.199E-02
  27 F= -.18225462E+03 E0= -.18225462E+03  d E =-.279040E-01
 curvature: -15.57 expect dE=-0.637E-01 dE for cont linesearch -0.278E-04
 trial: gam= 0.60129 g(F)=  0.364E-02 g(S)=  0.449E-03 ort =-0.195E-03 (trialstep = 0.668E+01)
 search vector abs. value=  0.116E-01
 bond charge predicted
       N       E                     dE             d eps       ncg     rms          rms(c)
DAV:   1    -0.182269228810E+03   -0.14591E-01   -0.14616E+00   672   0.260E+00    0.799E-01
DAV:   2    -0.182276915316E+03   -0.76865E-02   -0.10699E-01   826   0.782E-01    0.375E-01
DAV:   3    -0.182276326854E+03    0.58846E-03   -0.28936E-03   798   0.149E-01    0.259E-01
DAV:   4    -0.182275957858E+03    0.36900E-03   -0.58986E-04   784   0.582E-02    0.175E-01
DAV:   5    -0.182275816132E+03    0.14173E-03   -0.22034E-04   476   0.384E-02    0.862E-02
DAV:   6    -0.182275795092E+03    0.21040E-04   -0.32754E-04   644   0.399E-02
  28 F= -.18227580E+03 E0= -.18227580E+03  d E =-.211740E-01
 trial-energy change:   -0.021174  1 .order   -0.021012   -0.026524   -0.015500
 step:  16.0620(harm= 16.0620)  dis= 0.04182  next Energy=  -182.286531 (dE=-0.319E-01)
 bond charge predicted
       N       E                     dE             d eps       ncg     rms          rms(c)
DAV:   1    -0.182272508943E+03    0.33072E-02   -0.28955E+00   672   0.366E+00    0.114E+00
DAV:   2    -0.182287681969E+03   -0.15173E-01   -0.21329E-01   826   0.110E+00    0.525E-01
DAV:   3    -0.182286534244E+03    0.11477E-02   -0.58745E-03   798   0.212E-01    0.361E-01
DAV:   4    -0.182285818056E+03    0.71619E-03   -0.11773E-03   826   0.822E-02    0.241E-01
DAV:   5    -0.182285556540E+03    0.26152E-03   -0.51956E-04   756   0.543E-02    0.120E-01
DAV:   6    -0.182285510154E+03    0.46385E-04   -0.35044E-04   658   0.431E-02
  29 F= -.18228551E+03 E0= -.18228551E+03  d E =-.308891E-01
 curvature: -23.35 expect dE=-0.428E-01 dE for cont linesearch -0.236E-03
 trial: gam= 0.35938 g(F)=  0.138E-02 g(S)=  0.453E-03 ort =-0.342E-03 (trialstep = 0.855E+01)
 search vector abs. value=  0.308E-02
 bond charge predicted
       N       E                     dE             d eps       ncg     rms          rms(c)
DAV:   1    -0.182293879475E+03   -0.83229E-02   -0.11567E+00   672   0.237E+00    0.929E-01
DAV:   2    -0.182293881234E+03   -0.17596E-05   -0.91905E-02   798   0.743E-01    0.487E-01
DAV:   3    -0.182293149840E+03    0.73139E-03   -0.61363E-03   826   0.180E-01    0.280E-01
DAV:   4    -0.182292654800E+03    0.49504E-03   -0.79441E-04   812   0.699E-02    0.155E-01
DAV:   5    -0.182292473258E+03    0.18154E-03   -0.38514E-04   644   0.477E-02    0.764E-02
DAV:   6    -0.182292465627E+03    0.76307E-05   -0.11332E-04   462   0.248E-02
  30 F= -.18229247E+03 E0= -.18229247E+03  d E =-.695547E-02
 trial-energy change:   -0.006955  1 .order   -0.007376   -0.014643   -0.000109
 step:   8.6304(harm=  8.6168)  dis= 0.01040  next Energy=  -182.292466 (dE=-0.696E-02)
 bond charge predicted
       N       E                     dE             d eps       ncg     rms          rms(c)
DAV:   1    -0.182292463533E+03    0.97248E-05   -0.98449E-05   434   0.273E-02    0.169E-02
DAV:   2    -0.182292466238E+03   -0.27048E-05   -0.31062E-05   420   0.144E-02
  31 F= -.18229247E+03 E0= -.18229247E+03  d E =-.695608E-02
 curvature:  -7.40 expect dE=-0.113E-01 dE for cont linesearch -0.209E-04
 trial: gam= 0.78236 g(F)=  0.105E-02 g(S)=  0.475E-03 ort =-0.932E-04 (trialstep = 0.808E+01)
 search vector abs. value=  0.327E-02
 bond charge predicted
       N       E                     dE             d eps       ncg     rms          rms(c)
DAV:   1    -0.182295213324E+03   -0.27498E-02   -0.12806E+00   672   0.248E+00    0.839E-01
DAV:   2    -0.182299789750E+03   -0.45764E-02   -0.92214E-02   798   0.755E-01    0.403E-01
DAV:   3    -0.182299128488E+03    0.66126E-03   -0.55418E-03   840   0.181E-01    0.267E-01
DAV:   4    -0.182298667790E+03    0.46070E-03   -0.54374E-04   770   0.588E-02    0.182E-01
DAV:   5    -0.182298337165E+03    0.33062E-03   -0.52997E-04   770   0.544E-02    0.916E-02
DAV:   6    -0.182298295559E+03    0.41606E-04   -0.18323E-04   462   0.318E-02
  32 F= -.18229830E+03 E0= -.18229830E+03  d E =-.582932E-02
 trial-energy change:   -0.005829  1 .order   -0.006102   -0.011758   -0.000446
 step:   8.3948(harm=  8.3948)  dis= 0.01035  next Energy=  -182.298577 (dE=-0.611E-02)
 bond charge predicted
       N       E                     dE             d eps       ncg     rms          rms(c)
DAV:   1    -0.182298276743E+03    0.60422E-04   -0.19796E-03   756   0.101E-01    0.478E-02
DAV:   2    -0.182298276677E+03    0.66315E-07   -0.14185E-04   476   0.317E-02
  33 F= -.18229828E+03 E0= -.18229828E+03  d E =-.581044E-02
 curvature:  -9.43 expect dE=-0.643E-02 dE for cont linesearch -0.384E-04
 trial: gam= 0.38168 g(F)=  0.480E-03 g(S)=  0.202E-03 ort =-0.115E-03 (trialstep = 0.814E+01)
 search vector abs. value=  0.107E-02
 bond charge predicted
       N       E                     dE             d eps       ncg     rms          rms(c)
DAV:   1    -0.182301663931E+03   -0.33872E-02   -0.38412E-01   672   0.133E+00    0.437E-01
DAV:   2    -0.182303274666E+03   -0.16107E-02   -0.26456E-02   784   0.394E-01    0.194E-01
DAV:   3    -0.182302973983E+03    0.30068E-03   -0.76419E-04   840   0.756E-02    0.135E-01
DAV:   4    -0.182302752381E+03    0.22160E-03   -0.35190E-04   644   0.479E-02    0.645E-02
DAV:   5    -0.182302727086E+03    0.25295E-04   -0.12067E-04   420   0.285E-02
  34 F= -.18230273E+03 E0= -.18230273E+03  d E =-.445041E-02
 ZBRENT: can't locate minimum, use default step
 trial-energy change:   -0.004450  1 .order   -0.004624   -0.005197   -0.004050
 step:  32.5613(harm= 36.8957)  dis= 0.02956  next Energy=  -182.310054 (dE=-0.118E-01)
 bond charge predicted
       N       E                     dE             d eps       ncg     rms          rms(c)
DAV:   1    -0.182298587374E+03    0.41650E-02   -0.34331E+00   672   0.399E+00    0.135E+00
DAV:   2    -0.182312766107E+03   -0.14179E-01   -0.23751E-01   770   0.118E+00    0.592E-01
DAV:   3    -0.182310053772E+03    0.27123E-02   -0.69722E-03   868   0.228E-01    0.415E-01
DAV:   4    -0.182308104637E+03    0.19491E-02   -0.33736E-03   784   0.144E-01    0.193E-01
DAV:   5    -0.182307904341E+03    0.20030E-03   -0.92255E-04   784   0.730E-02    0.755E-02
DAV:   6    -0.182307858164E+03    0.46177E-04   -0.14605E-04   448   0.322E-02
  35 F= -.18230786E+03 E0= -.18230786E+03  d E =-.958149E-02
 curvature: -30.23 expect dE=-0.102E+00 dE for cont linesearch -0.549E-03
 ZBRENT: interpolating
 opt :  27.2157  next Energy=  -182.308231 (dE=-0.995E-02)
 bond charge predicted
       N       E                     dE             d eps       ncg     rms          rms(c)
DAV:   1    -0.182307784778E+03    0.11956E-03   -0.16310E-01   672   0.869E-01    0.279E-01
DAV:   2    -0.182308426483E+03   -0.64170E-03   -0.11008E-02   756   0.256E-01    0.127E-01
DAV:   3    -0.182308294263E+03    0.13222E-03   -0.31461E-04   658   0.497E-02    0.854E-02
DAV:   4    -0.182308202640E+03    0.91623E-04   -0.17343E-04   406   0.355E-02
  36 F= -.18230820E+03 E0= -.18230820E+03  d E =-.992596E-02
 curvature: -20.52 expect dE=-0.512E-01 dE for cont linesearch -0.371E-04
 trial: gam= 3.78018 g(F)=  0.154E-02 g(S)=  0.955E-03 ort =-0.440E-04 (trialstep = 0.733E+00)
 search vector abs. value=  0.175E-01
 bond charge predicted
       N       E                     dE             d eps       ncg     rms          rms(c)
DAV:   1    -0.182309798335E+03   -0.15041E-02   -0.51189E-02   672   0.480E-01    0.154E-01
DAV:   2    -0.182310007640E+03   -0.20931E-03   -0.34313E-03   770   0.142E-01    0.722E-02
DAV:   3    -0.182309975942E+03    0.31698E-04   -0.79615E-05   448   0.262E-02
  37 F= -.18230998E+03 E0= -.18230998E+03  d E =-.177330E-02
 ZBRENT: can't locate minimum, use default step
 trial-energy change:   -0.001773  1 .order   -0.001759   -0.001708   -0.001809
 step:   2.9320(harm=  2.9320)  dis= 0.01125  next Energy=  -182.315847 (dE=-0.764E-02)
 bond charge predicted
       N       E                     dE             d eps       ncg     rms          rms(c)
DAV:   1    -0.182313568461E+03   -0.35608E-02   -0.44235E-01   672   0.141E+00    0.432E-01
DAV:   2    -0.182315046964E+03   -0.14785E-02   -0.28544E-02   798   0.408E-01    0.204E-01
DAV:   3    -0.182314740073E+03    0.30689E-03   -0.82784E-04   812   0.770E-02    0.136E-01
DAV:   4    -0.182314539844E+03    0.20023E-03   -0.28391E-04   588   0.434E-02    0.783E-02
DAV:   5    -0.182314509946E+03    0.29898E-04   -0.18826E-04   448   0.331E-02
  38 F= -.18231451E+03 E0= -.18231451E+03  d E =-.630731E-02
 curvature: -16.87 expect dE=-0.333E-01 dE for cont linesearch -0.466E-02
 ZBRENT: increasing intervall
 opt :   7.3299  next Energy=  -182.322966 (dE=-0.148E-01)
 bond charge predicted
       N       E                     dE             d eps       ncg     rms          rms(c)
DAV:   1    -0.182317616598E+03   -0.30768E-02   -0.17936E+00   672   0.285E+00    0.901E-01
DAV:   2    -0.182324036952E+03   -0.64204E-02   -0.11843E-01   784   0.829E-01    0.393E-01
DAV:   3    -0.182322845818E+03    0.11911E-02   -0.34572E-03   826   0.157E-01    0.258E-01
DAV:   4    -0.182322080670E+03    0.76515E-03   -0.12226E-03   798   0.864E-02    0.151E-01
DAV:   5    -0.182321972209E+03    0.10846E-03   -0.47104E-04   756   0.488E-02    0.498E-02
DAV:   6    -0.182321954681E+03    0.17527E-04   -0.53280E-05   462   0.187E-02
  39 F= -.18232195E+03 E0= -.18232195E+03  d E =-.137520E-01
 curvature: -30.63 expect dE=-0.457E-01 dE for cont linesearch -0.255E-02
 ZBRENT: increasing intervall
 opt :  16.1258  next Energy=  -182.323858 (dE=-0.157E-01)
 bond charge predicted
       N       E                     dE             d eps       ncg     rms          rms(c)
DAV:   1    -0.182299872755E+03    0.22099E-01   -0.71808E+00   672   0.570E+00    0.184E+00
DAV:   2    -0.182325860166E+03   -0.25987E-01   -0.47555E-01   784   0.166E+00    0.779E-01
DAV:   3    -0.182321103153E+03    0.47570E-02   -0.13835E-02   840   0.316E-01    0.521E-01
DAV:   4    -0.182318138126E+03    0.29650E-02   -0.47234E-03   798   0.169E-01    0.312E-01
DAV:   5    -0.182317649656E+03    0.48847E-03   -0.18058E-03   868   0.957E-02    0.995E-02
DAV:   6    -0.182317565586E+03    0.84070E-04   -0.20229E-04   476   0.365E-02
  40 F= -.18231757E+03 E0= -.18231757E+03  d E =-.936295E-02
 curvature: -22.85 expect dE=-0.686E-01 dE for cont linesearch -0.184E-02
 ZBRENT: bracketing found
 ZBRENT: interpolating
 opt :  11.7655  next Energy=  -182.320150 (dE=-0.119E-01)
 bond charge predicted
       N       E                     dE             d eps       ncg     rms          rms(c)
DAV:   1    -0.182318514765E+03   -0.86511E-03   -0.17654E+00   672   0.283E+00    0.898E-01
DAV:   2    -0.182325047258E+03   -0.65325E-02   -0.11606E-01   770   0.825E-01    0.437E-01
DAV:   3    -0.182323914055E+03    0.11332E-02   -0.34261E-03   840   0.155E-01    0.285E-01
DAV:   4    -0.182323058002E+03    0.85605E-03   -0.13045E-03   798   0.891E-02    0.151E-01
DAV:   5    -0.182322934955E+03    0.12305E-03   -0.50775E-04   756   0.502E-02    0.522E-02
DAV:   6    -0.182322908618E+03    0.26337E-04   -0.47074E-05   448   0.175E-02
  41 F= -.18232291E+03 E0= -.18232291E+03  d E =-.147060E-01
 curvature: -32.11 expect dE=-0.645E-01 dE for cont linesearch -0.104E-02
 ZBRENT: bisectioning
 opt :   9.5477  next Energy=  -182.324336 (dE=-0.161E-01)
 bond charge predicted
       N       E                     dE             d eps       ncg     rms          rms(c)
DAV:   1    -0.182322367080E+03    0.56787E-03   -0.45643E-01   672   0.144E+00    0.455E-01
DAV:   2    -0.182324063712E+03   -0.16966E-02   -0.30072E-02   784   0.419E-01    0.206E-01
DAV:   3    -0.182323761859E+03    0.30185E-03   -0.86258E-04   812   0.788E-02    0.136E-01
DAV:   4    -0.182323541452E+03    0.22041E-03   -0.30977E-04   616   0.448E-02    0.756E-02
DAV:   5    -0.182323502407E+03    0.39045E-04   -0.16073E-04   448   0.307E-02
  42 F= -.18232350E+03 E0= -.18232350E+03  d E =-.152998E-01
 curvature: -43.90 expect dE=-0.645E-01 dE for cont linesearch -0.986E-04
 trial: gam= 0.26049 g(F)=  0.110E-02 g(S)=  0.364E-03 ort = 0.198E-03 (trialstep = 0.250E+01)
 search vector abs. value=  0.276E-02
 bond charge predicted
       N       E                     dE             d eps       ncg     rms          rms(c)
DAV:   1    -0.182326307662E+03   -0.27662E-02   -0.96647E-02   672   0.676E-01    0.217E-01
DAV:   2    -0.182326790341E+03   -0.48268E-03   -0.69497E-03   798   0.203E-01    0.997E-02
DAV:   3    -0.182326735425E+03    0.54916E-04   -0.23209E-04   560   0.422E-02
  43 F= -.18232674E+03 E0= -.18232674E+03  d E =-.323302E-02
 ZBRENT: can't locate minimum, use default step
 trial-energy change:   -0.003233  1 .order   -0.003385   -0.003794   -0.002977
 step:   9.9837(harm= 11.5913)  dis= 0.01306  next Energy=  -182.332312 (dE=-0.881E-02)
 bond charge predicted
       N       E                     dE             d eps       ncg     rms          rms(c)
DAV:   1    -0.182327825378E+03   -0.10350E-02   -0.85916E-01   672   0.202E+00    0.635E-01
DAV:   2    -0.182331929298E+03   -0.41039E-02   -0.61196E-02   798   0.605E-01    0.312E-01
DAV:   3    -0.182331455437E+03    0.47386E-03   -0.24275E-03   854   0.127E-01    0.198E-01
DAV:   4    -0.182331129483E+03    0.32595E-03   -0.44693E-04   742   0.511E-02    0.126E-01
DAV:   5    -0.182330977244E+03    0.15224E-03   -0.26855E-04   546   0.422E-02    0.667E-02
DAV:   6    -0.182330966929E+03    0.10315E-04   -0.20692E-04   434   0.329E-02
  44 F= -.18233097E+03 E0= -.18233097E+03  d E =-.746452E-02
 curvature: -10.18 expect dE=-0.616E-02 dE for cont linesearch -0.235E-04
 trial: gam= 0.36055 g(F)=  0.461E-03 g(S)=  0.144E-03 ort = 0.797E-04 (trialstep = 0.399E+01)
 search vector abs. value=  0.102E-02
 bond charge predicted
       N       E                     dE             d eps       ncg     rms          rms(c)
DAV:   1    -0.182333123454E+03   -0.21462E-02   -0.10226E-01   700   0.691E-01    0.270E-01
DAV:   2    -0.182333182040E+03   -0.58586E-04   -0.75310E-03   784   0.207E-01    0.132E-01
DAV:   3    -0.182333077270E+03    0.10477E-03   -0.29106E-04   630   0.430E-02    0.798E-02
DAV:   4    -0.182333009794E+03    0.67476E-04   -0.15394E-04   448   0.292E-02
  45 F= -.18233301E+03 E0= -.18233301E+03  d E =-.204286E-02
 trial-energy change:   -0.002043  1 .order   -0.002125   -0.002529   -0.001721
 step:  12.4920(harm= 12.4920)  dis= 0.01029  next Energy=  -182.334923 (dE=-0.396E-02)
 bond charge predicted
       N       E                     dE             d eps       ncg     rms          rms(c)
DAV:   1    -0.182335141971E+03   -0.20647E-02   -0.45695E-01   672   0.146E+00    0.559E-01
DAV:   2    -0.182335300795E+03   -0.15882E-03   -0.33135E-02   784   0.436E-01    0.280E-01
DAV:   3    -0.182334825200E+03    0.47559E-03   -0.13968E-03   882   0.888E-02    0.174E-01
DAV:   4    -0.182334528868E+03    0.29633E-03   -0.48661E-04   714   0.508E-02    0.835E-02
DAV:   5    -0.182334485659E+03    0.43208E-04   -0.14323E-04   462   0.274E-02
  46 F= -.18233449E+03 E0= -.18233449E+03  d E =-.351873E-02
 curvature: -10.06 expect dE=-0.469E-02 dE for cont linesearch -0.192E-04
 trial: gam= 0.66443 g(F)=  0.319E-03 g(S)=  0.147E-03 ort = 0.441E-04 (trialstep = 0.569E+01)
 search vector abs. value=  0.975E-03
 reached required accuracy - stopping structural energy minimisation
