<?xml version="1.0" encoding="ISO-8859-1"?>
<modeling>
 <generator>
  <i name="program" type="string">vasp </i>
  <i name="version" type="string">5.4.4.18Apr17-6-g9f103f2a35  </i>
  <i name="subversion" type="string">(build Oct 27 2022 13:04:57) complex            parallel </i>
  <i name="platform" type="string">LinuxIFC </i>
  <i name="date" type="string">2024 07 04 </i>
  <i name="time" type="string">00:13:22 </i>
 </generator>
 <incar>
  <i type="string" name="SYSTEM"> CIS</i>
  <i type="int" name="ISTART">     0</i>
  <i type="string" name="PREC">medium</i>
  <i type="int" name="ICHARG">     2</i>
  <i type="int" name="IBRION">     2</i>
  <i name="EDIFF">      0.00010000</i>
  <i name="EDIFFG">     -0.05000000</i>
  <i type="int" name="NSW">    99</i>
  <i type="int" name="ISIF">     3</i>
  <i name="ENCUT">    300.00000000</i>
  <i name="POTIM">      0.10000000</i>
  <i type="string" name="LREAL"> Auto</i>
  <i type="int" name="ISMEAR">     0</i>
  <i name="SIGMA">      0.05000000</i>
  <i type="int" name="LMAXMIX">     4</i>
  <i type="logical" name="LWAVE"> F  </i>
  <i type="logical" name="LCHARG"> F  </i>
  <i type="int" name="LORBIT">    10</i>
  <i type="logical" name="LASPH"> T  </i>
  <v type="int" name="KPOINT_BSE">    -1     0     0     0</v>
  <i type="logical" name="LASPH"> T  </i>
 </incar>
 <structure name="primitive_cell" >
  <crystal>
   <varray name="basis" >
    <v>       4.11375546       0.00000000       0.00000000 </v>
    <v>       0.00000000      17.10448989       0.00000000 </v>
    <v>       0.00000000       0.00000000      17.59567277 </v>
   </varray>
   <i name="volume">   1238.09644082 </i>
   <varray name="rec_basis" >
    <v>       0.24308688       0.00000000       0.00000000 </v>
    <v>       0.00000000       0.05846418       0.00000000 </v>
    <v>       0.00000000       0.00000000       0.05683215 </v>
   </varray>
  </crystal>
  <varray name="positions" >
   <v>       0.25000000       0.19218602      -0.08041938 </v>
   <v>      -0.25000000       0.06655922      -0.08174867 </v>
   <v>       0.25000000       0.16475697       0.09781178 </v>
   <v>       0.25000000       0.18077916      -0.26634072 </v>
   <v>      -0.25000000       0.31669544       0.06938156 </v>
   <v>      -0.25000000       0.31510513      -0.23481706 </v>
   <v>       0.25000000       0.42780610      -0.08291355 </v>
   <v>      -0.25000000       0.07000813      -0.25694783 </v>
   <v>      -0.25000000       0.05831812       0.08860454 </v>
   <v>       0.25000000      -0.05831812      -0.08860454 </v>
   <v>       0.25000000      -0.04528595      -0.24177240 </v>
   <v>       0.25000000      -0.06655922       0.08174867 </v>
   <v>       0.25000000       0.45197195       0.09313761 </v>
   <v>       0.25000000       0.45471405      -0.25822760 </v>
   <v>       0.25000000       0.18489487       0.26518294 </v>
   <v>       0.25000000       0.18330456      -0.43061844 </v>
   <v>      -0.25000000       0.31922084       0.23365928 </v>
   <v>      -0.25000000      -0.45197195      -0.09313761 </v>
   <v>      -0.25000000      -0.16475697      -0.09781178 </v>
   <v>      -0.25000000       0.33524303      -0.40218822 </v>
   <v>      -0.25000000       0.04528595       0.24177240 </v>
   <v>      -0.25000000       0.04802805      -0.40686239 </v>
   <v>       0.25000000       0.42999187       0.24305217 </v>
   <v>       0.25000000       0.44168188      -0.41139546 </v>
   <v>      -0.25000000      -0.42999187      -0.24305217 </v>
   <v>      -0.25000000      -0.42780610       0.08291355 </v>
   <v>       0.25000000      -0.07000813       0.25694783 </v>
   <v>      -0.25000000      -0.19218602       0.08041938 </v>
   <v>       0.25000000      -0.07219390      -0.41708645 </v>
   <v>      -0.25000000      -0.18489487      -0.26518294 </v>
   <v>       0.25000000      -0.31669544      -0.06938156 </v>
   <v>      -0.25000000      -0.45471405       0.25822760 </v>
   <v>       0.25000000      -0.31922084      -0.23365928 </v>
   <v>      -0.25000000      -0.43344078      -0.41825133 </v>
   <v>      -0.25000000      -0.18077916       0.26634072 </v>
   <v>      -0.25000000       0.07219390       0.41708645 </v>
   <v>      -0.25000000       0.30781398       0.41958062 </v>
   <v>       0.25000000      -0.04802805       0.40686239 </v>
   <v>       0.25000000       0.43344078       0.41825133 </v>
   <v>       0.25000000      -0.31510513       0.23481706 </v>
   <v>       0.25000000      -0.30781398      -0.41958062 </v>
   <v>      -0.25000000      -0.44168188       0.41139546 </v>
   <v>      -0.25000000      -0.18330456       0.43061844 </v>
   <v>       0.25000000      -0.33524303       0.40218822 </v>
  </varray>
 </structure>
 <varray name="primitive_index" >
  <v type="int" >        1 </v>
  <v type="int" >       28 </v>
  <v type="int" >       43 </v>
  <v type="int" >       32 </v>
  <v type="int" >       15 </v>
  <v type="int" >       11 </v>
  <v type="int" >        4 </v>
  <v type="int" >       20 </v>
  <v type="int" >       24 </v>
  <v type="int" >       23 </v>
  <v type="int" >       38 </v>
  <v type="int" >       27 </v>
  <v type="int" >       42 </v>
  <v type="int" >       36 </v>
  <v type="int" >        8 </v>
  <v type="int" >       12 </v>
  <v type="int" >       35 </v>
  <v type="int" >       29 </v>
  <v type="int" >       44 </v>
  <v type="int" >       40 </v>
  <v type="int" >       39 </v>
  <v type="int" >       31 </v>
  <v type="int" >       18 </v>
  <v type="int" >       21 </v>
  <v type="int" >       17 </v>
  <v type="int" >        5 </v>
  <v type="int" >       19 </v>
  <v type="int" >        3 </v>
  <v type="int" >        6 </v>
  <v type="int" >        9 </v>
  <v type="int" >       14 </v>
  <v type="int" >       37 </v>
  <v type="int" >       34 </v>
  <v type="int" >       26 </v>
  <v type="int" >       33 </v>
  <v type="int" >        7 </v>
  <v type="int" >       16 </v>
  <v type="int" >       30 </v>
  <v type="int" >       25 </v>
  <v type="int" >       10 </v>
  <v type="int" >        2 </v>
  <v type="int" >       22 </v>
  <v type="int" >       13 </v>
  <v type="int" >       41 </v>
 </varray>
 <kpoints>
  <generation param="Monkhorst-Pack">
   <v type="int" name="divisions">       5        2        2 </v>
   <v name="usershift">      0.00000000       0.00000000       0.00000000 </v>
   <v name="genvec1">      0.20000000       0.00000000       0.00000000 </v>
   <v name="genvec2">      0.00000000       0.50000000       0.00000000 </v>
   <v name="genvec3">      0.00000000       0.00000000       0.50000000 </v>
   <v name="shift">      0.00000000       0.50000000       0.50000000 </v>
  </generation>
  <varray name="kpointlist" >
   <v>       0.00000000       0.25000000       0.25000000 </v>
   <v>       0.20000000       0.25000000       0.25000000 </v>
   <v>       0.40000000       0.25000000       0.25000000 </v>
  </varray>
  <varray name="weights" >
   <v>       0.20000000 </v>
   <v>       0.40000000 </v>
   <v>       0.40000000 </v>
  </varray>
 </kpoints>
 <parameters>
  <separator name="general" >
   <i type="string" name="SYSTEM">CIS</i>
   <i type="logical" name="LCOMPAT"> F  </i>
  </separator>
  <separator name="electronic" >
   <i type="string" name="PREC">medium</i>
   <i name="ENMAX">    300.00000000</i>
   <i name="ENAUG">    335.09200000</i>
   <i name="EDIFF">      0.00010000</i>
   <i type="int" name="IALGO">    38</i>
   <i type="int" name="IWAVPR">    11</i>
   <i type="int" name="NBANDS">   112</i>
   <i name="NELECT">    176.00000000</i>
   <i type="int" name="TURBO">     0</i>
   <i type="int" name="IRESTART">     0</i>
   <i type="int" name="NREBOOT">     0</i>
   <i type="int" name="NMIN">     0</i>
   <i name="EREF">      0.00000000</i>
   <separator name="electronic smearing" >
    <i type="int" name="ISMEAR">     0</i>
    <i name="SIGMA">      0.05000000</i>
    <i name="KSPACING">      0.50000000</i>
    <i type="logical" name="KGAMMA"> T  </i>
   </separator>
   <separator name="electronic projectors" >
    <i type="logical" name="LREAL"> T  </i>
    <v name="ROPT">     -0.00200000     -0.00200000     -0.00200000</v>
    <i type="int" name="LMAXPAW">  -100</i>
    <i type="int" name="LMAXMIX">     4</i>
    <i type="logical" name="NLSPLINE"> F  </i>
   </separator>
   <separator name="electronic startup" >
    <i type="int" name="ISTART">     0</i>
    <i type="int" name="ICHARG">     2</i>
    <i type="int" name="INIWAV">     1</i>
   </separator>
   <separator name="electronic spin" >
    <i type="int" name="ISPIN">     1</i>
    <i type="logical" name="LNONCOLLINEAR"> F  </i>
    <v name="MAGMOM">      1.00000000      1.00000000      1.00000000      1.00000000      1.00000000      1.00000000      1.00000000      1.00000000      1.00000000      1.00000000      1.00000000      1.00000000      1.00000000      1.00000000      1.00000000      1.00000000      1.00000000      1.00000000      1.00000000      1.00000000
      1.00000000      1.00000000      1.00000000      1.00000000      1.00000000      1.00000000      1.00000000      1.00000000      1.00000000      1.00000000      1.00000000      1.00000000      1.00000000      1.00000000      1.00000000      1.00000000      1.00000000      1.00000000      1.00000000      1.00000000
      1.00000000      1.00000000      1.00000000      1.00000000</v>
    <i name="NUPDOWN">     -1.00000000</i>
    <i type="logical" name="LSORBIT"> F  </i>
    <v name="SAXIS">      0.00000000      0.00000000      1.00000000</v>
    <i type="logical" name="LSPIRAL"> F  </i>
    <v name="QSPIRAL">      0.00000000      0.00000000      0.00000000</v>
    <i type="logical" name="LZEROZ"> F  </i>
   </separator>
   <separator name="electronic exchange-correlation" >
    <i type="logical" name="LASPH"> T  </i>
    <i type="logical" name="LMETAGGA"> F  </i>
   </separator>
   <separator name="electronic convergence" >
    <i type="int" name="NELM">    60</i>
    <i type="int" name="NELMDL">    -5</i>
    <i type="int" name="NELMIN">     2</i>
    <i name="ENINI">    300.00000000</i>
    <separator name="electronic convergence detail" >
     <i type="logical" name="LDIAG"> T  </i>
     <i type="logical" name="LSUBROT"> F  </i>
     <i name="WEIMIN">      0.00100000</i>
     <i name="EBREAK">      0.00000022</i>
     <i name="DEPER">      0.30000000</i>
     <i type="int" name="NRMM">     4</i>
     <i name="TIME">      0.40000000</i>
    </separator>
   </separator>
   <separator name="electronic mixer" >
    <i name="AMIX">      0.40000000</i>
    <i name="BMIX">      1.00000000</i>
    <i name="AMIN">      0.10000000</i>
    <i name="AMIX_MAG">      1.60000000</i>
    <i name="BMIX_MAG">      1.00000000</i>
    <separator name="electronic mixer details" >
     <i type="int" name="IMIX">     4</i>
     <i type="logical" name="MIXFIRST"> F  </i>
     <i type="int" name="MAXMIX">   -45</i>
     <i name="WC">    100.00000000</i>
     <i type="int" name="INIMIX">     1</i>
     <i type="int" name="MIXPRE">     1</i>
     <i type="int" name="MREMOVE">     5</i>
    </separator>
   </separator>
   <separator name="electronic dipolcorrection" >
    <i type="logical" name="LDIPOL"> F  </i>
    <i type="logical" name="LMONO"> F  </i>
    <i type="int" name="IDIPOL">     0</i>
    <i name="EPSILON">      1.00000000</i>
    <v name="DIPOL">   -100.00000000   -100.00000000   -100.00000000</v>
    <i name="EFIELD">      0.00000000</i>
   </separator>
  </separator>
  <separator name="grids" >
   <i type="int" name="NGX">    18</i>
   <i type="int" name="NGY">    72</i>
   <i type="int" name="NGZ">    80</i>
   <i type="int" name="NGXF">    24</i>
   <i type="int" name="NGYF">   108</i>
   <i type="int" name="NGZF">   108</i>
   <i type="logical" name="ADDGRID"> F  </i>
  </separator>
  <separator name="ionic" >
   <i type="int" name="NSW">    99</i>
   <i type="int" name="IBRION">     2</i>
   <i type="int" name="MDALGO">     0</i>
   <i type="int" name="ISIF">     3</i>
   <i name="PSTRESS">      0.00000000</i>
   <i name="EDIFFG">     -0.05000000</i>
   <i type="int" name="NFREE">     1</i>
   <i name="POTIM">      0.10000000</i>
   <i name="SMASS">     -3.00000000</i>
   <i name="SCALEE">      1.00000000</i>
  </separator>
  <separator name="ionic md" >
   <i name="TEBEG">      0.00010000</i>
   <i name="TEEND">      0.00010000</i>
   <i type="int" name="NBLOCK">     1</i>
   <i type="int" name="KBLOCK">    99</i>
   <i type="int" name="NPACO">   256</i>
   <i name="APACO">     16.00000000</i>
  </separator>
  <separator name="symmetry" >
   <i type="int" name="ISYM">     2</i>
   <i name="SYMPREC">      0.00001000</i>
  </separator>
  <separator name="dos" >
   <i type="int" name="LORBIT">    10</i>
   <v name="RWIGS">     -1.00000000     -1.00000000     -1.00000000</v>
   <i type="int" name="NEDOS">   301</i>
   <i name="EMIN">     10.00000000</i>
   <i name="EMAX">    -10.00000000</i>
   <i name="EFERMI">      0.00000000</i>
  </separator>
  <separator name="writing" >
   <i type="int" name="NWRITE">     2</i>
   <i type="logical" name="LWAVE"> F  </i>
   <i type="logical" name="LDOWNSAMPLE"> F  </i>
   <i type="logical" name="LCHARG"> F  </i>
   <i type="logical" name="LPARD"> F  </i>
   <i type="logical" name="LVTOT"> F  </i>
   <i type="logical" name="LVHAR"> F  </i>
   <i type="logical" name="LELF"> F  </i>
   <i type="logical" name="LOPTICS"> F  </i>
   <v name="STM">      0.00000000      0.00000000      0.00000000      0.00000000      0.00000000      0.00000000      0.00000000</v>
  </separator>
  <separator name="performance" >
   <i type="int" name="NPAR">    14</i>
   <i type="int" name="NSIM">     4</i>
   <i type="int" name="NBLK">    -1</i>
   <i type="logical" name="LPLANE"> T  </i>
   <i type="logical" name="LSCALAPACK"> T  </i>
   <i type="logical" name="LSCAAWARE"> F  </i>
   <i type="logical" name="LSCALU"> F  </i>
   <i type="logical" name="LASYNC"> F  </i>
   <i type="logical" name="LORBITALREAL"> F  </i>
  </separator>
  <separator name="miscellaneous" >
   <i type="int" name="IDIOT">     3</i>
   <i type="int" name="ISPECIAL">     0</i>
   <i type="logical" name="LMUSIC"> F  </i>
   <v name="POMASS">      7.01000000    208.98000000     32.06600000</v>
   <v name="DARWINR">      0.00000000      0.00000000      0.00000000</v>
   <v name="DARWINV">      1.00000000      1.00000000      1.00000000</v>
   <i type="logical" name="LCORR"> T  </i>
  </separator>
  <i type="logical" name="GGA_COMPAT"> T  </i>
  <i type="logical" name="LBERRY"> F  </i>
  <i type="int" name="ICORELEVEL">     0</i>
  <i type="logical" name="LDAU"> F  </i>
  <i type="int" name="I_CONSTRAINED_M">     0</i>
  <separator name="electronic exchange-correlation" >
   <i type="string" name="GGA">--</i>
   <i type="int" name="VOSKOWN">     0</i>
   <i type="logical" name="LHFCALC"> F  </i>
   <i type="string" name="PRECFOCK"></i>
   <i type="logical" name="LSYMGRAD"> F  </i>
   <i type="logical" name="LHFONE"> F  </i>
   <i type="logical" name="LRHFCALC"> F  </i>
   <i type="logical" name="LTHOMAS"> F  </i>
   <i type="logical" name="LMODELHF"> F  </i>
   <i name="ENCUT4O">     -1.00000000</i>
   <i type="int" name="EXXOEP">     0</i>
   <i type="int" name="FOURORBIT">     0</i>
   <i name="AEXX">      0.00000000</i>
   <i name="HFALPHA">      0.00000000</i>
   <i name="MCALPHA">      0.00000000</i>
   <i name="ALDAX">      1.00000000</i>
   <i name="AGGAX">      1.00000000</i>
   <i name="ALDAC">      1.00000000</i>
   <i name="AGGAC">      1.00000000</i>
   <i type="int" name="NKREDX">     1</i>
   <i type="int" name="NKREDY">     1</i>
   <i type="int" name="NKREDZ">     1</i>
   <i type="logical" name="SHIFTRED"> F  </i>
   <i type="logical" name="ODDONLY"> F  </i>
   <i type="logical" name="EVENONLY"> F  </i>
   <i type="int" name="LMAXFOCK">     0</i>
   <i type="int" name="NMAXFOCKAE">     0</i>
   <i type="logical" name="LFOCKAEDFT"> F  </i>
   <i name="HFSCREEN">      0.00000000</i>
   <i name="HFSCREENC">      0.00000000</i>
   <i type="int" name="NBANDSGWLOW">     0</i>
  </separator>
  <separator name="vdW DFT" >
   <i type="logical" name="LUSE_VDW"> F  </i>
   <i name="Zab_VDW">     -0.84910000</i>
   <i name="PARAM1">      0.12340000</i>
   <i name="PARAM2">      1.00000000</i>
   <i name="PARAM3">      0.00000000</i>
  </separator>
  <separator name="model GW" >
   <i type="int" name="MODEL_GW">     0</i>
   <i name="MODEL_EPS0">     16.88313328</i>
   <i name="MODEL_ALPHA">      1.00000000</i>
  </separator>
  <separator name="linear response parameters" >
   <i type="logical" name="LEPSILON"> F  </i>
   <i type="logical" name="LRPA"> F  </i>
   <i type="logical" name="LNABLA"> F  </i>
   <i type="logical" name="LVEL"> F  </i>
   <i type="int" name="KINTER">     0</i>
   <i name="CSHIFT">      0.10000000</i>
   <i name="OMEGAMAX">     -1.00000000</i>
   <i name="DEG_THRESHOLD">      0.00200000</i>
   <i name="RTIME">     -0.10000000</i>
   <i name="WPLASMAI">      0.00000000</i>
   <v name="DFIELD">      0.00000000      0.00000000      0.00000000</v>
   <v name="WPLASMA">      0.00000000      0.00000000      0.00000000      0.00000000      0.00000000      0.00000000      0.00000000      0.00000000      0.00000000</v>
  </separator>
  <separator name="orbital magnetization" >
   <i type="logical" name="NUCIND"> F  </i>
   <v name="MAGPOS">      0.00000000      0.00000000      0.00000000</v>
   <i type="logical" name="LNICSALL"> T  </i>
   <i type="logical" name="ORBITALMAG"> F  </i>
   <i type="logical" name="LMAGBLOCH"> F  </i>
   <i type="logical" name="LCHIMAG"> F  </i>
   <i type="logical" name="LGAUGE"> T  </i>
   <i type="int" name="MAGATOM">     0</i>
   <v name="MAGDIPOL">      0.00000000      0.00000000      0.00000000</v>
   <v name="AVECCONST">      0.00000000      0.00000000      0.00000000</v>
  </separator>
  <separator name="response functions" >
   <i type="logical" name="LADDER"> F  </i>
   <i type="logical" name="LRPAFORCE"> F  </i>
   <i type="logical" name="LFXC"> F  </i>
   <i type="logical" name="LHARTREE"> T  </i>
   <i type="int" name="IBSE">     0</i>
   <v type="int" name="KPOINT">    -1     0     0     0</v>
   <i type="logical" name="LTCTE"> F  </i>
   <i type="logical" name="LTETE"> F  </i>
   <i type="logical" name="LTRIPLET"> F  </i>
   <i type="logical" name="LFXCEPS"> F  </i>
   <i type="logical" name="LFXHEG"> F  </i>
   <i type="int" name="NATURALO">     2</i>
   <i type="logical" name="L2ORDER"> F  </i>
   <i type="logical" name="LMP2LT"> F  </i>
   <i type="logical" name="LUSEW"> F  </i>
   <i name="ENCUTGW">     -2.00000000</i>
   <i name="ENCUTGWSOFT">     -2.00000000</i>
   <i name="ENCUTLF">     -1.00000000</i>
   <i type="int" name="LMAXMP2">    -1</i>
   <i name="SCISSOR">      0.00000000</i>
   <i type="int" name="NOMEGA">     0</i>
   <i type="int" name="NOMEGAR">     0</i>
   <i type="int" name="NBANDSGW">    -1</i>
   <i type="int" name="NBANDSO">    -1</i>
   <i type="int" name="NBANDSV">    -1</i>
   <i type="int" name="NELM">     1</i>
   <i type="int" name="NELMHF">     1</i>
   <i type="int" name="DIM">     3</i>
   <i type="int" name="ANTIRES">     0</i>
   <i name="OMEGAMAX">    -30.00000000</i>
   <i name="OMEGAMIN">    -30.00000000</i>
   <i name="OMEGATL">   -200.00000000</i>
   <i type="int" name="OMEGAGRID">   140</i>
   <i name="CSHIFT">     -0.10000000</i>
   <i type="logical" name="SELFENERGY"> F  </i>
   <i type="logical" name="LSPECTRAL"> F  </i>
   <i type="logical" name="LSPECTRALGW"> F  </i>
   <i type="logical" name="LSINGLES"> F  </i>
   <i type="logical" name="LFERMIGW"> F  </i>
   <i type="logical" name="ODDONLYGW"> F  </i>
   <i type="logical" name="EVENONLYGW"> F  </i>
   <i type="int" name="NKREDLFX">     1</i>
   <i type="int" name="NKREDLFY">     1</i>
   <i type="int" name="NKREDLFZ">     1</i>
   <i type="int" name="MAXMEM">  2800</i>
   <i type="int" name="TELESCOPE">     0</i>
   <i type="int" name="TAUPAR">     1</i>
   <i type="int" name="OMEGAPAR">    -1</i>
   <i name="LAMBDA">      1.00000000</i>
  </separator>
  <separator name="External order field" >
   <i name="OFIELD_KAPPA">      0.00000000</i>
   <v name="OFIELD_K">      0.00000000      0.00000000      0.00000000</v>
   <i name="OFIELD_Q6_NEAR">      0.00000000</i>
   <i name="OFIELD_Q6_FAR">      0.00000000</i>
   <i name="OFIELD_A">      0.00000000</i>
  </separator>
 </parameters>
 <atominfo>
  <atoms>      44 </atoms>
  <types>       3 </types>
  <array name="atoms" >
   <dimension dim="1">ion</dimension>
   <field type="string">element</field>
   <field type="int">atomtype</field>
   <set>
    <rc><c>Li</c><c>   1</c></rc>
    <rc><c>Li</c><c>   1</c></rc>
    <rc><c>Li</c><c>   1</c></rc>
    <rc><c>Li</c><c>   1</c></rc>
    <rc><c>Li</c><c>   1</c></rc>
    <rc><c>Li</c><c>   1</c></rc>
    <rc><c>Li</c><c>   1</c></rc>
    <rc><c>Li</c><c>   1</c></rc>
    <rc><c>Li</c><c>   1</c></rc>
    <rc><c>Li</c><c>   1</c></rc>
    <rc><c>Li</c><c>   1</c></rc>
    <rc><c>Li</c><c>   1</c></rc>
    <rc><c>Li</c><c>   1</c></rc>
    <rc><c>Li</c><c>   1</c></rc>
    <rc><c>Li</c><c>   1</c></rc>
    <rc><c>Li</c><c>   1</c></rc>
    <rc><c>Bi</c><c>   2</c></rc>
    <rc><c>Bi</c><c>   2</c></rc>
    <rc><c>Bi</c><c>   2</c></rc>
    <rc><c>Bi</c><c>   2</c></rc>
    <rc><c>Bi</c><c>   2</c></rc>
    <rc><c>Bi</c><c>   2</c></rc>
    <rc><c>Bi</c><c>   2</c></rc>
    <rc><c>Bi</c><c>   2</c></rc>
    <rc><c>S </c><c>   3</c></rc>
    <rc><c>S </c><c>   3</c></rc>
    <rc><c>S </c><c>   3</c></rc>
    <rc><c>S </c><c>   3</c></rc>
    <rc><c>S </c><c>   3</c></rc>
    <rc><c>S </c><c>   3</c></rc>
    <rc><c>S </c><c>   3</c></rc>
    <rc><c>S </c><c>   3</c></rc>
    <rc><c>S </c><c>   3</c></rc>
    <rc><c>S </c><c>   3</c></rc>
    <rc><c>S </c><c>   3</c></rc>
    <rc><c>S </c><c>   3</c></rc>
    <rc><c>S </c><c>   3</c></rc>
    <rc><c>S </c><c>   3</c></rc>
    <rc><c>S </c><c>   3</c></rc>
    <rc><c>S </c><c>   3</c></rc>
    <rc><c>S </c><c>   3</c></rc>
    <rc><c>S </c><c>   3</c></rc>
    <rc><c>S </c><c>   3</c></rc>
    <rc><c>S </c><c>   3</c></rc>
   </set>
  </array>
  <array name="atomtypes" >
   <dimension dim="1">type</dimension>
   <field type="int">atomspertype</field>
   <field type="string">element</field>
   <field>mass</field>
   <field>valence</field>
   <field type="string">pseudopotential</field>
   <set>
    <rc><c>  16</c><c>Li</c><c>      7.01000000</c><c>      1.00000000</c><c>  PAW_PBE Li 17Jan2003                  </c></rc>
    <rc><c>   8</c><c>Bi</c><c>    208.98000000</c><c>      5.00000000</c><c>  PAW_PBE Bi 08Apr2002                  </c></rc>
    <rc><c>  20</c><c>S </c><c>     32.06600000</c><c>      6.00000000</c><c>  PAW_PBE S 06Sep2000                   </c></rc>
   </set>
  </array>
 </atominfo>
 <structure name="initialpos" >
  <crystal>
   <varray name="basis" >
    <v>       4.11375546       0.00000000       0.00000000 </v>
    <v>       0.00000000      17.10448989       0.00000000 </v>
    <v>       0.00000000       0.00000000      17.59567277 </v>
   </varray>
   <i name="volume">   1238.09644082 </i>
   <varray name="rec_basis" >
    <v>       0.24308688       0.00000000       0.00000000 </v>
    <v>       0.00000000       0.05846418       0.00000000 </v>
    <v>       0.00000000       0.00000000       0.05683215 </v>
   </varray>
  </crystal>
  <varray name="positions" >
   <v>       0.25000000       0.19218602       0.91958062 </v>
   <v>       0.25000000       0.69218602       0.58041938 </v>
   <v>       0.75000000       0.80781398       0.08041938 </v>
   <v>       0.25000000       0.42780610       0.91708645 </v>
   <v>       0.75000000       0.57219390       0.08291355 </v>
   <v>       0.25000000       0.92780610       0.58291355 </v>
   <v>       0.75000000       0.07219390       0.41708645 </v>
   <v>       0.25000000       0.18489487       0.26518294 </v>
   <v>       0.75000000       0.81510513       0.73481706 </v>
   <v>       0.25000000       0.68489487       0.23481706 </v>
   <v>       0.75000000       0.31510513       0.76518294 </v>
   <v>       0.25000000       0.18330456       0.56938156 </v>
   <v>       0.75000000       0.81669544       0.43061844 </v>
   <v>       0.25000000       0.68330456       0.93061844 </v>
   <v>       0.75000000       0.31669544       0.06938156 </v>
   <v>       0.75000000       0.30781398       0.41958062 </v>
   <v>       0.75000000       0.57000813       0.75694783 </v>
   <v>       0.25000000       0.42999187       0.24305217 </v>
   <v>       0.25000000       0.92999187       0.25694783 </v>
   <v>       0.75000000       0.07000813       0.74305217 </v>
   <v>       0.25000000       0.44168188       0.58860454 </v>
   <v>       0.75000000       0.55831812       0.41139546 </v>
   <v>       0.25000000       0.94168188       0.91139546 </v>
   <v>       0.75000000       0.05831812       0.08860454 </v>
   <v>       0.25000000       0.43344078       0.41825133 </v>
   <v>       0.75000000       0.56655922       0.58174867 </v>
   <v>       0.25000000       0.93344078       0.08174867 </v>
   <v>       0.75000000       0.06655922       0.91825133 </v>
   <v>       0.75000000       0.54802805       0.90686239 </v>
   <v>       0.25000000       0.95197195       0.40686239 </v>
   <v>       0.75000000       0.04802805       0.59313761 </v>
   <v>       0.25000000       0.18077916       0.73365928 </v>
   <v>       0.75000000       0.81922084       0.26634072 </v>
   <v>       0.25000000       0.68077916       0.76634072 </v>
   <v>       0.75000000       0.31922084       0.23365928 </v>
   <v>       0.25000000       0.45471405       0.74177240 </v>
   <v>       0.75000000       0.54528595       0.25822760 </v>
   <v>       0.25000000       0.95471405       0.75822760 </v>
   <v>       0.75000000       0.04528595       0.24177240 </v>
   <v>       0.75000000       0.33524303       0.59781178 </v>
   <v>       0.25000000       0.66475697       0.40218822 </v>
   <v>       0.25000000       0.45197195       0.09313761 </v>
   <v>       0.25000000       0.16475697       0.09781178 </v>
   <v>       0.75000000       0.83524303       0.90218822 </v>
  </varray>
 </structure>
 <calculation>
  <scstep>
   <time name="dav">    0.76    0.76</time>
   <time name="total">    0.98    0.99</time>
   <energy>
    <i name="alphaZ">     91.12746943 </i>
    <i name="ewald">  -4356.15199014 </i>
    <i name="hartreedc">  -2410.59421655 </i>
    <i name="XCdc">   -711.76864935 </i>
    <i name="pawpsdc">   6273.02716403 </i>
    <i name="pawaedc">  -5184.84839029 </i>
    <i name="eentropy">     -0.01591101 </i>
    <i name="bandstr">    192.09099469 </i>
    <i name="atom">   6827.61226944 </i>
    <i name="e_fr_energy">    720.47874024 </i>
    <i name="e_wo_entrp">    720.49465125 </i>
    <i name="e_0_energy">    720.48669575 </i>
   </energy>
  </scstep>
  <scstep>
   <time name="dav">    0.99    1.00</time>
   <time name="total">    0.99    1.00</time>
   <energy>
    <i name="e_fr_energy">    -72.21498373 </i>
    <i name="e_wo_entrp">    -72.21471592 </i>
    <i name="e_0_energy">    -72.21484983 </i>
   </energy>
  </scstep>
  <scstep>
   <time name="dav">    0.86    0.87</time>
   <time name="total">    0.86    0.87</time>
   <energy>
    <i name="e_fr_energy">   -177.98841997 </i>
    <i name="e_wo_entrp">   -177.98841997 </i>
    <i name="e_0_energy">   -177.98841997 </i>
   </energy>
  </scstep>
  <scstep>
   <time name="dav">    1.08    1.08</time>
   <time name="total">    1.08    1.08</time>
   <energy>
    <i name="e_fr_energy">   -181.76379589 </i>
    <i name="e_wo_entrp">   -181.76379589 </i>
    <i name="e_0_energy">   -181.76379589 </i>
   </energy>
  </scstep>
  <scstep>
   <time name="dav">    1.00    1.01</time>
   <time name="total">    1.05    1.06</time>
   <energy>
    <i name="e_fr_energy">   -181.83503742 </i>
    <i name="e_wo_entrp">   -181.83503742 </i>
    <i name="e_0_energy">   -181.83503742 </i>
   </energy>
  </scstep>
  <scstep>
   <time name="dav">    0.79    0.79</time>
   <time name="total">    1.05    1.05</time>
   <energy>
    <i name="e_fr_energy">   -167.47051695 </i>
    <i name="e_wo_entrp">   -167.47051695 </i>
    <i name="e_0_energy">   -167.47051695 </i>
   </energy>
  </scstep>
  <scstep>
   <time name="dav">    0.90    0.90</time>
   <time name="total">    1.15    1.17</time>
   <energy>
    <i name="e_fr_energy">   -166.57369219 </i>
    <i name="e_wo_entrp">   -166.57369219 </i>
    <i name="e_0_energy">   -166.57369219 </i>
   </energy>
  </scstep>
  <scstep>
   <time name="dav">    0.97    0.97</time>
   <time name="total">    1.23    1.24</time>
   <energy>
    <i name="e_fr_energy">   -166.24218131 </i>
    <i name="e_wo_entrp">   -166.24208298 </i>
    <i name="e_0_energy">   -166.24213215 </i>
   </energy>
  </scstep>
  <scstep>
   <time name="dav">    0.87    0.87</time>
   <time name="total">    1.14    1.14</time>
   <energy>
    <i name="e_fr_energy">   -166.20035639 </i>
    <i name="e_wo_entrp">   -166.19879707 </i>
    <i name="e_0_energy">   -166.19957673 </i>
   </energy>
  </scstep>
  <scstep>
   <time name="dav">    0.89    0.89</time>
   <time name="total">    1.15    1.15</time>
   <energy>
    <i name="e_fr_energy">   -166.20186257 </i>
    <i name="e_wo_entrp">   -166.20083475 </i>
    <i name="e_0_energy">   -166.20134866 </i>
   </energy>
  </scstep>
  <scstep>
   <time name="dav">    0.97    0.98</time>
   <time name="total">    1.24    1.24</time>
   <energy>
    <i name="e_fr_energy">   -166.20309221 </i>
    <i name="e_wo_entrp">   -166.20188075 </i>
    <i name="e_0_energy">   -166.20248648 </i>
   </energy>
  </scstep>
  <scstep>
   <time name="dav">    0.67    0.67</time>
   <time name="total">    0.93    0.94</time>
   <energy>
    <i name="e_fr_energy">   -166.20337833 </i>
    <i name="e_wo_entrp">   -166.20207665 </i>
    <i name="e_0_energy">   -166.20272749 </i>
   </energy>
  </scstep>
  <scstep>
   <time name="dav">    0.89    0.90</time>
   <time name="total">    1.15    1.16</time>
   <energy>
    <i name="e_fr_energy">   -166.20339896 </i>
    <i name="e_wo_entrp">   -166.20198838 </i>
    <i name="e_0_energy">   -166.20269367 </i>
   </energy>
  </scstep>
  <scstep>
   <time name="dav">    0.65    0.65</time>
   <time name="total">    0.86    0.87</time>
   <energy>
    <i name="alphaZ">     91.12746943 </i>
    <i name="ewald">  -4356.15199014 </i>
    <i name="hartreedc">  -2588.25841461 </i>
    <i name="XCdc">   -699.91891346 </i>
    <i name="pawpsdc">  11244.58036019 </i>
    <i name="pawaedc"> -10158.34102883 </i>
    <i name="eentropy">     -0.00143647 </i>
    <i name="bandstr">   -526.85173105 </i>
    <i name="atom">   6827.61226944 </i>
    <i name="e_fr_energy">   -166.20341552 </i>
    <i name="e_wo_entrp">   -166.20197904 </i>
    <i name="e_0_energy">   -166.20269728 </i>
   </energy>
  </scstep>
  <structure>
   <crystal>
    <varray name="basis" >
     <v>       4.11375546       0.00000000       0.00000000 </v>
     <v>       0.00000000      17.10448989       0.00000000 </v>
     <v>       0.00000000       0.00000000      17.59567277 </v>
    </varray>
    <i name="volume">   1238.09644082 </i>
    <varray name="rec_basis" >
     <v>       0.24308688       0.00000000       0.00000000 </v>
     <v>       0.00000000       0.05846418       0.00000000 </v>
     <v>       0.00000000       0.00000000       0.05683215 </v>
    </varray>
   </crystal>
   <varray name="positions" >
    <v>       0.25000000       0.19218602       0.91958062 </v>
    <v>       0.25000000       0.69218602       0.58041938 </v>
    <v>       0.75000000       0.80781398       0.08041938 </v>
    <v>       0.25000000       0.42780610       0.91708645 </v>
    <v>       0.75000000       0.57219390       0.08291355 </v>
    <v>       0.25000000       0.92780610       0.58291355 </v>
    <v>       0.75000000       0.07219390       0.41708645 </v>
    <v>       0.25000000       0.18489487       0.26518294 </v>
    <v>       0.75000000       0.81510513       0.73481706 </v>
    <v>       0.25000000       0.68489487       0.23481706 </v>
    <v>       0.75000000       0.31510513       0.76518294 </v>
    <v>       0.25000000       0.18330456       0.56938156 </v>
    <v>       0.75000000       0.81669544       0.43061844 </v>
    <v>       0.25000000       0.68330456       0.93061844 </v>
    <v>       0.75000000       0.31669544       0.06938156 </v>
    <v>       0.75000000       0.30781398       0.41958062 </v>
    <v>       0.75000000       0.57000813       0.75694783 </v>
    <v>       0.25000000       0.42999187       0.24305217 </v>
    <v>       0.25000000       0.92999187       0.25694783 </v>
    <v>       0.75000000       0.07000813       0.74305217 </v>
    <v>       0.25000000       0.44168188       0.58860454 </v>
    <v>       0.75000000       0.55831812       0.41139546 </v>
    <v>       0.25000000       0.94168188       0.91139546 </v>
    <v>       0.75000000       0.05831812       0.08860454 </v>
    <v>       0.25000000       0.43344078       0.41825133 </v>
    <v>       0.75000000       0.56655922       0.58174867 </v>
    <v>       0.25000000       0.93344078       0.08174867 </v>
    <v>       0.75000000       0.06655922       0.91825133 </v>
    <v>       0.75000000       0.54802805       0.90686239 </v>
    <v>       0.25000000       0.95197195       0.40686239 </v>
    <v>       0.75000000       0.04802805       0.59313761 </v>
    <v>       0.25000000       0.18077916       0.73365928 </v>
    <v>       0.75000000       0.81922084       0.26634072 </v>
    <v>       0.25000000       0.68077916       0.76634072 </v>
    <v>       0.75000000       0.31922084       0.23365928 </v>
    <v>       0.25000000       0.45471405       0.74177240 </v>
    <v>       0.75000000       0.54528595       0.25822760 </v>
    <v>       0.25000000       0.95471405       0.75822760 </v>
    <v>       0.75000000       0.04528595       0.24177240 </v>
    <v>       0.75000000       0.33524303       0.59781178 </v>
    <v>       0.25000000       0.66475697       0.40218822 </v>
    <v>       0.25000000       0.45197195       0.09313761 </v>
    <v>       0.25000000       0.16475697       0.09781178 </v>
    <v>       0.75000000       0.83524303       0.90218822 </v>
   </varray>
  </structure>
  <varray name="forces" >
   <v>       0.00000000      -1.30692757       0.01733299 </v>
   <v>       0.00000000      -1.30692757      -0.01733299 </v>
   <v>       0.00000000       1.30692757      -0.01733299 </v>
   <v>       0.00000000       1.46473774       0.04432773 </v>
   <v>       0.00000000      -1.46473774      -0.04432773 </v>
   <v>       0.00000000       1.46473774      -0.04432773 </v>
   <v>       0.00000000      -1.46473774       0.04432773 </v>
   <v>       0.00000000       0.03627320      -1.10203945 </v>
   <v>       0.00000000      -0.03627320       1.10203945 </v>
   <v>       0.00000000       0.03627320       1.10203945 </v>
   <v>       0.00000000      -0.03627320      -1.10203945 </v>
   <v>       0.00000000      -0.30561061       1.11008892 </v>
   <v>       0.00000000       0.30561061      -1.11008892 </v>
   <v>       0.00000000      -0.30561061      -1.11008892 </v>
   <v>       0.00000000       0.30561061       1.11008892 </v>
   <v>       0.00000000       1.30692757       0.01733299 </v>
   <v>       0.00000000       0.20514191       0.14708710 </v>
   <v>       0.00000000      -0.20514191      -0.14708710 </v>
   <v>       0.00000000      -0.20514191       0.14708710 </v>
   <v>       0.00000000       0.20514191      -0.14708710 </v>
   <v>       0.00000000       0.12956595      -0.40404554 </v>
   <v>       0.00000000      -0.12956595       0.40404554 </v>
   <v>       0.00000000       0.12956595       0.40404554 </v>
   <v>       0.00000000      -0.12956595      -0.40404554 </v>
   <v>       0.00000000      -0.60835360       0.11978432 </v>
   <v>       0.00000000       0.60835360      -0.11978432 </v>
   <v>       0.00000000      -0.60835360      -0.11978432 </v>
   <v>       0.00000000       0.60835360       0.11978432 </v>
   <v>       0.00000000      -0.07335830       0.68311505 </v>
   <v>       0.00000000       0.07335830       0.68311505 </v>
   <v>       0.00000000      -0.07335830      -0.68311505 </v>
   <v>       0.00000000       0.77988149       0.46675539 </v>
   <v>       0.00000000      -0.77988149      -0.46675539 </v>
   <v>       0.00000000       0.77988149      -0.46675539 </v>
   <v>       0.00000000      -0.77988149       0.46675539 </v>
   <v>       0.00000000      -0.92734046       0.83231622 </v>
   <v>       0.00000000       0.92734046      -0.83231622 </v>
   <v>       0.00000000      -0.92734046      -0.83231622 </v>
   <v>       0.00000000       0.92734046       0.83231622 </v>
   <v>       0.00000000      -0.78861457      -0.36185082 </v>
   <v>       0.00000000       0.78861457       0.36185082 </v>
   <v>       0.00000000       0.07335830      -0.68311505 </v>
   <v>       0.00000000       0.78861457      -0.36185082 </v>
   <v>       0.00000000      -0.78861457       0.36185082 </v>
  </varray>
  <varray name="stress" >
   <v>     -23.80108699      -0.00000000       0.00000000 </v>
   <v>      -0.00000000     -48.13893358       0.00000000 </v>
   <v>       0.00000000       0.00000000     -41.42281228 </v>
  </varray>
  <energy>
   <i name="e_fr_energy">   -166.20341552 </i>
   <i name="e_wo_entrp">   -166.20269728 </i>
   <i name="e_0_energy">     -0.00143647 </i>
  </energy>
  <time name="totalsc">   16.20   16.29</time>
 </calculation>
 <calculation>
  <scstep>
   <time name="dav">    0.76    0.77</time>
   <time name="total">    1.03    1.03</time>
   <energy>
    <i name="alphaZ">     92.90109753 </i>
    <i name="ewald">  -4403.71206072 </i>
    <i name="hartreedc">  -2586.46014754 </i>
    <i name="XCdc">   -698.09216984 </i>
    <i name="pawpsdc">  11239.55098935 </i>
    <i name="pawaedc"> -10153.31285495 </i>
    <i name="eentropy">     -0.01637699 </i>
    <i name="bandstr">   -485.95921534 </i>
    <i name="atom">   6827.61226944 </i>
    <i name="e_fr_energy">   -167.48846906 </i>
    <i name="e_wo_entrp">   -167.47209206 </i>
    <i name="e_0_energy">   -167.48028056 </i>
   </energy>
  </scstep>
  <scstep>
   <time name="dav">    0.86    0.86</time>
   <time name="total">    1.12    1.13</time>
   <energy>
    <i name="e_fr_energy">   -167.20194257 </i>
    <i name="e_wo_entrp">   -167.20154251 </i>
    <i name="e_0_energy">   -167.20174254 </i>
   </energy>
  </scstep>
  <scstep>
   <time name="dav">    0.86    0.86</time>
   <time name="total">    1.13    1.13</time>
   <energy>
    <i name="e_fr_energy">   -167.18993766 </i>
    <i name="e_wo_entrp">   -167.18967276 </i>
    <i name="e_0_energy">   -167.18980521 </i>
   </energy>
  </scstep>
  <scstep>
   <time name="dav">    0.88    0.89</time>
   <time name="total">    1.14    1.15</time>
   <energy>
    <i name="e_fr_energy">   -167.18472130 </i>
    <i name="e_wo_entrp">   -167.18437543 </i>
    <i name="e_0_energy">   -167.18454837 </i>
   </energy>
  </scstep>
  <scstep>
   <time name="dav">    0.82    0.83</time>
   <time name="total">    1.08    1.08</time>
   <energy>
    <i name="e_fr_energy">   -167.18334931 </i>
    <i name="e_wo_entrp">   -167.18297597 </i>
    <i name="e_0_energy">   -167.18316264 </i>
   </energy>
  </scstep>
  <scstep>
   <time name="dav">    0.94    0.95</time>
   <time name="total">    1.19    1.20</time>
   <energy>
    <i name="e_fr_energy">   -167.18301413 </i>
    <i name="e_wo_entrp">   -167.18262304 </i>
    <i name="e_0_energy">   -167.18281859 </i>
   </energy>
  </scstep>
  <scstep>
   <time name="dav">    0.74    0.74</time>
   <time name="total">    0.95    0.96</time>
   <energy>
    <i name="alphaZ">     92.90109753 </i>
    <i name="ewald">  -4403.71206072 </i>
    <i name="hartreedc">  -2558.76999765 </i>
    <i name="XCdc">   -698.94730981 </i>
    <i name="pawpsdc">  11361.36510678 </i>
    <i name="pawaedc"> -10275.31734141 </i>
    <i name="eentropy">     -0.00041473 </i>
    <i name="bandstr">   -512.31435432 </i>
    <i name="atom">   6827.61226944 </i>
    <i name="e_fr_energy">   -167.18300488 </i>
    <i name="e_wo_entrp">   -167.18259015 </i>
    <i name="e_0_energy">   -167.18279751 </i>
   </energy>
  </scstep>
  <structure>
   <crystal>
    <varray name="basis" >
     <v>       4.09716388      -0.00000000       0.00000000 </v>
     <v>      -0.00000000      16.96496265       0.00000000 </v>
     <v>       0.00000000       0.00000000      17.47216398 </v>
    </varray>
    <i name="volume">   1214.45923200 </i>
    <varray name="rec_basis" >
     <v>       0.24407127       0.00000000       0.00000000 </v>
     <v>       0.00000000       0.05894502       0.00000000 </v>
     <v>       0.00000000       0.00000000       0.05723390 </v>
    </varray>
   </crystal>
   <varray name="positions" >
    <v>       0.25000000       0.19144879       0.91959012 </v>
    <v>       0.25000000       0.69144879       0.58040988 </v>
    <v>       0.75000000       0.80855121       0.08040988 </v>
    <v>       0.25000000       0.42863235       0.91711076 </v>
    <v>       0.75000000       0.57136765       0.08288924 </v>
    <v>       0.25000000       0.92863235       0.58288924 </v>
    <v>       0.75000000       0.07136765       0.41711076 </v>
    <v>       0.25000000       0.18491533       0.26457864 </v>
    <v>       0.75000000       0.81508467       0.73542136 </v>
    <v>       0.25000000       0.68491533       0.23542136 </v>
    <v>       0.75000000       0.31508467       0.76457864 </v>
    <v>       0.25000000       0.18313217       0.56999027 </v>
    <v>       0.75000000       0.81686783       0.43000973 </v>
    <v>       0.25000000       0.68313217       0.93000973 </v>
    <v>       0.75000000       0.31686783       0.06999027 </v>
    <v>       0.75000000       0.30855121       0.41959012 </v>
    <v>       0.75000000       0.57012385       0.75702848 </v>
    <v>       0.25000000       0.42987615       0.24297152 </v>
    <v>       0.25000000       0.92987615       0.25702848 </v>
    <v>       0.75000000       0.07012385       0.74297152 </v>
    <v>       0.25000000       0.44175497       0.58838298 </v>
    <v>       0.75000000       0.55824503       0.41161702 </v>
    <v>       0.25000000       0.94175497       0.91161702 </v>
    <v>       0.75000000       0.05824503       0.08838298 </v>
    <v>       0.25000000       0.43309761       0.41831701 </v>
    <v>       0.75000000       0.56690239       0.58168299 </v>
    <v>       0.25000000       0.93309761       0.08168299 </v>
    <v>       0.75000000       0.06690239       0.91831701 </v>
    <v>       0.75000000       0.54798667       0.90723697 </v>
    <v>       0.25000000       0.95201333       0.40723697 </v>
    <v>       0.75000000       0.04798667       0.59276303 </v>
    <v>       0.25000000       0.18121909       0.73391522 </v>
    <v>       0.75000000       0.81878091       0.26608478 </v>
    <v>       0.25000000       0.68121909       0.76608478 </v>
    <v>       0.75000000       0.31878091       0.23391522 </v>
    <v>       0.25000000       0.45419094       0.74222880 </v>
    <v>       0.75000000       0.54580906       0.25777120 </v>
    <v>       0.25000000       0.95419094       0.75777120 </v>
    <v>       0.75000000       0.04580906       0.24222880 </v>
    <v>       0.75000000       0.33479818       0.59761336 </v>
    <v>       0.25000000       0.66520182       0.40238664 </v>
    <v>       0.25000000       0.45201333       0.09276303 </v>
    <v>       0.25000000       0.16520182       0.09761336 </v>
    <v>       0.75000000       0.83479818       0.90238664 </v>
   </varray>
  </structure>
  <varray name="forces" >
   <v>       0.00000000      -1.29675049       0.01902772 </v>
   <v>       0.00000000      -1.29675049      -0.01902772 </v>
   <v>      -0.00000000       1.29675049      -0.01902772 </v>
   <v>      -0.00000000       1.45920163       0.04474541 </v>
   <v>       0.00000000      -1.45920163      -0.04474541 </v>
   <v>      -0.00000000       1.45920163      -0.04474541 </v>
   <v>       0.00000000      -1.45920163       0.04474541 </v>
   <v>      -0.00000000       0.03255555      -1.09669839 </v>
   <v>       0.00000000      -0.03255555       1.09669839 </v>
   <v>      -0.00000000       0.03255555       1.09669839 </v>
   <v>       0.00000000      -0.03255555      -1.09669839 </v>
   <v>       0.00000000      -0.30076354       1.10151496 </v>
   <v>      -0.00000000       0.30076354      -1.10151496 </v>
   <v>       0.00000000      -0.30076354      -1.10151496 </v>
   <v>      -0.00000000       0.30076354       1.10151496 </v>
   <v>      -0.00000000       1.29675049       0.01902772 </v>
   <v>      -0.00000000       0.23799693       0.09674579 </v>
   <v>       0.00000000      -0.23799693      -0.09674579 </v>
   <v>       0.00000000      -0.23799693       0.09674579 </v>
   <v>      -0.00000000       0.23799693      -0.09674579 </v>
   <v>      -0.00000000       0.08151223      -0.43974884 </v>
   <v>       0.00000000      -0.08151223       0.43974884 </v>
   <v>      -0.00000000       0.08151223       0.43974884 </v>
   <v>       0.00000000      -0.08151223      -0.43974884 </v>
   <v>       0.00000000      -0.65395798       0.08730114 </v>
   <v>      -0.00000000       0.65395798      -0.08730114 </v>
   <v>       0.00000000      -0.65395798      -0.08730114 </v>
   <v>      -0.00000000       0.65395798       0.08730114 </v>
   <v>       0.00000000      -0.03918750       0.78600752 </v>
   <v>      -0.00000000       0.03918750       0.78600752 </v>
   <v>       0.00000000      -0.03918750      -0.78600752 </v>
   <v>      -0.00000000       0.86241182       0.46308231 </v>
   <v>       0.00000000      -0.86241182      -0.46308231 </v>
   <v>      -0.00000000       0.86241182      -0.46308231 </v>
   <v>       0.00000000      -0.86241182       0.46308231 </v>
   <v>       0.00000000      -0.97846215       0.88971909 </v>
   <v>      -0.00000000       0.97846215      -0.88971909 </v>
   <v>       0.00000000      -0.97846215      -0.88971909 </v>
   <v>      -0.00000000       0.97846215       0.88971909 </v>
   <v>       0.00000000      -0.89360133      -0.36705195 </v>
   <v>      -0.00000000       0.89360133       0.36705195 </v>
   <v>      -0.00000000       0.03918750      -0.78600752 </v>
   <v>      -0.00000000       0.89360133      -0.36705195 </v>
   <v>       0.00000000      -0.89360133       0.36705195 </v>
  </varray>
  <varray name="stress" >
   <v>     -19.54880326       0.00000000       0.00000000 </v>
   <v>       0.00000000     -43.53458365       0.00000000 </v>
   <v>       0.00000000       0.00000000     -36.08967121 </v>
  </varray>
  <energy>
   <i name="e_fr_energy">   -167.18300488 </i>
   <i name="e_wo_entrp">   -167.18279751 </i>
   <i name="e_0_energy">     -0.00041473 </i>
  </energy>
  <time name="totalsc">    8.95    9.00</time>
 </calculation>
 <calculation>
  <scstep>
   <time name="dav">    0.85    0.86</time>
   <time name="total">    1.11    1.11</time>
   <energy>
    <i name="alphaZ">     98.51176584 </i>
    <i name="ewald">  -4549.26084333 </i>
    <i name="hartreedc">  -2553.27533242 </i>
    <i name="XCdc">   -693.35267853 </i>
    <i name="pawpsdc">  11361.69632045 </i>
    <i name="pawaedc"> -10275.64911473 </i>
    <i name="eentropy">     -0.01377910 </i>
    <i name="bandstr">   -388.80238031 </i>
    <i name="atom">   6827.61226944 </i>
    <i name="e_fr_energy">   -172.53377270 </i>
    <i name="e_wo_entrp">   -172.51999360 </i>
    <i name="e_0_energy">   -172.52688315 </i>
   </energy>
  </scstep>
  <scstep>
   <time name="dav">    0.85    0.85</time>
   <time name="total">    1.12    1.13</time>
   <energy>
    <i name="e_fr_energy">   -169.85863405 </i>
    <i name="e_wo_entrp">   -169.85863289 </i>
    <i name="e_0_energy">   -169.85863347 </i>
   </energy>
  </scstep>
  <scstep>
   <time name="dav">    0.82    0.83</time>
   <time name="total">    1.07    1.08</time>
   <energy>
    <i name="e_fr_energy">   -169.75393742 </i>
    <i name="e_wo_entrp">   -169.75393728 </i>
    <i name="e_0_energy">   -169.75393735 </i>
   </energy>
  </scstep>
  <scstep>
   <time name="dav">    0.88    0.89</time>
   <time name="total">    1.14    1.15</time>
   <energy>
    <i name="e_fr_energy">   -169.71455658 </i>
    <i name="e_wo_entrp">   -169.71455614 </i>
    <i name="e_0_energy">   -169.71455636 </i>
   </energy>
  </scstep>
  <scstep>
   <time name="dav">    0.83    0.83</time>
   <time name="total">    1.10    1.10</time>
   <energy>
    <i name="e_fr_energy">   -169.69781832 </i>
    <i name="e_wo_entrp">   -169.69781751 </i>
    <i name="e_0_energy">   -169.69781792 </i>
   </energy>
  </scstep>
  <scstep>
   <time name="dav">    0.93    0.93</time>
   <time name="total">    1.19    1.20</time>
   <energy>
    <i name="e_fr_energy">   -169.69403536 </i>
    <i name="e_wo_entrp">   -169.69403422 </i>
    <i name="e_0_energy">   -169.69403479 </i>
   </energy>
  </scstep>
  <scstep>
   <time name="dav">    1.04    1.05</time>
   <time name="total">    1.30    1.30</time>
   <energy>
    <i name="e_fr_energy">   -169.69405692 </i>
    <i name="e_wo_entrp">   -169.69405558 </i>
    <i name="e_0_energy">   -169.69405625 </i>
   </energy>
  </scstep>
  <scstep>
   <time name="dav">    0.65    0.65</time>
   <time name="total">    0.87    0.87</time>
   <energy>
    <i name="alphaZ">     98.51176584 </i>
    <i name="ewald">  -4549.26084333 </i>
    <i name="hartreedc">  -2468.67513909 </i>
    <i name="XCdc">   -695.91772401 </i>
    <i name="pawpsdc">  11796.06689614 </i>
    <i name="pawaedc"> -10710.63080673 </i>
    <i name="eentropy">     -0.00000132 </i>
    <i name="bandstr">   -467.40046278 </i>
    <i name="atom">   6827.61226944 </i>
    <i name="e_fr_energy">   -169.69404584 </i>
    <i name="e_wo_entrp">   -169.69404452 </i>
    <i name="e_0_energy">   -169.69404518 </i>
   </energy>
  </scstep>
  <structure>
   <crystal>
    <varray name="basis" >
     <v>       4.04738915      -0.00000000       0.00000000 </v>
     <v>      -0.00000000      16.54638094       0.00000000 </v>
     <v>       0.00000000       0.00000000      17.10163762 </v>
    </varray>
    <i name="volume">   1145.29056093 </i>
    <varray name="rec_basis" >
     <v>       0.24707286       0.00000000       0.00000000 </v>
     <v>       0.00000000       0.06043618       0.00000000 </v>
     <v>       0.00000000       0.00000000       0.05847393 </v>
    </varray>
   </crystal>
   <varray name="positions" >
    <v>       0.25000000       0.18921891       0.91961884 </v>
    <v>       0.25000000       0.68921891       0.58038116 </v>
    <v>       0.75000000       0.81078109       0.08038116 </v>
    <v>       0.25000000       0.43113148       0.91718419 </v>
    <v>       0.75000000       0.56886852       0.08281581 </v>
    <v>       0.25000000       0.93113148       0.58281581 </v>
    <v>       0.75000000       0.06886852       0.41718419 </v>
    <v>       0.25000000       0.18497722       0.26275293 </v>
    <v>       0.75000000       0.81502278       0.73724707 </v>
    <v>       0.25000000       0.68497722       0.23724707 </v>
    <v>       0.75000000       0.31502278       0.76275293 </v>
    <v>       0.25000000       0.18261073       0.57182932 </v>
    <v>       0.75000000       0.81738927       0.42817068 </v>
    <v>       0.25000000       0.68261073       0.92817068 </v>
    <v>       0.75000000       0.31738927       0.07182932 </v>
    <v>       0.75000000       0.31078109       0.41961884 </v>
    <v>       0.75000000       0.57047386       0.75727216 </v>
    <v>       0.25000000       0.42952614       0.24272784 </v>
    <v>       0.25000000       0.92952614       0.25727216 </v>
    <v>       0.75000000       0.07047386       0.74272784 </v>
    <v>       0.25000000       0.44197603       0.58771361 </v>
    <v>       0.75000000       0.55802397       0.41228639 </v>
    <v>       0.25000000       0.94197603       0.91228639 </v>
    <v>       0.75000000       0.05802397       0.08771361 </v>
    <v>       0.25000000       0.43205964       0.41851546 </v>
    <v>       0.75000000       0.56794036       0.58148454 </v>
    <v>       0.25000000       0.93205964       0.08148454 </v>
    <v>       0.75000000       0.06794036       0.91851546 </v>
    <v>       0.75000000       0.54786151       0.90836867 </v>
    <v>       0.25000000       0.95213849       0.40836867 </v>
    <v>       0.75000000       0.04786151       0.59163133 </v>
    <v>       0.25000000       0.18254972       0.73468848 </v>
    <v>       0.75000000       0.81745028       0.26531152 </v>
    <v>       0.25000000       0.68254972       0.76531152 </v>
    <v>       0.75000000       0.31745028       0.23468848 </v>
    <v>       0.25000000       0.45260872       0.74360767 </v>
    <v>       0.75000000       0.54739128       0.25639233 </v>
    <v>       0.25000000       0.95260872       0.75639233 </v>
    <v>       0.75000000       0.04739128       0.24360767 </v>
    <v>       0.75000000       0.33345264       0.59701389 </v>
    <v>       0.25000000       0.66654736       0.40298611 </v>
    <v>       0.25000000       0.45213849       0.09163133 </v>
    <v>       0.25000000       0.16654736       0.09701389 </v>
    <v>       0.75000000       0.83345264       0.90298611 </v>
   </varray>
  </structure>
  <varray name="forces" >
   <v>       0.00000000      -1.23669634       0.02287343 </v>
   <v>       0.00000000      -1.23669634      -0.02287343 </v>
   <v>      -0.00000000       1.23669634      -0.02287343 </v>
   <v>      -0.00000000       1.42423504       0.04804918 </v>
   <v>       0.00000000      -1.42423504      -0.04804918 </v>
   <v>      -0.00000000       1.42423504      -0.04804918 </v>
   <v>       0.00000000      -1.42423504       0.04804918 </v>
   <v>      -0.00000000       0.02015131      -1.06495839 </v>
   <v>       0.00000000      -0.02015131       1.06495839 </v>
   <v>      -0.00000000       0.02015131       1.06495839 </v>
   <v>       0.00000000      -0.02015131      -1.06495839 </v>
   <v>       0.00000000      -0.28477108       1.05491722 </v>
   <v>      -0.00000000       0.28477108      -1.05491722 </v>
   <v>       0.00000000      -0.28477108      -1.05491722 </v>
   <v>      -0.00000000       0.28477108       1.05491722 </v>
   <v>      -0.00000000       1.23669634       0.02287343 </v>
   <v>      -0.00000000       0.13443176      -0.02820328 </v>
   <v>       0.00000000      -0.13443176       0.02820328 </v>
   <v>       0.00000000      -0.13443176      -0.02820328 </v>
   <v>      -0.00000000       0.13443176       0.02820328 </v>
   <v>      -0.00000000       0.00296452      -0.41082320 </v>
   <v>       0.00000000      -0.00296452       0.41082320 </v>
   <v>      -0.00000000       0.00296452       0.41082320 </v>
   <v>       0.00000000      -0.00296452      -0.41082320 </v>
   <v>       0.00000000      -0.89932825       0.04437693 </v>
   <v>      -0.00000000       0.89932825      -0.04437693 </v>
   <v>       0.00000000      -0.89932825      -0.04437693 </v>
   <v>      -0.00000000       0.89932825       0.04437693 </v>
   <v>      -0.00000000       0.00154015       1.08226669 </v>
   <v>       0.00000000      -0.00154015       1.08226669 </v>
   <v>      -0.00000000       0.00154015      -1.08226669 </v>
   <v>      -0.00000000       1.17913027       0.47814054 </v>
   <v>       0.00000000      -1.17913027      -0.47814054 </v>
   <v>      -0.00000000       1.17913027      -0.47814054 </v>
   <v>       0.00000000      -1.17913027       0.47814054 </v>
   <v>       0.00000000      -1.15676024       1.08854933 </v>
   <v>      -0.00000000       1.15676024      -1.08854933 </v>
   <v>       0.00000000      -1.15676024      -1.08854933 </v>
   <v>      -0.00000000       1.15676024       1.08854933 </v>
   <v>       0.00000000      -1.12860228      -0.40708555 </v>
   <v>      -0.00000000       1.12860228       0.40708555 </v>
   <v>       0.00000000      -0.00154015      -1.08226669 </v>
   <v>      -0.00000000       1.12860228      -0.40708555 </v>
   <v>       0.00000000      -1.12860228       0.40708555 </v>
  </varray>
  <varray name="stress" >
   <v>      -4.03960318       0.00000000       0.00000000 </v>
   <v>      -0.00000000     -27.35863258       0.00000000 </v>
   <v>       0.00000000       0.00000000     -18.52659894 </v>
  </varray>
  <energy>
   <i name="e_fr_energy">   -169.69404584 </i>
   <i name="e_wo_entrp">   -169.69404518 </i>
   <i name="e_0_energy">     -0.00000132 </i>
  </energy>
  <time name="totalsc">   10.20   10.25</time>
 </calculation>
 <calculation>
  <scstep>
   <time name="dav">    0.87    0.87</time>
   <time name="total">    1.13    1.13</time>
   <energy>
    <i name="alphaZ">    111.19644375 </i>
    <i name="ewald">  -4854.69313135 </i>
    <i name="hartreedc">  -2456.94972345 </i>
    <i name="XCdc">   -684.26435770 </i>
    <i name="pawpsdc">  11792.45032410 </i>
    <i name="pawaedc"> -10706.99772461 </i>
    <i name="eentropy">     -0.00948962 </i>
    <i name="bandstr">   -212.01929977 </i>
    <i name="atom">   6827.61226944 </i>
    <i name="e_fr_energy">   -183.67468920 </i>
    <i name="e_wo_entrp">   -183.66519958 </i>
    <i name="e_0_energy">   -183.66994439 </i>
   </energy>
  </scstep>
  <scstep>
   <time name="dav">    0.85    0.86</time>
   <time name="total">    1.11    1.12</time>
   <energy>
    <i name="e_fr_energy">   -173.05060075 </i>
    <i name="e_wo_entrp">   -173.05060075 </i>
    <i name="e_0_energy">   -173.05060075 </i>
   </energy>
  </scstep>
  <scstep>
   <time name="dav">    0.86    0.86</time>
   <time name="total">    1.13    1.13</time>
   <energy>
    <i name="e_fr_energy">   -172.47074455 </i>
    <i name="e_wo_entrp">   -172.47074455 </i>
    <i name="e_0_energy">   -172.47074455 </i>
   </energy>
  </scstep>
  <scstep>
   <time name="dav">    0.92    0.93</time>
   <time name="total">    1.19    1.19</time>
   <energy>
    <i name="e_fr_energy">   -172.36511800 </i>
    <i name="e_wo_entrp">   -172.36511800 </i>
    <i name="e_0_energy">   -172.36511800 </i>
   </energy>
  </scstep>
  <scstep>
   <time name="dav">    0.87    0.87</time>
   <time name="total">    1.13    1.13</time>
   <energy>
    <i name="e_fr_energy">   -172.28213114 </i>
    <i name="e_wo_entrp">   -172.28213114 </i>
    <i name="e_0_energy">   -172.28213114 </i>
   </energy>
  </scstep>
  <scstep>
   <time name="dav">    0.89    0.89</time>
   <time name="total">    1.14    1.15</time>
   <energy>
    <i name="e_fr_energy">   -172.27626744 </i>
    <i name="e_wo_entrp">   -172.27626744 </i>
    <i name="e_0_energy">   -172.27626744 </i>
   </energy>
  </scstep>
  <scstep>
   <time name="dav">    0.92    0.93</time>
   <time name="total">    1.18    1.19</time>
   <energy>
    <i name="e_fr_energy">   -172.27635885 </i>
    <i name="e_wo_entrp">   -172.27635885 </i>
    <i name="e_0_energy">   -172.27635885 </i>
   </energy>
  </scstep>
  <scstep>
   <time name="dav">    0.84    0.85</time>
   <time name="total">    1.06    1.06</time>
   <energy>
    <i name="alphaZ">    111.19644375 </i>
    <i name="ewald">  -4854.69313135 </i>
    <i name="hartreedc">  -2282.74671781 </i>
    <i name="XCdc">   -689.36858419 </i>
    <i name="pawpsdc">  12978.39198676 </i>
    <i name="pawaedc"> -11894.46408170 </i>
    <i name="eentropy">     -0.00000000 </i>
    <i name="bandstr">   -368.20448520 </i>
    <i name="atom">   6827.61226944 </i>
    <i name="e_fr_energy">   -172.27630030 </i>
    <i name="e_wo_entrp">   -172.27630030 </i>
    <i name="e_0_energy">   -172.27630030 </i>
   </energy>
  </scstep>
  <structure>
   <crystal>
    <varray name="basis" >
     <v>       3.94783969      -0.00000000       0.00000000 </v>
     <v>      -0.00000000      15.70921751       0.00000000 </v>
     <v>       0.00000000       0.00000000      16.36058488 </v>
    </varray>
    <i name="volume">   1014.64212125 </i>
    <varray name="rec_basis" >
     <v>       0.25330309       0.00000000       0.00000000 </v>
     <v>       0.00000000       0.06365689       0.00000000 </v>
     <v>       0.00000000       0.00000000       0.06112251 </v>
    </varray>
   </crystal>
   <varray name="positions" >
    <v>       0.25000000       0.18464634       0.91967751 </v>
    <v>       0.25000000       0.68464634       0.58032249 </v>
    <v>       0.75000000       0.81535366       0.08032249 </v>
    <v>       0.25000000       0.43625619       0.91733425 </v>
    <v>       0.75000000       0.56374381       0.08266575 </v>
    <v>       0.25000000       0.93625619       0.58266575 </v>
    <v>       0.75000000       0.06374381       0.41733425 </v>
    <v>       0.25000000       0.18510413       0.25902238 </v>
    <v>       0.75000000       0.81489587       0.74097762 </v>
    <v>       0.25000000       0.68510413       0.24097762 </v>
    <v>       0.75000000       0.31489587       0.75902238 </v>
    <v>       0.25000000       0.18154149       0.57558711 </v>
    <v>       0.75000000       0.81845851       0.42441289 </v>
    <v>       0.25000000       0.68154149       0.92441289 </v>
    <v>       0.75000000       0.31845851       0.07558711 </v>
    <v>       0.75000000       0.31535366       0.41967751 </v>
    <v>       0.75000000       0.57119160       0.75777007 </v>
    <v>       0.25000000       0.42880840       0.24222993 </v>
    <v>       0.25000000       0.92880840       0.25777007 </v>
    <v>       0.75000000       0.07119160       0.74222993 </v>
    <v>       0.25000000       0.44242935       0.58634587 </v>
    <v>       0.75000000       0.55757065       0.41365413 </v>
    <v>       0.25000000       0.94242935       0.91365413 </v>
    <v>       0.75000000       0.05757065       0.08634587 </v>
    <v>       0.25000000       0.42993118       0.41892094 </v>
    <v>       0.75000000       0.57006882       0.58107906 </v>
    <v>       0.25000000       0.92993118       0.08107906 </v>
    <v>       0.75000000       0.07006882       0.91892094 </v>
    <v>       0.75000000       0.54760484       0.91068110 </v>
    <v>       0.25000000       0.95239516       0.41068110 </v>
    <v>       0.75000000       0.04760484       0.58931890 </v>
    <v>       0.25000000       0.18527831       0.73626851 </v>
    <v>       0.75000000       0.81472169       0.26373149 </v>
    <v>       0.25000000       0.68527831       0.76373149 </v>
    <v>       0.75000000       0.31472169       0.23626851 </v>
    <v>       0.25000000       0.44936421       0.74642517 </v>
    <v>       0.75000000       0.55063579       0.25357483 </v>
    <v>       0.25000000       0.94936421       0.75357483 </v>
    <v>       0.75000000       0.05063579       0.24642517 </v>
    <v>       0.75000000       0.33069350       0.59578898 </v>
    <v>       0.25000000       0.66930650       0.40421102 </v>
    <v>       0.25000000       0.45239516       0.08931890 </v>
    <v>       0.25000000       0.16930650       0.09578898 </v>
    <v>       0.75000000       0.83069350       0.90421102 </v>
   </varray>
  </structure>
  <varray name="forces" >
   <v>       0.00000000      -0.97609011       0.02494201 </v>
   <v>       0.00000000      -0.97609011      -0.02494201 </v>
   <v>      -0.00000000       0.97609011      -0.02494201 </v>
   <v>      -0.00000000       1.23280175       0.06376729 </v>
   <v>       0.00000000      -1.23280175      -0.06376729 </v>
   <v>      -0.00000000       1.23280175      -0.06376729 </v>
   <v>       0.00000000      -1.23280175       0.06376729 </v>
   <v>       0.00000000      -0.01089015      -0.91938586 </v>
   <v>      -0.00000000       0.01089015       0.91938586 </v>
   <v>       0.00000000      -0.01089015       0.91938586 </v>
   <v>      -0.00000000       0.01089015      -0.91938586 </v>
   <v>       0.00000000      -0.24201635       0.87600434 </v>
   <v>      -0.00000000       0.24201635      -0.87600434 </v>
   <v>       0.00000000      -0.24201635      -0.87600434 </v>
   <v>      -0.00000000       0.24201635       0.87600434 </v>
   <v>      -0.00000000       0.97609011       0.02494201 </v>
   <v>      -0.00000000       0.04308846      -0.34042432 </v>
   <v>       0.00000000      -0.04308846       0.34042432 </v>
   <v>       0.00000000      -0.04308846      -0.34042432 </v>
   <v>      -0.00000000       0.04308846       0.34042432 </v>
   <v>       0.00000000      -0.18870559      -0.21953310 </v>
   <v>      -0.00000000       0.18870559       0.21953310 </v>
   <v>       0.00000000      -0.18870559       0.21953310 </v>
   <v>      -0.00000000       0.18870559      -0.21953310 </v>
   <v>       0.00000000      -1.42574084      -0.17460774 </v>
   <v>      -0.00000000       1.42574084       0.17460774 </v>
   <v>       0.00000000      -1.42574084       0.17460774 </v>
   <v>      -0.00000000       1.42574084      -0.17460774 </v>
   <v>      -0.00000000       0.08252044       1.83667459 </v>
   <v>       0.00000000      -0.08252044       1.83667459 </v>
   <v>      -0.00000000       0.08252044      -1.83667459 </v>
   <v>      -0.00000000       1.83792322       0.58316809 </v>
   <v>       0.00000000      -1.83792322      -0.58316809 </v>
   <v>      -0.00000000       1.83792322      -0.58316809 </v>
   <v>       0.00000000      -1.83792322       0.58316809 </v>
   <v>       0.00000000      -1.56093047       1.55446429 </v>
   <v>      -0.00000000       1.56093047      -1.55446429 </v>
   <v>       0.00000000      -1.56093047      -1.55446429 </v>
   <v>      -0.00000000       1.56093047       1.55446429 </v>
   <v>       0.00000000      -1.72217082      -0.51682481 </v>
   <v>      -0.00000000       1.72217082       0.51682481 </v>
   <v>       0.00000000      -0.08252044      -1.83667459 </v>
   <v>      -0.00000000       1.72217082      -0.51682481 </v>
   <v>       0.00000000      -1.72217082       0.51682481 </v>
  </varray>
  <varray name="stress" >
   <v>      40.14401985       0.00000000       0.00000000 </v>
   <v>       0.00000000      19.52418212       0.00000000 </v>
   <v>       0.00000000       0.00000000      38.34765783 </v>
  </varray>
  <energy>
   <i name="e_fr_energy">   -172.27630030 </i>
   <i name="e_wo_entrp">   -172.27630030 </i>
   <i name="e_0_energy">     -0.00000000 </i>
  </energy>
  <time name="totalsc">   10.51   10.56</time>
 </calculation>
 <calculation>
  <scstep>
   <time name="dav">    0.79    0.79</time>
   <time name="total">    1.04    1.05</time>
   <energy>
    <i name="alphaZ">    111.90696207 </i>
    <i name="ewald">  -4932.73518702 </i>
    <i name="hartreedc">  -2223.59219001 </i>
    <i name="XCdc">   -689.08169988 </i>
    <i name="pawpsdc">  12974.90817291 </i>
    <i name="pawaedc"> -11890.95752225 </i>
    <i name="eentropy">     -0.00000000 </i>
    <i name="bandstr">   -351.67836613 </i>
    <i name="atom">   6827.61226944 </i>
    <i name="e_fr_energy">   -173.61756087 </i>
    <i name="e_wo_entrp">   -173.61756087 </i>
    <i name="e_0_energy">   -173.61756087 </i>
   </energy>
  </scstep>
  <scstep>
   <time name="dav">    0.87    0.87</time>
   <time name="total">    1.12    1.13</time>
   <energy>
    <i name="e_fr_energy">   -173.70915320 </i>
    <i name="e_wo_entrp">   -173.70915320 </i>
    <i name="e_0_energy">   -173.70915320 </i>
   </energy>
  </scstep>
  <scstep>
   <time name="dav">    0.90    0.91</time>
   <time name="total">    1.15    1.16</time>
   <energy>
    <i name="e_fr_energy">   -173.69118365 </i>
    <i name="e_wo_entrp">   -173.69118365 </i>
    <i name="e_0_energy">   -173.69118365 </i>
   </energy>
  </scstep>
  <scstep>
   <time name="dav">    0.95    0.95</time>
   <time name="total">    1.20    1.21</time>
   <energy>
    <i name="e_fr_energy">   -173.68475781 </i>
    <i name="e_wo_entrp">   -173.68475781 </i>
    <i name="e_0_energy">   -173.68475781 </i>
   </energy>
  </scstep>
  <scstep>
   <time name="dav">    1.01    1.02</time>
   <time name="total">    1.26    1.27</time>
   <energy>
    <i name="e_fr_energy">   -173.68460681 </i>
    <i name="e_wo_entrp">   -173.68460681 </i>
    <i name="e_0_energy">   -173.68460681 </i>
   </energy>
  </scstep>
  <scstep>
   <time name="dav">    0.98    0.98</time>
   <time name="total">    1.23    1.24</time>
   <energy>
    <i name="e_fr_energy">   -173.68434559 </i>
    <i name="e_wo_entrp">   -173.68434559 </i>
    <i name="e_0_energy">   -173.68434559 </i>
   </energy>
  </scstep>
  <scstep>
   <time name="dav">    0.90    0.90</time>
   <time name="total">    1.11    1.11</time>
   <energy>
    <i name="alphaZ">    111.90696207 </i>
    <i name="ewald">  -4932.73518702 </i>
    <i name="hartreedc">  -2211.18640134 </i>
    <i name="XCdc">   -689.35662428 </i>
    <i name="pawpsdc">  12903.81414276 </i>
    <i name="pawaedc"> -11819.71501126 </i>
    <i name="eentropy">     -0.00000000 </i>
    <i name="bandstr">   -364.02453735 </i>
    <i name="atom">   6827.61226944 </i>
    <i name="e_fr_energy">   -173.68438699 </i>
    <i name="e_wo_entrp">   -173.68438699 </i>
    <i name="e_0_energy">   -173.68438699 </i>
   </energy>
  </scstep>
  <structure>
   <crystal>
    <varray name="basis" >
     <v>       3.95525799      -0.00000000       0.00000000 </v>
     <v>      -0.00000000      15.60990672       0.00000000 </v>
     <v>       0.00000000       0.00000000      16.32944993 </v>
    </varray>
    <i name="volume">   1008.19996784 </i>
    <varray name="rec_basis" >
     <v>       0.25282801       0.00000000       0.00000000 </v>
     <v>       0.00000000       0.06406188       0.00000000 </v>
     <v>       0.00000000       0.00000000       0.06123905 </v>
    </varray>
   </crystal>
   <varray name="positions" >
    <v>       0.25000000       0.18300030       0.91970684 </v>
    <v>       0.25000000       0.68300030       0.58029316 </v>
    <v>       0.75000000       0.81699970       0.08029316 </v>
    <v>       0.25000000       0.43820178       0.91740923 </v>
    <v>       0.75000000       0.56179822       0.08259077 </v>
    <v>       0.25000000       0.93820178       0.58259077 </v>
    <v>       0.75000000       0.06179822       0.41740923 </v>
    <v>       0.25000000       0.18512224       0.25762252 </v>
    <v>       0.75000000       0.81487776       0.74237748 </v>
    <v>       0.25000000       0.68512224       0.24237748 </v>
    <v>       0.75000000       0.31487776       0.75762252 </v>
    <v>       0.25000000       0.18114659       0.57696228 </v>
    <v>       0.75000000       0.81885341       0.42303772 </v>
    <v>       0.25000000       0.68114659       0.92303772 </v>
    <v>       0.75000000       0.31885341       0.07696228 </v>
    <v>       0.75000000       0.31699970       0.41970684 </v>
    <v>       0.75000000       0.57137002       0.75763408 </v>
    <v>       0.25000000       0.42862998       0.24236592 </v>
    <v>       0.25000000       0.92862998       0.25763408 </v>
    <v>       0.75000000       0.07137002       0.74236592 </v>
    <v>       0.25000000       0.44238529       0.58591457 </v>
    <v>       0.75000000       0.55761471       0.41408543 </v>
    <v>       0.25000000       0.94238529       0.91408543 </v>
    <v>       0.75000000       0.05761471       0.08591457 </v>
    <v>       0.25000000       0.42845980       0.41888173 </v>
    <v>       0.75000000       0.57154020       0.58111827 </v>
    <v>       0.25000000       0.92845980       0.08111827 </v>
    <v>       0.75000000       0.07154020       0.91888173 </v>
    <v>       0.75000000       0.54761213       0.91243184 </v>
    <v>       0.25000000       0.95238787       0.41243184 </v>
    <v>       0.75000000       0.04761213       0.58756816 </v>
    <v>       0.25000000       0.18717195       0.73699647 </v>
    <v>       0.75000000       0.81282805       0.26300353 </v>
    <v>       0.25000000       0.68717195       0.76300353 </v>
    <v>       0.75000000       0.31282805       0.23699647 </v>
    <v>       0.25000000       0.44756588       0.74808194 </v>
    <v>       0.75000000       0.55243412       0.25191806 </v>
    <v>       0.25000000       0.94756588       0.75191806 </v>
    <v>       0.75000000       0.05243412       0.24808194 </v>
    <v>       0.75000000       0.32887762       0.59517951 </v>
    <v>       0.25000000       0.67112238       0.40482049 </v>
    <v>       0.25000000       0.45238787       0.08756816 </v>
    <v>       0.25000000       0.17112238       0.09517951 </v>
    <v>       0.75000000       0.82887762       0.90482049 </v>
   </varray>
  </structure>
  <varray name="forces" >
   <v>       0.00000000      -0.88478010       0.02048478 </v>
   <v>       0.00000000      -0.88478010      -0.02048478 </v>
   <v>      -0.00000000       0.88478010      -0.02048478 </v>
   <v>      -0.00000000       1.17808466       0.07470185 </v>
   <v>       0.00000000      -1.17808466      -0.07470185 </v>
   <v>      -0.00000000       1.17808466      -0.07470185 </v>
   <v>       0.00000000      -1.17808466       0.07470185 </v>
   <v>       0.00000000      -0.01643548      -0.86488511 </v>
   <v>      -0.00000000       0.01643548       0.86488511 </v>
   <v>       0.00000000      -0.01643548       0.86488511 </v>
   <v>      -0.00000000       0.01643548      -0.86488511 </v>
   <v>       0.00000000      -0.25232556       0.82249717 </v>
   <v>      -0.00000000       0.25232556      -0.82249717 </v>
   <v>       0.00000000      -0.25232556      -0.82249717 </v>
   <v>      -0.00000000       0.25232556       0.82249717 </v>
   <v>      -0.00000000       0.88478010       0.02048478 </v>
   <v>      -0.00000000       0.00798122      -0.03994483 </v>
   <v>       0.00000000      -0.00798122       0.03994483 </v>
   <v>       0.00000000      -0.00798122      -0.03994483 </v>
   <v>      -0.00000000       0.00798122       0.03994483 </v>
   <v>       0.00000000      -0.34380516       0.02368391 </v>
   <v>      -0.00000000       0.34380516      -0.02368391 </v>
   <v>       0.00000000      -0.34380516      -0.02368391 </v>
   <v>      -0.00000000       0.34380516       0.02368391 </v>
   <v>       0.00000000      -1.27286468      -0.19479082 </v>
   <v>      -0.00000000       1.27286468       0.19479082 </v>
   <v>       0.00000000      -1.27286468       0.19479082 </v>
   <v>      -0.00000000       1.27286468      -0.19479082 </v>
   <v>      -0.00000000       0.15167282       1.50439778 </v>
   <v>       0.00000000      -0.15167282       1.50439778 </v>
   <v>      -0.00000000       0.15167282      -1.50439778 </v>
   <v>      -0.00000000       1.58261105       0.56564010 </v>
   <v>       0.00000000      -1.58261105      -0.56564010 </v>
   <v>      -0.00000000       1.58261105      -0.56564010 </v>
   <v>       0.00000000      -1.58261105       0.56564010 </v>
   <v>       0.00000000      -1.39451111       1.30452818 </v>
   <v>      -0.00000000       1.39451111      -1.30452818 </v>
   <v>       0.00000000      -1.39451111      -1.30452818 </v>
   <v>      -0.00000000       1.39451111       1.30452818 </v>
   <v>       0.00000000      -1.50894644      -0.55577650 </v>
   <v>      -0.00000000       1.50894644       0.55577650 </v>
   <v>       0.00000000      -0.15167282      -1.50439778 </v>
   <v>      -0.00000000       1.50894644      -0.55577650 </v>
   <v>       0.00000000      -1.50894644       0.55577650 </v>
  </varray>
  <varray name="stress" >
   <v>      34.65538819      -0.00000000       0.00000000 </v>
   <v>       0.00000000      17.48124365       0.00000000 </v>
   <v>       0.00000000       0.00000000      34.61732793 </v>
  </varray>
  <energy>
   <i name="e_fr_energy">   -173.68438699 </i>
   <i name="e_wo_entrp">   -173.68438699 </i>
   <i name="e_0_energy">     -0.00000000 </i>
  </energy>
  <time name="totalsc">    9.55    9.60</time>
 </calculation>
 <calculation>
  <scstep>
   <time name="dav">    0.84    0.84</time>
   <time name="total">    1.09    1.10</time>
   <energy>
    <i name="alphaZ">    114.09871435 </i>
    <i name="ewald">  -5151.09525270 </i>
    <i name="hartreedc">  -2046.62045897 </i>
    <i name="XCdc">   -688.45581909 </i>
    <i name="pawpsdc">  12898.28532410 </i>
    <i name="pawaedc"> -11814.18275902 </i>
    <i name="eentropy">     -0.00000000 </i>
    <i name="bandstr">   -315.90672502 </i>
    <i name="atom">   6827.61226944 </i>
    <i name="e_fr_energy">   -176.26470689 </i>
    <i name="e_wo_entrp">   -176.26470689 </i>
    <i name="e_0_energy">   -176.26470689 </i>
   </energy>
  </scstep>
  <scstep>
   <time name="dav">    0.96    0.96</time>
   <time name="total">    1.22    1.22</time>
   <energy>
    <i name="e_fr_energy">   -177.05743719 </i>
    <i name="e_wo_entrp">   -177.05743719 </i>
    <i name="e_0_energy">   -177.05743719 </i>
   </energy>
  </scstep>
  <scstep>
   <time name="dav">    0.98    0.98</time>
   <time name="total">    1.24    1.24</time>
   <energy>
    <i name="e_fr_energy">   -176.88480920 </i>
    <i name="e_wo_entrp">   -176.88480920 </i>
    <i name="e_0_energy">   -176.88480920 </i>
   </energy>
  </scstep>
  <scstep>
   <time name="dav">    0.89    0.89</time>
   <time name="total">    1.14    1.15</time>
   <energy>
    <i name="e_fr_energy">   -176.83035673 </i>
    <i name="e_wo_entrp">   -176.83035673 </i>
    <i name="e_0_energy">   -176.83035673 </i>
   </energy>
  </scstep>
  <scstep>
   <time name="dav">    0.94    0.94</time>
   <time name="total">    1.20    1.21</time>
   <energy>
    <i name="e_fr_energy">   -176.82411971 </i>
    <i name="e_wo_entrp">   -176.82411971 </i>
    <i name="e_0_energy">   -176.82411971 </i>
   </energy>
  </scstep>
  <scstep>
   <time name="dav">    0.87    0.87</time>
   <time name="total">    1.14    1.14</time>
   <energy>
    <i name="e_fr_energy">   -176.82021535 </i>
    <i name="e_wo_entrp">   -176.82021535 </i>
    <i name="e_0_energy">   -176.82021535 </i>
   </energy>
  </scstep>
  <scstep>
   <time name="dav">    0.94    0.94</time>
   <time name="total">    1.21    1.21</time>
   <energy>
    <i name="e_fr_energy">   -176.82059740 </i>
    <i name="e_wo_entrp">   -176.82059740 </i>
    <i name="e_0_energy">   -176.82059740 </i>
   </energy>
  </scstep>
  <scstep>
   <time name="dav">    0.87    0.88</time>
   <time name="total">    1.09    1.10</time>
   <energy>
    <i name="alphaZ">    114.09871435 </i>
    <i name="ewald">  -5151.09525270 </i>
    <i name="hartreedc">  -2006.83846410 </i>
    <i name="XCdc">   -689.33956706 </i>
    <i name="pawpsdc">  12754.49311306 </i>
    <i name="pawaedc"> -11670.03089273 </i>
    <i name="eentropy">     -0.00000000 </i>
    <i name="bandstr">   -355.72054094 </i>
    <i name="atom">   6827.61226944 </i>
    <i name="e_fr_energy">   -176.82062067 </i>
    <i name="e_wo_entrp">   -176.82062067 </i>
    <i name="e_0_energy">   -176.82062067 </i>
   </energy>
  </scstep>
  <structure>
   <crystal>
    <varray name="basis" >
     <v>       3.97751288      -0.00000000       0.00000000 </v>
     <v>      -0.00000000      15.31197433       0.00000000 </v>
     <v>       0.00000000       0.00000000      16.23604505 </v>
    </varray>
    <i name="volume">    988.83318888 </i>
    <varray name="rec_basis" >
     <v>       0.25141339       0.00000000       0.00000000 </v>
     <v>       0.00000000       0.06530836       0.00000000 </v>
     <v>       0.00000000       0.00000000       0.06159135 </v>
    </varray>
   </crystal>
   <varray name="positions" >
    <v>       0.25000000       0.17803078       0.91979498 </v>
    <v>       0.25000000       0.67803078       0.58020502 </v>
    <v>       0.75000000       0.82196922       0.08020502 </v>
    <v>       0.25000000       0.44407569       0.91763459 </v>
    <v>       0.75000000       0.55592431       0.08236541 </v>
[...]
        <r>  0.0003  0.0001  0.0000 </r>
        <r>  0.0003  0.0001  0.0000 </r>
        <r>  0.0003  0.0001  0.0000 </r>
        <r>  0.0003  0.0001  0.0000 </r>
        <r>  0.0001  0.0005  0.0000 </r>
        <r>  0.0001  0.0005  0.0000 </r>
        <r>  0.0001  0.0003  0.0000 </r>
        <r>  0.0001  0.0003  0.0000 </r>
        <r>  0.0019  0.0018  0.0000 </r>
        <r>  0.0019  0.0018  0.0000 </r>
        <r>  0.0031  0.0026  0.0000 </r>
        <r>  0.0031  0.0026  0.0000 </r>
        <r>  0.0016  0.0030  0.0000 </r>
        <r>  0.0001  0.0134  0.0001 </r>
        <r>  0.0001  0.0134  0.0001 </r>
        <r>  0.0002  0.0087  0.0001 </r>
        <r>  0.0002  0.0087  0.0001 </r>
        <r>  0.0002  0.0621  0.0008 </r>
        <r>  0.0002  0.0621  0.0008 </r>
        <r>  0.0002  0.0932  0.0009 </r>
        <r>  0.0002  0.0932  0.0009 </r>
        <r>  0.0001  0.0100  0.0000 </r>
        <r>  0.0001  0.0100  0.0000 </r>
        <r>  0.0004  0.0154  0.0000 </r>
        <r>  0.0004  0.0154  0.0000 </r>
        <r>  0.0000  0.0013  0.0000 </r>
        <r>  0.0002  0.0018  0.0000 </r>
        <r>  0.0002  0.0018  0.0000 </r>
        <r>  0.0005  0.0042  0.0000 </r>
        <r>  0.0005  0.0042  0.0000 </r>
        <r>  0.0011  0.0047  0.0000 </r>
        <r>  0.0011  0.0047  0.0000 </r>
        <r>  0.0008  0.0113  0.0000 </r>
        <r>  0.0008  0.0113  0.0000 </r>
        <r>  0.0007  0.0060  0.0000 </r>
        <r>  0.0007  0.0060  0.0000 </r>
        <r>  0.0007  0.0129  0.0000 </r>
        <r>  0.0007  0.0129  0.0000 </r>
        <r>  0.0000  0.0013  0.0000 </r>
        <r>  0.0005  0.0149  0.0000 </r>
        <r>  0.0005  0.0149  0.0000 </r>
       </set>
       <set comment="band 105">
        <r>  0.0001  0.0010  0.0000 </r>
        <r>  0.0000  0.0005  0.0000 </r>
        <r>  0.0001  0.0010  0.0000 </r>
        <r>  0.0004  0.0004  0.0000 </r>
        <r>  0.0004  0.0004  0.0000 </r>
        <r>  0.0002  0.0005  0.0000 </r>
        <r>  0.0002  0.0005  0.0000 </r>
        <r>  0.0018  0.0055  0.0000 </r>
        <r>  0.0018  0.0055  0.0000 </r>
        <r>  0.0016  0.0062  0.0000 </r>
        <r>  0.0016  0.0062  0.0000 </r>
        <r>  0.0001  0.0001  0.0000 </r>
        <r>  0.0001  0.0001  0.0000 </r>
        <r>  0.0003  0.0002  0.0000 </r>
        <r>  0.0003  0.0002  0.0000 </r>
        <r>  0.0000  0.0005  0.0000 </r>
        <r>  0.0001  0.0903  0.0006 </r>
        <r>  0.0001  0.0903  0.0006 </r>
        <r>  0.0001  0.1008  0.0007 </r>
        <r>  0.0001  0.1008  0.0007 </r>
        <r>  0.0000  0.0017  0.0002 </r>
        <r>  0.0000  0.0017  0.0002 </r>
        <r>  0.0000  0.0036  0.0002 </r>
        <r>  0.0000  0.0036  0.0002 </r>
        <r>  0.0000  0.0003  0.0000 </r>
        <r>  0.0000  0.0003  0.0000 </r>
        <r>  0.0000  0.0008  0.0000 </r>
        <r>  0.0000  0.0008  0.0000 </r>
        <r>  0.0001  0.0022  0.0000 </r>
        <r>  0.0001  0.0030  0.0000 </r>
        <r>  0.0001  0.0030  0.0000 </r>
        <r>  0.0001  0.0167  0.0000 </r>
        <r>  0.0001  0.0167  0.0000 </r>
        <r>  0.0004  0.0174  0.0000 </r>
        <r>  0.0004  0.0174  0.0000 </r>
        <r>  0.0001  0.0164  0.0000 </r>
        <r>  0.0001  0.0164  0.0000 </r>
        <r>  0.0005  0.0212  0.0000 </r>
        <r>  0.0005  0.0212  0.0000 </r>
        <r>  0.0000  0.0013  0.0000 </r>
        <r>  0.0000  0.0013  0.0000 </r>
        <r>  0.0001  0.0022  0.0000 </r>
        <r>  0.0001  0.0008  0.0000 </r>
        <r>  0.0001  0.0008  0.0000 </r>
       </set>
       <set comment="band 106">
        <r>  0.0012  0.0006  0.0000 </r>
        <r>  0.0040  0.0030  0.0000 </r>
        <r>  0.0012  0.0006  0.0000 </r>
        <r>  0.0000  0.0005  0.0000 </r>
        <r>  0.0000  0.0005  0.0000 </r>
        <r>  0.0002  0.0001  0.0000 </r>
        <r>  0.0002  0.0001  0.0000 </r>
        <r>  0.0001  0.0014  0.0000 </r>
        <r>  0.0001  0.0014  0.0000 </r>
        <r>  0.0006  0.0021  0.0000 </r>
        <r>  0.0006  0.0021  0.0000 </r>
        <r>  0.0016  0.0025  0.0000 </r>
        <r>  0.0016  0.0025  0.0000 </r>
        <r>  0.0006  0.0009  0.0000 </r>
        <r>  0.0006  0.0009  0.0000 </r>
        <r>  0.0040  0.0030  0.0000 </r>
        <r>  0.0001  0.0229  0.0003 </r>
        <r>  0.0001  0.0229  0.0003 </r>
        <r>  0.0000  0.0379  0.0002 </r>
        <r>  0.0000  0.0379  0.0002 </r>
        <r>  0.0002  0.0936  0.0016 </r>
        <r>  0.0002  0.0936  0.0016 </r>
        <r>  0.0002  0.0273  0.0004 </r>
        <r>  0.0002  0.0273  0.0004 </r>
        <r>  0.0005  0.0198  0.0000 </r>
        <r>  0.0005  0.0198  0.0000 </r>
        <r>  0.0001  0.0053  0.0000 </r>
        <r>  0.0001  0.0053  0.0000 </r>
        <r>  0.0000  0.0006  0.0000 </r>
        <r>  0.0004  0.0004  0.0000 </r>
        <r>  0.0004  0.0004  0.0000 </r>
        <r>  0.0001  0.0069  0.0000 </r>
        <r>  0.0001  0.0069  0.0000 </r>
        <r>  0.0001  0.0061  0.0000 </r>
        <r>  0.0001  0.0061  0.0000 </r>
        <r>  0.0004  0.0083  0.0000 </r>
        <r>  0.0004  0.0083  0.0000 </r>
        <r>  0.0007  0.0114  0.0000 </r>
        <r>  0.0007  0.0114  0.0000 </r>
        <r>  0.0021  0.0198  0.0000 </r>
        <r>  0.0021  0.0198  0.0000 </r>
        <r>  0.0000  0.0006  0.0000 </r>
        <r>  0.0004  0.0085  0.0000 </r>
        <r>  0.0004  0.0085  0.0000 </r>
       </set>
       <set comment="band 107">
        <r>  0.0018  0.0014  0.0000 </r>
        <r>  0.0006  0.0016  0.0000 </r>
        <r>  0.0018  0.0014  0.0000 </r>
        <r>  0.0002  0.0001  0.0000 </r>
        <r>  0.0002  0.0001  0.0000 </r>
        <r>  0.0003  0.0007  0.0000 </r>
        <r>  0.0003  0.0007  0.0000 </r>
        <r>  0.0021  0.0043  0.0000 </r>
        <r>  0.0021  0.0043  0.0000 </r>
        <r>  0.0012  0.0029  0.0000 </r>
        <r>  0.0012  0.0029  0.0000 </r>
        <r>  0.0010  0.0005  0.0000 </r>
        <r>  0.0010  0.0005  0.0000 </r>
        <r>  0.0005  0.0009  0.0000 </r>
        <r>  0.0005  0.0009  0.0000 </r>
        <r>  0.0006  0.0016  0.0000 </r>
        <r>  0.0000  0.0791  0.0005 </r>
        <r>  0.0000  0.0791  0.0005 </r>
        <r>  0.0000  0.0544  0.0004 </r>
        <r>  0.0000  0.0544  0.0004 </r>
        <r>  0.0001  0.0215  0.0004 </r>
        <r>  0.0001  0.0215  0.0004 </r>
        <r>  0.0001  0.0312  0.0007 </r>
        <r>  0.0001  0.0312  0.0007 </r>
        <r>  0.0002  0.0046  0.0000 </r>
        <r>  0.0002  0.0046  0.0000 </r>
        <r>  0.0003  0.0072  0.0000 </r>
        <r>  0.0003  0.0072  0.0000 </r>
        <r>  0.0001  0.0024  0.0000 </r>
        <r>  0.0003  0.0017  0.0000 </r>
        <r>  0.0003  0.0017  0.0000 </r>
        <r>  0.0002  0.0123  0.0000 </r>
        <r>  0.0002  0.0123  0.0000 </r>
        <r>  0.0000  0.0116  0.0000 </r>
        <r>  0.0000  0.0116  0.0000 </r>
        <r>  0.0008  0.0231  0.0000 </r>
        <r>  0.0008  0.0231  0.0000 </r>
        <r>  0.0003  0.0117  0.0000 </r>
        <r>  0.0003  0.0117  0.0000 </r>
        <r>  0.0004  0.0058  0.0000 </r>
        <r>  0.0004  0.0058  0.0000 </r>
        <r>  0.0001  0.0024  0.0000 </r>
        <r>  0.0004  0.0048  0.0000 </r>
        <r>  0.0004  0.0048  0.0000 </r>
       </set>
       <set comment="band 108">
        <r>  0.0041  0.0031  0.0000 </r>
        <r>  0.0026  0.0014  0.0000 </r>
        <r>  0.0041  0.0031  0.0000 </r>
        <r>  0.0000  0.0005  0.0000 </r>
        <r>  0.0000  0.0005  0.0000 </r>
        <r>  0.0002  0.0004  0.0000 </r>
        <r>  0.0002  0.0004  0.0000 </r>
        <r>  0.0003  0.0002  0.0000 </r>
        <r>  0.0003  0.0002  0.0000 </r>
        <r>  0.0006  0.0003  0.0000 </r>
        <r>  0.0006  0.0003  0.0000 </r>
        <r>  0.0006  0.0012  0.0000 </r>
        <r>  0.0006  0.0012  0.0000 </r>
        <r>  0.0014  0.0023  0.0000 </r>
        <r>  0.0014  0.0023  0.0000 </r>
        <r>  0.0026  0.0014  0.0000 </r>
        <r>  0.0000  0.0078  0.0003 </r>
        <r>  0.0000  0.0078  0.0003 </r>
        <r>  0.0000  0.0104  0.0004 </r>
        <r>  0.0000  0.0104  0.0004 </r>
        <r>  0.0001  0.0544  0.0012 </r>
        <r>  0.0001  0.0544  0.0012 </r>
        <r>  0.0001  0.1016  0.0023 </r>
        <r>  0.0001  0.1016  0.0023 </r>
        <r>  0.0003  0.0111  0.0000 </r>
        <r>  0.0003  0.0111  0.0000 </r>
        <r>  0.0005  0.0219  0.0000 </r>
        <r>  0.0005  0.0219  0.0000 </r>
        <r>  0.0004  0.0020  0.0000 </r>
        <r>  0.0006  0.0014  0.0000 </r>
        <r>  0.0006  0.0014  0.0000 </r>
        <r>  0.0001  0.0025  0.0000 </r>
        <r>  0.0001  0.0025  0.0000 </r>
        <r>  0.0000  0.0029  0.0000 </r>
        <r>  0.0000  0.0029  0.0000 </r>
        <r>  0.0005  0.0038  0.0000 </r>
        <r>  0.0005  0.0038  0.0000 </r>
        <r>  0.0005  0.0079  0.0000 </r>
        <r>  0.0005  0.0079  0.0000 </r>
        <r>  0.0010  0.0152  0.0000 </r>
        <r>  0.0010  0.0152  0.0000 </r>
        <r>  0.0004  0.0020  0.0000 </r>
        <r>  0.0024  0.0287  0.0000 </r>
        <r>  0.0024  0.0287  0.0000 </r>
       </set>
       <set comment="band 109">
        <r>  0.0000  0.0002  0.0000 </r>
        <r>  0.0006  0.0002  0.0000 </r>
        <r>  0.0000  0.0002  0.0000 </r>
        <r>  0.0016  0.0030  0.0000 </r>
        <r>  0.0016  0.0030  0.0000 </r>
        <r>  0.0015  0.0029  0.0000 </r>
        <r>  0.0015  0.0029  0.0000 </r>
        <r>  0.0000  0.0007  0.0000 </r>
        <r>  0.0000  0.0007  0.0000 </r>
        <r>  0.0003  0.0010  0.0000 </r>
        <r>  0.0003  0.0010  0.0000 </r>
        <r>  0.0002  0.0005  0.0000 </r>
        <r>  0.0002  0.0005  0.0000 </r>
        <r>  0.0001  0.0007  0.0000 </r>
        <r>  0.0001  0.0007  0.0000 </r>
        <r>  0.0006  0.0002  0.0000 </r>
        <r>  0.0001  0.0559  0.0008 </r>
        <r>  0.0001  0.0559  0.0008 </r>
        <r>  0.0001  0.0529  0.0004 </r>
        <r>  0.0001  0.0529  0.0004 </r>
        <r>  0.0008  0.0240  0.0026 </r>
        <r>  0.0008  0.0240  0.0026 </r>
        <r>  0.0009  0.0284  0.0024 </r>
        <r>  0.0009  0.0284  0.0024 </r>
        <r>  0.0001  0.0279  0.0000 </r>
        <r>  0.0001  0.0279  0.0000 </r>
        <r>  0.0001  0.0312  0.0000 </r>
        <r>  0.0001  0.0312  0.0000 </r>
        <r>  0.0047  0.0107  0.0000 </r>
        <r>  0.0046  0.0111  0.0000 </r>
        <r>  0.0046  0.0111  0.0000 </r>
        <r>  0.0005  0.0004  0.0000 </r>
        <r>  0.0005  0.0004  0.0000 </r>
        <r>  0.0003  0.0018  0.0000 </r>
        <r>  0.0003  0.0018  0.0000 </r>
        <r>  0.0005  0.0050  0.0000 </r>
        <r>  0.0005  0.0050  0.0000 </r>
        <r>  0.0008  0.0037  0.0000 </r>
        <r>  0.0008  0.0037  0.0000 </r>
        <r>  0.0000  0.0024  0.0000 </r>
        <r>  0.0000  0.0024  0.0000 </r>
        <r>  0.0047  0.0107  0.0000 </r>
        <r>  0.0001  0.0019  0.0000 </r>
        <r>  0.0001  0.0019  0.0000 </r>
       </set>
       <set comment="band 110">
        <r>  0.0002  0.0006  0.0000 </r>
        <r>  0.0001  0.0007  0.0000 </r>
        <r>  0.0002  0.0006  0.0000 </r>
        <r>  0.0015  0.0027  0.0000 </r>
        <r>  0.0015  0.0027  0.0000 </r>
        <r>  0.0018  0.0027  0.0000 </r>
        <r>  0.0018  0.0027  0.0000 </r>
        <r>  0.0003  0.0006  0.0000 </r>
        <r>  0.0003  0.0006  0.0000 </r>
        <r>  0.0000  0.0003  0.0000 </r>
        <r>  0.0000  0.0003  0.0000 </r>
        <r>  0.0003  0.0004  0.0000 </r>
        <r>  0.0003  0.0004  0.0000 </r>
        <r>  0.0003  0.0004  0.0000 </r>
        <r>  0.0003  0.0004  0.0000 </r>
        <r>  0.0001  0.0007  0.0000 </r>
        <r>  0.0001  0.0519  0.0003 </r>
        <r>  0.0001  0.0519  0.0003 </r>
        <r>  0.0001  0.0548  0.0007 </r>
        <r>  0.0001  0.0548  0.0007 </r>
        <r>  0.0009  0.0274  0.0018 </r>
        <r>  0.0009  0.0274  0.0018 </r>
        <r>  0.0009  0.0282  0.0020 </r>
        <r>  0.0009  0.0282  0.0020 </r>
        <r>  0.0002  0.0305  0.0000 </r>
        <r>  0.0002  0.0305  0.0000 </r>
        <r>  0.0002  0.0314  0.0000 </r>
        <r>  0.0002  0.0314  0.0000 </r>
        <r>  0.0046  0.0112  0.0000 </r>
        <r>  0.0049  0.0103  0.0000 </r>
        <r>  0.0049  0.0103  0.0000 </r>
        <r>  0.0000  0.0019  0.0000 </r>
        <r>  0.0000  0.0019  0.0000 </r>
        <r>  0.0002  0.0009  0.0000 </r>
        <r>  0.0002  0.0009  0.0000 </r>
        <r>  0.0011  0.0023  0.0000 </r>
        <r>  0.0011  0.0023  0.0000 </r>
        <r>  0.0008  0.0035  0.0000 </r>
        <r>  0.0008  0.0035  0.0000 </r>
        <r>  0.0002  0.0013  0.0000 </r>
        <r>  0.0002  0.0013  0.0000 </r>
        <r>  0.0046  0.0112  0.0000 </r>
        <r>  0.0000  0.0030  0.0000 </r>
        <r>  0.0000  0.0030  0.0000 </r>
       </set>
       <set comment="band 111">
        <r>  0.0002  0.0006  0.0000 </r>
        <r>  0.0000  0.0003  0.0000 </r>
        <r>  0.0002  0.0006  0.0000 </r>
        <r>  0.0025  0.0043  0.0000 </r>
        <r>  0.0025  0.0043  0.0000 </r>
        <r>  0.0011  0.0021  0.0000 </r>
        <r>  0.0011  0.0021  0.0000 </r>
        <r>  0.0003  0.0005  0.0000 </r>
        <r>  0.0003  0.0005  0.0000 </r>
        <r>  0.0002  0.0007  0.0000 </r>
        <r>  0.0002  0.0007  0.0000 </r>
        <r>  0.0002  0.0014  0.0000 </r>
        <r>  0.0002  0.0014  0.0000 </r>
        <r>  0.0002  0.0007  0.0000 </r>
        <r>  0.0002  0.0007  0.0000 </r>
        <r>  0.0000  0.0003  0.0000 </r>
        <r>  0.0002  0.0520  0.0004 </r>
        <r>  0.0002  0.0520  0.0004 </r>
        <r>  0.0000  0.0255  0.0010 </r>
        <r>  0.0000  0.0255  0.0010 </r>
        <r>  0.0012  0.0438  0.0026 </r>
        <r>  0.0012  0.0438  0.0026 </r>
        <r>  0.0005  0.0243  0.0016 </r>
        <r>  0.0005  0.0243  0.0016 </r>
        <r>  0.0000  0.0463  0.0000 </r>
        <r>  0.0000  0.0463  0.0000 </r>
        <r>  0.0002  0.0240  0.0000 </r>
        <r>  0.0002  0.0240  0.0000 </r>
        <r>  0.0047  0.0073  0.0000 </r>
        <r>  0.0028  0.0041  0.0000 </r>
        <r>  0.0028  0.0041  0.0000 </r>
        <r>  0.0000  0.0016  0.0000 </r>
        <r>  0.0000  0.0016  0.0000 </r>
        <r>  0.0001  0.0010  0.0000 </r>
        <r>  0.0001  0.0010  0.0000 </r>
        <r>  0.0017  0.0094  0.0000 </r>
        <r>  0.0017  0.0094  0.0000 </r>
        <r>  0.0007  0.0061  0.0000 </r>
        <r>  0.0007  0.0061  0.0000 </r>
        <r>  0.0001  0.0022  0.0000 </r>
        <r>  0.0001  0.0022  0.0000 </r>
        <r>  0.0047  0.0073  0.0000 </r>
        <r>  0.0003  0.0015  0.0000 </r>
        <r>  0.0003  0.0015  0.0000 </r>
       </set>
       <set comment="band 112">
        <r>  0.0004  0.0008  0.0000 </r>
        <r>  0.0005  0.0006  0.0000 </r>
        <r>  0.0004  0.0008  0.0000 </r>
        <r>  0.0012  0.0021  0.0000 </r>
        <r>  0.0012  0.0021  0.0000 </r>
        <r>  0.0025  0.0040  0.0000 </r>
        <r>  0.0025  0.0040  0.0000 </r>
        <r>  0.0004  0.0004  0.0000 </r>
        <r>  0.0004  0.0004  0.0000 </r>
        <r>  0.0006  0.0003  0.0000 </r>
        <r>  0.0006  0.0003  0.0000 </r>
        <r>  0.0002  0.0002  0.0000 </r>
        <r>  0.0002  0.0002  0.0000 </r>
        <r>  0.0004  0.0008  0.0000 </r>
        <r>  0.0004  0.0008  0.0000 </r>
        <r>  0.0005  0.0006  0.0000 </r>
        <r>  0.0001  0.0311  0.0013 </r>
        <r>  0.0001  0.0311  0.0013 </r>
        <r>  0.0001  0.0600  0.0004 </r>
        <r>  0.0001  0.0600  0.0004 </r>
        <r>  0.0006  0.0237  0.0023 </r>
        <r>  0.0006  0.0237  0.0023 </r>
        <r>  0.0013  0.0402  0.0030 </r>
        <r>  0.0013  0.0402  0.0030 </r>
        <r>  0.0002  0.0225  0.0000 </r>
        <r>  0.0002  0.0225  0.0000 </r>
        <r>  0.0002  0.0432  0.0000 </r>
        <r>  0.0002  0.0432  0.0000 </r>
        <r>  0.0024  0.0048  0.0000 </r>
        <r>  0.0038  0.0087  0.0000 </r>
        <r>  0.0038  0.0087  0.0000 </r>
        <r>  0.0005  0.0012  0.0000 </r>
        <r>  0.0005  0.0012  0.0000 </r>
        <r>  0.0002  0.0017  0.0000 </r>
        <r>  0.0002  0.0017  0.0000 </r>
        <r>  0.0007  0.0057  0.0000 </r>
        <r>  0.0007  0.0057  0.0000 </r>
        <r>  0.0016  0.0086  0.0000 </r>
        <r>  0.0016  0.0086  0.0000 </r>
        <r>  0.0000  0.0025  0.0000 </r>
        <r>  0.0000  0.0025  0.0000 </r>
        <r>  0.0024  0.0048  0.0000 </r>
        <r>  0.0001  0.0028  0.0000 </r>
        <r>  0.0001  0.0028  0.0000 </r>
       </set>
      </set>
     </set>
    </set>
   </array>
  </projected>
 </calculation>
 <structure name="finalpos" >
  <crystal>
   <varray name="basis" >
    <v>       3.94125568      -0.00000000       0.00000000 </v>
    <v>      -0.00000000      15.82160422       0.00000000 </v>
    <v>       0.00000000       0.00000000      16.00505738 </v>
   </varray>
   <i name="volume">    998.02716382 </i>
   <varray name="rec_basis" >
    <v>       0.25372624       0.00000000       0.00000000 </v>
    <v>       0.00000000       0.06320472       0.00000000 </v>
    <v>       0.00000000       0.00000000       0.06248025 </v>
   </varray>
  </crystal>
  <varray name="positions" >
   <v>       0.25000000       0.15882687       0.91068117 </v>
   <v>       0.25000000       0.65882687       0.58931883 </v>
   <v>       0.75000000       0.84117313       0.08931883 </v>
   <v>       0.25000000       0.48760893       0.92972439 </v>
   <v>       0.75000000       0.51239107       0.07027561 </v>
   <v>       0.25000000       0.98760893       0.57027561 </v>
   <v>       0.75000000       0.01239107       0.42972439 </v>
   <v>       0.25000000       0.20169594       0.23313804 </v>
   <v>       0.75000000       0.79830406       0.76686196 </v>
   <v>       0.25000000       0.70169594       0.26686196 </v>
   <v>       0.75000000       0.29830406       0.73313804 </v>
   <v>       0.25000000       0.18495913       0.59791829 </v>
   <v>       0.75000000       0.81504087       0.40208171 </v>
   <v>       0.25000000       0.68495913       0.90208171 </v>
   <v>       0.75000000       0.31504087       0.09791829 </v>
   <v>       0.75000000       0.34117313       0.41068117 </v>
   <v>       0.75000000       0.56415706       0.76660636 </v>
   <v>       0.25000000       0.43584294       0.23339364 </v>
   <v>       0.25000000       0.93584294       0.26660636 </v>
   <v>       0.75000000       0.06415706       0.73339364 </v>
   <v>       0.25000000       0.42537136       0.59006514 </v>
   <v>       0.75000000       0.57462864       0.40993486 </v>
   <v>       0.25000000       0.92537136       0.90993486 </v>
   <v>       0.75000000       0.07462864       0.09006514 </v>
   <v>       0.25000000       0.43766557       0.41595840 </v>
   <v>       0.75000000       0.56233443       0.58404160 </v>
   <v>       0.25000000       0.93766557       0.08404160 </v>
   <v>       0.75000000       0.06233443       0.91595840 </v>
   <v>       0.75000000       0.58235249       0.93192794 </v>
   <v>       0.25000000       0.91764751       0.43192794 </v>
   <v>       0.75000000       0.08235249       0.56807206 </v>
   <v>       0.25000000       0.19249594       0.75674681 </v>
   <v>       0.75000000       0.80750406       0.24325319 </v>
   <v>       0.25000000       0.69249594       0.74325319 </v>
   <v>       0.75000000       0.30750406       0.25674681 </v>
   <v>       0.25000000       0.43082621       0.76978134 </v>
   <v>       0.75000000       0.56917379       0.23021866 </v>
   <v>       0.25000000       0.93082621       0.73021866 </v>
   <v>       0.75000000       0.06917379       0.26978134 </v>
   <v>       0.75000000       0.30547451       0.57318180 </v>
   <v>       0.25000000       0.69452549       0.42681820 </v>
   <v>       0.25000000       0.41764751       0.06807206 </v>
   <v>       0.25000000       0.19452549       0.07318180 </v>
   <v>       0.75000000       0.80547451       0.92681820 </v>
  </varray>
 </structure>
</modeling>
