CIS                                     
           1
     4.113755    0.000000    0.000000
     0.000000   17.104490    0.000000
     0.000000    0.000000   17.595673
   Li   Bi   S 
  16   8  20
Direct configuration=     1
   0.25000000  0.19218602  0.91958062
   0.25000000  0.69218602  0.58041938
   0.75000000  0.80781398  0.08041938
   0.25000000  0.42780610  0.91708645
   0.75000000  0.57219390  0.08291355
   0.25000000  0.92780610  0.58291355
   0.75000000  0.07219390  0.41708645
   0.25000000  0.18489487  0.26518294
   0.75000000  0.81510513  0.73481706
   0.25000000  0.68489487  0.23481706
   0.75000000  0.31510513  0.76518294
   0.25000000  0.18330456  0.56938156
   0.75000000  0.81669544  0.43061844
   0.25000000  0.68330456  0.93061844
   0.75000000  0.31669544  0.06938156
   0.75000000  0.30781398  0.41958062
   0.75000000  0.57000813  0.75694783
   0.25000000  0.42999187  0.24305217
   0.25000000  0.92999187  0.25694783
   0.75000000  0.07000813  0.74305217
   0.25000000  0.44168188  0.58860454
   0.75000000  0.55831812  0.41139546
   0.25000000  0.94168188  0.91139546
   0.75000000  0.05831812  0.08860454
   0.25000000  0.43344078  0.41825133
   0.75000000  0.56655922  0.58174867
   0.25000000  0.93344078  0.08174867
   0.75000000  0.06655922  0.91825133
   0.75000000  0.54802805  0.90686239
   0.25000000  0.95197195  0.40686239
   0.75000000  0.04802805  0.59313761
   0.25000000  0.18077916  0.73365928
   0.75000000  0.81922084  0.26634072
   0.25000000  0.68077916  0.76634072
   0.75000000  0.31922084  0.23365928
   0.25000000  0.45471405  0.74177240
   0.75000000  0.54528595  0.25822760
   0.25000000  0.95471405  0.75822760
   0.75000000  0.04528595  0.24177240
   0.75000000  0.33524303  0.59781178
   0.25000000  0.66475697  0.40218822
   0.25000000  0.45197195  0.09313761
   0.25000000  0.16475697  0.09781178
   0.75000000  0.83524303  0.90218822
CIS                                     
           1
     4.097164   -0.000000    0.000000
    -0.000000   16.964963    0.000000
     0.000000    0.000000   17.472164
   Li   Bi   S 
  16   8  20
Direct configuration=     2
   0.25000000  0.19144879  0.91959012
   0.25000000  0.69144879  0.58040988
   0.75000000  0.80855121  0.08040988
   0.25000000  0.42863235  0.91711076
   0.75000000  0.57136765  0.08288924
   0.25000000  0.92863235  0.58288924
   0.75000000  0.07136765  0.41711076
   0.25000000  0.18491533  0.26457864
   0.75000000  0.81508467  0.73542136
   0.25000000  0.68491533  0.23542136
   0.75000000  0.31508467  0.76457864
   0.25000000  0.18313217  0.56999027
   0.75000000  0.81686783  0.43000973
   0.25000000  0.68313217  0.93000973
   0.75000000  0.31686783  0.06999027
   0.75000000  0.30855121  0.41959012
   0.75000000  0.57012385  0.75702848
   0.25000000  0.42987615  0.24297152
   0.25000000  0.92987615  0.25702848
   0.75000000  0.07012385  0.74297152
   0.25000000  0.44175497  0.58838298
   0.75000000  0.55824503  0.41161702
   0.25000000  0.94175497  0.91161702
   0.75000000  0.05824503  0.08838298
   0.25000000  0.43309761  0.41831701
   0.75000000  0.56690239  0.58168299
   0.25000000  0.93309761  0.08168299
   0.75000000  0.06690239  0.91831701
   0.75000000  0.54798667  0.90723697
   0.25000000  0.95201333  0.40723697
   0.75000000  0.04798667  0.59276303
   0.25000000  0.18121909  0.73391522
   0.75000000  0.81878091  0.26608478
   0.25000000  0.68121909  0.76608478
   0.75000000  0.31878091  0.23391522
   0.25000000  0.45419094  0.74222880
   0.75000000  0.54580906  0.25777120
   0.25000000  0.95419094  0.75777120
   0.75000000  0.04580906  0.24222880
   0.75000000  0.33479818  0.59761336
   0.25000000  0.66520182  0.40238664
   0.25000000  0.45201333  0.09276303
   0.25000000  0.16520182  0.09761336
   0.75000000  0.83479818  0.90238664
CIS                                     
           1
     4.047389   -0.000000    0.000000
    -0.000000   16.546381    0.000000
     0.000000    0.000000   17.101638
   Li   Bi   S 
  16   8  20
Direct configuration=     3
   0.25000000  0.18921891  0.91961884
   0.25000000  0.68921891  0.58038116
   0.75000000  0.81078109  0.08038116
   0.25000000  0.43113148  0.91718419
   0.75000000  0.56886852  0.08281581
   0.25000000  0.93113148  0.58281581
   0.75000000  0.06886852  0.41718419
   0.25000000  0.18497722  0.26275293
   0.75000000  0.81502278  0.73724707
   0.25000000  0.68497722  0.23724707
   0.75000000  0.31502278  0.76275293
   0.25000000  0.18261073  0.57182932
   0.75000000  0.81738927  0.42817068
   0.25000000  0.68261073  0.92817068
   0.75000000  0.31738927  0.07182932
   0.75000000  0.31078109  0.41961884
   0.75000000  0.57047386  0.75727216
   0.25000000  0.42952614  0.24272784
   0.25000000  0.92952614  0.25727216
   0.75000000  0.07047386  0.74272784
   0.25000000  0.44197603  0.58771361
   0.75000000  0.55802397  0.41228639
   0.25000000  0.94197603  0.91228639
   0.75000000  0.05802397  0.08771361
   0.25000000  0.43205964  0.41851546
   0.75000000  0.56794036  0.58148454
   0.25000000  0.93205964  0.08148454
   0.75000000  0.06794036  0.91851546
   0.75000000  0.54786151  0.90836867
   0.25000000  0.95213849  0.40836867
   0.75000000  0.04786151  0.59163133
   0.25000000  0.18254972  0.73468848
   0.75000000  0.81745028  0.26531152
   0.25000000  0.68254972  0.76531152
   0.75000000  0.31745028  0.23468848
   0.25000000  0.45260872  0.74360767
   0.75000000  0.54739128  0.25639233
   0.25000000  0.95260872  0.75639233
   0.75000000  0.04739128  0.24360767
   0.75000000  0.33345264  0.59701389
   0.25000000  0.66654736  0.40298611
   0.25000000  0.45213849  0.09163133
   0.25000000  0.16654736  0.09701389
   0.75000000  0.83345264  0.90298611
CIS                                     
           1
     3.947840   -0.000000    0.000000
    -0.000000   15.709218    0.000000
     0.000000    0.000000   16.360585
   Li   Bi   S 
  16   8  20
Direct configuration=     4
   0.25000000  0.18464634  0.91967751
   0.25000000  0.68464634  0.58032249
   0.75000000  0.81535366  0.08032249
   0.25000000  0.43625619  0.91733425
   0.75000000  0.56374381  0.08266575
   0.25000000  0.93625619  0.58266575
   0.75000000  0.06374381  0.41733425
   0.25000000  0.18510413  0.25902238
   0.75000000  0.81489587  0.74097762
   0.25000000  0.68510413  0.24097762
   0.75000000  0.31489587  0.75902238
   0.25000000  0.18154149  0.57558711
   0.75000000  0.81845851  0.42441289
   0.25000000  0.68154149  0.92441289
   0.75000000  0.31845851  0.07558711
   0.75000000  0.31535366  0.41967751
   0.75000000  0.57119160  0.75777007
   0.25000000  0.42880840  0.24222993
   0.25000000  0.92880840  0.25777007
   0.75000000  0.07119160  0.74222993
   0.25000000  0.44242935  0.58634587
   0.75000000  0.55757065  0.41365413
   0.25000000  0.94242935  0.91365413
   0.75000000  0.05757065  0.08634587
   0.25000000  0.42993118  0.41892094
   0.75000000  0.57006882  0.58107906
   0.25000000  0.92993118  0.08107906
   0.75000000  0.07006882  0.91892094
   0.75000000  0.54760484  0.91068110
   0.25000000  0.95239516  0.41068110
   0.75000000  0.04760484  0.58931890
   0.25000000  0.18527831  0.73626851
   0.75000000  0.81472169  0.26373149
   0.25000000  0.68527831  0.76373149
   0.75000000  0.31472169  0.23626851
   0.25000000  0.44936421  0.74642517
   0.75000000  0.55063579  0.25357483
   0.25000000  0.94936421  0.75357483
   0.75000000  0.05063579  0.24642517
   0.75000000  0.33069350  0.59578898
   0.25000000  0.66930650  0.40421102
   0.25000000  0.45239516  0.08931890
   0.25000000  0.16930650  0.09578898
   0.75000000  0.83069350  0.90421102
CIS                                     
           1
     3.955258   -0.000000    0.000000
    -0.000000   15.609907    0.000000
     0.000000    0.000000   16.329450
   Li   Bi   S 
  16   8  20
Direct configuration=     5
   0.25000000  0.18300030  0.91970684
   0.25000000  0.68300030  0.58029316
   0.75000000  0.81699970  0.08029316
   0.25000000  0.43820178  0.91740923
   0.75000000  0.56179822  0.08259077
   0.25000000  0.93820178  0.58259077
   0.75000000  0.06179822  0.41740923
   0.25000000  0.18512224  0.25762252
   0.75000000  0.81487776  0.74237748
   0.25000000  0.68512224  0.24237748
   0.75000000  0.31487776  0.75762252
   0.25000000  0.18114659  0.57696228
   0.75000000  0.81885341  0.42303772
   0.25000000  0.68114659  0.92303772
   0.75000000  0.31885341  0.07696228
   0.75000000  0.31699970  0.41970684
   0.75000000  0.57137002  0.75763408
   0.25000000  0.42862998  0.24236592
   0.25000000  0.92862998  0.25763408
   0.75000000  0.07137002  0.74236592
   0.25000000  0.44238529  0.58591457
   0.75000000  0.55761471  0.41408543
   0.25000000  0.94238529  0.91408543
   0.75000000  0.05761471  0.08591457
   0.25000000  0.42845980  0.41888173
   0.75000000  0.57154020  0.58111827
   0.25000000  0.92845980  0.08111827
   0.75000000  0.07154020  0.91888173
   0.75000000  0.54761213  0.91243184
   0.25000000  0.95238787  0.41243184
   0.75000000  0.04761213  0.58756816
   0.25000000  0.18717195  0.73699647
   0.75000000  0.81282805  0.26300353
   0.25000000  0.68717195  0.76300353
   0.75000000  0.31282805  0.23699647
   0.25000000  0.44756588  0.74808194
   0.75000000  0.55243412  0.25191806
   0.25000000  0.94756588  0.75191806
   0.75000000  0.05243412  0.24808194
   0.75000000  0.32887762  0.59517951
   0.25000000  0.67112238  0.40482049
   0.25000000  0.45238787  0.08756816
   0.25000000  0.17112238  0.09517951
   0.75000000  0.82887762  0.90482049
CIS                                     
           1
     3.977513   -0.000000    0.000000
    -0.000000   15.311974    0.000000
     0.000000    0.000000   16.236045
   Li   Bi   S 
  16   8  20
Direct configuration=     6
   0.25000000  0.17803078  0.91979498
   0.25000000  0.67803078  0.58020502
   0.75000000  0.82196922  0.08020502
   0.25000000  0.44407569  0.91763459
   0.75000000  0.55592431  0.08236541
   0.25000000  0.94407569  0.58236541
   0.75000000  0.05592431  0.41763459
   0.25000000  0.18517693  0.25341492
   0.75000000  0.81482307  0.74658508
   0.25000000  0.68517693  0.24658508
   0.75000000  0.31482307  0.75341492
   0.25000000  0.17995434  0.58109565
   0.75000000  0.82004566  0.41890435
   0.25000000  0.67995434  0.91890435
   0.75000000  0.32004566  0.08109565
   0.75000000  0.32196922  0.41979498
   0.75000000  0.57190870  0.75722533
   0.25000000  0.42809130  0.24277467
   0.25000000  0.92809130  0.25722533
   0.75000000  0.07190870  0.74277467
   0.25000000  0.44225228  0.58461819
   0.75000000  0.55774772  0.41538181
   0.25000000  0.94225228  0.91538181
   0.75000000  0.05774772  0.08461819
   0.25000000  0.42401756  0.41876387
   0.75000000  0.57598244  0.58123613
   0.25000000  0.92401756  0.08123613
   0.75000000  0.07598244  0.91876387
   0.75000000  0.54763413  0.91769406
   0.25000000  0.95236587  0.41769406
   0.75000000  0.04763413  0.58230594
   0.25000000  0.19288903  0.73918453
   0.75000000  0.80711097  0.26081547
   0.25000000  0.69288903  0.76081547
   0.75000000  0.30711097  0.23918453
   0.25000000  0.44213657  0.75306176
   0.75000000  0.55786343  0.24693824
   0.25000000  0.94213657  0.74693824
   0.75000000  0.05786343  0.25306176
   0.75000000  0.32339533  0.59334762
   0.25000000  0.67660467  0.40665238
   0.25000000  0.45236587  0.08230594
   0.25000000  0.17660467  0.09334762
   0.75000000  0.82339533  0.90665238
CIS                                     
           1
     4.022023   -0.000000    0.000000
    -0.000000   14.716110    0.000000
     0.000000    0.000000   16.049235
   Li   Bi   S 
  16   8  20
Direct configuration=     7
   0.25000000  0.16789835  0.91997227
   0.25000000  0.66789835  0.58002773
   0.75000000  0.83210165  0.08002773
   0.25000000  0.45605208  0.91808792
   0.75000000  0.54394792  0.08191208
   0.25000000  0.95605208  0.58191208
   0.75000000  0.04394792  0.41808792
   0.25000000  0.18528842  0.24495132
   0.75000000  0.81471158  0.75504868
   0.25000000  0.68528842  0.25504868
   0.75000000  0.31471158  0.74495132
   0.25000000  0.17752346  0.58940995
   0.75000000  0.82247654  0.41059005
   0.25000000  0.67752346  0.91059005
   0.75000000  0.32247654  0.08940995
   0.75000000  0.33210165  0.41997227
   0.75000000  0.57300703  0.75640313
   0.25000000  0.42699297  0.24359687
   0.25000000  0.92699297  0.25640313
   0.75000000  0.07300703  0.74359687
   0.25000000  0.44198109  0.58201052
   0.75000000  0.55801891  0.41798948
   0.25000000  0.94198109  0.91798948
   0.75000000  0.05801891  0.08201052
   0.25000000  0.41496022  0.41852679
   0.75000000  0.58503978  0.58147321
   0.25000000  0.91496022  0.08147321
   0.75000000  0.08503978  0.91852679
   0.75000000  0.54767899  0.92827905
   0.25000000  0.95232101  0.42827905
   0.75000000  0.04767899  0.57172095
   0.25000000  0.20454565  0.74358583
   0.75000000  0.79545435  0.25641417
   0.25000000  0.70454565  0.75641417
   0.75000000  0.29545435  0.24358583
   0.25000000  0.43106666  0.76307869
   0.75000000  0.56893334  0.23692131
   0.25000000  0.93106666  0.73692131
   0.75000000  0.06893334  0.26307869
   0.75000000  0.31221741  0.58966275
   0.25000000  0.68778259  0.41033725
   0.25000000  0.45232101  0.07172095
   0.25000000  0.18778259  0.08966275
   0.75000000  0.81221741  0.91033725
CIS                                     
           1
     4.010702   -0.000000    0.000000
    -0.000000   14.867660    0.000000
     0.000000    0.000000   16.096748
   Li   Bi   S 
  16   8  20
Direct configuration=     8
   0.25000000  0.17057974  0.91992665
   0.25000000  0.67057974  0.58007335
   0.75000000  0.82942026  0.08007335
   0.25000000  0.45288271  0.91797128
   0.75000000  0.54711729  0.08202872
   0.25000000  0.95288271  0.58202872
   0.75000000  0.04711729  0.41797128
   0.25000000  0.18525892  0.24712898
   0.75000000  0.81474108  0.75287102
   0.25000000  0.68525892  0.25287102
   0.75000000  0.31474108  0.74712898
   0.25000000  0.17816675  0.58727071
   0.75000000  0.82183325  0.41272929
   0.25000000  0.67816675  0.91272929
   0.75000000  0.32183325  0.08727071
   0.75000000  0.32942026  0.41992665
   0.75000000  0.57271637  0.75661468
   0.25000000  0.42728363  0.24338532
   0.25000000  0.92728363  0.25661468
   0.75000000  0.07271637  0.74338532
   0.25000000  0.44205286  0.58268147
   0.75000000  0.55794714  0.41731853
   0.25000000  0.94205286  0.91731853
   0.75000000  0.05794714  0.08268147
   0.25000000  0.41735710  0.41858779
   0.75000000  0.58264290  0.58141221
   0.25000000  0.91735710  0.08141221
   0.75000000  0.08264290  0.91858779
   0.75000000  0.54766712  0.92555556
   0.25000000  0.95233288  0.42555556
   0.75000000  0.04766712  0.57444444
   0.25000000  0.20146091  0.74245339
   0.75000000  0.79853909  0.25754661
   0.25000000  0.70146091  0.75754661
   0.75000000  0.29853909  0.24245339
   0.25000000  0.43399614  0.76050137
   0.75000000  0.56600386  0.23949863
   0.25000000  0.93399614  0.73949863
   0.75000000  0.06600386  0.26050137
   0.75000000  0.31517548  0.59061085
   0.25000000  0.68482452  0.40938915
   0.25000000  0.45233288  0.07444444
   0.25000000  0.18482452  0.09061085
   0.75000000  0.81517548  0.90938915
CIS                                     
           1
     4.026538   -0.000000    0.000000
    -0.000000   14.910016    0.000000
     0.000000    0.000000   16.233059
   Li   Bi   S 
  16   8  20
Direct configuration=     9
   0.25000000  0.16986515  0.91993944
   0.25000000  0.66986515  0.58006056
   0.75000000  0.83013485  0.08006056
   0.25000000  0.45514351  0.91819309
   0.75000000  0.54485649  0.08180691
   0.25000000  0.95514351  0.58180691
   0.75000000  0.04485649  0.41819309
   0.25000000  0.18507476  0.24569251
   0.75000000  0.81492524  0.75430749
   0.25000000  0.68507476  0.25430749
   0.75000000  0.31492524  0.74569251
   0.25000000  0.17731721  0.58859637
   0.75000000  0.82268279  0.41140363
   0.25000000  0.67731721  0.91140363
   0.75000000  0.32268279  0.08859637
   0.75000000  0.33013485  0.41993944
   0.75000000  0.57235206  0.75938026
   0.25000000  0.42764794  0.24061974
   0.25000000  0.92764794  0.25938026
   0.75000000  0.07235206  0.74061974
   0.25000000  0.43940982  0.58496819
   0.75000000  0.56059018  0.41503181
   0.25000000  0.93940982  0.91503181
   0.75000000  0.06059018  0.08496819
   0.25000000  0.41570700  0.41823865
   0.75000000  0.58429300  0.58176135
   0.25000000  0.91570700  0.08176135
   0.75000000  0.08429300  0.91823865
   0.75000000  0.54916737  0.92563217
   0.25000000  0.95083263  0.42563217
   0.75000000  0.04916737  0.57436783
   0.25000000  0.20271890  0.74392004
   0.75000000  0.79728110  0.25607996
   0.25000000  0.70271890  0.75607996
   0.75000000  0.29728110  0.24392004
   0.25000000  0.43264893  0.76122917
   0.75000000  0.56735107  0.23877083
   0.25000000  0.93264893  0.73877083
   0.75000000  0.06735107  0.26122917
   0.75000000  0.31414779  0.58898193
   0.25000000  0.68585221  0.41101807
   0.25000000  0.45083263  0.07436783
   0.25000000  0.18585221  0.08898193
   0.75000000  0.81414779  0.91101807
CIS                                     
           1
     4.066617   -0.000000    0.000000
    -0.000000   15.017220    0.000000
     0.000000    0.000000   16.578066
   Li   Bi   S 
  16   8  20
Direct configuration=    10
   0.25000000  0.16806166  0.91997155
   0.25000000  0.66806166  0.58002845
   0.75000000  0.83193834  0.08002845
   0.25000000  0.46084938  0.91874980
   0.75000000  0.53915062  0.08125020
   0.25000000  0.96084938  0.58125020
   0.75000000  0.03915062  0.41874980
   0.25000000  0.18460999  0.24208732
   0.75000000  0.81539001  0.75791268
   0.25000000  0.68460999  0.25791268
   0.75000000  0.31539001  0.74208732
   0.25000000  0.17517312  0.59192346
   0.75000000  0.82482688  0.40807654
   0.25000000  0.67517312  0.90807654
   0.75000000  0.32482688  0.09192346
   0.75000000  0.33193834  0.41997155
   0.75000000  0.57143260  0.76632123
   0.25000000  0.42856740  0.23367877
   0.25000000  0.92856740  0.26632123
   0.75000000  0.07143260  0.73367877
   0.25000000  0.43273924  0.59070734
   0.75000000  0.56726076  0.40929266
   0.25000000  0.93273924  0.90929266
   0.75000000  0.06726076  0.09070734
   0.25000000  0.41154242  0.41736239
   0.75000000  0.58845758  0.58263761
   0.25000000  0.91154242  0.08263761
   0.75000000  0.08845758  0.91736239
   0.75000000  0.55295375  0.92582445
   0.25000000  0.94704625  0.42582445
   0.75000000  0.05295375  0.57417555
   0.25000000  0.20589388  0.74760101
   0.75000000  0.79410612  0.25239899
   0.25000000  0.70589388  0.75239899
   0.75000000  0.29410612  0.24760101
   0.25000000  0.42924880  0.76305579
   0.75000000  0.57075120  0.23694421
   0.25000000  0.92924880  0.73694421
   0.75000000  0.07075120  0.26305579
   0.75000000  0.31155409  0.58489371
   0.25000000  0.68844591  0.41510629
   0.25000000  0.44704625  0.07417555
   0.25000000  0.18844591  0.08489371
   0.75000000  0.81155409  0.91510629
CIS                                     
           1
     4.058652   -0.000000    0.000000
    -0.000000   14.995916    0.000000
     0.000000    0.000000   16.509505
   Li   Bi   S 
  16   8  20
Direct configuration=    11
   0.25000000  0.16841750  0.91996531
   0.25000000  0.66841750  0.58003469
   0.75000000  0.83158250  0.08003469
   0.25000000  0.45972358  0.91864147
   0.75000000  0.54027642  0.08135853
   0.25000000  0.95972358  0.58135853
   0.75000000  0.04027642  0.41864147
   0.25000000  0.18470169  0.24278884
   0.75000000  0.81529831  0.75721116
   0.25000000  0.68470169  0.25721116
   0.75000000  0.31529831  0.74278884
   0.25000000  0.17559616  0.59127604
   0.75000000  0.82440384  0.40872396
   0.25000000  0.67559616  0.90872396
   0.75000000  0.32440384  0.09127604
   0.75000000  0.33158250  0.41996531
   0.75000000  0.57161401  0.76497060
   0.25000000  0.42838599  0.23502940
   0.25000000  0.92838599  0.26497060
   0.75000000  0.07161401  0.73502940
   0.25000000  0.43405537  0.58959057
   0.75000000  0.56594463  0.41040943
   0.25000000  0.93405537  0.91040943
   0.75000000  0.06594463  0.08959057
   0.25000000  0.41236411  0.41753290
   0.75000000  0.58763589  0.58246710
   0.25000000  0.91236411  0.08246710
   0.75000000  0.08763589  0.91753290
   0.75000000  0.55220668  0.92578703
   0.25000000  0.94779332  0.42578703
   0.75000000  0.05220668  0.57421297
   0.25000000  0.20526744  0.74688474
   0.75000000  0.79473256  0.25311526
   0.25000000  0.70526744  0.75311526
   0.75000000  0.29473256  0.24688474
   0.25000000  0.42991966  0.76270036
   0.75000000  0.57008034  0.23729964
   0.25000000  0.92991966  0.73729964
   0.75000000  0.07008034  0.26270036
   0.75000000  0.31206584  0.58568923
   0.25000000  0.68793416  0.41431077
   0.25000000  0.44779332  0.07421297
   0.25000000  0.18793416  0.08568923
   0.75000000  0.81206584  0.91431077
CIS                                     
           1
     4.019338   -0.000000    0.000000
    -0.000000   14.971983    0.000000
     0.000000    0.000000   16.443757
   Li   Bi   S 
  16   8  20
Direct configuration=    12
   0.25000000  0.16832552  0.91980961
   0.25000000  0.66832552  0.58019039
   0.75000000  0.83167448  0.08019039
   0.25000000  0.46131866  0.91888493
   0.75000000  0.53868134  0.08111507
   0.25000000  0.96131866  0.58111507
   0.75000000  0.03868134  0.41888493
   0.25000000  0.18476164  0.24171822
   0.75000000  0.81523836  0.75828178
   0.25000000  0.68476164  0.25828178
   0.75000000  0.31523836  0.74171822
   0.25000000  0.17505548  0.59235752
   0.75000000  0.82494452  0.40764248
   0.25000000  0.67505548  0.90764248
   0.75000000  0.32494452  0.09235752
   0.75000000  0.33167448  0.41980961
   0.75000000  0.57208170  0.76609380
   0.25000000  0.42791830  0.23390620
   0.25000000  0.92791830  0.26609380
   0.75000000  0.07208170  0.73390620
   0.25000000  0.43270064  0.59028695
   0.75000000  0.56729936  0.40971305
   0.25000000  0.93270064  0.90971305
   0.75000000  0.06729936  0.09028695
   0.25000000  0.41331300  0.41765978
   0.75000000  0.58668700  0.58234022
   0.25000000  0.91331300  0.08234022
   0.75000000  0.08668700  0.91765978
   0.75000000  0.55418576  0.92526747
   0.25000000  0.94581424  0.42526747
   0.75000000  0.05418576  0.57473253
   0.25000000  0.20398859  0.74751663
   0.75000000  0.79601141  0.25248337
   0.25000000  0.70398859  0.75248337
   0.75000000  0.29601141  0.24751663
   0.25000000  0.42988443  0.76269944
   0.75000000  0.57011557  0.23730056
   0.25000000  0.92988443  0.73730056
   0.75000000  0.07011557  0.26269944
   0.75000000  0.31168180  0.58476411
   0.25000000  0.68831820  0.41523589
   0.25000000  0.44581424  0.07473253
   0.25000000  0.18831820  0.08476411
   0.75000000  0.81168180  0.91523589
CIS                                     
           1
     3.982140   -0.000000    0.000000
    -0.000000   14.949338    0.000000
     0.000000    0.000000   16.381548
   Li   Bi   S 
  16   8  20
Direct configuration=    13
   0.25000000  0.16823836  0.91966170
   0.25000000  0.66823836  0.58033830
   0.75000000  0.83176164  0.08033830
   0.25000000  0.46283030  0.91911620
   0.75000000  0.53716970  0.08088380
   0.25000000  0.96283030  0.58088380
   0.75000000  0.03716970  0.41911620
   0.25000000  0.18481844  0.24070117
   0.75000000  0.81518156  0.75929883
   0.25000000  0.68481844  0.25929883
   0.75000000  0.31518156  0.74070117
   0.25000000  0.17454308  0.59338488
   0.75000000  0.82545692  0.40661512
   0.25000000  0.67454308  0.90661512
   0.75000000  0.32545692  0.09338488
   0.75000000  0.33176164  0.41966170
   0.75000000  0.57252493  0.76716081
   0.25000000  0.42747507  0.23283919
   0.25000000  0.92747507  0.26716081
   0.75000000  0.07252493  0.73283919
   0.25000000  0.43141677  0.59094849
   0.75000000  0.56858323  0.40905151
   0.25000000  0.93141677  0.90905151
   0.75000000  0.06858323  0.09094849
   0.25000000  0.41421227  0.41778032
   0.75000000  0.58578773  0.58221968
   0.25000000  0.91421227  0.08221968
   0.75000000  0.08578773  0.91778032
   0.75000000  0.55606134  0.92477390
   0.25000000  0.94393866  0.42477390
   0.75000000  0.05606134  0.57522610
   0.25000000  0.20277663  0.74811691
   0.75000000  0.79722337  0.25188309
   0.25000000  0.70277663  0.75188309
   0.75000000  0.29722337  0.24811691
   0.25000000  0.42985105  0.76269858
   0.75000000  0.57014895  0.23730142
   0.25000000  0.92985105  0.73730142
   0.75000000  0.07014895  0.26269858
   0.75000000  0.31131786  0.58388529
   0.25000000  0.68868214  0.41611471
   0.25000000  0.44393866  0.07522610
   0.25000000  0.18868214  0.08388529
   0.75000000  0.81131786  0.91611471
CIS                                     
           1
     3.965388   -0.000000    0.000000
    -0.000000   15.027807    0.000000
     0.000000    0.000000   16.391249
   Li   Bi   S 
  16   8  20
Direct configuration=    14
   0.25000000  0.16833391  0.91936522
   0.25000000  0.66833391  0.58063478
   0.75000000  0.83166609  0.08063478
   0.25000000  0.46437213  0.91939657
   0.75000000  0.53562787  0.08060343
   0.25000000  0.96437213  0.58060343
   0.75000000  0.03562787  0.41939657
   0.25000000  0.18495948  0.23956869
   0.75000000  0.81504052  0.76043131
   0.25000000  0.68495948  0.26043131
   0.75000000  0.31504052  0.73956869
   0.25000000  0.17422672  0.59451251
   0.75000000  0.82577328  0.40548749
   0.25000000  0.67422672  0.90548749
   0.75000000  0.32577328  0.09451251
   0.75000000  0.33166609  0.41936522
   0.75000000  0.57291888  0.76640662
   0.25000000  0.42708112  0.23359338
   0.25000000  0.92708112  0.26640662
   0.75000000  0.07291888  0.73359338
   0.25000000  0.43135224  0.59092671
   0.75000000  0.56864776  0.40907329
   0.25000000  0.93135224  0.90907329
   0.75000000  0.06864776  0.09092671
   0.25000000  0.41636346  0.41797646
   0.75000000  0.58363654  0.58202354
   0.25000000  0.91636346  0.08202354
   0.75000000  0.08363654  0.91797646
   0.75000000  0.55880676  0.92536908
   0.25000000  0.94119324  0.42536908
   0.75000000  0.05880676  0.57463092
   0.25000000  0.20115039  0.74865506
   0.75000000  0.79884961  0.25134494
   0.25000000  0.70115039  0.75134494
   0.75000000  0.29884961  0.24865506
   0.25000000  0.42974105  0.76304034
   0.75000000  0.57025895  0.23695966
   0.25000000  0.92974105  0.73695966
   0.75000000  0.07025895  0.26304034
   0.75000000  0.30978664  0.58296275
   0.25000000  0.69021336  0.41703725
   0.25000000  0.44119324  0.07463092
   0.25000000  0.19021336  0.08296275
   0.75000000  0.80978664  0.91703725
CIS                                     
           1
     3.915133   -0.000000    0.000000
    -0.000000   15.263216    0.000000
     0.000000    0.000000   16.420354
   Li   Bi   S 
  16   8  20
Direct configuration=    15
   0.25000000  0.16861905  0.91847630
   0.25000000  0.66861905  0.58152370
   0.75000000  0.83138095  0.08152370
   0.25000000  0.46897347  0.92023716
   0.75000000  0.53102653  0.07976284
   0.25000000  0.96897347  0.57976284
   0.75000000  0.03102653  0.42023716
   0.25000000  0.18538038  0.23617328
   0.75000000  0.81461962  0.76382672
   0.25000000  0.68538038  0.26382672
   0.75000000  0.31461962  0.73617328
   0.25000000  0.17328263  0.59789338
   0.75000000  0.82671737  0.40210662
   0.25000000  0.67328263  0.90210662
   0.75000000  0.32671737  0.09789338
   0.75000000  0.33138095  0.41847630
   0.75000000  0.57409455  0.76414540
   0.25000000  0.42590545  0.23585460
   0.25000000  0.92590545  0.26414540
   0.75000000  0.07409455  0.73585460
   0.25000000  0.43115965  0.59086141
   0.75000000  0.56884035  0.40913859
   0.25000000  0.93115965  0.90913859
   0.75000000  0.06884035  0.09086141
   0.25000000  0.42278333  0.41856453
   0.75000000  0.57721667  0.58143547
   0.25000000  0.92278333  0.08143547
   0.75000000  0.07721667  0.91856453
   0.75000000  0.56700003  0.92715355
   0.25000000  0.93299997  0.42715355
   0.75000000  0.06700003  0.57284645
   0.25000000  0.19629714  0.75026856
   0.75000000  0.80370286  0.24973144
   0.25000000  0.69629714  0.74973144
   0.75000000  0.30370286  0.25026856
   0.25000000  0.42941280  0.76406500
   0.75000000  0.57058720  0.23593500
   0.25000000  0.92941280  0.73593500
   0.75000000  0.07058720  0.26406500
   0.75000000  0.30521700  0.58019678
   0.25000000  0.69478300  0.41980322
   0.25000000  0.43299997  0.07284645
   0.25000000  0.19478300  0.08019678
   0.75000000  0.80521700  0.91980322
CIS                                     
           1
     3.936086   -0.000000    0.000000
    -0.000000   15.448265    0.000000
     0.000000    0.000000   16.325689
   Li   Bi   S 
  16   8  20
Direct configuration=    16
   0.25000000  0.16857268  0.91823527
   0.25000000  0.66857268  0.58176473
   0.75000000  0.83142732  0.08176473
   0.25000000  0.47114567  0.92079092
   0.75000000  0.52885433  0.07920908
   0.25000000  0.97114567  0.57920908
   0.75000000  0.02885433  0.42079092
   0.25000000  0.18534280  0.23470593
   0.75000000  0.81465720  0.76529407
   0.25000000  0.68534280  0.26529407
   0.75000000  0.31465720  0.73470593
   0.25000000  0.17343135  0.59866656
   0.75000000  0.82656865  0.40133344
   0.25000000  0.67343135  0.90133344
   0.75000000  0.32656865  0.09866656
   0.75000000  0.33142732  0.41823527
   0.75000000  0.57187221  0.76358434
   0.25000000  0.42812779  0.23641566
   0.25000000  0.92812779  0.26358434
   0.75000000  0.07187221  0.73641566
   0.25000000  0.42994288  0.59076698
   0.75000000  0.57005712  0.40923302
   0.25000000  0.92994288  0.90923302
   0.75000000  0.07005712  0.09076698
   0.25000000  0.42567185  0.41859812
   0.75000000  0.57432815  0.58140188
   0.25000000  0.92567185  0.08140188
   0.75000000  0.07432815  0.91859812
   0.75000000  0.57032666  0.92717324
   0.25000000  0.92967334  0.42717324
   0.75000000  0.07032666  0.57282676
   0.25000000  0.19630970  0.75158543
   0.75000000  0.80369030  0.24841457
   0.25000000  0.69630970  0.74841457