  16  16   1   0
  0.3327462E+02  0.6579862E-09  0.6549772E-09  0.1245574E-08  0.1000000E-15
  1.000000000000000E-004
  CAR 
 CIS                                     
     12.34956415    -10.02914306  301      4.89465731      1.00000000
    -10.029  0.0000E+00  0.0000E+00
     -9.955  0.0000E+00  0.0000E+00
     -9.880  0.0000E+00  0.0000E+00
     -9.805  0.0000E+00  0.0000E+00
     -9.731  0.0000E+00  0.0000E+00
     -9.656  0.0000E+00  0.0000E+00
     -9.582  0.0000E+00  0.0000E+00
     -9.507  0.0000E+00  0.0000E+00
     -9.432  0.0000E+00  0.0000E+00
     -9.358  0.0000E+00  0.0000E+00
     -9.283  0.2539E-15  0.1894E-16
     -9.209  0.4003E-09  0.2986E-10
     -9.134  0.8355E-05  0.6233E-06
     -9.059  0.2691E-02  0.2013E-03
     -8.985  0.2073E-01  0.1748E-02
     -8.910  0.6604E-02  0.2240E-02
     -8.836  0.6045E-04  0.2245E-02
     -8.761  0.3700E-03  0.2272E-02
     -8.686  0.3424E-01  0.4827E-02
     -8.612  0.1022E+00  0.1245E-01
     -8.537  0.1363E-01  0.1346E-01
     -8.463  0.7529E-03  0.1352E-01
     -8.388  0.3543E-01  0.1616E-01
     -8.313  0.1179E+00  0.2496E-01
     -8.239  0.8171E-01  0.3105E-01
     -8.164  0.5038E-02  0.3143E-01
     -8.090  0.1085E-01  0.3224E-01
     -8.015  0.9378E-01  0.3923E-01
     -7.940  0.4490E-01  0.4258E-01
     -7.866  0.1150E-01  0.4344E-01
     -7.791  0.7587E-01  0.4910E-01
     -7.717  0.3458E-01  0.5168E-01
     -7.642  0.4128E-01  0.5476E-01
     -7.567  0.7001E-01  0.5998E-01
     -7.493  0.8391E-02  0.6061E-01
     -7.418  0.1263E-01  0.6155E-01
     -7.344  0.1577E+00  0.7331E-01
     -7.269  0.3399E+00  0.9867E-01
     -7.195  0.2178E+00  0.1149E+00
     -7.120  0.1494E+00  0.1261E+00
     -7.045  0.1441E+00  0.1368E+00
     -6.971  0.8690E-01  0.1433E+00
     -6.896  0.9142E-01  0.1501E+00
     -6.822  0.1330E+00  0.1600E+00
     -6.747  0.2097E-01  0.1616E+00
     -6.672  0.2790E-03  0.1616E+00
     -6.598  0.1029E-06  0.1616E+00
     -6.523  0.5730E-12  0.1616E+00
     -6.449  0.0000E+00  0.1616E+00
     -6.374  0.0000E+00  0.1616E+00
     -6.299  0.0000E+00  0.1616E+00
     -6.225  0.0000E+00  0.1616E+00
     -6.150  0.0000E+00  0.1616E+00
     -6.076  0.0000E+00  0.1616E+00
     -6.001  0.0000E+00  0.1616E+00
     -5.926  0.0000E+00  0.1616E+00
     -5.852  0.0000E+00  0.1616E+00
     -5.777  0.0000E+00  0.1616E+00
     -5.703  0.0000E+00  0.1616E+00
     -5.628  0.0000E+00  0.1616E+00
     -5.553  0.0000E+00  0.1616E+00
     -5.479  0.0000E+00  0.1616E+00
     -5.404  0.0000E+00  0.1616E+00
     -5.330  0.0000E+00  0.1616E+00
     -5.255  0.0000E+00  0.1616E+00
     -5.180  0.0000E+00  0.1616E+00
     -5.106  0.0000E+00  0.1616E+00
     -5.031  0.7517E-16  0.1616E+00
     -4.957  0.1742E-09  0.1616E+00
     -4.882  0.5726E-05  0.1616E+00
     -4.807  0.3373E-02  0.1619E+00
     -4.733  0.5842E-01  0.1662E+00
     -4.658  0.5559E-01  0.1704E+00
     -4.584  0.2971E-02  0.1706E+00
     -4.509  0.2683E-03  0.1706E+00
     -4.434  0.1616E-01  0.1718E+00
     -4.360  0.6556E-01  0.1767E+00
     -4.285  0.3642E-01  0.1794E+00
     -4.211  0.1957E-02  0.1796E+00
     -4.136  0.2427E-04  0.1796E+00
     -4.061  0.5221E-02  0.1800E+00
     -3.987  0.6753E-01  0.1850E+00
     -3.912  0.1358E+00  0.1951E+00
     -3.838  0.7685E-01  0.2009E+00
     -3.763  0.7020E-01  0.2061E+00
     -3.689  0.7131E-02  0.2066E+00
     -3.614  0.3873E-01  0.2095E+00
     -3.539  0.7023E-01  0.2148E+00
     -3.465  0.9675E-02  0.2155E+00
     -3.390  0.4645E-04  0.2155E+00
     -3.316  0.4694E-08  0.2155E+00
     -3.241  0.1033E-04  0.2155E+00
     -3.166  0.2981E-02  0.2157E+00
     -3.092  0.2094E-01  0.2173E+00
     -3.017  0.6558E-02  0.2178E+00
     -2.943  0.2618E-01  0.2197E+00
     -2.868  0.8101E-01  0.2258E+00
     -2.793  0.7630E-01  0.2315E+00
     -2.719  0.5469E-01  0.2355E+00
     -2.644  0.2746E-02  0.2357E+00
     -2.570  0.1511E-01  0.2369E+00
     -2.495  0.1393E-01  0.2379E+00
     -2.420  0.4570E-03  0.2379E+00
     -2.346  0.2878E-06  0.2379E+00
     -2.271  0.2583E-11  0.2379E+00
     -2.197  0.2904E-12  0.2379E+00
     -2.122  0.6317E-07  0.2379E+00
     -2.047  0.1914E-03  0.2379E+00
     -1.973  0.1038E-01  0.2387E+00
     -1.898  0.1826E-01  0.2401E+00
     -1.824  0.2320E-02  0.2403E+00
     -1.749  0.1755E-01  0.2416E+00
     -1.674  0.1125E-01  0.2424E+00
     -1.600  0.2393E-03  0.2424E+00
     -1.525  0.9269E-07  0.2424E+00
     -1.451  0.5027E-12  0.2424E+00
     -1.376  0.0000E+00  0.2424E+00
     -1.301  0.0000E+00  0.2424E+00
     -1.227  0.0000E+00  0.2424E+00
     -1.152  0.0000E+00  0.2424E+00
     -1.078  0.1068E-12  0.2424E+00
     -1.003  0.3273E-07  0.2424E+00
     -0.928  0.1480E-03  0.2424E+00
     -0.854  0.1318E-01  0.2434E+00
     -0.779  0.4072E-01  0.2465E+00
     -0.705  0.6178E-02  0.2469E+00
     -0.630  0.1287E-01  0.2479E+00
     -0.555  0.8335E-01  0.2541E+00
     -0.481  0.6222E-01  0.2587E+00
     -0.406  0.5416E-01  0.2628E+00
     -0.332  0.9971E-01  0.2702E+00
     -0.257  0.1853E-01  0.2716E+00
     -0.183  0.1303E-03  0.2716E+00
     -0.108  0.9181E-03  0.2717E+00
     -0.033  0.4276E-01  0.2749E+00
      0.041  0.7156E-01  0.2802E+00
      0.116  0.5175E-02  0.2806E+00
      0.190  0.9620E-02  0.2813E+00
      0.265  0.5831E-01  0.2857E+00
      0.340  0.9686E-01  0.2929E+00
      0.414  0.8477E-01  0.2992E+00
      0.489  0.4978E-01  0.3029E+00
      0.563  0.1772E-02  0.3030E+00
      0.638  0.2619E-01  0.3050E+00
      0.713  0.1860E+00  0.3189E+00
      0.787  0.2003E+00  0.3338E+00
      0.862  0.3812E-01  0.3367E+00
      0.936  0.5247E-03  0.3367E+00
      1.011  0.5542E-02  0.3371E+00
      1.086  0.7271E-01  0.3425E+00
      1.160  0.1333E+00  0.3525E+00
      1.235  0.2891E-01  0.3546E+00
      1.309  0.2891E-02  0.3549E+00
      1.384  0.7380E-01  0.3604E+00
      1.459  0.1754E+00  0.3734E+00
      1.533  0.1048E+00  0.3813E+00
      1.608  0.1155E+00  0.3899E+00
      1.682  0.1696E+00  0.4025E+00
      1.757  0.9913E-01  0.4099E+00
      1.832  0.8323E-01  0.4161E+00
      1.906  0.7777E-01  0.4219E+00
      1.981  0.7092E-01  0.4272E+00
      2.055  0.2545E-01  0.4291E+00
      2.130  0.8364E-01  0.4354E+00
      2.205  0.1352E+00  0.4454E+00
      2.279  0.1105E+00  0.4537E+00
      2.354  0.1207E+00  0.4627E+00
      2.428  0.2224E+00  0.4793E+00
      2.503  0.1761E+00  0.4924E+00
      2.578  0.1976E+00  0.5072E+00
      2.652  0.1846E+00  0.5209E+00
      2.727  0.1142E+00  0.5294E+00
      2.801  0.3290E-01  0.5319E+00
      2.876  0.3143E-01  0.5342E+00
      2.951  0.1250E+00  0.5436E+00
      3.025  0.1304E+00  0.5533E+00
      3.100  0.9945E-01  0.5607E+00
      3.174  0.9769E-01  0.5680E+00
      3.249  0.1216E+00  0.5771E+00
      3.323  0.2001E+00  0.5920E+00
      3.398  0.9371E-01  0.5990E+00
      3.473  0.5997E-01  0.6035E+00
      3.547  0.1806E+00  0.6169E+00
      3.622  0.2432E+00  0.6351E+00
      3.696  0.2048E+00  0.6504E+00
      3.771  0.4434E-01  0.6537E+00
      3.846  0.6156E-01  0.6583E+00
      3.920  0.1719E+00  0.6711E+00
      3.995  0.2518E+00  0.6899E+00
      4.069  0.1153E+00  0.6985E+00
      4.144  0.2408E-01  0.7003E+00
      4.219  0.1250E-02  0.7004E+00
      4.293  0.2004E-01  0.7018E+00
      4.368  0.8165E-01  0.7079E+00
      4.442  0.1851E-01  0.7093E+00
      4.517  0.2298E-01  0.7110E+00
      4.592  0.1206E+00  0.7200E+00
      4.666  0.9039E-01  0.7268E+00
      4.741  0.6691E-02  0.7273E+00
      4.815  0.1334E-04  0.7273E+00
      4.890  0.4214E-09  0.7273E+00
      4.965  0.1804E-15  0.7273E+00
      5.039  0.0000E+00  0.7273E+00
      5.114  0.0000E+00  0.7273E+00
      5.188  0.0000E+00  0.7273E+00
      5.263  0.0000E+00  0.7273E+00
      5.338  0.0000E+00  0.7273E+00
      5.412  0.0000E+00  0.7273E+00
      5.487  0.0000E+00  0.7273E+00
      5.561  0.0000E+00  0.7273E+00
      5.636  0.0000E+00  0.7273E+00
      5.711  0.0000E+00  0.7273E+00
      5.785  0.0000E+00  0.7273E+00
      5.860  0.0000E+00  0.7273E+00
      5.934  0.0000E+00  0.7273E+00
      6.009  0.0000E+00  0.7273E+00
      6.084  0.0000E+00  0.7273E+00
      6.158  0.0000E+00  0.7273E+00
      6.233  0.0000E+00  0.7273E+00
      6.307  0.0000E+00  0.7273E+00
      6.382  0.0000E+00  0.7273E+00
      6.457  0.0000E+00  0.7273E+00
      6.531  0.3840E-14  0.7273E+00
      6.606  0.4067E-08  0.7273E+00
      6.680  0.5922E-04  0.7273E+00
      6.755  0.1397E-01  0.7283E+00
      6.829  0.8788E-01  0.7349E+00
      6.904  0.1071E+00  0.7429E+00
      6.979  0.1432E+00  0.7535E+00
      7.053  0.9131E-01  0.7604E+00
      7.128  0.1784E+00  0.7737E+00
      7.202  0.1309E+00  0.7834E+00
      7.277  0.1359E+00  0.7936E+00
      7.352  0.1067E+00  0.8015E+00
      7.426  0.7675E-01  0.8073E+00
      7.501  0.4067E-01  0.8103E+00
      7.575  0.3402E-01  0.8128E+00
      7.650  0.1565E+00  0.8245E+00
      7.725  0.1663E+00  0.8369E+00
      7.799  0.1136E+00  0.8454E+00
      7.874  0.3018E-01  0.8476E+00
      7.948  0.6264E-01  0.8523E+00
      8.023  0.1621E+00  0.8644E+00
      8.098  0.7774E-01  0.8702E+00
      8.172  0.1200E+00  0.8791E+00
      8.247  0.1239E+00  0.8884E+00
      8.321  0.1176E+00  0.8972E+00
      8.396  0.6746E-01  0.9022E+00
      8.471  0.5101E-01  0.9060E+00
      8.545  0.1162E+00  0.9147E+00
      8.620  0.1535E-01  0.9158E+00
      8.694  0.6775E-04  0.9158E+00
      8.769  0.5922E-08  0.9158E+00
      8.844  0.4460E-10  0.9158E+00
      8.918  0.2375E-05  0.9158E+00
      8.993  0.1938E-02  0.9160E+00
      9.067  0.3635E-01  0.9187E+00
      9.142  0.4401E-01  0.9220E+00
      9.217  0.7896E-02  0.9226E+00
      9.291  0.7779E-04  0.9226E+00
      9.366  0.1589E-03  0.9226E+00
      9.440  0.2183E-01  0.9242E+00
      9.515  0.8447E-01  0.9305E+00
      9.590  0.1925E-01  0.9319E+00
      9.664  0.2124E-01  0.9335E+00
      9.739  0.3493E-02  0.9338E+00
      9.813  0.1446E-04  0.9338E+00
      9.888  0.2453E-03  0.9338E+00
      9.963  0.3636E-01  0.9365E+00
     10.037  0.1673E+00  0.9490E+00
     10.112  0.5648E-01  0.9532E+00
     10.186  0.1036E+00  0.9609E+00
     10.261  0.9552E-01  0.9681E+00
     10.335  0.9305E-01  0.9750E+00
     10.410  0.1976E+00  0.9897E+00
     10.485  0.3315E+00  0.1014E+01
     10.559  0.1665E+00  0.1027E+01
     10.634  0.1228E+00  0.1036E+01
     10.708  0.1476E+00  0.1047E+01
     10.783  0.7787E-01  0.1053E+01
     10.858  0.7303E-01  0.1058E+01
     10.932  0.1292E+00  0.1068E+01
     11.007  0.1062E+00  0.1076E+01
     11.081  0.9197E-01  0.1083E+01
     11.156  0.9796E-01  0.1090E+01
     11.231  0.2465E+00  0.1108E+01
     11.305  0.2050E+00  0.1124E+01
     11.380  0.9476E-01  0.1131E+01
     11.454  0.7071E-02  0.1131E+01
     11.529  0.1572E-04  0.1131E+01
     11.604  0.5923E-09  0.1131E+01
     11.678  0.3207E-15  0.1131E+01
     11.753  0.0000E+00  0.1131E+01
     11.827  0.0000E+00  0.1131E+01
     11.902  0.0000E+00  0.1131E+01
     11.977  0.0000E+00  0.1131E+01
     12.051  0.0000E+00  0.1131E+01
     12.126  0.0000E+00  0.1131E+01
     12.200  0.0000E+00  0.1131E+01
     12.275  0.0000E+00  0.1131E+01
     12.350  0.0000E+00  0.1131E+01
     12.34956415    -10.02914306  301      4.89465731      1.00000000
    -10.029  0.0000E+00  0.0000E+00  0.0000E+00
     -9.955  0.0000E+00  0.0000E+00  0.0000E+00
     -9.880  0.0000E+00  0.0000E+00  0.0000E+00
     -9.805  0.0000E+00  0.0000E+00  0.0000E+00
     -9.731  0.0000E+00  0.0000E+00  0.0000E+00
     -9.656  0.0000E+00  0.0000E+00  0.0000E+00
     -9.582  0.0000E+00  0.0000E+00  0.0000E+00
     -9.507  0.0000E+00  0.0000E+00  0.0000E+00
     -9.432  0.0000E+00  0.0000E+00  0.0000E+00
     -9.358  0.0000E+00  0.0000E+00  0.0000E+00
     -9.283  0.2039E-16  0.4394E-18  0.0000E+00
     -9.209  0.3215E-10  0.6927E-12  0.0000E+00
     -9.134  0.6710E-06  0.1446E-07  0.0000E+00
     -9.059  0.2161E-03  0.4656E-05  0.0000E+00
     -8.985  0.1665E-02  0.3587E-04  0.0000E+00
     -8.910  0.5304E-03  0.1143E-04  0.0000E+00
     -8.836  0.4853E-05  0.1061E-06  0.0000E+00
     -8.761  0.1953E-04  0.7747E-05  0.0000E+00
     -8.686  0.1830E-02  0.6886E-03  0.0000E+00
     -8.612  0.5524E-02  0.1968E-02  0.0000E+00
     -8.537  0.7462E-03  0.2495E-03  0.0000E+00
     -8.463  0.1955E-04  0.2571E-04  0.0000E+00
     -8.388  0.8791E-03  0.1242E-02  0.0000E+00
     -8.313  0.3501E-02  0.4070E-02  0.0000E+00
     -8.239  0.2968E-02  0.2791E-02  0.0000E+00
     -8.164  0.1885E-03  0.1723E-03  0.0000E+00
     -8.090  0.1617E-03  0.4820E-03  0.0000E+00
     -8.015  0.1600E-02  0.3821E-02  0.0000E+00
     -7.940  0.9047E-03  0.1571E-02  0.0000E+00
     -7.866  0.2365E-03  0.3062E-03  0.0000E+00
     -7.791  0.1549E-02  0.2032E-02  0.0000E+00
     -7.717  0.6771E-03  0.9599E-03  0.0000E+00
     -7.642  0.2047E-04  0.1768E-02  0.0000E+00
     -7.567  0.1074E-04  0.3035E-02  0.0000E+00
     -7.493  0.2114E-05  0.3652E-03  0.0000E+00
     -7.418  0.2387E-03  0.3698E-03  0.0000E+00
     -7.344  0.3242E-02  0.5107E-02  0.0000E+00
     -7.269  0.8634E-02  0.1362E-01  0.0000E+00
     -7.195  0.5457E-02  0.9938E-02  0.0000E+00
     -7.120  0.2038E-02  0.4721E-02  0.0000E+00
     -7.045  0.1027E-02  0.5844E-02  0.0000E+00
     -6.971  0.7231E-03  0.4089E-02  0.0000E+00
     -6.896  0.7717E-03  0.2869E-02  0.0000E+00
     -6.822  0.1810E-02  0.2870E-02  0.0000E+00
     -6.747  0.5023E-03  0.2463E-03  0.0000E+00
     -6.672  0.8782E-05  0.2087E-05  0.0000E+00
     -6.598  0.3416E-08  0.7020E-09  0.0000E+00
     -6.523  0.1918E-13  0.3853E-14  0.0000E+00
     -6.449  0.0000E+00  0.0000E+00  0.0000E+00
     -6.374  0.0000E+00  0.0000E+00  0.0000E+00
     -6.299  0.0000E+00  0.0000E+00  0.0000E+00
     -6.225  0.0000E+00  0.0000E+00  0.0000E+00
     -6.150  0.0000E+00  0.0000E+00  0.0000E+00
     -6.076  0.0000E+00  0.0000E+00  0.0000E+00
     -6.001  0.0000E+00  0.0000E+00  0.0000E+00
     -5.926  0.0000E+00  0.0000E+00  0.0000E+00
     -5.852  0.0000E+00  0.0000E+00  0.0000E+00
     -5.777  0.0000E+00  0.0000E+00  0.0000E+00
     -5.703  0.0000E+00  0.0000E+00  0.0000E+00
     -5.628  0.0000E+00  0.0000E+00  0.0000E+00
     -5.553  0.0000E+00  0.0000E+00  0.0000E+00
     -5.479  0.0000E+00  0.0000E+00  0.0000E+00
     -5.404  0.0000E+00  0.0000E+00  0.0000E+00
     -5.330  0.0000E+00  0.0000E+00  0.0000E+00
     -5.255  0.0000E+00  0.0000E+00  0.0000E+00
     -5.180  0.0000E+00  0.0000E+00  0.0000E+00
     -5.106  0.0000E+00  0.0000E+00  0.0000E+00
     -5.031  0.4636E-19  0.2448E-18  0.0000E+00
     -4.957  0.1070E-12  0.5729E-12  0.0000E+00
     -4.882  0.3482E-08  0.1933E-07  0.0000E+00
     -4.807  0.2007E-05  0.1201E-04  0.0000E+00
     -4.733  0.3348E-04  0.2256E-03  0.0000E+00
     -4.658  0.3029E-04  0.2344E-03  0.0000E+00
     -4.584  0.1526E-05  0.1357E-04  0.0000E+00
     -4.509  0.3822E-06  0.1471E-05  0.0000E+00
     -4.434  0.2442E-04  0.9128E-04  0.0000E+00
     -4.360  0.1098E-03  0.3938E-03  0.0000E+00
     -4.285  0.6857E-04  0.2342E-03  0.0000E+00
     -4.211  0.3960E-05  0.1310E-04  0.0000E+00
     -4.136  0.2743E-07  0.2840E-06  0.0000E+00
     -4.061  0.5341E-05  0.6485E-04  0.0000E+00
     -3.987  0.1073E-03  0.7453E-03  0.0000E+00
     -3.912  0.4142E-03  0.1115E-02  0.0000E+00
     -3.838  0.1650E-02  0.5995E-03  0.0000E+00
     -3.763  0.2422E-02  0.6418E-03  0.0000E+00
     -3.689  0.1965E-03  0.5694E-04  0.0000E+00
     -3.614  0.2251E-03  0.1371E-03  0.0000E+00
     -3.539  0.4483E-03  0.2578E-03  0.0000E+00
     -3.465  0.6521E-04  0.3637E-04  0.0000E+00
     -3.390  0.3205E-06  0.1758E-06  0.0000E+00
     -3.316  0.3666E-10  0.1735E-10  0.0000E+00
     -3.241  0.1450E-06  0.3147E-07  0.0000E+00
     -3.166  0.4184E-04  0.9081E-05  0.0000E+00
     -3.092  0.2939E-03  0.6379E-04  0.0000E+00
     -3.017  0.8771E-04  0.2361E-04  0.0000E+00
     -2.943  0.1174E-03  0.2949E-03  0.0000E+00
     -2.868  0.5380E-03  0.9195E-03  0.0000E+00
     -2.793  0.3553E-02  0.6608E-03  0.0000E+00
     -2.719  0.3132E-02  0.4399E-03  0.0000E+00
     -2.644  0.1259E-03  0.1888E-04  0.0000E+00
     -2.570  0.7648E-04  0.3374E-04  0.0000E+00
     -2.495  0.7041E-04  0.3109E-04  0.0000E+00
     -2.420  0.2310E-05  0.1020E-05  0.0000E+00
     -2.346  0.1455E-08  0.6424E-09  0.0000E+00
     -2.271  0.1306E-13  0.5767E-14  0.0000E+00
     -2.197  0.7112E-14  0.2726E-14  0.0000E+00
     -2.122  0.1547E-08  0.5928E-09  0.0000E+00
     -2.047  0.4686E-05  0.1796E-05  0.0000E+00
     -1.973  0.2542E-03  0.9744E-04  0.0000E+00
     -1.898  0.4471E-03  0.1713E-03  0.0000E+00
     -1.824  0.1550E-03  0.1991E-04  0.0000E+00
     -1.749  0.2057E-02  0.1339E-03  0.0000E+00
     -1.674  0.1318E-02  0.8582E-04  0.0000E+00
     -1.600  0.2805E-04  0.1826E-05  0.0000E+00
     -1.525  0.1086E-07  0.7073E-09  0.0000E+00
     -1.451  0.5892E-13  0.3836E-14  0.0000E+00
     -1.376  0.0000E+00  0.0000E+00  0.0000E+00
     -1.301  0.0000E+00  0.0000E+00  0.0000E+00
     -1.227  0.0000E+00  0.0000E+00  0.0000E+00
     -1.152  0.0000E+00  0.0000E+00  0.0000E+00
     -1.078  0.6131E-18  0.1784E-13  0.0000E+00
     -1.003  0.2364E-12  0.5477E-08  0.0000E+00
     -0.928  0.1611E-08  0.2486E-04  0.0000E+00
     -0.854  0.2311E-06  0.2228E-02  0.0000E+00
     -0.779  0.1020E-05  0.6936E-02  0.0000E+00
     -0.705  0.1996E-06  0.1054E-02  0.0000E+00
     -0.630  0.2017E-06  0.1102E-02  0.0000E+00
     -0.555  0.2519E-05  0.7317E-02  0.0000E+00
     -0.481  0.4048E-05  0.6424E-02  0.0000E+00
     -0.406  0.1076E-03  0.4565E-02  0.0000E+00
     -0.332  0.3849E-03  0.6912E-02  0.0000E+00
     -0.257  0.5812E-04  0.1142E-02  0.0000E+00
     -0.183  0.2308E-06  0.6093E-05  0.0000E+00
     -0.108  0.3312E-04  0.1716E-03  0.0000E+00
     -0.033  0.1544E-02  0.8015E-02  0.0000E+00
      0.041  0.2588E-02  0.1346E-01  0.0000E+00
      0.116  0.1853E-03  0.9736E-03  0.0000E+00
      0.190  0.9068E-05  0.1361E-02  0.0000E+00
      0.265  0.1708E-02  0.8468E-02  0.0000E+00
      0.340  0.9082E-02  0.1471E-01  0.0000E+00
      0.414  0.2069E-02  0.9510E-02  0.0000E+00
      0.489  0.1447E-04  0.4920E-02  0.0000E+00
      0.563  0.2697E-04  0.1604E-03  0.0000E+00
      0.638  0.2373E-02  0.1170E-02  0.0000E+00
      0.713  0.1368E-01  0.7604E-02  0.0000E+00
      0.787  0.2946E-01  0.9231E-02  0.0000E+00
      0.862  0.8435E-02  0.1806E-02  0.0000E+00
      0.936  0.1136E-03  0.2325E-04  0.0000E+00
      1.011  0.2312E-02  0.6422E-03  0.0000E+00
      1.086  0.2763E-01  0.9329E-02  0.0000E+00
      1.160  0.3533E-01  0.2155E-01  0.0000E+00
      1.235  0.5582E-02  0.5261E-02  0.0000E+00
      1.309  0.1163E-02  0.2617E-03  0.0000E+00
      1.384  0.2534E-01  0.6554E-02  0.0000E+00
      1.459  0.3273E-01  0.1828E-01  0.0000E+00
      1.533  0.6840E-02  0.1134E-01  0.0000E+00
      1.608  0.2146E-01  0.5688E-02  0.0000E+00
      1.682  0.6663E-01  0.2672E-01  0.0000E+00
      1.757  0.2349E-01  0.1604E-01  0.0000E+00
      1.832  0.2152E-02  0.1168E-01  0.0000E+00
      1.906  0.1551E-02  0.8859E-02  0.0000E+00
      1.981  0.4398E-03  0.5203E-02  0.0000E+00
      2.055  0.1758E-02  0.1894E-02  0.0000E+00
      2.130  0.2551E-01  0.6928E-02  0.0000E+00
      2.205  0.4266E-01  0.1087E-01  0.0000E+00
      2.279  0.3947E-01  0.1171E-01  0.0000E+00
      2.354  0.1813E-01  0.5422E-01  0.0000E+00
      2.428  0.3261E-01  0.7654E-01  0.0000E+00
      2.503  0.1689E-01  0.4438E-01  0.0000E+00
      2.578  0.1060E-01  0.7332E-01  0.0000E+00
      2.652  0.3889E-01  0.3392E-01  0.0000E+00
      2.727  0.1960E-01  0.3750E-01  0.0000E+00
      2.801  0.6564E-03  0.2553E-01  0.0000E+00
      2.876  0.3629E-02  0.4387E-02  0.0000E+00
      2.951  0.6527E-02  0.3504E-01  0.0000E+00
      3.025  0.2079E-02  0.7950E-01  0.0000E+00
      3.100  0.6060E-02  0.6026E-01  0.0000E+00
      3.174  0.1569E-01  0.3631E-01  0.0000E+00
      3.249  0.5511E-02  0.5790E-01  0.0000E+00
      3.323  0.1615E-01  0.4109E-01  0.0000E+00
      3.398  0.6158E-02  0.2846E-01  0.0000E+00
      3.473  0.1377E-01  0.1123E-01  0.0000E+00
      3.547  0.2213E-01  0.4827E-01  0.0000E+00
      3.622  0.1362E-01  0.6675E-01  0.0000E+00
      3.696  0.1998E-01  0.3673E-01  0.0000E+00
      3.771  0.2015E-02  0.8299E-02  0.0000E+00
      3.846  0.6282E-03  0.8590E-02  0.0000E+00
      3.920  0.8260E-02  0.1959E-01  0.0000E+00
      3.995  0.7750E-02  0.3799E-01  0.0000E+00
      4.069  0.3215E-02  0.2036E-01  0.0000E+00
      4.144  0.4542E-03  0.3417E-02  0.0000E+00
      4.219  0.2122E-04  0.1474E-03  0.0000E+00
      4.293  0.8699E-03  0.1446E-02  0.0000E+00
      4.368  0.3515E-02  0.5708E-02  0.0000E+00
      4.442  0.7925E-03  0.1256E-02  0.0000E+00
      4.517  0.1140E-02  0.1619E-02  0.0000E+00
      4.592  0.6694E-02  0.9212E-02  0.0000E+00
      4.666  0.6001E-02  0.7974E-02  0.0000E+00
      4.741  0.4622E-03  0.6131E-03  0.0000E+00
      4.815  0.9213E-06  0.1229E-05  0.0000E+00
      4.890  0.2905E-10  0.3893E-10  0.0000E+00
      4.965  0.1241E-16  0.1670E-16  0.0000E+00
      5.039  0.0000E+00  0.0000E+00  0.0000E+00
      5.114  0.0000E+00  0.0000E+00  0.0000E+00
      5.188  0.0000E+00  0.0000E+00  0.0000E+00
      5.263  0.0000E+00  0.0000E+00  0.0000E+00
      5.338  0.0000E+00  0.0000E+00  0.0000E+00
      5.412  0.0000E+00  0.0000E+00  0.0000E+00
      5.487  0.0000E+00  0.0000E+00  0.0000E+00
      5.561  0.0000E+00  0.0000E+00  0.0000E+00
      5.636  0.0000E+00  0.0000E+00  0.0000E+00
      5.711  0.0000E+00  0.0000E+00  0.0000E+00
      5.785  0.0000E+00  0.0000E+00  0.0000E+00
      5.860  0.0000E+00  0.0000E+00  0.0000E+00
      5.934  0.0000E+00  0.0000E+00  0.0000E+00
      6.009  0.0000E+00  0.0000E+00  0.0000E+00
      6.084  0.0000E+00  0.0000E+00  0.0000E+00
      6.158  0.0000E+00  0.0000E+00  0.0000E+00
      6.233  0.0000E+00  0.0000E+00  0.0000E+00
      6.307  0.0000E+00  0.0000E+00  0.0000E+00
      6.382  0.0000E+00  0.0000E+00  0.0000E+00
      6.457  0.0000E+00  0.0000E+00  0.0000E+00
      6.531  0.2106E-15  0.9892E-15  0.0000E+00
      6.606  0.2239E-09  0.1038E-08  0.0000E+00
      6.680  0.3275E-05  0.1498E-04  0.0000E+00
      6.755  0.7757E-03  0.3502E-02  0.0000E+00
      6.829  0.4735E-02  0.2122E-01  0.0000E+00
      6.904  0.1782E-02  0.1065E-01  0.0000E+00
      6.979  0.1280E-02  0.1177E-01  0.0000E+00
      7.053  0.5705E-02  0.1610E-01  0.0000E+00
      7.128  0.2129E-01  0.3149E-01  0.0000E+00
      7.202  0.2514E-01  0.1924E-01  0.0000E+00
      7.277  0.3274E-02  0.2581E-01  0.0000E+00
      7.352  0.1766E-02  0.1783E-01  0.0000E+00
      7.426  0.8089E-02  0.1239E-01  0.0000E+00
      7.501  0.4767E-02  0.6741E-02  0.0000E+00
      7.575  0.1907E-02  0.1043E-01  0.0000E+00
      7.650  0.9475E-02  0.3598E-01  0.0000E+00
      7.725  0.1266E-01  0.4952E-01  0.0000E+00
      7.799  0.1392E-01  0.5986E-01  0.0000E+00
      7.874  0.3421E-02  0.1568E-01  0.0000E+00
      7.948  0.7637E-02  0.1885E-01  0.0000E+00
      8.023  0.1777E-01  0.4418E-01  0.0000E+00
      8.098  0.1545E-01  0.2166E-01  0.0000E+00
      8.172  0.2528E-01  0.4683E-01  0.0000E+00
      8.247  0.2058E-01  0.4656E-01  0.0000E+00
      8.321  0.1340E-01  0.1757E-01  0.0000E+00
      8.396  0.1589E-02  0.2757E-02  0.0000E+00
      8.471  0.3779E-01  0.1734E-01  0.0000E+00
      8.545  0.8517E-01  0.3625E-01  0.0000E+00
      8.620  0.9502E-02  0.4326E-02  0.0000E+00
      8.694  0.3390E-04  0.1850E-04  0.0000E+00
      8.769  0.2589E-08  0.1621E-08  0.0000E+00
      8.844  0.1586E-12  0.2672E-12  0.0000E+00
      8.918  0.8318E-08  0.1432E-07  0.0000E+00
      8.993  0.6813E-05  0.1185E-04  0.0000E+00
      9.067  0.1207E-03  0.2131E-03  0.0000E+00
      9.142  0.8442E-04  0.1599E-03  0.0000E+00
      9.217  0.2073E-05  0.7473E-05  0.0000E+00
      9.291  0.1117E-08  0.4204E-07  0.0000E+00
      9.366  0.2199E-06  0.1507E-05  0.0000E+00
      9.440  0.3036E-04  0.2137E-03  0.0000E+00
      9.515  0.1179E-03  0.8491E-03  0.0000E+00
      9.590  0.1952E-04  0.1488E-03  0.0000E+00
      9.664  0.2988E-06  0.2161E-04  0.0000E+00
      9.739  0.3564E-07  0.3459E-05  0.0000E+00
      9.813  0.1767E-09  0.1518E-07  0.0000E+00
      9.888  0.2340E-06  0.7397E-05  0.0000E+00
      9.963  0.3464E-04  0.1147E-02  0.0000E+00
     10.037  0.4259E-03  0.5474E-02  0.0000E+00
     10.112  0.2027E-01  0.2297E-02  0.0000E+00
     10.186  0.7116E-01  0.5297E-02  0.0000E+00
     10.261  0.2495E-01  0.5765E-02  0.0000E+00
     10.335  0.5533E-01  0.1812E-01  0.0000E+00
     10.410  0.1484E+00  0.2122E+00  0.0000E+00
     10.485  0.1723E+00  0.4943E+00  0.0000E+00
     10.559  0.6889E-01  0.2526E+00  0.0000E+00
     10.634  0.4374E-01  0.1159E+00  0.0000E+00
     10.708  0.1947E+00  0.1963E+00  0.0000E+00
     10.783  0.1754E+00  0.6594E-01  0.0000E+00
     10.858  0.1549E+00  0.5615E-01  0.0000E+00
     10.932  0.1354E+00  0.3159E+00  0.0000E+00
     11.007  0.1364E+00  0.2562E+00  0.0000E+00
     11.081  0.2635E+00  0.1629E+00  0.0000E+00
     11.156  0.1411E+00  0.2105E+00  0.0000E+00
     11.231  0.3195E+00  0.5620E+00  0.0000E+00
     11.305  0.2894E+00  0.3584E+00  0.0000E+00
     11.380  0.4267E-01  0.4135E-01  0.0000E+00
     11.454  0.4395E-03  0.8947E-03  0.0000E+00
     11.529  0.4777E-06  0.1700E-05  0.0000E+00
     11.604  0.1436E-10  0.6236E-10  0.0000E+00
     11.678  0.6437E-17  0.3318E-16  0.0000E+00
     11.753  0.0000E+00  0.0000E+00  0.0000E+00
     11.827  0.0000E+00  0.0000E+00  0.0000E+00
     11.902  0.0000E+00  0.0000E+00  0.0000E+00
     11.977  0.0000E+00  0.0000E+00  0.0000E+00
     12.051  0.0000E+00  0.0000E+00  0.0000E+00
     12.126  0.0000E+00  0.0000E+00  0.0000E+00
     12.200  0.0000E+00  0.0000E+00  0.0000E+00
     12.275  0.0000E+00  0.0000E+00  0.0000E+00
     12.350  0.0000E+00  0.0000E+00  0.0000E+00
     12.34956415    -10.02914306  301      4.89465731      1.00000000
    -10.029  0.0000E+00  0.0000E+00  0.0000E+00
     -9.955  0.0000E+00  0.0000E+00  0.0000E+00
     -9.880  0.0000E+00  0.0000E+00  0.0000E+00
     -9.805  0.0000E+00  0.0000E+00  0.0000E+00
     -9.731  0.0000E+00  0.0000E+00  0.0000E+00
     -9.656  0.0000E+00  0.0000E+00  0.0000E+00
     -9.582  0.0000E+00  0.0000E+00  0.0000E+00
     -9.507  0.0000E+00  0.0000E+00  0.0000E+00
     -9.432  0.0000E+00  0.0000E+00  0.0000E+00
     -9.358  0.0000E+00  0.0000E+00  0.0000E+00
     -9.283  0.2039E-16  0.4394E-18  0.0000E+00
     -9.209  0.3215E-10  0.6927E-12  0.0000E+00
     -9.134  0.6710E-06  0.1446E-07  0.0000E+00
     -9.059  0.2161E-03  0.4656E-05  0.0000E+00
     -8.985  0.1665E-02  0.3587E-04  0.0000E+00
     -8.910  0.5304E-03  0.1143E-04  0.0000E+00
     -8.836  0.4853E-05  0.1061E-06  0.0000E+00
     -8.761  0.1953E-04  0.7747E-05  0.0000E+00
     -8.686  0.1830E-02  0.6886E-03  0.0000E+00
     -8.612  0.5524E-02  0.1968E-02  0.0000E+00
     -8.537  0.7462E-03  0.2495E-03  0.0000E+00
     -8.463  0.1955E-04  0.2571E-04  0.0000E+00
     -8.388  0.8791E-03  0.1242E-02  0.0000E+00
     -8.313  0.3501E-02  0.4070E-02  0.0000E+00
     -8.239  0.2968E-02  0.2791E-02  0.0000E+00
     -8.164  0.1885E-03  0.1723E-03  0.0000E+00
     -8.090  0.1617E-03  0.4820E-03  0.0000E+00
     -8.015  0.1600E-02  0.3821E-02  0.0000E+00
     -7.940  0.9047E-03  0.1571E-02  0.0000E+00
     -7.866  0.2365E-03  0.3062E-03  0.0000E+00
     -7.791  0.1549E-02  0.2032E-02  0.0000E+00
     -7.717  0.6771E-03  0.9599E-03  0.0000E+00
     -7.642  0.2047E-04  0.1768E-02  0.0000E+00
     -7.567  0.1074E-04  0.3035E-02  0.0000E+00
     -7.493  0.2114E-05  0.3652E-03  0.0000E+00
     -7.418  0.2387E-03  0.3698E-03  0.0000E+00
     -7.344  0.3242E-02  0.5107E-02  0.0000E+00
     -7.269  0.8634E-02  0.1362E-01  0.0000E+00
     -7.195  0.5457E-02  0.9938E-02  0.0000E+00
     -7.120  0.2038E-02  0.4721E-02  0.0000E+00
     -7.045  0.1027E-02  0.5844E-02  0.0000E+00
     -6.971  0.7231E-03  0.4089E-02  0.0000E+00
     -6.896  0.7717E-03  0.2869E-02  0.0000E+00
     -6.822  0.1810E-02  0.2870E-02  0.0000E+00
     -6.747  0.5023E-03  0.2463E-03  0.0000E+00
     -6.672  0.8782E-05  0.2087E-05  0.0000E+00
     -6.598  0.3416E-08  0.7020E-09  0.0000E+00
     -6.523  0.1918E-13  0.3853E-14  0.0000E+00
     -6.449  0.0000E+00  0.0000E+00  0.0000E+00
     -6.374  0.0000E+00  0.0000E+00  0.0000E+00
     -6.299  0.0000E+00  0.0000E+00  0.0000E+00
     -6.225  0.0000E+00  0.0000E+00  0.0000E+00
     -6.150  0.0000E+00  0.0000E+00  0.0000E+00
     -6.076  0.0000E+00  0.0000E+00  0.0000E+00
     -6.001  0.0000E+00  0.0000E+00  0.0000E+00
     -5.926  0.0000E+00  0.0000E+00  0.0000E+00
     -5.852  0.0000E+00  0.0000E+00  0.0000E+00
     -5.777  0.0000E+00  0.0000E+00  0.0000E+00
     -5.703  0.0000E+00  0.0000E+00  0.0000E+00
     -5.628  0.0000E+00  0.0000E+00  0.0000E+00
     -5.553  0.0000E+00  0.0000E+00  0.0000E+00
     -5.479  0.0000E+00  0.0000E+00  0.0000E+00
     -5.404  0.0000E+00  0.0000E+00  0.0000E+00
     -5.330  0.0000E+00  0.0000E+00  0.0000E+00
     -5.255  0.0000E+00  0.0000E+00  0.0000E+00
     -5.180  0.0000E+00  0.0000E+00  0.0000E+00
     -5.106  0.0000E+00  0.0000E+00  0.0000E+00
     -5.031  0.4636E-19  0.2448E-18  0.0000E+00
     -4.957  0.1070E-12  0.5729E-12  0.0000E+00
     -4.882  0.3482E-08  0.1933E-07  0.0000E+00
     -4.807  0.2007E-05  0.1201E-04  0.0000E+00
     -4.733  0.3348E-04  0.2256E-03  0.0000E+00
     -4.658  0.3029E-04  0.2344E-03  0.0000E+00
     -4.584  0.1526E-05  0.1357E-04  0.0000E+00
     -4.509  0.3822E-06  0.1471E-05  0.0000E+00
     -4.434  0.2442E-04  0.9128E-04  0.0000E+00
     -4.360  0.1098E-03  0.3938E-03  0.0000E+00
     -4.285  0.6857E-04  0.2342E-03  0.0000E+00
     -4.211  0.3960E-05  0.1310E-04  0.0000E+00
     -4.136  0.2743E-07  0.2840E-06  0.0000E+00
     -4.061  0.5341E-05  0.6485E-04  0.0000E+00
     -3.987  0.1073E-03  0.7453E-03  0.0000E+00
     -3.912  0.4142E-03  0.1115E-02  0.0000E+00
     -3.838  0.1650E-02  0.5995E-03  0.0000E+00
     -3.763  0.2422E-02  0.6418E-03  0.0000E+00
     -3.689  0.1965E-03  0.5694E-04  0.0000E+00
     -3.614  0.2251E-03  0.1371E-03  0.0000E+00
     -3.539  0.4483E-03  0.2578E-03  0.0000E+00
     -3.465  0.6521E-04  0.3637E-04  0.0000E+00
     -3.390  0.3205E-06  0.1758E-06  0.0000E+00