 vasp.5.4.4.18Apr17-6-g9f103f2a35 (build Oct 27 2022 13:04:57) complex          
  
 executed on             LinuxIFC date 2024.07.04  07:55:26
 running on   14 total cores
 distrk:  each k-point on   14 cores,    1 groups
 distr:  one band on NCORES_PER_BAND=   1 cores,   14 groups


--------------------------------------------------------------------------------------------------------


 INCAR:
 POTCAR:    PAW_PBE Li 17Jan2003                  
 POTCAR:    PAW_PBE Sb 06Sep2000                  
 POTCAR:    PAW_PBE S 06Sep2000                   

 ----------------------------------------------------------------------------- 
|                                                                             |
|           W    W    AA    RRRRR   N    N  II  N    N   GGGG   !!!           |
|           W    W   A  A   R    R  NN   N  II  NN   N  G    G  !!!           |
|           W    W  A    A  R    R  N N  N  II  N N  N  G       !!!           |
|           W WW W  AAAAAA  RRRRR   N  N N  II  N  N N  G  GGG   !            |
|           WW  WW  A    A  R   R   N   NN  II  N   NN  G    G                |
|           W    W  A    A  R    R  N    N  II  N    N   GGGG   !!!           |
|                                                                             |
|      For optimal performance we recommend to set                            |
|        NCORE= 4 - approx SQRT( number of cores)                             |
|      NCORE specifies how many cores store one orbital (NPAR=cpu/NCORE).     |
|      This setting can  greatly improve the performance of VASP for DFT.     |
|      The default,   NCORE=1            might be grossly inefficient         |
|      on modern multi-core architectures or massively parallel machines.     |
|      Do your own testing !!!!                                               |
|      Unfortunately you need to use the default for GW and RPA calculations. |
|      (for HF NCORE is supported but not extensively tested yet)             |
|                                                                             |
 ----------------------------------------------------------------------------- 

 POTCAR:    PAW_PBE Li 17Jan2003                  
   VRHFIN =Li: s1p0                                                             
   LEXCH  = PE                                                                  
   EATOM  =     5.3001 eV,    0.3895 Ry                                         
                                                                                
   TITEL  = PAW_PBE Li 17Jan2003                                                
   LULTRA =        F    use ultrasoft PP ?                                      
   IUNSCR =        1    unscreen: 0-lin 1-nonlin 2-no                           
   RPACOR =    1.500    partial core radius                                     
   POMASS =    7.010; ZVAL   =    1.000    mass and valenz                      
   RCORE  =    2.050    outmost cutoff radius                                   
   RWIGS  =    2.600; RWIGS  =    1.376    wigner-seitz radius (au A)           
   ENMAX  =  140.000; ENMIN  =  100.000 eV                                      
   ICORE  =        2    local potential                                         
   LCOR   =        T    correct aug charges                                     
   LPAW   =        T    paw PP                                                  
   EAUG   =  331.638                                                            
   DEXC   =    0.000                                                            
   RMAX   =    2.098    core radius for proj-oper                               
   RAUG   =    1.300    factor for augmentation sphere                          
   RDEP   =    2.094    radius for radial grids                                 
   RDEPT  =    1.810    core radius for aug-charge                              
                                                                                
   Atomic configuration                                                         
    4 entries                                                                   
     n  l   j            E        occ.                                          
     1  0  0.50       -51.8549   2.0000                                         
     2  0  0.50        -2.8742   1.0000                                         
     2  1  0.50        -1.3606   0.0000                                         
     3  2  1.50        -1.3606   0.0000                                         
   Description                                                                  
     l       E           TYP  RCUT    TYP  RCUT                                 
     0     -2.8742052     23  2.050                                             
     0     27.2116520     23  2.050                                             
     1     -1.3605826     23  2.050                                             
     2     -1.3605826     23  2.050                                             
  local pseudopotential read in
  partial core-charges read in
  partial kinetic energy density read in
  atomic valenz-charges read in
  non local Contribution for L=           0  read in
    real space projection operators read in
  non local Contribution for L=           0  read in
    real space projection operators read in
  non local Contribution for L=           1  read in
    real space projection operators read in
    PAW grid and wavefunctions read in
 
   number of l-projection  operators is LMAX  =           3
   number of lm-projection operators is LMMAX =           5
 
 POTCAR:    PAW_PBE Sb 06Sep2000                  
   VRHFIN =Sb: s2p3                                                             
   LEXCH  = PE                                                                  
   EATOM  =   149.9515 eV,   11.0211 Ry                                         
                                                                                
   TITEL  = PAW_PBE Sb 06Sep2000                                                
   LULTRA =        F    use ultrasoft PP ?                                      
   IUNSCR =        1    unscreen: 0-lin 1-nonlin 2-no                           
   RPACOR =    2.200    partial core radius                                     
   POMASS =  121.750; ZVAL   =    5.000    mass and valenz                      
   RCORE  =    2.300    outmost cutoff radius                                   
   RWIGS  =    2.980; RWIGS  =    1.577    wigner-seitz radius (au A)           
   ENMAX  =  172.069; ENMIN  =  129.052 eV                                      
   ICORE  =        3    local potential                                         
   LCOR   =        T    correct aug charges                                     
   LPAW   =        T    paw PP                                                  
   EAUG   =  380.513                                                            
   DEXC   =    0.000                                                            
   RMAX   =    2.346    core radius for proj-oper                               
   RAUG   =    1.300    factor for augmentation sphere                          
   RDEP   =    2.360    radius for radial grids                                 
   RDEPT  =    2.192    core radius for aug-charge                              
                                                                                
   Atomic configuration                                                         
   13 entries                                                                   
     n  l   j            E        occ.                                          
     1  0  0.50    -30298.2797   2.0000                                         
     2  0  0.50     -4610.2252   2.0000                                         
     2  1  1.50     -4138.3407   6.0000                                         
     3  0  0.50      -903.8815   2.0000                                         
     3  1  1.50      -750.1337   6.0000                                         
     3  2  2.50      -515.7092  10.0000                                         
     4  0  0.50      -148.8034   2.0000                                         
     4  1  1.50      -101.7581   6.0000                                         
     4  2  2.50       -33.5048  10.0000                                         
     5  0  0.50       -12.8298   2.0000                                         
     5  1  0.50        -4.8276   3.0000                                         
     5  2  1.50        -4.0817   0.0000                                         
     4  3  2.50        -4.0817   0.0000                                         
   Description                                                                  
     l       E           TYP  RCUT    TYP  RCUT                                 
     0    -12.8297861     23  2.300                                             
     0     13.6058260     23  2.300                                             
     1     -4.8275512     23  2.300                                             
     1     -0.7245443     23  2.300                                             
     2     -4.0817478     23  2.300                                             
     3     -1.3605826     23  2.300                                             
  local pseudopotential read in
  partial core-charges read in
  partial kinetic energy density read in
  atomic valenz-charges read in
  non local Contribution for L=           0  read in
    real space projection operators read in
  non local Contribution for L=           0  read in
    real space projection operators read in
  non local Contribution for L=           1  read in
    real space projection operators read in
  non local Contribution for L=           1  read in
    real space projection operators read in
  non local Contribution for L=           2  read in
    real space projection operators read in
    PAW grid and wavefunctions read in
 
   number of l-projection  operators is LMAX  =           5
   number of lm-projection operators is LMMAX =          13
 
 POTCAR:    PAW_PBE S 06Sep2000                   
   VRHFIN =S : s2p4                                                             
   LEXCH  = PE                                                                  
   EATOM  =   276.8230 eV,   20.3459 Ry                                         
                                                                                
   TITEL  = PAW_PBE S 06Sep2000                                                 
   LULTRA =        F    use ultrasoft PP ?                                      
   IUNSCR =        1    unscreen: 0-lin 1-nonlin 2-no                           
   RPACOR =    1.500    partial core radius                                     
   POMASS =   32.066; ZVAL   =    6.000    mass and valenz                      
   RCORE  =    1.900    outmost cutoff radius                                   
   RWIGS  =    2.200; RWIGS  =    1.164    wigner-seitz radius (au A)           
   ENMAX  =  258.689; ENMIN  =  194.016 eV                                      
   ICORE  =        2    local potential                                         
   LCOR   =        T    correct aug charges                                     
   LPAW   =        T    paw PP                                                  
   EAUG   =  335.092                                                            
   DEXC   =    0.000                                                            
   RMAX   =    1.942    core radius for proj-oper                               
   RAUG   =    1.300    factor for augmentation sphere                          
   RDEP   =    1.954    radius for radial grids                                 
   RDEPT  =    1.744    core radius for aug-charge                              
                                                                                
   Atomic configuration                                                         
    6 entries                                                                   
     n  l   j            E        occ.                                          
     1  0  0.50     -2405.8406   2.0000                                         
     2  0  0.50      -211.7007   2.0000                                         
     2  1  1.50      -156.4958   6.0000                                         
     3  0  0.50       -17.2562   2.0000                                         
     3  1  0.50        -7.0085   4.0000                                         
     3  2  1.50        -6.8029   0.0000                                         
   Description                                                                  
     l       E           TYP  RCUT    TYP  RCUT                                 
     0    -17.2561641     23  1.900                                             
     0    -15.8743224     23  1.900                                             
     1     -7.0085400     23  1.900                                             
     1     -2.7779785     23  1.900                                             
     2     -6.8029130     23  1.900                                             
  local pseudopotential read in
  partial core-charges read in
  partial kinetic energy density read in
  atomic valenz-charges read in
  non local Contribution for L=           0  read in
    real space projection operators read in
  non local Contribution for L=           0  read in
    real space projection operators read in
  non local Contribution for L=           1  read in
    real space projection operators read in
  non local Contribution for L=           1  read in
    real space projection operators read in
    PAW grid and wavefunctions read in
 
   number of l-projection  operators is LMAX  =           4
   number of lm-projection operators is LMMAX =           8
 
 Optimization of the real space projectors (new method)

 maximal supplied QI-value         = 18.33
 optimisation between [QCUT,QGAM] = [  8.80, 17.60] = [ 21.68, 86.71] Ry 
 Optimized for a Real-space Cutoff    1.15 Angstroem

   l    n(q)    QCUT    max X(q) W(low)/X(q) W(high)/X(q)  e(spline) 
   0      6     8.799    33.825    0.11E-02    0.11E-02    0.82E-07
   0      6     8.799     8.944    0.75E-03    0.85E-03    0.59E-07
   1      5     8.799     4.214    0.92E-03    0.27E-03    0.41E-07
 Optimization of the real space projectors (new method)

 maximal supplied QI-value         = 16.25
 optimisation between [QCUT,QGAM] = [  8.78, 17.71] = [ 21.57, 87.87] Ry 
 Optimized for a Real-space Cutoff    1.26 Angstroem

   l    n(q)    QCUT    max X(q) W(low)/X(q) W(high)/X(q)  e(spline) 
   0      7     8.776    19.000    0.12E-02    0.42E-03    0.95E-07
   0      7     8.776     9.057    0.14E-02    0.54E-03    0.11E-06
   1      6     8.776   125.345    0.45E-03    0.22E-02    0.77E-07
   1      6     8.776    79.963    0.45E-03    0.21E-02    0.76E-07
   2      6     8.776     6.963    0.11E-02    0.51E-03    0.39E-07
 Optimization of the real space projectors (new method)

 maximal supplied QI-value         = 19.84
 optimisation between [QCUT,QGAM] = [  8.73, 17.66] = [ 21.34, 87.33] Ry 
 Optimized for a Real-space Cutoff    1.22 Angstroem

   l    n(q)    QCUT    max X(q) W(low)/X(q) W(high)/X(q)  e(spline) 
   0      6     8.731   187.594    0.15E-02    0.56E-03    0.90E-07
   0      6     8.731   164.243    0.15E-02    0.56E-03    0.89E-07
   1      6     8.731    67.533    0.37E-03    0.20E-02    0.11E-06
   1      6     8.731    50.729    0.36E-03    0.19E-02    0.10E-06
  PAW_PBE Li 17Jan2003                  :
 energy of atom  1       EATOM=   -5.3001
 kinetic energy error for atom=    0.0000 (will be added to EATOM!!)
  PAW_PBE Sb 06Sep2000                  :
 energy of atom  2       EATOM= -149.9515
 kinetic energy error for atom=    0.0018 (will be added to EATOM!!)
  PAW_PBE S 06Sep2000                   :
 energy of atom  3       EATOM= -276.8230
 kinetic energy error for atom=    0.0077 (will be added to EATOM!!)
 
 
 POSCAR: Li4 Sb4 S8                              
  positions in direct lattice
  No initial velocities read in
 exchange correlation table for  LEXCH =        8
   RHO(1)=    0.500       N(1)  =     2000
   RHO(2)=  100.500       N(2)  =     4000
 


--------------------------------------------------------------------------------------------------------


 ion  position               nearest neighbor table
   1  0.517  0.738  0.881-
   2  0.483  0.262  0.119-
   3  0.984  0.737  0.619-
   4  0.016  0.263  0.381-
   5  0.037  0.796  0.121-  11 2.58  16 2.58  14 2.90  12 2.93
   6  0.963  0.204  0.879-  12 2.58  15 2.58  13 2.90  11 2.93
   7  0.463  0.795  0.379-   9 2.58  14 2.58  16 2.90  10 2.93
   8  0.537  0.205  0.621-  10 2.58  13 2.58  15 2.90   9 2.93
   9  0.517  0.186  0.384-   7 2.58   8 2.93
  10  0.483  0.814  0.616-   8 2.58   7 2.93
  11  0.983  0.186  0.115-   5 2.58   6 2.93
  12  0.017  0.814  0.885-   6 2.58   5 2.93
  13  0.932  0.230  0.645-   8 2.58   6 2.90
  14  0.068  0.770  0.355-   7 2.58   5 2.90
  15  0.568  0.231  0.855-   6 2.58   8 2.90
  16  0.432  0.769  0.145-   5 2.58   7 2.90
 
  LATTYP: Found a triclinic cell.
 ALAT       =     6.5798618772
 B/A-ratio  =     2.2511181413
 C/A-ratio  =     0.9954268990
 COS(alpha) =     0.0001051169
 COS(beta)  =     0.0013766762
 COS(gamma) =     0.5517367503
  
  Lattice vectors:
  
 A1 = (   6.4569994200,   0.7907541400,  -0.9881541900)
 A2 = (   6.3097297400,  -0.2637628100, -13.3983006200)
 A3 = (  -0.8651498400,   6.4702543800,  -0.5355658400)


Analysis of symmetry for initial positions (statically):
=====================================================================
 Subroutine PRICEL returns:
 Original cell was already a primitive cell.
 

 Routine SETGRP: Setting up the symmetry group for a 
 triclinic supercell.


 Subroutine GETGRP returns: Found  2 space group operations
 (whereof  2 operations were pure point group operations)
 out of a pool of  2 trial point group operations.


The static configuration has the point symmetry S_2 .


Analysis of symmetry for dynamics (positions and initial velocities):
=====================================================================
 Subroutine PRICEL returns:
 Original cell was already a primitive cell.
 

 Routine SETGRP: Setting up the symmetry group for a 
 triclinic supercell.


 Subroutine GETGRP returns: Found  2 space group operations
 (whereof  2 operations were pure point group operations)
 out of a pool of  2 trial point group operations.


The dynamic configuration has the point symmetry S_2 .


 Subroutine INISYM returns: Found  2 space group operations
 (whereof  2 operations are pure point group operations),
 and found     1 'primitive' translations

 
 
 KPOINTS: pymatgen with grid density = 807 / numbe

Automatic generation of k-mesh.
Space group operators:
 irot       det(A)        alpha          n_x          n_y          n_z        tau_x        tau_y        tau_z
    1     1.000000     0.000000     1.000000     0.000000     0.000000     0.000000     0.000000     0.000000
    2    -1.000000     0.000000     1.000000     0.000000     0.000000     0.000000     0.000000     0.000000
 
 Subroutine IBZKPT returns following result:
 ===========================================
 
 Found      9 irreducible k-points:
 
 Following reciprocal coordinates:
            Coordinates               Weight
  0.000000  0.000000  0.250000      2.000000
  0.333333 -0.000000  0.250000      2.000000
 -0.333333 -0.000000  0.250000      2.000000
 -0.000000  0.333333  0.250000      2.000000
  0.333333  0.333333  0.250000      2.000000
 -0.333333  0.333333  0.250000      2.000000
 -0.000000 -0.333333  0.250000      2.000000
  0.333333 -0.333333  0.250000      2.000000
 -0.333333 -0.333333  0.250000      2.000000
 
 Following cartesian coordinates:
            Coordinates               Weight
  0.002803  0.002025  0.019939      2.000000
  0.053431  0.008698  0.018772      2.000000
 -0.047824 -0.004648  0.021107      2.000000
 -0.003993  0.052287  0.015749      2.000000
  0.046634  0.058960  0.014581      2.000000
 -0.054621  0.045615  0.016917      2.000000
  0.009600 -0.048237  0.024130      2.000000
  0.060228 -0.041564  0.022962      2.000000
 -0.041028 -0.054910  0.025297      2.000000
 


--------------------------------------------------------------------------------------------------------




 Dimension of arrays:
   k-points           NKPTS =      9   k-points in BZ     NKDIM =      9   number of bands    NBANDS=     56
   number of dos      NEDOS =    301   number of ions     NIONS =     16
   non local maximal  LDIM  =      5   non local SUM 2l+1 LMDIM =     13
   total plane-waves  NPLWV =  42336
   max r-space proj   IRMAX =    713   max aug-charges    IRDMAX=   2038
   dimension x,y,z NGX =    28 NGY =   28 NGZ =   54
   dimension x,y,z NGXF=    42 NGYF=   42 NGZF=   80
   support grid    NGXF=    42 NGYF=   42 NGZF=   80
   ions per type =               4   4   8
   NGX,Y,Z   is equivalent  to a cutoff of   7.07,  7.11,  7.21 a.u.
   NGXF,Y,Z  is equivalent  to a cutoff of  10.61, 10.66, 10.68 a.u.

 SYSTEM =  CIS                                     
 POSCAR =  Li4 Sb4 S8                              

 Startparameter for this run:
   NWRITE =      2    write-flag & timer
   PREC   = medium    normal or accurate (medium, high low for compatibility)
   ISTART =      0    job   : 0-new  1-cont  2-samecut
   ICHARG =      2    charge: 1-file 2-atom 10-const
   ISPIN  =      1    spin polarized calculation?
   LNONCOLLINEAR =      F non collinear calculations
   LSORBIT =      F    spin-orbit coupling
   INIWAV =      1    electr: 0-lowe 1-rand  2-diag
   LASPH  =      T    aspherical Exc in radial PAW
   METAGGA=      F    non-selfconsistent MetaGGA calc.

 Electronic Relaxation 1
   ENCUT  =  300.0 eV  22.05 Ry    4.70 a.u.   9.29  9.25 17.59*2*pi/ulx,y,z
   ENINI  =  300.0     initial cutoff
   ENAUG  =  380.5 eV  augmentation charge cutoff
   NELM   =     60;   NELMIN=  2; NELMDL= -5     # of ELM steps 
   EDIFF  = 0.1E-03   stopping-criterion for ELM
   LREAL  =      T    real-space projection
   NLSPLINE    = F    spline interpolate recip. space projectors
   LCOMPAT=      F    compatible to vasp.4.4
   GGA_COMPAT  = T    GGA compatible to vasp.4.4-vasp.4.6
   LMAXPAW     = -100 max onsite density
   LMAXMIX     =    4 max onsite mixed and CHGCAR
   VOSKOWN=      0    Vosko Wilk Nusair interpolation
   ROPT   =   -0.00200  -0.00200  -0.00200
 Ionic relaxation
   EDIFFG = -.5E-01   stopping-criterion for IOM
   NSW    =     99    number of steps for IOM
   NBLOCK =      1;   KBLOCK =     99    inner block; outer block 
   IBRION =      2    ionic relax: 0-MD 1-quasi-New 2-CG
   NFREE  =      1    steps in history (QN), initial steepest desc. (CG)
   ISIF   =      3    stress and relaxation
   IWAVPR =     11    prediction:  0-non 1-charg 2-wave 3-comb
   ISYM   =      2    0-nonsym 1-usesym 2-fastsym
   LCORR  =      T    Harris-Foulkes like correction to forces

   POTIM  = 0.1000    time-step for ionic-motion
   TEIN   =    0.0    initial temperature
   TEBEG  =    0.0;   TEEND  =   0.0 temperature during run
   SMASS  =  -3.00    Nose mass-parameter (am)
   estimated Nose-frequenzy (Omega)   =  0.10E-29 period in steps =****** mass=  -0.989E-27a.u.
   SCALEE = 1.0000    scale energy and forces
   NPACO  =    256;   APACO  = 16.0  distance and # of slots for P.C.
   PSTRESS=    0.0 pullay stress

  Mass of Ions in am
   POMASS =   7.01121.75 32.07
  Ionic Valenz
   ZVAL   =   1.00  5.00  6.00
  Atomic Wigner-Seitz radii
   RWIGS  =  -1.00 -1.00 -1.00
  virtual crystal weights 
   VCA    =   1.00  1.00  1.00
   NELECT =      72.0000    total number of electrons
   NUPDOWN=      -1.0000    fix difference up-down

 DOS related values:
   EMIN   =  10.00;   EMAX   =-10.00  energy-range for DOS
   EFERMI =   0.00
   ISMEAR =     0;   SIGMA  =   0.05  broadening in eV -4-tet -1-fermi 0-gaus

 Electronic relaxation 2 (details)
   IALGO  =     38    algorithm
   LDIAG  =      T    sub-space diagonalisation (order eigenvalues)
   LSUBROT=      F    optimize rotation matrix (better conditioning)
   TURBO    =      0    0=normal 1=particle mesh
   IRESTART =      0    0=no restart 2=restart with 2 vectors
   NREBOOT  =      0    no. of reboots
   NMIN     =      0    reboot dimension
   EREF     =   0.00    reference energy to select bands
   IMIX   =      4    mixing-type and parameters
     AMIX     =   0.40;   BMIX     =  1.00
     AMIX_MAG =   1.60;   BMIX_MAG =  1.00
     AMIN     =   0.10
     WC   =   100.;   INIMIX=   1;  MIXPRE=   1;  MAXMIX= -45

 Intra band minimization:
   WEIMIN = 0.0010     energy-eigenvalue tresh-hold
   EBREAK =  0.45E-06  absolut break condition
   DEPER  =   0.30     relativ break condition  

   TIME   =   0.40     timestep for ELM

  volume/ion in A,a.u.               =      33.27       224.55
  Fermi-wavevector in a.u.,A,eV,Ry     =   0.840313  1.587962  9.607437  0.706127
  Thomas-Fermi vector in A             =   1.954675
 
 Write flags
   LWAVE        =      F    write WAVECAR
   LDOWNSAMPLE  =      F    k-point downsampling of WAVECAR
   LCHARG       =      F    write CHGCAR
   LVTOT        =      F    write LOCPOT, total local potential
   LVHAR        =      F    write LOCPOT, Hartree potential only
   LELF         =      F    write electronic localiz. function (ELF)
   LORBIT       =     10    0 simple, 1 ext, 2 COOP (PROOUT), +10 PAW based schemes


 Dipole corrections
   LMONO  =      F    monopole corrections only (constant potential shift)
   LDIPOL =      F    correct potential (dipole corrections)
   IDIPOL =      0    1-x, 2-y, 3-z, 4-all directions 
   EPSILON=  1.0000000 bulk dielectric constant

 Exchange correlation treatment:
   GGA     =    --    GGA type
   LEXCH   =     8    internal setting for exchange type
   VOSKOWN=      0    Vosko Wilk Nusair interpolation
   LHFCALC =     F    Hartree Fock is set to
   LHFONE  =     F    Hartree Fock one center treatment
   AEXX    =    0.0000 exact exchange contribution

 Linear response parameters
   LEPSILON=     F    determine dielectric tensor
   LRPA    =     F    only Hartree local field effects (RPA)
   LNABLA  =     F    use nabla operator in PAW spheres
   LVEL    =     F    velocity operator in full k-point grid
   LINTERFAST=   F  fast interpolation
   KINTER  =     0    interpolate to denser k-point grid
   CSHIFT  =0.1000    complex shift for real part using Kramers Kronig
   OMEGAMAX=  -1.0    maximum frequency
   DEG_THRESHOLD= 0.2000000E-02 threshold for treating states as degnerate
   RTIME   =   -0.100 relaxation time in fs
  (WPLASMAI=    0.000 imaginary part of plasma frequency in eV, 0.658/RTIME)
   DFIELD  = 0.0000000 0.0000000 0.0000000 field for delta impulse in time
 
 Orbital magnetization related:
   ORBITALMAG=     F  switch on orbital magnetization
   LCHIMAG   =     F  perturbation theory with respect to B field
   DQ        =  0.001000  dq finite difference perturbation B field
   LLRAUG    =     F  two centre corrections for induced B field



--------------------------------------------------------------------------------------------------------


 conjugate gradient relaxation of ions
 charge density and potential will be updated during run
 non-spin polarized calculation
 Variant of blocked Davidson
 Davidson routine will perform the subspace rotation
 perform sub-space diagonalisation
    after iterative eigenvector-optimisation
 modified Broyden-mixing scheme, WC =      100.0
 initial mixing is a Kerker type mixing with AMIX =  0.4000 and BMIX =      1.0000
 Hartree-type preconditioning will be used
 using additional bands           20
 real space projection scheme for non local part
 use partial core corrections
 calculate Harris-corrections to forces 
   (improved forces if not selfconsistent)
 use gradient corrections 
 use of overlap-Matrix (Vanderbilt PP)
 Gauss-broadening in eV      SIGMA  =   0.05


--------------------------------------------------------------------------------------------------------


  energy-cutoff  :      300.00
  volume of cell :      532.39
      direct lattice vectors                 reciprocal lattice vectors
     6.456999420  0.790754140 -0.988154190     0.151882983  0.020018570 -0.003503398
    -0.865149840  6.470254380 -0.535565840    -0.020389792  0.150786551 -0.012570696
     0.147269680  1.054516950 12.410146430     0.011213706  0.008101239  0.079757775

  length of vectors
     6.579861877  6.549771504 12.455738789     0.153236607  0.152677274  0.080948625


 
 k-points in units of 2pi/SCALE and weight: pymatgen with grid density = 807 / numbe
   0.00280343  0.00202531  0.01993944       0.111
   0.05343109  0.00869817  0.01877164       0.111
  -0.04782423 -0.00464755  0.02110724       0.111
  -0.00399317  0.05228749  0.01574921       0.111
   0.04663449  0.05896035  0.01458141       0.111
  -0.05462083  0.04561464  0.01691701       0.111
   0.00960002 -0.04823687  0.02412968       0.111
   0.06022768 -0.04156402  0.02296188       0.111
  -0.04102764 -0.05490973  0.02529747       0.111
 
 k-points in reciprocal lattice and weights: pymatgen with grid density = 807 / numbe
   0.00000000  0.00000000  0.25000000       0.111
   0.33333333 -0.00000000  0.25000000       0.111
  -0.33333333 -0.00000000  0.25000000       0.111
  -0.00000000  0.33333333  0.25000000       0.111
   0.33333333  0.33333333  0.25000000       0.111
  -0.33333333  0.33333333  0.25000000       0.111
  -0.00000000 -0.33333333  0.25000000       0.111
   0.33333333 -0.33333333  0.25000000       0.111
  -0.33333333 -0.33333333  0.25000000       0.111
 
 position of ions in fractional coordinates (direct lattice) 
   0.51696127  0.73781771  0.88080757
   0.48303873  0.26218229  0.11919243
   0.98367476  0.73743148  0.61946244
   0.01632524  0.26256852  0.38053756
   0.03733388  0.79571282  0.12119584
   0.96266612  0.20428718  0.87880416
   0.46308368  0.79527065  0.37915100
   0.53691632  0.20472935  0.62084900
   0.51656990  0.18558520  0.38446004
   0.48343010  0.81441480  0.61553996
   0.98260466  0.18602253  0.11531716
   0.01739534  0.81397747  0.88468284
   0.93178840  0.23024954  0.64474581
   0.06821160  0.76975046  0.35525419
   0.56779112  0.23067466  0.85497141
   0.43220888  0.76932534  0.14502859
 
 position of ions in cartesian coordinates  (Angst):
   2.82941200  6.11148405 10.02496351
   2.90970726  2.20404142  0.86146289
   5.80482666  6.20244780  6.32065414
  -0.06570740  2.11307767  4.56577226
  -0.42949750  5.30578935  1.04100989
   6.16861676  3.00973612  9.84541651
   2.35794022  5.91160990  3.82180156
   3.38117904  2.40391557  7.06462484
   3.23155185  2.01468287  4.16136159
   2.50756741  6.30084260  6.72506481
   6.20072308  2.10221569  0.36051062
  -0.46160382  6.21330978 10.52591578
   5.91230831  2.90648401  6.95732551
  -0.17318905  5.40904146  3.92910089
   3.59257015  2.84308875  9.92571375
   2.14654911  5.47243672  0.96071265
 


--------------------------------------------------------------------------------------------------------


 k-point  1 :   0.0000 0.0000 0.2500  plane waves:    6296
 k-point  2 :   0.3333-0.0000 0.2500  plane waves:    6289
 k-point  3 :  -0.3333-0.0000 0.2500  plane waves:    6291
 k-point  4 :  -0.0000 0.3333 0.2500  plane waves:    6292
 k-point  5 :   0.3333 0.3333 0.2500  plane waves:    6277
 k-point  6 :  -0.3333 0.3333 0.2500  plane waves:    6276
 k-point  7 :  -0.0000-0.3333 0.2500  plane waves:    6293
 k-point  8 :   0.3333-0.3333 0.2500  plane waves:    6281
 k-point  9 :  -0.3333-0.3333 0.2500  plane waves:    6270

 maximum and minimum number of plane-waves per node :      6296     6270

 maximum number of plane-waves:      6296
 maximum index in each direction: 
   IXMAX=    9   IYMAX=    9   IZMAX=   17
   IXMIN=   -9   IYMIN=   -9   IZMIN=  -17


 serial   3D FFT for wavefunctions
 parallel 3D FFT for charge:
    minimum data exchange during FFTs selected (reduces bandwidth)


 total amount of memory used by VASP MPI-rank0    37636. kBytes
=======================================================================

   base      :      30000. kBytes
   nonlr-proj:        896. kBytes
   fftplans  :        539. kBytes
   grid      :       2363. kBytes
   one-center:        129. kBytes
   wavefun   :       3709. kBytes
 
     INWAV:  cpu time    0.0000: real time    0.0005
 Broyden mixing: mesh for mixing (old mesh)
   NGX = 19   NGY = 19   NGZ = 35
  (NGX  = 42   NGY  = 42   NGZ  = 80)
  gives a total of  12635 points

 initial charge density was supplied:
 charge density of overlapping atoms calculated
 number of electron      72.0000000 magnetization 
 keeping initial charge density in first step


--------------------------------------------------------------------------------------------------------


 Maximum index for non-local projection operator          645
 Maximum index for augmentation-charges          168 (set IRDMAX)


--------------------------------------------------------------------------------------------------------


 First call to EWALD:  gamma=   0.219
 Maximum number of real-space cells 3x 3x 2
 Maximum number of reciprocal cells 2x 2x 4

    FEWALD:  cpu time    0.0019: real time    0.0019


--------------------------------------- Iteration      1(   1)  ---------------------------------------


    POTLOK:  cpu time    0.0110: real time    0.0326
    SETDIJ:  cpu time    0.1161: real time    0.1171
     EDDAV:  cpu time    0.3112: real time    0.3139
       DOS:  cpu time    0.0005: real time    0.0005
    --------------------------------------------
      LOOP:  cpu time    0.4387: real time    0.4641

 eigenvalue-minimisations  :  1008
 total energy-change (2. order) : 0.2695682E+03  (-0.1874823E+04)
 number of electron      72.0000000 magnetization 
 augmentation part       72.0000000 magnetization 

 Free energy of the ion-electron system (eV)
  ---------------------------------------------------
  alpha Z        PSCENC =        22.18718924
  Ewald energy   TEWEN  =     -2086.23039101
  -Hartree energ DENC   =      -684.11441158
  -exchange      EXHF   =         0.00000000
  -V(xc)+E(xc)   XCENC  =      -109.12803108
  PAW double counting   =      2425.24139867    -2161.66122930
  entropy T*S    EENTRO =        -0.00728322
  eigenvalues    EBANDS =        27.75907066
  atomic energy  EATOM  =      2835.52185083
  Solvation  Ediel_sol  =         0.00000000
  ---------------------------------------------------
  free energy    TOTEN  =       269.56816320 eV

  energy without entropy =      269.57544642  energy(sigma->0) =      269.57180481


--------------------------------------------------------------------------------------------------------




--------------------------------------- Iteration      1(   2)  ---------------------------------------


     EDDAV:  cpu time    0.3812: real time    0.3829
       DOS:  cpu time    0.0001: real time    0.0001
    --------------------------------------------
      LOOP:  cpu time    0.3813: real time    0.3830

 eigenvalue-minimisations  :  1386
 total energy-change (2. order) :-0.3033187E+03  (-0.2921583E+03)
 number of electron      72.0000000 magnetization 
 augmentation part       72.0000000 magnetization 

 Free energy of the ion-electron system (eV)
  ---------------------------------------------------
  alpha Z        PSCENC =        22.18718924
  Ewald energy   TEWEN  =     -2086.23039101
  -Hartree energ DENC   =      -684.11441158
  -exchange      EXHF   =         0.00000000
  -V(xc)+E(xc)   XCENC  =      -109.12803108
  PAW double counting   =      2425.24139867    -2161.66122930
  entropy T*S    EENTRO =        -0.00000000
  eigenvalues    EBANDS =      -275.56690235
  atomic energy  EATOM  =      2835.52185083
  Solvation  Ediel_sol  =         0.00000000
  ---------------------------------------------------
  free energy    TOTEN  =       -33.75052659 eV

  energy without entropy =      -33.75052659  energy(sigma->0) =      -33.75052659


--------------------------------------------------------------------------------------------------------




--------------------------------------- Iteration      1(   3)  ---------------------------------------


     EDDAV:  cpu time    0.3590: real time    0.3590
       DOS:  cpu time    0.0002: real time    0.0002
    --------------------------------------------
      LOOP:  cpu time    0.3591: real time    0.3592

 eigenvalue-minimisations  :  1260
 total energy-change (2. order) :-0.3359385E+02  (-0.3322704E+02)
 number of electron      72.0000000 magnetization 
 augmentation part       72.0000000 magnetization 

 Free energy of the ion-electron system (eV)
  ---------------------------------------------------
  alpha Z        PSCENC =        22.18718924
  Ewald energy   TEWEN  =     -2086.23039101
  -Hartree energ DENC   =      -684.11441158
  -exchange      EXHF   =         0.00000000
  -V(xc)+E(xc)   XCENC  =      -109.12803108
  PAW double counting   =      2425.24139867    -2161.66122930
  entropy T*S    EENTRO =        -0.00000000
  eigenvalues    EBANDS =      -309.16075707
  atomic energy  EATOM  =      2835.52185083
  Solvation  Ediel_sol  =         0.00000000
  ---------------------------------------------------
  free energy    TOTEN  =       -67.34438130 eV

  energy without entropy =      -67.34438130  energy(sigma->0) =      -67.34438130


--------------------------------------------------------------------------------------------------------




--------------------------------------- Iteration      1(   4)  ---------------------------------------


     EDDAV:  cpu time    0.3976: real time    0.3977
       DOS:  cpu time    0.0002: real time    0.0002
    --------------------------------------------
      LOOP:  cpu time    0.3978: real time    0.3978

 eigenvalue-minimisations  :  1274
 total energy-change (2. order) :-0.6743052E+00  (-0.6733977E+00)
 number of electron      72.0000000 magnetization 
 augmentation part       72.0000000 magnetization 

 Free energy of the ion-electron system (eV)
  ---------------------------------------------------
  alpha Z        PSCENC =        22.18718924
  Ewald energy   TEWEN  =     -2086.23039101
  -Hartree energ DENC   =      -684.11441158
  -exchange      EXHF   =         0.00000000
  -V(xc)+E(xc)   XCENC  =      -109.12803108
  PAW double counting   =      2425.24139867    -2161.66122930
  entropy T*S    EENTRO =        -0.00000000
  eigenvalues    EBANDS =      -309.83506229
  atomic energy  EATOM  =      2835.52185083
  Solvation  Ediel_sol  =         0.00000000
  ---------------------------------------------------
  free energy    TOTEN  =       -68.01868653 eV

  energy without entropy =      -68.01868653  energy(sigma->0) =      -68.01868653


--------------------------------------------------------------------------------------------------------




--------------------------------------- Iteration      1(   5)  ---------------------------------------


     EDDAV:  cpu time    0.3915: real time    0.3916
       DOS:  cpu time    0.0002: real time    0.0002
    CHARGE:  cpu time    0.0152: real time    0.0152
    MIXING:  cpu time    0.0004: real time    0.0004
    --------------------------------------------
      LOOP:  cpu time    0.4073: real time    0.4074

 eigenvalue-minimisations  :  1344
 total energy-change (2. order) :-0.1271156E-01  (-0.1270970E-01)
 number of electron      72.0000165 magnetization 
 augmentation part      -10.0037748 magnetization 

 Broyden mixing:
  rms(total) = 0.12590E+01    rms(broyden)= 0.12589E+01
  rms(prec ) = 0.15824E+01
  weight for this iteration     100.00

 Free energy of the ion-electron system (eV)
  ---------------------------------------------------
  alpha Z        PSCENC =        22.18718924
  Ewald energy   TEWEN  =     -2086.23039101
  -Hartree energ DENC   =      -684.11441158
  -exchange      EXHF   =         0.00000000
  -V(xc)+E(xc)   XCENC  =      -109.12803108
  PAW double counting   =      2425.24139867    -2161.66122930
  entropy T*S    EENTRO =        -0.00000000
  eigenvalues    EBANDS =      -309.84777385
  atomic energy  EATOM  =      2835.52185083
  Solvation  Ediel_sol  =         0.00000000
  ---------------------------------------------------
  free energy    TOTEN  =       -68.03139809 eV

  energy without entropy =      -68.03139809  energy(sigma->0) =      -68.03139809


--------------------------------------------------------------------------------------------------------




--------------------------------------- Iteration      1(   6)  ---------------------------------------


    POTLOK:  cpu time    0.0056: real time    0.0057
    SETDIJ:  cpu time    0.1160: real time    0.1160
     EDDAV:  cpu time    0.3512: real time    0.3512
       DOS:  cpu time    0.0002: real time    0.0002
    CHARGE:  cpu time    0.0146: real time    0.0146
    MIXING:  cpu time    0.0006: real time    0.0006
    --------------------------------------------
      LOOP:  cpu time    0.4882: real time    0.4883

 eigenvalue-minimisations  :  1134
 total energy-change (2. order) : 0.4409979E+01  (-0.9721765E+00)
 number of electron      72.0000169 magnetization 
 augmentation part       -9.8033003 magnetization 

 Broyden mixing:
  rms(total) = 0.97161E+00    rms(broyden)= 0.97157E+00
  rms(prec ) = 0.10010E+01
  weight for this iteration     100.00

 eigenvalues of (default mixing * dielectric matrix)
  average eigenvalue GAMMA=   1.0532
  1.0532

 Free energy of the ion-electron system (eV)
  ---------------------------------------------------
  alpha Z        PSCENC =        22.18718924
  Ewald energy   TEWEN  =     -2086.23039101
  -Hartree energ DENC   =      -723.98608030
  -exchange      EXHF   =         0.00000000
  -V(xc)+E(xc)   XCENC  =      -105.97240431
  PAW double counting   =      3119.86225991    -2857.18361514
  entropy T*S    EENTRO =        -0.00000000
  eigenvalues    EBANDS =      -267.82022832
  atomic energy  EATOM  =      2835.52185083
  Solvation  Ediel_sol  =         0.00000000
  ---------------------------------------------------
  free energy    TOTEN  =       -63.62141910 eV

  energy without entropy =      -63.62141910  energy(sigma->0) =      -63.62141910


--------------------------------------------------------------------------------------------------------




--------------------------------------- Iteration      1(   7)  ---------------------------------------


    POTLOK:  cpu time    0.0060: real time    0.0060
    SETDIJ:  cpu time    0.1163: real time    0.1163
     EDDAV:  cpu time    0.4392: real time    0.4392
       DOS:  cpu time    0.0002: real time    0.0002
    CHARGE:  cpu time    0.0156: real time    0.0156
    MIXING:  cpu time    0.0005: real time    0.0005
    --------------------------------------------
      LOOP:  cpu time    0.5777: real time    0.5777

 eigenvalue-minimisations  :  1274
 total energy-change (2. order) :-0.4624839E-01  (-0.1442831E+00)
 number of electron      72.0000167 magnetization 
 augmentation part       -9.8101221 magnetization 

 Broyden mixing:
  rms(total) = 0.52315E+00    rms(broyden)= 0.52314E+00
  rms(prec ) = 0.54246E+00
  weight for this iteration     100.00

 eigenvalues of (default mixing * dielectric matrix)
  average eigenvalue GAMMA=   1.3057
  1.1031  1.5082

 Free energy of the ion-electron system (eV)
  ---------------------------------------------------
  alpha Z        PSCENC =        22.18718924
  Ewald energy   TEWEN  =     -2086.23039101
  -Hartree energ DENC   =      -730.80358476
  -exchange      EXHF   =         0.00000000
  -V(xc)+E(xc)   XCENC  =      -105.29339013
  PAW double counting   =      3859.63035618    -3596.95072925
  entropy T*S    EENTRO =        -0.00000000
  eigenvalues    EBANDS =      -261.72896859
  atomic energy  EATOM  =      2835.52185083
  Solvation  Ediel_sol  =         0.00000000
  ---------------------------------------------------
  free energy    TOTEN  =       -63.66766749 eV

  energy without entropy =      -63.66766749  energy(sigma->0) =      -63.66766749


--------------------------------------------------------------------------------------------------------




--------------------------------------- Iteration      1(   8)  ---------------------------------------


    POTLOK:  cpu time    0.0059: real time    0.0059
    SETDIJ:  cpu time    0.1165: real time    0.1165
     EDDAV:  cpu time    0.3444: real time    0.3444
       DOS:  cpu time    0.0002: real time    0.0002
    CHARGE:  cpu time    0.0153: real time    0.0153
    MIXING:  cpu time    0.0005: real time    0.0005
    --------------------------------------------
      LOOP:  cpu time    0.4827: real time    0.4828

 eigenvalue-minimisations  :  1204
 total energy-change (2. order) :-0.3700728E-02  (-0.9172846E-02)
 number of electron      72.0000166 magnetization 
 augmentation part       -9.8208738 magnetization 

 Broyden mixing:
  rms(total) = 0.15715E+00    rms(broyden)= 0.15714E+00
  rms(prec ) = 0.17135E+00
  weight for this iteration     100.00

 eigenvalues of (default mixing * dielectric matrix)
  average eigenvalue GAMMA=   1.4415
  2.2356  1.0444  1.0444

 Free energy of the ion-electron system (eV)
  ---------------------------------------------------
  alpha Z        PSCENC =        22.18718924
  Ewald energy   TEWEN  =     -2086.23039101
  -Hartree energ DENC   =      -733.30322426
  -exchange      EXHF   =         0.00000000
  -V(xc)+E(xc)   XCENC  =      -104.95990134
  PAW double counting   =      4407.09709797    -4144.35509114
  entropy T*S    EENTRO =        -0.00000000
  eigenvalues    EBANDS =      -259.62889850
  atomic energy  EATOM  =      2835.52185083
  Solvation  Ediel_sol  =         0.00000000
  ---------------------------------------------------
  free energy    TOTEN  =       -63.67136822 eV

  energy without entropy =      -63.67136822  energy(sigma->0) =      -63.67136822


--------------------------------------------------------------------------------------------------------




--------------------------------------- Iteration      1(   9)  ---------------------------------------


    POTLOK:  cpu time    0.0057: real time    0.0058
    SETDIJ:  cpu time    0.1142: real time    0.1143
     EDDAV:  cpu time    0.4540: real time    0.4540
       DOS:  cpu time    0.0001: real time    0.0001
    CHARGE:  cpu time    0.0136: real time    0.0136
    MIXING:  cpu time    0.0003: real time    0.0003
    --------------------------------------------
      LOOP:  cpu time    0.5880: real time    0.5881

 eigenvalue-minimisations  :  1260
 total energy-change (2. order) :-0.1371415E-01  (-0.3193141E-02)
 number of electron      72.0000166 magnetization 
 augmentation part       -9.8211476 magnetization 

 Broyden mixing:
  rms(total) = 0.37244E-01    rms(broyden)= 0.37243E-01
  rms(prec ) = 0.43700E-01
  weight for this iteration     100.00

 eigenvalues of (default mixing * dielectric matrix)
  average eigenvalue GAMMA=   1.4071
  2.1655  1.0508  1.0508  1.3611

 Free energy of the ion-electron system (eV)
  ---------------------------------------------------
  alpha Z        PSCENC =        22.18718924
  Ewald energy   TEWEN  =     -2086.23039101
  -Hartree energ DENC   =      -736.64277882
  -exchange      EXHF   =         0.00000000
  -V(xc)+E(xc)   XCENC  =      -104.61054366
  PAW double counting   =      4659.38751208    -4396.64115701
  entropy T*S    EENTRO =        -0.00000000
  eigenvalues    EBANDS =      -256.65676401
  atomic energy  EATOM  =      2835.52185083
  Solvation  Ediel_sol  =         0.00000000
  ---------------------------------------------------
  free energy    TOTEN  =       -63.68508237 eV

  energy without entropy =      -63.68508237  energy(sigma->0) =      -63.68508237


--------------------------------------------------------------------------------------------------------




--------------------------------------- Iteration      1(  10)  ---------------------------------------


    POTLOK:  cpu time    0.0045: real time    0.0046
    SETDIJ:  cpu time    0.1132: real time    0.1132
     EDDAV:  cpu time    0.4094: real time    0.4094
       DOS:  cpu time    0.0002: real time    0.0002
    CHARGE:  cpu time    0.0147: real time    0.0147
    MIXING:  cpu time    0.0005: real time    0.0005
    --------------------------------------------
      LOOP:  cpu time    0.5425: real time    0.5425

 eigenvalue-minimisations  :  1176
 total energy-change (2. order) :-0.4964256E-02  (-0.4874802E-03)
 number of electron      72.0000166 magnetization 
 augmentation part       -9.8212645 magnetization 

 Broyden mixing:
  rms(total) = 0.18426E-01    rms(broyden)= 0.18426E-01
  rms(prec ) = 0.22322E-01
  weight for this iteration     100.00

 eigenvalues of (default mixing * dielectric matrix)
  average eigenvalue GAMMA=   1.6937
  3.0363  2.2960  1.0624  1.0624  1.0115

 Free energy of the ion-electron system (eV)
  ---------------------------------------------------
  alpha Z        PSCENC =        22.18718924
  Ewald energy   TEWEN  =     -2086.23039101
  -Hartree energ DENC   =      -737.53656727
  -exchange      EXHF   =         0.00000000
  -V(xc)+E(xc)   XCENC  =      -104.54109887
  PAW double counting   =      4618.29468645    -4355.53675162
  entropy T*S    EENTRO =        -0.00000000
  eigenvalues    EBANDS =      -255.84896436
  atomic energy  EATOM  =      2835.52185083
  Solvation  Ediel_sol  =         0.00000000
  ---------------------------------------------------
  free energy    TOTEN  =       -63.69004662 eV

  energy without entropy =      -63.69004662  energy(sigma->0) =      -63.69004662


--------------------------------------------------------------------------------------------------------




--------------------------------------- Iteration      1(  11)  ---------------------------------------


    POTLOK:  cpu time    0.0054: real time    0.0055
    SETDIJ:  cpu time    0.1142: real time    0.1142
     EDDAV:  cpu time    0.2820: real time    0.2820
       DOS:  cpu time    0.0002: real time    0.0002
    CHARGE:  cpu time    0.0148: real time    0.0148
    MIXING:  cpu time    0.0005: real time    0.0005
    --------------------------------------------
      LOOP:  cpu time    0.4172: real time    0.4173

 eigenvalue-minimisations  :  1162
 total energy-change (2. order) :-0.2636247E-02  (-0.3809429E-03)
 number of electron      72.0000166 magnetization 
 augmentation part       -9.8208603 magnetization 

 Broyden mixing:
  rms(total) = 0.83643E-02    rms(broyden)= 0.83641E-02
  rms(prec ) = 0.88359E-02
  weight for this iteration     100.00

 eigenvalues of (default mixing * dielectric matrix)
  average eigenvalue GAMMA=   1.5436
  2.6397  2.6397  1.0086  1.0086  0.9824  0.9824

 Free energy of the ion-electron system (eV)
  ---------------------------------------------------
  alpha Z        PSCENC =        22.18718924
  Ewald energy   TEWEN  =     -2086.23039101
  -Hartree energ DENC   =      -738.33935155
  -exchange      EXHF   =         0.00000000
  -V(xc)+E(xc)   XCENC  =      -104.47660466
  PAW double counting   =      4592.51425080    -4329.73870929
  entropy T*S    EENTRO =        -0.00000000
  eigenvalues    EBANDS =      -255.13091722
  atomic energy  EATOM  =      2835.52185083
  Solvation  Ediel_sol  =         0.00000000
  ---------------------------------------------------
  free energy    TOTEN  =       -63.69268287 eV

  energy without entropy =      -63.69268287  energy(sigma->0) =      -63.69268287


--------------------------------------------------------------------------------------------------------




--------------------------------------- Iteration      1(  12)  ---------------------------------------


    POTLOK:  cpu time    0.0052: real time    0.0052
    SETDIJ:  cpu time    0.1144: real time    0.1144
     EDDAV:  cpu time    0.3374: real time    0.3375
       DOS:  cpu time    0.0002: real time    0.0001
    --------------------------------------------
      LOOP:  cpu time    0.4572: real time    0.4572

 eigenvalue-minimisations  :  1036
 total energy-change (2. order) :-0.2702511E-04  (-0.7053460E-05)
 number of electron      72.0000166 magnetization 
 augmentation part       -9.8208603 magnetization 

 Free energy of the ion-electron system (eV)
  ---------------------------------------------------
  alpha Z        PSCENC =        22.18718924
  Ewald energy   TEWEN  =     -2086.23039101
  -Hartree energ DENC   =      -738.37901369
  -exchange      EXHF   =         0.00000000
  -V(xc)+E(xc)   XCENC  =      -104.47606163
  PAW double counting   =      4586.85656707    -4324.08157147
  entropy T*S    EENTRO =        -0.00000000
  eigenvalues    EBANDS =      -255.09127924
  atomic energy  EATOM  =      2835.52185083
  Solvation  Ediel_sol  =         0.00000000
  ---------------------------------------------------
  free energy    TOTEN  =       -63.69270990 eV

  energy without entropy =      -63.69270990  energy(sigma->0) =      -63.69270990


--------------------------------------------------------------------------------------------------------




 average (electrostatic) potential at core
  the test charge radii are     0.9748  1.1712  0.9698
  (the norm of the test charge is              1.0000)
       1 -30.4844       2 -30.4844       3 -30.4860       4 -30.4860       5 -91.8982
       6 -91.8982       7 -91.8998       8 -91.8998       9 -89.3729      10 -89.3729
      11 -89.3715      12 -89.3715      13 -89.4447      14 -89.4447      15 -89.4433
      16 -89.4433
 
 
 
 E-fermi :   1.0636     XC(G=0):  -7.1709     alpha+bet : -6.8686


 k-point     1 :       0.0000    0.0000    0.2500
  band No.  band energies     occupation 
      1     -11.3392      2.00000
      2     -11.1169      2.00000
      3     -10.7196      2.00000
      4     -10.3129      2.00000
      5     -10.1064      2.00000
      6     -10.0686      2.00000
      7     -10.0540      2.00000
      8     -10.0169      2.00000
      9      -7.2067      2.00000
     10      -6.8111      2.00000
     11      -6.3400      2.00000
     12      -6.0715      2.00000
     13      -2.6314      2.00000
     14      -2.4285      2.00000
     15      -2.4215      2.00000
     16      -2.1968      2.00000
     17      -2.0936      2.00000
     18      -2.0660      2.00000
     19      -1.6707      2.00000
     20      -1.6296      2.00000
     21      -1.1888      2.00000
     22      -1.1793      2.00000
     23      -1.1625      2.00000
     24      -0.5021      2.00000
     25      -0.1944      2.00000
     26      -0.1588      2.00000
     27      -0.1313      2.00000
     28      -0.0466      2.00000
     29      -0.0027      2.00000
     30       0.0469      2.00000
     31       0.0775      2.00000
     32       0.2086      2.00000
     33       0.4106      2.00000
     34       0.4150      2.00000
     35       0.5552      2.00000
     36       0.6442      2.00000
     37       2.9246      0.00000
     38       3.3939      0.00000
     39       4.2334      0.00000
     40       4.2731      0.00000
     41       4.3020      0.00000
     42       4.3648      0.00000
     43       4.4157      0.00000
     44       4.5087      0.00000
     45       4.6441      0.00000
     46       4.8448      0.00000
     47       4.9187      0.00000
     48       4.9830      0.00000
     49       5.2239      0.00000
     50       5.3898      0.00000
     51       5.4090      0.00000
     52       5.7045      0.00000
     53       6.2391      0.00000
     54       6.2763      0.00000
     55       6.6970      0.00000
     56       6.8082      0.00000

 k-point     2 :       0.3333   -0.0000    0.2500
  band No.  band energies     occupation 
      1     -11.2297      2.00000
      2     -11.1854      2.00000
      3     -10.5504      2.00000
      4     -10.4471      2.00000
      5     -10.1554      2.00000
      6     -10.1140      2.00000
      7     -10.0230      2.00000
      8     -10.0214      2.00000
      9      -7.1858      2.00000
     10      -7.0774      2.00000
     11      -6.3304      2.00000
     12      -6.2359      2.00000
     13      -2.3860      2.00000
     14      -2.3579      2.00000
     15      -2.2956      2.00000
     16      -2.2800      2.00000
     17      -1.8286      2.00000
     18      -1.7510      2.00000
     19      -1.5710      2.00000
     20      -1.5323      2.00000
     21      -0.8953      2.00000
     22      -0.8646      2.00000
     23      -0.8005      2.00000
     24      -0.7147      2.00000
     25      -0.3419      2.00000
     26      -0.3325      2.00000
     27      -0.2042      2.00000
     28      -0.1032      2.00000
     29      -0.0737      2.00000
     30      -0.0145      2.00000
     31       0.1216      2.00000
     32       0.2166      2.00000
     33       0.5071      2.00000
     34       0.5554      2.00000
     35       0.5848      2.00000
     36       0.6669      2.00000
     37       2.9679      0.00000
     38       3.1806      0.00000
     39       3.2194      0.00000
     40       3.4044      0.00000
     41       3.8920      0.00000
     42       3.9667      0.00000
     43       4.2908      0.00000
     44       4.4881      0.00000
     45       4.5068      0.00000
     46       4.5913      0.00000
     47       4.9858      0.00000
     48       5.1162      0.00000
     49       5.1933      0.00000
     50       5.3228      0.00000
     51       5.4801      0.00000
     52       5.7845      0.00000
     53       6.3374      0.00000
     54       6.4361      0.00000
     55       6.6938      0.00000
     56       6.7663      0.00000

 k-point     3 :      -0.3333   -0.0000    0.2500
  band No.  band energies     occupation 
      1     -11.3163      2.00000
      2     -10.9568      2.00000
      3     -10.8520      2.00000
      4     -10.2077      2.00000
      5     -10.1610      2.00000
      6     -10.1077      2.00000
      7     -10.0990      2.00000
      8     -10.0218      2.00000
      9      -7.3510      2.00000
     10      -6.7384      2.00000
     11      -6.6044      2.00000
     12      -6.1398      2.00000
     13      -2.6032      2.00000
     14      -2.3601      2.00000
     15      -2.1990      2.00000
     16      -1.9584      2.00000
     17      -1.9106      2.00000
     18      -1.7720      2.00000
     19      -1.5888      2.00000
     20      -1.4062      2.00000
     21      -1.3261      2.00000
     22      -1.0667      2.00000
     23      -0.6301      2.00000
     24      -0.4369      2.00000
     25      -0.2955      2.00000
     26      -0.2583      2.00000
     27      -0.1463      2.00000
     28      -0.1091      2.00000
     29      -0.0399      2.00000
     30       0.0552      2.00000
     31       0.1391      2.00000
     32       0.1405      2.00000
     33       0.3791      2.00000
     34       0.4334      2.00000
     35       0.5596      2.00000
     36       0.6286      2.00000
     37       2.9801      0.00000
     38       2.9908      0.00000
     39       3.4653      0.00000
     40       3.7022      0.00000
     41       3.8510      0.00000
     42       3.9826      0.00000
     43       4.2053      0.00000
     44       4.4847      0.00000
     45       4.5072      0.00000
     46       4.5968      0.00000
     47       4.7733      0.00000
     48       5.0239      0.00000
     49       5.2257      0.00000
     50       5.3143      0.00000
     51       5.4808      0.00000
     52       5.9263      0.00000
     53       6.4009      0.00000
     54       6.4048      0.00000
     55       6.4901      0.00000
     56       6.7100      0.00000

 k-point     4 :      -0.0000    0.3333    0.2500
  band No.  band energies     occupation 
      1     -11.2965      2.00000
      2     -11.0857      2.00000
      3     -10.6994      2.00000
      4     -10.3161      2.00000
      5     -10.1203      2.00000
      6     -10.0827      2.00000
      7     -10.0675      2.00000
      8     -10.0399      2.00000
      9      -7.3212      2.00000
     10      -6.9260      2.00000
     11      -6.4488      2.00000
     12      -6.1738      2.00000
     13      -2.5380      2.00000
     14      -2.4131      2.00000
     15      -2.2946      2.00000
     16      -2.0698      2.00000
     17      -1.8247      2.00000
     18      -1.7450      2.00000
     19      -1.5081      2.00000
     20      -1.4935      2.00000
     21      -1.0699      2.00000
     22      -0.9812      2.00000
     23      -0.8754      2.00000
     24      -0.5360      2.00000
     25      -0.3507      2.00000
     26      -0.2637      2.00000
     27      -0.1939      2.00000
     28      -0.0574      2.00000
     29      -0.0438      2.00000
     30       0.0407      2.00000
     31       0.0993      2.00000
     32       0.2054      2.00000
     33       0.4169      2.00000
     34       0.5239      2.00000
     35       0.7062      2.00000
     36       0.7456      2.00000
     37       2.7652      0.00000
     38       3.2927      0.00000
     39       3.3881      0.00000
     40       3.5338      0.00000
     41       4.0251      0.00000
     42       4.0458      0.00000
     43       4.1318      0.00000
     44       4.3217      0.00000
     45       4.3555      0.00000
     46       4.5201      0.00000
     47       4.8856      0.00000
     48       4.9960      0.00000
     49       5.0500      0.00000
     50       5.3573      0.00000
     51       5.6124      0.00000
     52       5.9705      0.00000
     53       6.1452      0.00000
     54       6.4716      0.00000
     55       6.5418      0.00000
     56       6.5933      0.00000

 k-point     5 :       0.3333    0.3333    0.2500
  band No.  band energies     occupation 
      1     -11.1944      2.00000
      2     -11.1483      2.00000
      3     -10.5394      2.00000
      4     -10.4392      2.00000
      5     -10.1552      2.00000
      6     -10.1230      2.00000
      7     -10.0437      2.00000
      8     -10.0434      2.00000
      9      -7.3040      2.00000
     10      -7.1949      2.00000
     11      -6.4409      2.00000
     12      -6.3520      2.00000
     13      -2.3262      2.00000
     14      -2.2850      2.00000
     15      -1.9900      2.00000
     16      -1.9001      2.00000
     17      -1.7237      2.00000
     18      -1.6055      2.00000
     19      -1.4370      2.00000
     20      -1.3390      2.00000
     21      -0.8942      2.00000
     22      -0.8036      2.00000
     23      -0.7677      2.00000
     24      -0.6991      2.00000
     25      -0.5073      2.00000
     26      -0.3107      2.00000
     27      -0.2405      2.00000
     28      -0.0580      2.00000
     29       0.0983      2.00000
     30       0.1899      2.00000
     31       0.2886      2.00000
     32       0.2913      2.00000
     33       0.5722      2.00000
     34       0.6228      2.00000
     35       0.6958      2.00000
     36       0.7314      2.00000
     37       2.7622      0.00000
     38       2.9380      0.00000
     39       2.9946      0.00000
     40       3.0564      0.00000
     41       3.4325      0.00000
     42       3.5411      0.00000
     43       3.8155      0.00000
     44       3.8682      0.00000
     45       3.9073      0.00000
     46       4.0719      0.00000
     47       4.3865      0.00000
     48       4.4702      0.00000
     49       5.5061      0.00000
     50       5.5756      0.00000
     51       5.8300      0.00000
     52       6.1074      0.00000
     53       6.1293      0.00000
     54       6.4750      0.00000
     55       6.6765      0.00000
     56       6.7639      0.00000

 k-point     6 :      -0.3333    0.3333    0.2500
  band No.  band energies     occupation 
      1     -11.2761      2.00000
      2     -10.9377      2.00000
      3     -10.8180      2.00000
      4     -10.2167      2.00000
      5     -10.1762      2.00000
      6     -10.1041      2.00000
      7     -10.1008      2.00000
      8     -10.0529      2.00000
      9      -7.4700      2.00000
     10      -6.8515      2.00000
     11      -6.7218      2.00000
     12      -6.2527      2.00000
     13      -2.5254      2.00000
     14      -2.0482      2.00000
     15      -1.9007      2.00000
     16      -1.8948      2.00000
     17      -1.7570      2.00000
     18      -1.6160      2.00000
     19      -1.4775      2.00000
     20      -1.2916      2.00000
     21      -1.2185      2.00000
     22      -0.9098      2.00000
     23      -0.6321      2.00000
     24      -0.4951      2.00000
     25      -0.3511      2.00000
     26      -0.2892      2.00000
     27      -0.1588      2.00000
     28      -0.0876      2.00000
     29       0.0457      2.00000
     30       0.2032      2.00000
     31       0.2240      2.00000
     32       0.3240      2.00000
     33       0.3932      2.00000
     34       0.4917      2.00000
     35       0.7306      2.00000
     36       0.7837      2.00000
     37       2.6183      0.00000
     38       2.9109      0.00000
     39       3.0483      0.00000
     40       3.2441      0.00000
     41       3.5180      0.00000
     42       3.5983      0.00000
     43       3.6981      0.00000
     44       3.9342      0.00000
     45       4.0499      0.00000
     46       4.0898      0.00000
     47       4.1843      0.00000
     48       4.5346      0.00000
     49       5.2237      0.00000
     50       5.7118      0.00000
     51       5.8853      0.00000
     52       6.0114      0.00000
     53       6.3101      0.00000
     54       6.4397      0.00000
     55       6.4920      0.00000
     56       6.6763      0.00000

 k-point     7 :      -0.0000   -0.3333    0.2500
  band No.  band energies     occupation 
      1     -11.2964      2.00000
      2     -11.0858      2.00000
      3     -10.6992      2.00000
      4     -10.3162      2.00000
      5     -10.1205      2.00000
      6     -10.0823      2.00000
      7     -10.0679      2.00000
      8     -10.0397      2.00000
      9      -7.3215      2.00000
     10      -6.9255      2.00000
     11      -6.4493      2.00000
     12      -6.1736      2.00000
     13      -2.5380      2.00000
     14      -2.4132      2.00000
     15      -2.2940      2.00000
     16      -2.0701      2.00000
     17      -1.8255      2.00000
     18      -1.7451      2.00000
     19      -1.5093      2.00000
     20      -1.4918      2.00000
     21      -1.0709      2.00000
     22      -0.9793      2.00000
     23      -0.8756      2.00000
     24      -0.5360      2.00000
     25      -0.3503      2.00000
     26      -0.2647      2.00000
     27      -0.1939      2.00000
     28      -0.0578      2.00000
     29      -0.0440      2.00000
     30       0.0409      2.00000
     31       0.1000      2.00000
     32       0.2055      2.00000
     33       0.4158      2.00000
     34       0.5243      2.00000
     35       0.7063      2.00000
     36       0.7455      2.00000
     37       2.7647      0.00000
     38       3.2960      0.00000
     39       3.3849      0.00000
     40       3.5349      0.00000
     41       4.0241      0.00000
     42       4.0473      0.00000
     43       4.1339      0.00000
     44       4.3189      0.00000
     45       4.3541      0.00000
     46       4.5207      0.00000
     47       4.8853      0.00000
     48       4.9952      0.00000
     49       5.0523      0.00000
     50       5.3573      0.00000
     51       5.6127      0.00000
     52       5.9654      0.00000
     53       6.1493      0.00000
     54       6.4704      0.00000
     55       6.5422      0.00000
     56       6.5940      0.00000

 k-point     8 :       0.3333   -0.3333    0.2500
  band No.  band energies     occupation 
      1     -11.1946      2.00000
      2     -11.1480      2.00000
      3     -10.5396      2.00000
      4     -10.4390      2.00000
      5     -10.1552      2.00000
      6     -10.1231      2.00000
      7     -10.0439      2.00000
      8     -10.0434      2.00000
      9      -7.3037      2.00000
     10      -7.1953      2.00000
     11      -6.4404      2.00000
     12      -6.3523      2.00000
     13      -2.3270      2.00000
     14      -2.2843      2.00000
     15      -1.9906      2.00000
     16      -1.9001      2.00000
     17      -1.7233      2.00000
     18      -1.6050      2.00000
     19      -1.4371      2.00000
     20      -1.3396      2.00000
     21      -0.8934      2.00000
     22      -0.8049      2.00000
     23      -0.7683      2.00000
     24      -0.6985      2.00000
     25      -0.5033      2.00000
     26      -0.3128      2.00000
     27      -0.2396      2.00000
     28      -0.0585      2.00000
     29       0.0976      2.00000
     30       0.1898      2.00000
     31       0.2884      2.00000
     32       0.2901      2.00000
     33       0.5709      2.00000
     34       0.6231      2.00000
     35       0.6949      2.00000
     36       0.7314      2.00000
     37       2.7627      0.00000
     38       2.9368      0.00000
     39       2.9978      0.00000
     40       3.0544      0.00000
     41       3.4312      0.00000
     42       3.5438      0.00000
     43       3.8156      0.00000
     44       3.8670      0.00000
     45       3.9095      0.00000
     46       4.0730      0.00000
     47       4.3860      0.00000
     48       4.4690      0.00000
     49       5.5063      0.00000
     50       5.5763      0.00000
     51       5.8290      0.00000
     52       6.1050      0.00000
     53       6.1293      0.00000
     54       6.4779      0.00000
     55       6.6809      0.00000
     56       6.7656      0.00000

 k-point     9 :      -0.3333   -0.3333    0.2500
  band No.  band energies     occupation 
      1     -11.2761      2.00000
      2     -10.9376      2.00000
      3     -10.8182      2.00000
      4     -10.2166      2.00000
      5     -10.1760      2.00000
      6     -10.1043      2.00000
      7     -10.1006      2.00000
      8     -10.0528      2.00000
      9      -7.4699      2.00000
     10      -6.8522      2.00000
     11      -6.7214      2.00000
     12      -6.2528      2.00000
     13      -2.5255      2.00000
     14      -2.0482      2.00000
     15      -1.9001      2.00000
     16      -1.8946      2.00000
     17      -1.7571      2.00000
     18      -1.6159      2.00000
     19      -1.4759      2.00000
     20      -1.2931      2.00000
     21      -1.2194      2.00000
     22      -0.9096      2.00000
     23      -0.6336      2.00000
     24      -0.4951      2.00000
     25      -0.3519      2.00000
     26      -0.2877      2.00000
     27      -0.1585      2.00000
     28      -0.0893      2.00000
     29       0.0465      2.00000
     30       0.2024      2.00000
     31       0.2248      2.00000
     32       0.3255      2.00000
     33       0.3940      2.00000
     34       0.4921      2.00000
     35       0.7313      2.00000
     36       0.7839      2.00000
     37       2.6198      0.00000
     38       2.9094      0.00000
     39       3.0490      0.00000
     40       3.2426      0.00000
     41       3.5166      0.00000
     42       3.5975      0.00000
     43       3.6988      0.00000
     44       3.9353      0.00000
     45       4.0521      0.00000
     46       4.0897      0.00000
     47       4.1816      0.00000
     48       4.5343      0.00000
     49       5.2235      0.00000
     50       5.7134      0.00000
     51       5.8853      0.00000
     52       6.0115      0.00000
     53       6.3122      0.00000
     54       6.4377      0.00000
     55       6.4897      0.00000
     56       6.6735      0.00000


--------------------------------------------------------------------------------------------------------


 soft charge-density along one line, spin component           1
         0         1         2         3         4         5         6         7         8         9
 total charge-density along one line
 
 pseudopotential strength for first ion, spin component:           1
  1.142   5.236  -0.002   0.002   0.000
  5.236  22.820  -0.006   0.005   0.000
 -0.002  -0.006  -0.516  -0.000  -0.000
  0.002   0.005  -0.000  -0.517  -0.001
  0.000   0.000  -0.000  -0.001  -0.516
 total augmentation occupancy for first ion, spin component:           1
  0.237  -0.003   0.006  -0.004   0.001
 -0.003   0.000  -0.000   0.000  -0.000
  0.006  -0.000   0.014  -0.001  -0.000
 -0.004   0.000  -0.001   0.011  -0.001
  0.001  -0.000  -0.000  -0.001   0.014


------------------------ aborting loop because EDIFF is reached ----------------------------------------


 


 total charge     
 
# of ion       s       p       d       tot
------------------------------------------
    1        0.025   0.029   0.000   0.054
    2        0.025   0.029   0.000   0.054
    3        0.025   0.029   0.000   0.054
    4        0.025   0.029   0.000   0.054
    5        1.270   0.907   0.049   2.225
    6        1.270   0.907   0.049   2.225
    7        1.270   0.907   0.049   2.225
    8        1.270   0.907   0.049   2.225
    9        1.351   2.295   0.000   3.646
   10        1.351   2.295   0.000   3.646
   11        1.351   2.295   0.000   3.646
   12        1.351   2.295   0.000   3.646
   13        1.351   2.295   0.000   3.647
   14        1.351   2.295   0.000   3.647
   15        1.351   2.295   0.000   3.646
   16        1.351   2.295   0.000   3.646
--------------------------------------------------
tot         15.988  22.103   0.195  38.286
 
    CHARGE:  cpu time    0.0142: real time    0.0142
    FORLOC:  cpu time    0.0009: real time    0.0009
    FORNL :  cpu time    0.0579: real time    0.0579
    STRESS:  cpu time    0.1896: real time    0.1897
    FORCOR:  cpu time    0.0049: real time    0.0049
    FORHAR:  cpu time    0.0022: real time    0.0022
    MIXING:  cpu time    0.0006: real time    0.0006
    OFIELD:  cpu time    0.0000: real time    0.0000

  FORCE on cell =-STRESS in cart. coord.  units (eV):
  Direction    XX          YY          ZZ          XY          YZ          ZX
  --------------------------------------------------------------------------------------
  Alpha Z    22.18719    22.18719    22.18719
  Ewald    -742.84985  -822.69610  -520.68897    22.29353    43.41950   130.66655
  Hartree   217.80080   154.80097   365.94876    16.88686    30.71359    93.76676
  E(xc)    -251.63341  -251.67872  -249.26432     0.02261     0.22630     0.15996
  Local    -727.55915  -586.69044 -1095.80357   -38.74657   -73.44498  -221.88023
  n-local   908.04070   908.27346   893.20694    -0.03805    -1.32302    -0.43173
  augment  -209.25516  -209.47430  -206.84641     0.05133     0.26128     0.28659
  Kinetic   763.58512   764.33096   772.15834    -0.08610     0.55656    -0.74036
  Fock        0.00000     0.00000     0.00000     0.00000     0.00000     0.00000
  -------------------------------------------------------------------------------------
  Total     -19.68376   -20.94698   -19.10205     0.38361     0.40922     1.82754
  in kB     -59.23599   -63.03750   -57.48539     1.15442     1.23151     5.49977
  external pressure =      -59.92 kB  Pullay stress =        0.00 kB


 VOLUME and BASIS-vectors are now :
 -----------------------------------------------------------------------------
  energy-cutoff  :      300.00
  volume of cell :      532.39
      direct lattice vectors                 reciprocal lattice vectors
     6.456999420  0.790754140 -0.988154190     0.151882983  0.020018570 -0.003503398
    -0.865149840  6.470254380 -0.535565840    -0.020389792  0.150786551 -0.012570696
     0.147269680  1.054516950 12.410146430     0.011213706  0.008101239  0.079757775

  length of vectors
     6.579861877  6.549771504 12.455738789     0.153236607  0.152677274  0.080948625


 FORCES acting on ions
    electron-ion (+dipol)            ewald-force                    non-local-force                 convergence-correction
 -----------------------------------------------------------------------------------------------
   0.131E+01 0.483E+01 -.189E+01   -.131E+01 -.454E+01 0.165E+01   -.160E-01 -.742E-01 0.539E-01   -.295E-03 -.630E-03 0.311E-03
   -.131E+01 -.483E+01 0.189E+01   0.131E+01 0.454E+01 -.165E+01   0.160E-01 0.742E-01 -.539E-01   0.295E-03 0.630E-03 -.311E-03
   -.261E+01 0.457E+01 0.108E+01   0.252E+01 -.425E+01 -.893E+00   0.390E-01 -.759E-01 -.417E-01   0.444E-03 -.576E-03 -.225E-03
   0.261E+01 -.457E+01 -.108E+01   -.252E+01 0.425E+01 0.893E+00   -.390E-01 0.759E-01 0.417E-01   -.444E-03 0.576E-03 0.225E-03
   0.252E+02 0.399E+02 -.239E+01   -.314E+02 -.484E+02 0.294E+01   0.689E+01 0.942E+01 -.602E+00   -.337E-02 -.801E-02 -.345E-03
   -.252E+02 -.399E+02 0.239E+01   0.314E+02 0.484E+02 -.294E+01   -.689E+01 -.942E+01 0.602E+00   0.337E-02 0.801E-02 0.345E-03
   -.349E+02 0.318E+02 -.347E+01   0.431E+02 -.383E+02 0.417E+01   -.905E+01 0.721E+01 -.705E+00   0.540E-02 -.677E-02 0.157E-02
   0.349E+02 -.318E+02 0.347E+01   -.431E+02 0.383E+02 -.417E+01   0.905E+01 -.721E+01 0.705E+00   -.540E-02 0.677E-02 -.157E-02
   -.533E+01 -.550E+02 0.371E+02   0.501E+01 0.580E+02 -.388E+02   0.205E+00 -.374E+01 0.179E+01   0.527E-02 0.224E-01 -.489E-02
   0.533E+01 0.550E+02 -.371E+02   -.501E+01 -.580E+02 0.388E+02   -.205E+00 0.374E+01 -.179E+01   -.527E-02 -.224E-01 0.489E-02
   0.205E+02 -.570E+02 -.276E+02   -.210E+02 0.602E+02 0.287E+02   0.844E+00 -.390E+01 -.114E+01   -.110E-01 0.207E-01 0.127E-02
   -.205E+02 0.570E+02 0.276E+02   0.210E+02 -.602E+02 -.287E+02   -.844E+00 0.390E+01 0.114E+01   0.110E-01 -.207E-01 -.127E-02
   -.472E+02 -.286E+02 0.413E+02   0.501E+02 0.288E+02 -.427E+02   -.364E+01 -.374E+00 0.160E+01   0.177E-01 0.152E-01 -.116E-01
   0.472E+02 0.286E+02 -.413E+02   -.501E+02 -.288E+02 0.427E+02   0.364E+01 0.374E+00 -.160E+01   -.177E-01 -.152E-01 0.116E-01
   0.539E+02 -.216E+02 -.372E+02   -.568E+02 0.212E+02 0.387E+02   0.365E+01 0.307E+00 -.158E+01   -.213E-01 0.116E-01 0.920E-02
   -.539E+02 0.216E+02 0.372E+02   0.568E+02 -.212E+02 -.387E+02   -.365E+01 -.307E+00 0.158E+01   0.213E-01 -.116E-01 -.920E-02
 -----------------------------------------------------------------------------------------------
   -.127E-11 0.432E-11 0.513E-10   0.284E-13 0.142E-13 -.426E-13   0.888E-15 0.111E-15 0.222E-15   0.105E-12 -.653E-13 -.681E-14
 
 
 POSITION                                       TOTAL-FORCE (eV/Angst)
 -----------------------------------------------------------------------------------
      2.82941      6.11148     10.02496        -0.017131      0.211883     -0.179548
      2.90971      2.20404      0.86146         0.017131     -0.211883      0.179548
      5.80483      6.20245      6.32065        -0.047870      0.236665      0.141280
     -0.06571      2.11308      4.56577         0.047870     -0.236665     -0.141280
     -0.42950      5.30579      1.04101         0.707843      0.916870     -0.048817
      6.16862      3.00974      9.84542        -0.707843     -0.916870      0.048817
      2.35794      5.91161      3.82180        -0.851729      0.652232     -0.010588
      3.38118      2.40392      7.06462         0.851729     -0.652232      0.010588
      3.23155      2.01468      4.16136        -0.110596     -0.691977      0.168962
      2.50757      6.30084      6.72506         0.110596      0.691977     -0.168962
      6.20072      2.10222      0.36051         0.301508     -0.659595     -0.057554
     -0.46160      6.21331     10.52592        -0.301508      0.659595      0.057554
      5.91231      2.90648      6.95733        -0.715351     -0.202731      0.167023
     -0.17319      5.40904      3.92910         0.715351      0.202731     -0.167023
      3.59257      2.84309      9.92571         0.752969     -0.051452     -0.136565
[...]
     50      10.4645      0.00000
     51      10.5127      0.00000
     52      10.5779      0.00000
     53      10.9040      0.00000
     54      10.9245      0.00000
     55      11.1574      0.00000
     56      11.2542      0.00000

 k-point     6 :      -0.3333    0.3333    0.2500
  band No.  band energies     occupation 
      1      -8.3053      2.00000
      2      -8.0244      2.00000
      3      -7.6523      2.00000
      4      -7.3043      2.00000
      5      -7.2818      2.00000
      6      -7.2750      2.00000
      7      -7.2229      2.00000
      8      -7.1052      2.00000
      9      -4.7544      2.00000
     10      -4.3411      2.00000
     11      -4.0226      2.00000
     12      -3.8110      2.00000
     13       0.2997      2.00000
     14       0.7741      2.00000
     15       1.0515      2.00000
     16       1.3970      2.00000
     17       1.4084      2.00000
     18       1.5244      2.00000
     19       1.5800      2.00000
     20       1.6509      2.00000
     21       1.8952      2.00000
     22       2.1686      2.00000
     23       2.2610      2.00000
     24       2.4963      2.00000
     25       2.5876      2.00000
     26       2.6345      2.00000
     27       2.9138      2.00000
     28       3.3252      2.00000
     29       3.5396      2.00000
     30       3.5780      2.00000
     31       3.6407      2.00000
     32       3.8029      2.00000
     33       3.9641      2.00000
     34       3.9691      2.00000
     35       4.3436      2.00000
     36       4.6147      2.00000
     37       6.8009      0.00000
     38       6.8981      0.00000
     39       6.9437      0.00000
     40       7.0130      0.00000
     41       7.2688      0.00000
     42       7.3004      0.00000
     43       7.6194      0.00000
     44       7.6925      0.00000
     45       7.7714      0.00000
     46       7.9956      0.00000
     47       8.2372      0.00000
     48       8.3236      0.00000
     49      10.3971      0.00000
     50      10.4717      0.00000
     51      10.4784      0.00000
     52      10.6536      0.00000
     53      10.8760      0.00000
     54      10.9516      0.00000
     55      11.1905      0.00000
     56      11.2170      0.00000

 k-point     7 :      -0.0000   -0.3333    0.2500
  band No.  band energies     occupation 
      1      -8.6541      2.00000
      2      -8.3634      2.00000
      3      -7.8071      2.00000
      4      -7.3783      2.00000
      5      -7.3217      2.00000
      6      -7.1588      2.00000
      7      -7.0143      2.00000
      8      -6.8874      2.00000
      9      -3.9223      2.00000
     10      -3.6007      2.00000
     11      -2.8962      2.00000
     12      -2.7993      2.00000
     13      -0.5704      2.00000
     14      -0.3618      2.00000
     15      -0.0116      2.00000
     16       0.4021      2.00000
     17       0.6812      2.00000
     18       0.6995      2.00000
     19       1.1237      2.00000
     20       1.6738      2.00000
     21       1.7869      2.00000
     22       2.1129      2.00000
     23       2.3345      2.00000
     24       2.3780      2.00000
     25       2.4095      2.00000
     26       2.5171      2.00000
     27       2.6497      2.00000
     28       3.0042      2.00000
     29       3.1387      2.00000
     30       3.2073      2.00000
     31       3.2828      2.00000
     32       3.4863      2.00000
     33       3.6445      2.00000
     34       3.9124      2.00000
     35       4.0208      2.00000
     36       4.5472      2.00000
     37       7.1016      0.00000
     38       7.1399      0.00000
     39       7.3955      0.00000
     40       7.5801      0.00000
     41       7.9612      0.00000
     42       8.1040      0.00000
     43       8.1638      0.00000
     44       8.5128      0.00000
     45       9.4770      0.00000
     46       9.9941      0.00000
     47      10.0107      0.00000
     48      10.2215      0.00000
     49      10.3382      0.00000
     50      10.4110      0.00000
     51      10.4374      0.00000
     52      10.6856      0.00000
     53      11.0518      0.00000
     54      11.1860      0.00000
     55      11.2595      0.00000
     56      11.3208      0.00000

 k-point     8 :       0.3333   -0.3333    0.2500
  band No.  band energies     occupation 
      1      -8.2959      2.00000
      2      -8.0543      2.00000
      3      -7.6007      2.00000
      4      -7.3392      2.00000
      5      -7.3016      2.00000
      6      -7.2667      2.00000
      7      -7.2085      2.00000
      8      -7.1065      2.00000
      9      -4.7121      2.00000
     10      -4.4243      2.00000
     11      -3.9482      2.00000
     12      -3.8420      2.00000
     13       0.3092      2.00000
     14       0.7374      2.00000
     15       1.1086      2.00000
     16       1.3684      2.00000
     17       1.4250      2.00000
     18       1.4627      2.00000
     19       1.5767      2.00000
     20       1.6551      2.00000
     21       1.9736      2.00000
     22       2.1838      2.00000
     23       2.2496      2.00000
     24       2.4773      2.00000
     25       2.5110      2.00000
     26       2.6562      2.00000
     27       2.9322      2.00000
     28       3.2925      2.00000
     29       3.5427      2.00000
     30       3.5903      2.00000
     31       3.6976      2.00000
     32       3.8811      2.00000
     33       3.9222      2.00000
     34       3.9492      2.00000
     35       4.3133      2.00000
     36       4.6033      2.00000
     37       6.7928      0.00000
     38       6.8971      0.00000
     39       6.9319      0.00000
     40       7.0691      0.00000
     41       7.2553      0.00000
     42       7.2588      0.00000
     43       7.6522      0.00000
     44       7.7148      0.00000
     45       7.7268      0.00000
     46       7.9742      0.00000
     47       8.2642      0.00000
     48       8.3307      0.00000
     49      10.4328      0.00000
     50      10.4683      0.00000
     51      10.4997      0.00000
     52      10.5486      0.00000
     53      10.8966      0.00000
     54      10.9619      0.00000
     55      11.1596      0.00000
     56      11.2485      0.00000

 k-point     9 :      -0.3333   -0.3333    0.2500
  band No.  band energies     occupation 
      1      -8.3003      2.00000
      2      -8.0386      2.00000
      3      -7.6295      2.00000
      4      -7.3188      2.00000
      5      -7.2856      2.00000
      6      -7.2775      2.00000
      7      -7.2176      2.00000
      8      -7.1052      2.00000
      9      -4.7398      2.00000
     10      -4.3729      2.00000
     11      -3.9929      2.00000
     12      -3.8215      2.00000
     13       0.3061      2.00000
     14       0.7584      2.00000
     15       1.0728      2.00000
     16       1.3970      2.00000
     17       1.4221      2.00000
     18       1.4889      2.00000
     19       1.5772      2.00000
     20       1.6523      2.00000
     21       1.9224      2.00000
     22       2.1723      2.00000
     23       2.2560      2.00000
     24       2.4801      2.00000
     25       2.5713      2.00000
     26       2.6387      2.00000
     27       2.9210      2.00000
     28       3.3126      2.00000
     29       3.5406      2.00000
     30       3.5818      2.00000
     31       3.6629      2.00000
     32       3.8371      2.00000
     33       3.9420      2.00000
     34       3.9523      2.00000
     35       4.3397      2.00000
     36       4.6111      2.00000
     37       6.7969      0.00000
     38       6.9055      0.00000
     39       6.9367      0.00000
     40       7.0340      0.00000
     41       7.2626      0.00000
     42       7.2897      0.00000
     43       7.6262      0.00000
     44       7.6930      0.00000
     45       7.7499      0.00000
     46       7.9955      0.00000
     47       8.2425      0.00000
     48       8.3282      0.00000
     49      10.4040      0.00000
     50      10.4722      0.00000
     51      10.4751      0.00000
     52      10.6259      0.00000
     53      10.9144      0.00000
     54      10.9393      0.00000
     55      11.1741      0.00000
     56      11.2301      0.00000


--------------------------------------------------------------------------------------------------------


 soft charge-density along one line, spin component           1
         0         1         2         3         4         5         6         7         8         9
 total charge-density along one line
 
 pseudopotential strength for first ion, spin component:           1
  1.172   5.225   0.000  -0.000   0.000
  5.225  22.283   0.000  -0.000   0.000
  0.000   0.000  -0.347  -0.000  -0.000
 -0.000  -0.000  -0.000  -0.352  -0.000
  0.000   0.000  -0.000  -0.000  -0.347
 total augmentation occupancy for first ion, spin component:           1
  0.598  -0.011  -0.000   0.002   0.002
 -0.011   0.000   0.000  -0.000  -0.000
 -0.000   0.000   0.052  -0.001  -0.000
  0.002  -0.000  -0.001   0.036  -0.001
  0.002  -0.000  -0.000  -0.001   0.052


------------------------ aborting loop because EDIFF is reached ----------------------------------------


 


 total charge     
 
# of ion       s       p       d       tot
------------------------------------------
    1        0.060   0.101   0.000   0.162
    2        0.060   0.101   0.000   0.162
    3        0.060   0.101   0.000   0.162
    4        0.060   0.101   0.000   0.162
    5        1.308   0.882   0.070   2.259
    6        1.308   0.882   0.070   2.259
    7        1.308   0.882   0.070   2.259
    8        1.308   0.882   0.070   2.259
    9        1.354   2.342   0.000   3.696
   10        1.354   2.342   0.000   3.696
   11        1.354   2.342   0.000   3.696
   12        1.354   2.342   0.000   3.696
   13        1.353   2.343   0.000   3.696
   14        1.353   2.343   0.000   3.696
   15        1.353   2.343   0.000   3.696
   16        1.353   2.343   0.000   3.696
--------------------------------------------------
tot         16.299  22.675   0.279  39.252
 
    CHARGE:  cpu time    0.0139: real time    0.0139
    FORLOC:  cpu time    0.0009: real time    0.0009
    FORNL :  cpu time    0.0760: real time    0.0760
    STRESS:  cpu time    0.2485: real time    0.2485
    FORCOR:  cpu time    0.0052: real time    0.0052
    FORHAR:  cpu time    0.0016: real time    0.0016
    MIXING:  cpu time    0.0003: real time    0.0003
    OFIELD:  cpu time    0.0000: real time    0.0000

  FORCE on cell =-STRESS in cart. coord.  units (eV):
  Direction    XX          YY          ZZ          XY          YZ          ZX
  --------------------------------------------------------------------------------------
  Alpha Z    36.18197    36.18197    36.18197
  Ewald    -883.92185  -884.88676  -912.46845    -0.39892    -3.58264    -0.59460
  Hartree   126.03378   126.07507   132.13420    -0.04157    -0.25173     0.82520
  E(xc)    -256.77614  -256.72041  -256.24410    -0.00483     0.04649     0.04951
  Local    -518.40266  -517.00472  -495.20605     0.32154     3.91976     0.00192
  n-local   919.39824   918.87465   911.54517    -0.03517    -0.84053    -0.43769
  augment  -210.24500  -210.19397  -208.75542    -0.00551     0.13991     0.14458
  Kinetic   787.71211   787.78093   792.83121     0.12126     0.35294     0.08068
  Fock        0.00000     0.00000     0.00000     0.00000     0.00000     0.00000
  -------------------------------------------------------------------------------------
  Total      -0.01955     0.10675     0.01853    -0.04321    -0.21581     0.06961
  in kB      -0.09596     0.52390     0.09092    -0.21207    -1.05910     0.34159
  external pressure =        0.17 kB  Pullay stress =        0.00 kB


 VOLUME and BASIS-vectors are now :
 -----------------------------------------------------------------------------
  energy-cutoff  :      300.00
  volume of cell :      326.47
      direct lattice vectors                 reciprocal lattice vectors
     5.332988922  0.676926893 -0.463961709     0.183132392  0.023344651 -0.016282290
    -0.719364168  5.336862318 -0.439231339    -0.024537668  0.182806926 -0.015329249
     0.854913519  1.046927438 11.116526505     0.006673731  0.008197305  0.088670913

  length of vectors
     5.395763276  5.403009196 11.198397016     0.185330944  0.185082293  0.089298742


 FORCES acting on ions
    electron-ion (+dipol)            ewald-force                    non-local-force                 convergence-correction
 -----------------------------------------------------------------------------------------------
   0.111E+00 0.640E-02 0.160E+00   -.997E-01 -.121E-01 -.139E+00   -.233E-01 0.421E-02 -.187E-01   -.992E-04 -.962E-04 -.479E-03
   -.111E+00 -.640E-02 -.160E+00   0.997E-01 0.121E-01 0.139E+00   0.233E-01 -.421E-02 0.187E-01   0.992E-04 0.962E-04 0.479E-03
   -.725E-01 0.902E-02 -.140E+00   0.667E-01 -.168E-02 0.123E+00   0.169E-01 -.762E-02 0.136E-01   0.486E-04 0.113E-03 -.379E-03
   0.725E-01 -.902E-02 0.140E+00   -.667E-01 0.168E-02 -.123E+00   -.169E-01 0.762E-02 -.136E-01   -.486E-04 -.113E-03 0.379E-03
   0.808E+00 0.956E+00 -.644E+00   -.118E+01 -.128E+01 0.916E+00   0.360E+00 0.343E+00 -.285E+00   0.478E-02 0.155E-02 0.168E-02
   -.808E+00 -.956E+00 0.644E+00   0.118E+01 0.128E+01 -.916E+00   -.360E+00 -.343E+00 0.285E+00   -.478E-02 -.155E-02 -.168E-02
   -.803E+00 -.963E+00 0.779E+00   0.117E+01 0.128E+01 -.108E+01   -.337E+00 -.336E+00 0.319E+00   -.420E-02 -.317E-03 0.336E-02
   0.803E+00 0.963E+00 -.779E+00   -.117E+01 -.128E+01 0.108E+01   0.337E+00 0.336E+00 -.319E+00   0.420E-02 0.317E-03 -.336E-02
   0.133E+01 0.351E+01 0.239E+02   -.138E+01 -.377E+01 -.257E+02   0.325E-01 0.239E+00 0.175E+01   0.838E-02 0.341E-02 0.368E-02
   -.133E+01 -.351E+01 -.239E+02   0.138E+01 0.377E+01 0.257E+02   -.325E-01 -.239E+00 -.175E+01   -.838E-02 -.341E-02 -.368E-02
   -.132E+01 -.351E+01 -.238E+02   0.138E+01 0.377E+01 0.255E+02   -.442E-01 -.245E+00 -.175E+01   -.651E-02 -.411E-02 0.230E-03
   0.132E+01 0.351E+01 0.238E+02   -.138E+01 -.377E+01 -.255E+02   0.442E-01 0.245E+00 0.175E+01   0.651E-02 0.411E-02 -.230E-03
   -.125E-02 0.202E+01 0.221E+02   0.791E-01 -.216E+01 -.238E+02   -.364E-01 0.164E+00 0.162E+01   -.157E-01 -.573E-02 -.139E-02
   0.125E-02 -.202E+01 -.221E+02   -.791E-01 0.216E+01 0.238E+02   0.364E-01 -.164E+00 -.162E+01   0.157E-01 0.573E-02 0.139E-02
   -.178E-02 -.204E+01 -.222E+02   -.738E-01 0.219E+01 0.238E+02   0.407E-01 -.171E+00 -.160E+01   0.148E-01 0.358E-02 -.287E-02
   0.178E-02 0.204E+01 0.222E+02   0.738E-01 -.219E+01 -.238E+02   -.407E-01 0.171E+00 0.160E+01   -.148E-01 -.358E-02 0.287E-02
 -----------------------------------------------------------------------------------------------
   0.545E-11 -.233E-11 0.467E-10   0.205E-14 -.266E-14 0.355E-14   -.694E-16 0.278E-16 0.000E+00   -.123E-12 0.489E-12 -.334E-12
 
 
 POSITION                                       TOTAL-FORCE (eV/Angst)
 -----------------------------------------------------------------------------------
      2.89469      5.26187      9.17659        -0.011800     -0.001567      0.001523
      2.57384      1.79885      1.03675         0.011800      0.001567     -0.001523
      5.30705      5.33035      6.14726         0.011124     -0.000177     -0.003443
      0.16149      1.73037      4.06607        -0.011124      0.000177      0.003443
     -0.43079      4.13264      1.04609        -0.006599      0.016994     -0.011896
      0.56634      2.25115      9.63121         0.006599     -0.016994      0.011896
      2.44711      4.73572      3.62145         0.029738     -0.020309      0.023946
      3.02142      2.32500      6.59189        -0.029738      0.020309     -0.023946
      2.82264      2.08174      3.84390        -0.010880     -0.017381     -0.003454
      2.64590      4.97898      6.36943         0.010880      0.017381      0.003454
      5.24801      2.12670      0.79995         0.004289      0.016515     -0.001414
      0.22053      4.93402      9.41338        -0.004289     -0.016515      0.001414
      5.67365      2.66132      6.39841         0.025715      0.014778     -0.011319
     -0.20511      4.39939      3.81492        -0.025715     -0.014778      0.011319
      3.24696      2.59298      9.36041        -0.020117     -0.016527      0.020965
      2.22157      4.46774      0.85292         0.020117      0.016527     -0.020965
 -----------------------------------------------------------------------------------
    total drift:                                0.000000     -0.000000      0.000000


--------------------------------------------------------------------------------------------------------



  FREE ENERGIE OF THE ION-ELECTRON SYSTEM (eV)
  ---------------------------------------------------
  free  energy   TOTEN  =       -68.76286159 eV

  energy  without entropy=      -68.76286159  energy(sigma->0) =      -68.76286159
 
 d Force = 0.7428137E-03[ 0.316E-03, 0.117E-02]  d Energy = 0.9790978E-03-0.236E-03
 d Force = 0.6786751E-01[ 0.662E-01, 0.695E-01]  d Ewald  = 0.2543128E+00-0.186E+00


--------------------------------------------------------------------------------------------------------


    POTLOK:  cpu time    0.1184: real time    0.1184


--------------------------------------------------------------------------------------------------------


 Conjugate gradient step on ions:
 trial-energy change:   -0.000979  1 .order   -0.001017   -0.001616   -0.000417
  (g-gl).g = 0.278E-03      g.g   = 0.670E-03  gl.gl    = 0.634E-03
 g(Force)  = 0.485E-03   g(Stress)= 0.185E-03 ortho     = 0.443E-04
 gamma     =   0.43857
 trial     =   2.34367
 opt step  =   3.15971  (harmonic =   3.15971) maximal distance =0.00303096
 next E    =   -68.762972   (d E  =  -0.00109)


--------------------------------------------------------------------------------------------------------


  
 reached required accuracy - stopping structural energy minimisation
     LOOP+:  cpu time    2.0360: real time    2.2855
    4ORBIT:  cpu time    0.0000: real time    0.0000
 


 total charge     
 
# of ion       s       p       d       tot
------------------------------------------
    1        0.060   0.101   0.000   0.162
    2        0.060   0.101   0.000   0.162
    3        0.060   0.101   0.000   0.162
    4        0.060   0.101   0.000   0.162
    5        1.308   0.882   0.070   2.259
    6        1.308   0.882   0.070   2.259
    7        1.308   0.882   0.070   2.259
    8        1.308   0.882   0.070   2.259
    9        1.354   2.342   0.000   3.696
   10        1.354   2.342   0.000   3.696
   11        1.354   2.342   0.000   3.696
   12        1.354   2.342   0.000   3.696
   13        1.353   2.343   0.000   3.696
   14        1.353   2.343   0.000   3.696
   15        1.353   2.343   0.000   3.696
   16        1.353   2.343   0.000   3.696
--------------------------------------------------
tot         16.299  22.675   0.279  39.252
 

 total amount of memory used by VASP MPI-rank0    38198. kBytes
=======================================================================

   base      :      30000. kBytes
   nonlr-proj:       1458. kBytes
   fftplans  :        539. kBytes
   grid      :       2363. kBytes
   one-center:        129. kBytes
   wavefun   :       3709. kBytes
 
  
  
 General timing and accounting informations for this job:
 ========================================================
  
                  Total CPU time used (sec):      174.924
                            User time (sec):      171.288
                          System time (sec):        3.637
                         Elapsed time (sec):      187.198
  
                   Maximum memory used (kb):       83412.
                   Average memory used (kb):           0.
  
                          Minor page faults:        46965
                          Major page faults:            0
                 Voluntary context switches:         2560
