PROCAR new format
# of k-points:    9         # of bands:   56         # of ions:   16

 k-point     1 :    0.00000000 0.00000000 0.25000000     weight = 0.11111111

band     1 # energy   -9.01192909 # occ.  2.00000000
 
ion      s      p      d    tot
    1  0.001  0.000  0.000  0.001
    2  0.001  0.000  0.000  0.001
    3  0.001  0.000  0.000  0.001
    4  0.001  0.000  0.000  0.001
    5  0.036  0.000  0.000  0.037
    6  0.036  0.000  0.000  0.037
    7  0.037  0.000  0.000  0.037
    8  0.037  0.000  0.000  0.037
    9  0.055  0.000  0.000  0.055
   10  0.055  0.000  0.000  0.055
   11  0.054  0.000  0.000  0.055
   12  0.054  0.000  0.000  0.055
   13  0.051  0.000  0.000  0.052
   14  0.051  0.000  0.000  0.052
   15  0.051  0.000  0.000  0.052
   16  0.051  0.000  0.000  0.052
tot    0.573  0.002  0.000  0.576
 
band     2 # energy   -8.65155188 # occ.  2.00000000
 
ion      s      p      d    tot
    1  0.001  0.000  0.000  0.001
    2  0.001  0.000  0.000  0.001
    3  0.001  0.000  0.000  0.001
    4  0.001  0.000  0.000  0.001
    5  0.034  0.001  0.000  0.035
    6  0.034  0.001  0.000  0.035
    7  0.034  0.001  0.000  0.035
    8  0.034  0.001  0.000  0.035
    9  0.059  0.000  0.000  0.059
   10  0.059  0.000  0.000  0.059
   11  0.059  0.000  0.000  0.059
   12  0.059  0.000  0.000  0.059
   13  0.052  0.000  0.000  0.053
   14  0.052  0.000  0.000  0.053
   15  0.053  0.000  0.000  0.053
   16  0.053  0.000  0.000  0.053
tot    0.582  0.007  0.000  0.589
 
band     3 # energy   -8.01551294 # occ.  2.00000000
 
ion      s      p      d    tot
    1  0.000  0.000  0.000  0.000
    2  0.000  0.000  0.000  0.000
    3  0.000  0.000  0.000  0.000
    4  0.000  0.000  0.000  0.000
    5  0.027  0.002  0.000  0.029
    6  0.027  0.002  0.000  0.029
    7  0.027  0.002  0.000  0.029
    8  0.027  0.002  0.000  0.029
    9  0.061  0.000  0.000  0.061
   10  0.061  0.000  0.000  0.061
   11  0.061  0.000  0.000  0.061
   12  0.061  0.000  0.000  0.061
   13  0.063  0.000  0.000  0.063
   14  0.063  0.000  0.000  0.063
   15  0.063  0.000  0.000  0.064
   16  0.063  0.000  0.000  0.064
tot    0.605  0.010  0.001  0.616
 
band     4 # energy   -7.36348288 # occ.  2.00000000
 
ion      s      p      d    tot
    1  0.000  0.000  0.000  0.000
    2  0.000  0.000  0.000  0.000
    3  0.000  0.000  0.000  0.000
    4  0.000  0.000  0.000  0.000
    5  0.018  0.001  0.001  0.020
    6  0.018  0.001  0.001  0.020
    7  0.018  0.001  0.001  0.020
    8  0.018  0.001  0.001  0.020
    9  0.074  0.000  0.000  0.075
   10  0.074  0.000  0.000  0.075
   11  0.074  0.000  0.000  0.075
   12  0.074  0.000  0.000  0.075
   13  0.069  0.000  0.000  0.069
   14  0.069  0.000  0.000  0.069
   15  0.069  0.000  0.000  0.069
   16  0.069  0.000  0.000  0.069
tot    0.647  0.005  0.002  0.655
 
band     5 # energy   -6.88191014 # occ.  2.00000000
 
ion      s      p      d    tot
    1  0.000  0.000  0.000  0.000
    2  0.000  0.000  0.000  0.000
    3  0.000  0.000  0.000  0.000
    4  0.000  0.000  0.000  0.000
    5  0.000  0.002  0.001  0.002
    6  0.000  0.002  0.001  0.002
    7  0.000  0.001  0.001  0.002
    8  0.000  0.001  0.001  0.002
    9  0.099  0.000  0.000  0.099
   10  0.099  0.000  0.000  0.099
   11  0.122  0.000  0.000  0.122
   12  0.122  0.000  0.000  0.122
   13  0.051  0.000  0.000  0.052
   14  0.051  0.000  0.000  0.052
   15  0.063  0.000  0.000  0.063
   16  0.063  0.000  0.000  0.063
tot    0.672  0.007  0.003  0.682
 
band     6 # energy   -6.87428770 # occ.  2.00000000
 
ion      s      p      d    tot
    1  0.000  0.000  0.000  0.000
    2  0.000  0.000  0.000  0.000
    3  0.000  0.000  0.000  0.000
    4  0.000  0.000  0.000  0.000
    5  0.001  0.000  0.001  0.002
    6  0.001  0.000  0.001  0.002
    7  0.001  0.001  0.001  0.002
    8  0.001  0.001  0.001  0.002
    9  0.127  0.000  0.000  0.127
   10  0.127  0.000  0.000  0.127
   11  0.104  0.000  0.000  0.104
   12  0.104  0.000  0.000  0.104
   13  0.058  0.000  0.000  0.058
   14  0.058  0.000  0.000  0.058
   15  0.046  0.000  0.000  0.046
   16  0.046  0.000  0.000  0.046
tot    0.676  0.002  0.004  0.682
 
band     7 # energy   -6.86151582 # occ.  2.00000000
 
ion      s      p      d    tot
    1  0.000  0.000  0.000  0.000
    2  0.000  0.000  0.000  0.000
    3  0.000  0.000  0.000  0.000
    4  0.000  0.000  0.000  0.000
    5  0.000  0.001  0.001  0.002
    6  0.000  0.001  0.001  0.002
    7  0.000  0.001  0.001  0.002
    8  0.000  0.001  0.001  0.002
    9  0.052  0.000  0.000  0.052
   10  0.052  0.000  0.000  0.052
   11  0.055  0.000  0.000  0.055
   12  0.055  0.000  0.000  0.055
   13  0.111  0.000  0.000  0.111
   14  0.111  0.000  0.000  0.111
   15  0.118  0.000  0.000  0.118
   16  0.118  0.000  0.000  0.118
tot    0.673  0.006  0.003  0.683
 
band     8 # energy   -6.83150020 # occ.  2.00000000
 
ion      s      p      d    tot
    1  0.000  0.000  0.000  0.000
    2  0.000  0.000  0.000  0.000
    3  0.000  0.000  0.000  0.000
    4  0.000  0.000  0.000  0.000
    5  0.000  0.000  0.001  0.001
    6  0.000  0.000  0.001  0.001
    7  0.000  0.000  0.001  0.001
    8  0.000  0.000  0.001  0.001
    9  0.053  0.000  0.000  0.053
   10  0.053  0.000  0.000  0.053
   11  0.050  0.000  0.000  0.050
   12  0.050  0.000  0.000  0.050
   13  0.121  0.000  0.000  0.121
   14  0.121  0.000  0.000  0.121
   15  0.114  0.000  0.000  0.114
   16  0.114  0.000  0.000  0.114
tot    0.679  0.001  0.004  0.684
 
band     9 # energy   -3.12090986 # occ.  2.00000000
 
ion      s      p      d    tot
    1  0.000  0.000  0.000  0.000
    2  0.000  0.000  0.000  0.000
    3  0.000  0.000  0.000  0.000
    4  0.000  0.000  0.000  0.000
    5  0.134  0.000  0.000  0.134
    6  0.134  0.000  0.000  0.134
    7  0.134  0.000  0.000  0.134
    8  0.134  0.000  0.000  0.134
    9  0.012  0.004  0.000  0.016
   10  0.012  0.004  0.000  0.016
   11  0.012  0.004  0.000  0.016
   12  0.012  0.004  0.000  0.016
   13  0.013  0.004  0.000  0.017
   14  0.013  0.004  0.000  0.017
   15  0.013  0.004  0.000  0.017
   16  0.013  0.004  0.000  0.017
tot    0.637  0.030  0.001  0.668
 
band    10 # energy   -2.57152123 # occ.  2.00000000
 
ion      s      p      d    tot
    1  0.000  0.000  0.000  0.000
    2  0.000  0.000  0.000  0.000
    3  0.000  0.000  0.000  0.000
    4  0.000  0.000  0.000  0.000
    5  0.123  0.000  0.000  0.123
    6  0.123  0.000  0.000  0.123
    7  0.122  0.000  0.000  0.122
    8  0.122  0.000  0.000  0.122
    9  0.022  0.004  0.000  0.026
   10  0.022  0.004  0.000  0.026
   11  0.022  0.004  0.000  0.026
   12  0.022  0.004  0.000  0.026
   13  0.023  0.003  0.000  0.026
   14  0.023  0.003  0.000  0.026
   15  0.023  0.003  0.000  0.026
   16  0.023  0.003  0.000  0.026
tot    0.670  0.030  0.001  0.700
 
band    11 # energy   -1.95931900 # occ.  2.00000000
 
ion      s      p      d    tot
    1  0.000  0.000  0.000  0.000
    2  0.000  0.000  0.000  0.000
    3  0.000  0.000  0.000  0.000
    4  0.000  0.000  0.000  0.000
    5  0.117  0.000  0.000  0.117
    6  0.117  0.000  0.000  0.117
    7  0.115  0.000  0.000  0.116
    8  0.115  0.000  0.000  0.116
    9  0.030  0.003  0.000  0.033
   10  0.030  0.003  0.000  0.033
   11  0.030  0.003  0.000  0.034
   12  0.030  0.003  0.000  0.034
   13  0.029  0.003  0.000  0.032
   14  0.029  0.003  0.000  0.032
   15  0.030  0.003  0.000  0.033
   16  0.030  0.003  0.000  0.033
tot    0.704  0.026  0.001  0.731
 
band    12 # energy   -1.75966462 # occ.  2.00000000
 
ion      s      p      d    tot
    1  0.001  0.000  0.000  0.001
    2  0.001  0.000  0.000  0.001
    3  0.001  0.000  0.000  0.001
    4  0.001  0.000  0.000  0.001
    5  0.110  0.000  0.000  0.110
    6  0.110  0.000  0.000  0.110
    7  0.112  0.000  0.000  0.112
    8  0.112  0.000  0.000  0.112
    9  0.030  0.005  0.000  0.036
   10  0.030  0.005  0.000  0.036
   11  0.030  0.005  0.000  0.035
   12  0.030  0.005  0.000  0.035
   13  0.029  0.004  0.000  0.032
   14  0.029  0.004  0.000  0.032
   15  0.028  0.004  0.000  0.032
   16  0.028  0.004  0.000  0.032
tot    0.682  0.036  0.000  0.718
 
band    13 # energy   -0.83517012 # occ.  2.00000000
 
ion      s      p      d    tot
    1  0.000  0.002  0.000  0.002
    2  0.000  0.002  0.000  0.002
    3  0.000  0.002  0.000  0.002
    4  0.000  0.002  0.000  0.002
    5  0.000  0.037  0.000  0.037
    6  0.000  0.037  0.000  0.037
    7  0.000  0.037  0.000  0.037
    8  0.000  0.037  0.000  0.037
    9  0.000  0.054  0.000  0.054
   10  0.000  0.054  0.000  0.054
   11  0.000  0.054  0.000  0.054
   12  0.000  0.054  0.000  0.054
   13  0.000  0.011  0.000  0.011
   14  0.000  0.011  0.000  0.011
   15  0.000  0.011  0.000  0.011
   16  0.000  0.011  0.000  0.011
tot    0.000  0.414  0.000  0.414
 
band    14 # energy   -0.81637247 # occ.  2.00000000
 
ion      s      p      d    tot
    1  0.000  0.002  0.000  0.002
    2  0.000  0.002  0.000  0.002
    3  0.000  0.002  0.000  0.002
    4  0.000  0.002  0.000  0.002
    5  0.000  0.037  0.000  0.037
    6  0.000  0.037  0.000  0.037
    7  0.000  0.037  0.000  0.037
    8  0.000  0.037  0.000  0.037
    9  0.000  0.011  0.000  0.011
   10  0.000  0.011  0.000  0.011
   11  0.000  0.011  0.000  0.011
   12  0.000  0.011  0.000  0.011
   13  0.000  0.053  0.000  0.053
   14  0.000  0.053  0.000  0.053
   15  0.000  0.053  0.000  0.053
   16  0.000  0.053  0.000  0.053
tot    0.000  0.414  0.000  0.415
 
band    15 # energy   -0.50775191 # occ.  2.00000000
 
ion      s      p      d    tot
    1  0.000  0.001  0.000  0.001
    2  0.000  0.001  0.000  0.001
    3  0.000  0.001  0.000  0.001
    4  0.000  0.001  0.000  0.001
    5  0.000  0.039  0.000  0.039
    6  0.000  0.039  0.000  0.039
    7  0.000  0.039  0.000  0.039
    8  0.000  0.039  0.000  0.039
    9  0.000  0.060  0.000  0.060
   10  0.000  0.060  0.000  0.060
   11  0.000  0.060  0.000  0.060
   12  0.000  0.060  0.000  0.060
   13  0.000  0.008  0.000  0.008
   14  0.000  0.008  0.000  0.008
   15  0.000  0.008  0.000  0.008
   16  0.000  0.008  0.000  0.008
tot    0.000  0.430  0.001  0.430
 
band    16 # energy   -0.47973446 # occ.  2.00000000
 
ion      s      p      d    tot
    1  0.000  0.001  0.000  0.001
    2  0.000  0.001  0.000  0.001
    3  0.000  0.001  0.000  0.001
    4  0.000  0.001  0.000  0.001
    5  0.000  0.039  0.000  0.039
    6  0.000  0.039  0.000  0.039
    7  0.000  0.039  0.000  0.039
    8  0.000  0.039  0.000  0.039
    9  0.000  0.008  0.000  0.008
   10  0.000  0.008  0.000  0.008
   11  0.000  0.008  0.000  0.008
   12  0.000  0.008  0.000  0.008
   13  0.000  0.059  0.000  0.059
   14  0.000  0.059  0.000  0.059
   15  0.000  0.059  0.000  0.059
   16  0.000  0.059  0.000  0.059
tot    0.000  0.430  0.001  0.431
 
band    17 # energy   -0.37582142 # occ.  2.00000000
 
ion      s      p      d    tot
    1  0.000  0.002  0.000  0.002
    2  0.000  0.002  0.000  0.002
    3  0.000  0.002  0.000  0.002
    4  0.000  0.002  0.000  0.002
    5  0.001  0.031  0.000  0.032
    6  0.001  0.031  0.000  0.032
    7  0.001  0.031  0.000  0.032
    8  0.001  0.031  0.000  0.032
    9  0.002  0.030  0.000  0.032
   10  0.002  0.030  0.000  0.032
   11  0.002  0.030  0.000  0.032
   12  0.002  0.030  0.000  0.032
   13  0.002  0.032  0.000  0.034
   14  0.002  0.032  0.000  0.034
   15  0.002  0.032  0.000  0.034
   16  0.002  0.032  0.000  0.034
tot    0.020  0.379  0.000  0.400
 
band    18 # energy    0.22148374 # occ.  2.00000000
 
ion      s      p      d    tot
    1  0.000  0.001  0.000  0.001
    2  0.000  0.001  0.000  0.001
    3  0.000  0.001  0.000  0.001
    4  0.000  0.001  0.000  0.001
    5  0.000  0.038  0.000  0.038
    6  0.000  0.038  0.000  0.038
    7  0.000  0.038  0.000  0.038
    8  0.000  0.038  0.000  0.038
    9  0.000  0.011  0.000  0.011
   10  0.000  0.011  0.000  0.011
   11  0.000  0.011  0.000  0.011
   12  0.000  0.011  0.000  0.011
   13  0.000  0.063  0.000  0.063
   14  0.000  0.063  0.000  0.063
   15  0.000  0.063  0.000  0.063
   16  0.000  0.063  0.000  0.063
tot    0.000  0.455  0.001  0.456
 
band    19 # energy    0.23052739 # occ.  2.00000000
 
ion      s      p      d    tot
    1  0.000  0.001  0.000  0.001
    2  0.000  0.001  0.000  0.001
    3  0.000  0.001  0.000  0.001
    4  0.000  0.001  0.000  0.001
    5  0.000  0.037  0.000  0.038
    6  0.000  0.037  0.000  0.038
    7  0.000  0.037  0.000  0.037
    8  0.000  0.037  0.000  0.037
    9  0.000  0.063  0.000  0.063
   10  0.000  0.063  0.000  0.063
   11  0.000  0.064  0.000  0.064
   12  0.000  0.064  0.000  0.064
   13  0.000  0.011  0.000  0.011
   14  0.000  0.011  0.000  0.011
   15  0.000  0.011  0.000  0.011
   16  0.000  0.011  0.000  0.011
tot    0.000  0.454  0.001  0.455
 
band    20 # energy    0.71546537 # occ.  2.00000000
 
ion      s      p      d    tot
    1  0.000  0.001  0.000  0.001
    2  0.000  0.001  0.000  0.001
    3  0.000  0.001  0.000  0.001
    4  0.000  0.001  0.000  0.001
    5  0.000  0.040  0.000  0.040
    6  0.000  0.040  0.000  0.040
    7  0.000  0.040  0.000  0.040
    8  0.000  0.040  0.000  0.040
    9  0.000  0.015  0.000  0.016
   10  0.000  0.015  0.000  0.016
   11  0.000  0.015  0.000  0.016
   12  0.000  0.015  0.000  0.016
   13  0.000  0.065  0.000  0.066
   14  0.000  0.065  0.000  0.066
   15  0.000  0.065  0.000  0.065
   16  0.000  0.065  0.000  0.065
tot    0.004  0.482  0.001  0.487
 
band    21 # energy    0.72414026 # occ.  2.00000000
 
ion      s      p      d    tot
    1  0.000  0.001  0.000  0.001
    2  0.000  0.001  0.000  0.001
    3  0.000  0.001  0.000  0.001
    4  0.000  0.001  0.000  0.001
    5  0.000  0.040  0.000  0.040
    6  0.000  0.040  0.000  0.040
    7  0.000  0.040  0.000  0.040
    8  0.000  0.040  0.000  0.040
    9  0.000  0.070  0.000  0.070
   10  0.000  0.070  0.000  0.070
   11  0.000  0.069  0.000  0.069
   12  0.000  0.069  0.000  0.069
   13  0.000  0.013  0.000  0.013
   14  0.000  0.013  0.000  0.013
   15  0.000  0.013  0.000  0.013
   16  0.000  0.013  0.000  0.013
tot    0.000  0.492  0.000  0.492
 
band    22 # energy    0.77543988 # occ.  2.00000000
 
ion      s      p      d    tot
    1  0.001  0.000  0.000  0.001
    2  0.001  0.000  0.000  0.001
    3  0.001  0.000  0.000  0.001
    4  0.001  0.000  0.000  0.001
    5  0.003  0.035  0.000  0.039
    6  0.003  0.035  0.000  0.039
    7  0.003  0.035  0.000  0.039
    8  0.003  0.035  0.000  0.039
    9  0.002  0.032  0.000  0.034
   10  0.002  0.032  0.000  0.034
   11  0.002  0.032  0.000  0.034
   12  0.002  0.032  0.000  0.034
   13  0.002  0.038  0.000  0.040
   14  0.002  0.038  0.000  0.040
   15  0.002  0.038  0.000  0.040
   16  0.002  0.038  0.000  0.040
tot    0.031  0.420  0.001  0.453
 
band    23 # energy    1.85694587 # occ.  2.00000000
 
ion      s      p      d    tot
    1  0.000  0.002  0.000  0.002
    2  0.000  0.002  0.000  0.002
    3  0.000  0.002  0.000  0.002
    4  0.000  0.002  0.000  0.002
    5  0.002  0.030  0.000  0.032
    6  0.002  0.030  0.000  0.032
    7  0.002  0.030  0.000  0.032
    8  0.002  0.030  0.000  0.032
    9  0.000  0.044  0.000  0.044
   10  0.000  0.044  0.000  0.044
   11  0.000  0.044  0.000  0.044
   12  0.000  0.044  0.000  0.044
   13  0.000  0.043  0.000  0.044
   14  0.000  0.043  0.000  0.044
   15  0.000  0.044  0.000  0.044
   16  0.000  0.044  0.000  0.044
tot    0.011  0.476  0.001  0.488
 
band    24 # energy    2.71063451 # occ.  2.00000000
 
ion      s      p      d    tot
    1  0.000  0.009  0.000  0.009
    2  0.000  0.009  0.000  0.009
    3  0.000  0.009  0.000  0.009
    4  0.000  0.009  0.000  0.009
    5  0.000  0.002  0.000  0.002
    6  0.000  0.002  0.000  0.002
    7  0.000  0.002  0.000  0.002
    8  0.000  0.002  0.000  0.002
    9  0.000  0.102  0.000  0.102
   10  0.000  0.102  0.000  0.102
   11  0.000  0.102  0.000  0.102
   12  0.000  0.102  0.000  0.102
   13  0.000  0.009  0.000  0.009
   14  0.000  0.009  0.000  0.009
   15  0.000  0.009  0.000  0.009
   16  0.000  0.009  0.000  0.009
tot    0.000  0.485  0.001  0.485
 
band    25 # energy    2.74829293 # occ.  2.00000000
 
ion      s      p      d    tot
    1  0.000  0.009  0.000  0.009
    2  0.000  0.009  0.000  0.009
    3  0.000  0.008  0.000  0.008
    4  0.000  0.008  0.000  0.008
    5  0.000  0.002  0.000  0.002
    6  0.000  0.002  0.000  0.002
    7  0.000  0.002  0.000  0.002
    8  0.000  0.002  0.000  0.002
    9  0.000  0.009  0.000  0.009
   10  0.000  0.009  0.000  0.009
   11  0.000  0.009  0.000  0.009
   12  0.000  0.009  0.000  0.009
   13  0.000  0.101  0.000  0.101
   14  0.000  0.101  0.000  0.101
   15  0.000  0.102  0.000  0.102
   16  0.000  0.102  0.000  0.102
tot    0.000  0.484  0.000  0.485
 
band    26 # energy    2.86747361 # occ.  2.00000000
 
ion      s      p      d    tot
    1  0.002  0.000  0.000  0.002
    2  0.002  0.000  0.000  0.002
    3  0.002  0.000  0.000  0.002
    4  0.002  0.000  0.000  0.002
    5  0.004  0.020  0.000  0.025
    6  0.004  0.020  0.000  0.025
    7  0.004  0.020  0.000  0.025
    8  0.004  0.020  0.000  0.025
    9  0.002  0.054  0.000  0.056
   10  0.002  0.054  0.000  0.056
   11  0.002  0.054  0.000  0.057
   12  0.002  0.054  0.000  0.057
   13  0.002  0.048  0.000  0.050
   14  0.002  0.048  0.000  0.050
   15  0.002  0.049  0.000  0.051
   16  0.002  0.049  0.000  0.051
tot    0.041  0.492  0.002  0.535
 
band    27 # energy    2.94061447 # occ.  2.00000000
 
ion      s      p      d    tot
    1  0.000  0.008  0.000  0.008
    2  0.000  0.008  0.000  0.008
    3  0.000  0.008  0.000  0.008
    4  0.000  0.008  0.000  0.008
    5  0.000  0.003  0.000  0.003
    6  0.000  0.003  0.000  0.003
    7  0.000  0.003  0.000  0.003
    8  0.000  0.003  0.000  0.003
    9  0.000  0.098  0.000  0.098
   10  0.000  0.098  0.000  0.098
   11  0.000  0.098  0.000  0.098
   12  0.000  0.098  0.000  0.098
   13  0.000  0.017  0.000  0.017
   14  0.000  0.017  0.000  0.017
   15  0.000  0.017  0.000  0.017
   16  0.000  0.017  0.000  0.017
tot    0.000  0.503  0.001  0.505
 
band    28 # energy    2.96688715 # occ.  2.00000000
 
ion      s      p      d    tot
    1  0.000  0.007  0.000  0.007
    2  0.000  0.007  0.000  0.007
    3  0.000  0.008  0.000  0.008
    4  0.000  0.008  0.000  0.008
    5  0.000  0.003  0.000  0.003
    6  0.000  0.003  0.000  0.003
    7  0.000  0.003  0.000  0.003
    8  0.000  0.003  0.000  0.003
    9  0.000  0.018  0.000  0.018
   10  0.000  0.018  0.000  0.018
   11  0.000  0.018  0.000  0.018
   12  0.000  0.018  0.000  0.018
   13  0.000  0.098  0.000  0.098
   14  0.000  0.098  0.000  0.098
   15  0.000  0.097  0.000  0.097
   16  0.000  0.097  0.000  0.097
tot    0.001  0.502  0.001  0.504
 
band    29 # energy    3.02918564 # occ.  2.00000000
 
ion      s      p      d    tot
    1  0.000  0.005  0.000  0.006
    2  0.000  0.005  0.000  0.006
    3  0.000  0.006  0.000  0.006
    4  0.000  0.006  0.000  0.006
    5  0.014  0.001  0.001  0.016
    6  0.014  0.001  0.001  0.016
    7  0.014  0.001  0.001  0.016
    8  0.014  0.001  0.001  0.016
    9  0.000  0.055  0.000  0.055
   10  0.000  0.055  0.000  0.055
   11  0.000  0.055  0.000  0.055
   12  0.000  0.055  0.000  0.055
   13  0.000  0.051  0.000  0.051
   14  0.000  0.051  0.000  0.051
   15  0.000  0.050  0.000  0.050
   16  0.000  0.050  0.000  0.050
tot    0.060  0.447  0.005  0.512
 
band    30 # energy    3.32608439 # occ.  2.00000000
 
ion      s      p      d    tot
    1  0.000  0.007  0.000  0.007
    2  0.000  0.007  0.000  0.007
    3  0.000  0.007  0.000  0.007
    4  0.000  0.007  0.000  0.007
    5  0.000  0.002  0.000  0.002
    6  0.000  0.002  0.000  0.002
    7  0.000  0.002  0.000  0.002
    8  0.000  0.002  0.000  0.002
    9  0.000  0.108  0.000  0.108
   10  0.000  0.108  0.000  0.108
   11  0.000  0.108  0.000  0.108
   12  0.000  0.108  0.000  0.108
   13  0.000  0.014  0.000  0.014
   14  0.000  0.014  0.000  0.014
   15  0.000  0.014  0.000  0.014
   16  0.000  0.014  0.000  0.014
tot    0.000  0.523  0.002  0.525
 
band    31 # energy    3.36303285 # occ.  2.00000000
 
ion      s      p      d    tot
    1  0.000  0.007  0.000  0.007
    2  0.000  0.007  0.000  0.007
    3  0.000  0.007  0.000  0.007
    4  0.000  0.007  0.000  0.007
    5  0.000  0.002  0.000  0.002
    6  0.000  0.002  0.000  0.002
    7  0.000  0.002  0.000  0.002
    8  0.000  0.002  0.000  0.002
    9  0.000  0.014  0.000  0.014
   10  0.000  0.014  0.000  0.014
   11  0.000  0.014  0.000  0.014
   12  0.000  0.014  0.000  0.014
   13  0.000  0.108  0.000  0.108
   14  0.000  0.108  0.000  0.108
   15  0.000  0.109  0.000  0.109
   16  0.000  0.109  0.000  0.109
tot    0.000  0.522  0.002  0.524
 
band    32 # energy    3.45657346 # occ.  2.00000000
 
ion      s      p      d    tot
    1  0.003  0.000  0.000  0.004
    2  0.003  0.000  0.000  0.004
    3  0.004  0.000  0.000  0.004
    4  0.004  0.000  0.000  0.004
    5  0.013  0.002  0.002  0.017
    6  0.013  0.002  0.002  0.017
    7  0.013  0.002  0.002  0.017
    8  0.013  0.002  0.002  0.017
    9  0.001  0.049  0.000  0.049
   10  0.001  0.049  0.000  0.049
   11  0.000  0.050  0.000  0.051
   12  0.000  0.050  0.000  0.051
   13  0.001  0.058  0.000  0.059
   14  0.001  0.058  0.000  0.059
   15  0.001  0.058  0.000  0.058
   16  0.001  0.058  0.000  0.058
tot    0.071  0.440  0.008  0.518
 
band    33 # energy    3.58209679 # occ.  2.00000000
 
ion      s      p      d    tot
    1  0.000  0.005  0.000  0.005
    2  0.000  0.005  0.000  0.005
    3  0.000  0.005  0.000  0.005
    4  0.000  0.005  0.000  0.005
    5  0.003  0.003  0.000  0.006
    6  0.003  0.003  0.000  0.006
    7  0.003  0.003  0.001  0.007
    8  0.003  0.003  0.001  0.007
    9  0.000  0.090  0.000  0.090
   10  0.000  0.090  0.000  0.090
   11  0.000  0.088  0.000  0.089
   12  0.000  0.088  0.000  0.089
   13  0.000  0.037  0.000  0.037
   14  0.000  0.037  0.000  0.037
   15  0.000  0.037  0.000  0.037
   16  0.000  0.037  0.000  0.037
tot    0.017  0.533  0.002  0.552
 
band    34 # energy    3.61230289 # occ.  2.00000000
 
ion      s      p      d    tot
    1  0.000  0.005  0.000  0.005
    2  0.000  0.005  0.000  0.005
    3  0.000  0.005  0.000  0.005
    4  0.000  0.005  0.000  0.005
    5  0.002  0.003  0.000  0.006
    6  0.002  0.003  0.000  0.006
    7  0.002  0.003  0.000  0.006
    8  0.002  0.003  0.000  0.006
    9  0.000  0.041  0.000  0.041
   10  0.000  0.041  0.000  0.041
   11  0.000  0.040  0.000  0.041
   12  0.000  0.040  0.000  0.041
   13  0.000  0.086  0.000  0.087
   14  0.000  0.086  0.000  0.087
   15  0.000  0.086  0.000  0.086
   16  0.000  0.086  0.000  0.086
tot    0.013  0.537  0.002  0.552
 
band    35 # energy    3.63786743 # occ.  2.00000000
 
ion      s      p      d    tot
    1  0.001  0.003  0.000  0.004
    2  0.001  0.003  0.000  0.004
    3  0.001  0.003  0.000  0.004
    4  0.001  0.003  0.000  0.004
    5  0.010  0.002  0.001  0.012
    6  0.010  0.002  0.001  0.012
    7  0.010  0.002  0.001  0.013
    8  0.010  0.002  0.001  0.013
    9  0.001  0.057  0.000  0.058
   10  0.001  0.057  0.000  0.058
   11  0.001  0.056  0.000  0.057
   12  0.001  0.056  0.000  0.057
   13  0.001  0.063  0.000  0.064
   14  0.001  0.063  0.000  0.064
   15  0.001  0.063  0.000  0.064
   16  0.001  0.063  0.000  0.064
tot    0.051  0.498  0.004  0.553
 
band    36 # energy    4.07998263 # occ.  2.00000000
 
ion      s      p      d    tot
    1  0.000  0.001  0.000  0.001
    2  0.000  0.001  0.000  0.001
    3  0.000  0.001  0.000  0.001
    4  0.000  0.001  0.000  0.001
    5  0.013  0.001  0.002  0.016
    6  0.013  0.001  0.002  0.016
    7  0.013  0.001  0.002  0.016
    8  0.013  0.001  0.002  0.016
    9  0.002  0.061  0.000  0.062
   10  0.002  0.061  0.000  0.062
   11  0.002  0.061  0.000  0.062
   12  0.002  0.061  0.000  0.062
   13  0.002  0.068  0.000  0.070
   14  0.002  0.068  0.000  0.070
   15  0.002  0.068  0.000  0.069
   16  0.002  0.068  0.000  0.069
tot    0.067  0.523  0.008  0.598
 
band    37 # energy    7.12741699 # occ.  0.00000000
 
ion      s      p      d    tot
    1  0.005  0.001  0.000  0.005
    2  0.005  0.001  0.000  0.005
    3  0.005  0.001  0.000  0.005
    4  0.005  0.001  0.000  0.005
    5  0.000  0.089  0.000  0.089
    6  0.000  0.089  0.000  0.089
    7  0.000  0.089  0.000  0.089
    8  0.000  0.089  0.000  0.089
    9  0.007  0.008  0.000  0.016
   10  0.007  0.008  0.000  0.016
   11  0.007  0.008  0.000  0.016
   12  0.007  0.008  0.000  0.016
   13  0.007  0.007  0.000  0.015
   14  0.007  0.007  0.000  0.015
   15  0.007  0.007  0.000  0.014
   16  0.007  0.007  0.000  0.014
tot    0.078  0.419  0.001  0.498
 
band    38 # energy    7.86476629 # occ.  0.00000000
 
ion      s      p      d    tot
    1  0.001  0.004  0.000  0.005
    2  0.001  0.004  0.000  0.005
    3  0.001  0.005  0.000  0.005
    4  0.001  0.005  0.000  0.005
    5  0.001  0.073  0.000  0.074
    6  0.001  0.073  0.000  0.074
    7  0.001  0.072  0.000  0.073
    8  0.001  0.072  0.000  0.073
    9  0.007  0.025  0.000  0.032
   10  0.007  0.025  0.000  0.032
   11  0.007  0.025  0.000  0.032
   12  0.007  0.025  0.000  0.032
   13  0.007  0.023  0.000  0.030
   14  0.007  0.023  0.000  0.030
   15  0.007  0.023  0.000  0.030
   16  0.007  0.023  0.000  0.030
tot    0.063  0.497  0.001  0.561
 
band    39 # energy    8.47736050 # occ.  0.00000000
 
ion      s      p      d    tot
    1  0.007  0.007  0.000  0.015
    2  0.007  0.007  0.000  0.015
    3  0.013  0.008  0.000  0.021
    4  0.013  0.008  0.000  0.021
    5  0.000  0.076  0.000  0.076
    6  0.000  0.076  0.000  0.076
    7  0.000  0.051  0.000  0.051
    8  0.000  0.051  0.000  0.051
    9  0.004  0.010  0.000  0.014
   10  0.004  0.010  0.000  0.014
   11  0.005  0.020  0.000  0.025
   12  0.005  0.020  0.000  0.025
   13  0.003  0.016  0.000  0.020
   14  0.003  0.016  0.000  0.020
   15  0.004  0.014  0.000  0.018
   16  0.004  0.014  0.000  0.018
tot    0.073  0.408  0.000  0.481
 
band    40 # energy    8.49027538 # occ.  0.00000000
 
ion      s      p      d    tot
    1  0.021  0.002  0.000  0.023
    2  0.021  0.002  0.000  0.023
    3  0.015  0.000  0.000  0.016
    4  0.015  0.000  0.000  0.016
    5  0.000  0.045  0.000  0.045
    6  0.000  0.045  0.000  0.045
    7  0.000  0.071  0.000  0.071
    8  0.000  0.071  0.000  0.071
    9  0.002  0.024  0.000  0.026
   10  0.002  0.024  0.000  0.026
   11  0.001  0.014  0.000  0.015
   12  0.001  0.014  0.000  0.015
   13  0.002  0.019  0.000  0.021
   14  0.002  0.019  0.000  0.021
   15  0.001  0.021  0.000  0.022
   16  0.001  0.021  0.000  0.022
tot    0.086  0.393  0.000  0.479
 
band    41 # energy    9.05463799 # occ.  0.00000000
 
ion      s      p      d    tot
    1  0.000  0.000  0.000  0.000
    2  0.000  0.000  0.000  0.000
    3  0.000  0.000  0.000  0.000
    4  0.000  0.000  0.000  0.000
    5  0.000  0.000  0.019  0.020
    6  0.000  0.000  0.019  0.020
    7  0.000  0.000  0.019  0.020
    8  0.000  0.000  0.019  0.020
    9  0.000  0.004  0.000  0.004
   10  0.000  0.004  0.000  0.004
   11  0.000  0.004  0.000  0.004
   12  0.000  0.004  0.000  0.004
   13  0.000  0.003  0.000  0.003
   14  0.000  0.003  0.000  0.003
   15  0.000  0.003  0.000  0.003
   16  0.000  0.003  0.000  0.003
tot    0.000  0.028  0.078  0.106
 
band    42 # energy    9.06251488 # occ.  0.00000000
 
ion      s      p      d    tot
    1  0.000  0.000  0.000  0.000
    2  0.000  0.000  0.000  0.000
    3  0.000  0.000  0.000  0.000
    4  0.000  0.000  0.000  0.000
    5  0.000  0.001  0.019  0.020
    6  0.000  0.001  0.019  0.020
    7  0.000  0.001  0.019  0.020
    8  0.000  0.001  0.019  0.020
    9  0.000  0.003  0.000  0.003
   10  0.000  0.003  0.000  0.003
   11  0.000  0.003  0.000  0.003
   12  0.000  0.003  0.000  0.003
   13  0.000  0.003  0.000  0.003
   14  0.000  0.003  0.000  0.003
   15  0.000  0.003  0.000  0.003
   16  0.000  0.003  0.000  0.003
tot    0.000  0.028  0.077  0.105
 
band    43 # energy    9.11764323 # occ.  0.00000000
 
ion      s      p      d    tot
    1  0.000  0.000  0.000  0.000
    2  0.000  0.000  0.000  0.000
    3  0.000  0.000  0.000  0.000
    4  0.000  0.000  0.000  0.000
    5  0.000  0.000  0.020  0.020
    6  0.000  0.000  0.020  0.020
    7  0.000  0.000  0.020  0.020
    8  0.000  0.000  0.020  0.020
    9  0.000  0.000  0.000  0.000
   10  0.000  0.000  0.000  0.000
   11  0.000  0.000  0.000  0.000
   12  0.000  0.000  0.000  0.000
   13  0.000  0.000  0.000  0.000
   14  0.000  0.000  0.000  0.000
   15  0.000  0.000  0.000  0.000
   16  0.000  0.000  0.000  0.000
tot    0.000  0.001  0.079  0.080
 
band    44 # energy    9.62196067 # occ.  0.00000000
 
ion      s      p      d    tot
    1  0.000  0.000  0.000  0.000
    2  0.000  0.000  0.000  0.000
    3  0.000  0.000  0.000  0.000
    4  0.000  0.000  0.000  0.000
    5  0.000  0.000  0.021  0.021
    6  0.000  0.000  0.021  0.021
    7  0.000  0.000  0.021  0.021
    8  0.000  0.000  0.021  0.021
    9  0.000  0.000  0.000  0.000
   10  0.000  0.000  0.000  0.000
   11  0.000  0.000  0.000  0.000
   12  0.000  0.000  0.000  0.000
   13  0.000  0.000  0.000  0.000
   14  0.000  0.000  0.000  0.000
   15  0.000  0.000  0.000  0.000
   16  0.000  0.000  0.000  0.000
tot    0.000  0.003  0.083  0.085
 
band    45 # energy   10.12989981 # occ.  0.00000000
 
ion      s      p      d    tot
    1  0.020  0.001  0.000  0.021
    2  0.020  0.001  0.000  0.021
    3  0.020  0.001  0.000  0.021
    4  0.020  0.001  0.000  0.021
    5  0.001  0.016  0.006  0.023
    6  0.001  0.016  0.006  0.023
    7  0.001  0.016  0.006  0.023
    8  0.001  0.016  0.006  0.023
    9  0.006  0.013  0.000  0.019
   10  0.006  0.013  0.000  0.019
   11  0.006  0.013  0.000  0.019