<?xml version="1.0" encoding="ISO-8859-1"?>
<modeling>
 <generator>
  <i name="program" type="string">vasp </i>
  <i name="version" type="string">5.4.4.18Apr17-6-g9f103f2a35  </i>
  <i name="subversion" type="string">(build Oct 27 2022 13:04:57) complex            parallel </i>
  <i name="platform" type="string">LinuxIFC </i>
  <i name="date" type="string">2024 07 04 </i>
  <i name="time" type="string">07:55:26 </i>
 </generator>
 <incar>
  <i type="string" name="SYSTEM"> CIS</i>
  <i type="int" name="ISTART">     0</i>
  <i type="string" name="PREC">medium</i>
  <i type="int" name="ICHARG">     2</i>
  <i type="int" name="IBRION">     2</i>
  <i name="EDIFF">      0.00010000</i>
  <i name="EDIFFG">     -0.05000000</i>
  <i type="int" name="NSW">    99</i>
  <i type="int" name="ISIF">     3</i>
  <i name="ENCUT">    300.00000000</i>
  <i name="POTIM">      0.10000000</i>
  <i type="string" name="LREAL"> Auto</i>
  <i type="int" name="ISMEAR">     0</i>
  <i name="SIGMA">      0.05000000</i>
  <i type="int" name="LMAXMIX">     4</i>
  <i type="logical" name="LWAVE"> F  </i>
  <i type="logical" name="LCHARG"> F  </i>
  <i type="int" name="LORBIT">    10</i>
  <i type="logical" name="LASPH"> T  </i>
  <v type="int" name="KPOINT_BSE">    -1     0     0     0</v>
  <i type="logical" name="LASPH"> T  </i>
 </incar>
 <structure name="primitive_cell" >
  <crystal>
   <varray name="basis" >
    <v>       6.45699942       0.79075414      -0.98815419 </v>
    <v>      -0.86514984       6.47025438      -0.53556584 </v>
    <v>       0.14726968       1.05451695      12.41014643 </v>
   </varray>
   <i name="volume">    532.39385827 </i>
   <varray name="rec_basis" >
    <v>       0.15188298       0.02001857      -0.00350340 </v>
    <v>      -0.02038979       0.15078655      -0.01257070 </v>
    <v>       0.01121371       0.00810124       0.07975778 </v>
   </varray>
  </crystal>
  <varray name="positions" >
   <v>      -0.48303873      -0.26218229      -0.11919243 </v>
   <v>      -0.43220888       0.23067466      -0.14502859 </v>
   <v>       0.48343010      -0.18558520      -0.38446004 </v>
   <v>       0.01739534      -0.18602253      -0.11531716 </v>
   <v>       0.43220888      -0.23067466       0.14502859 </v>
   <v>      -0.03733388       0.20428718      -0.12119584 </v>
   <v>       0.03733388      -0.20428718       0.12119584 </v>
   <v>       0.48303873       0.26218229       0.11919243 </v>
   <v>      -0.46308368       0.20472935      -0.37915100 </v>
   <v>      -0.01632524      -0.26256852      -0.38053756 </v>
   <v>      -0.01739534       0.18602253       0.11531716 </v>
   <v>      -0.06821160       0.23024954      -0.35525419 </v>
   <v>       0.46308368      -0.20472935       0.37915100 </v>
   <v>       0.06821160      -0.23024954       0.35525419 </v>
   <v>      -0.48343010       0.18558520       0.38446004 </v>
   <v>       0.01632524       0.26256852       0.38053756 </v>
  </varray>
 </structure>
 <varray name="primitive_index" >
  <v type="int" >        1 </v>
  <v type="int" >       15 </v>
  <v type="int" >       10 </v>
  <v type="int" >       12 </v>
  <v type="int" >       16 </v>
  <v type="int" >        6 </v>
  <v type="int" >        5 </v>
  <v type="int" >        2 </v>
  <v type="int" >        8 </v>
  <v type="int" >        3 </v>
  <v type="int" >       11 </v>
  <v type="int" >       13 </v>
  <v type="int" >        7 </v>
  <v type="int" >       14 </v>
  <v type="int" >        9 </v>
  <v type="int" >        4 </v>
 </varray>
 <kpoints>
  <generation param="Monkhorst-Pack">
   <v type="int" name="divisions">       3        3        2 </v>
   <v name="usershift">      0.00000000       0.00000000       0.00000000 </v>
   <v name="genvec1">      0.33333333       0.00000000      -0.00000000 </v>
   <v name="genvec2">      0.00000000       0.33333333       0.00000000 </v>
   <v name="genvec3">      0.00000000       0.00000000       0.50000000 </v>
   <v name="shift">      0.00000000       0.00000000       0.50000000 </v>
  </generation>
  <varray name="kpointlist" >
   <v>       0.00000000       0.00000000       0.25000000 </v>
   <v>       0.33333333      -0.00000000       0.25000000 </v>
   <v>      -0.33333333      -0.00000000       0.25000000 </v>
   <v>      -0.00000000       0.33333333       0.25000000 </v>
   <v>       0.33333333       0.33333333       0.25000000 </v>
   <v>      -0.33333333       0.33333333       0.25000000 </v>
   <v>      -0.00000000      -0.33333333       0.25000000 </v>
   <v>       0.33333333      -0.33333333       0.25000000 </v>
   <v>      -0.33333333      -0.33333333       0.25000000 </v>
  </varray>
  <varray name="weights" >
   <v>       0.11111111 </v>
   <v>       0.11111111 </v>
   <v>       0.11111111 </v>
   <v>       0.11111111 </v>
   <v>       0.11111111 </v>
   <v>       0.11111111 </v>
   <v>       0.11111111 </v>
   <v>       0.11111111 </v>
   <v>       0.11111111 </v>
  </varray>
 </kpoints>
 <parameters>
  <separator name="general" >
   <i type="string" name="SYSTEM">CIS</i>
   <i type="logical" name="LCOMPAT"> F  </i>
  </separator>
  <separator name="electronic" >
   <i type="string" name="PREC">medium</i>
   <i name="ENMAX">    300.00000000</i>
   <i name="ENAUG">    380.51300000</i>
   <i name="EDIFF">      0.00010000</i>
   <i type="int" name="IALGO">    38</i>
   <i type="int" name="IWAVPR">    11</i>
   <i type="int" name="NBANDS">    56</i>
   <i name="NELECT">     72.00000000</i>
   <i type="int" name="TURBO">     0</i>
   <i type="int" name="IRESTART">     0</i>
   <i type="int" name="NREBOOT">     0</i>
   <i type="int" name="NMIN">     0</i>
   <i name="EREF">      0.00000000</i>
   <separator name="electronic smearing" >
    <i type="int" name="ISMEAR">     0</i>
    <i name="SIGMA">      0.05000000</i>
    <i name="KSPACING">      0.50000000</i>
    <i type="logical" name="KGAMMA"> T  </i>
   </separator>
   <separator name="electronic projectors" >
    <i type="logical" name="LREAL"> T  </i>
    <v name="ROPT">     -0.00200000     -0.00200000     -0.00200000</v>
    <i type="int" name="LMAXPAW">  -100</i>
    <i type="int" name="LMAXMIX">     4</i>
    <i type="logical" name="NLSPLINE"> F  </i>
   </separator>
   <separator name="electronic startup" >
    <i type="int" name="ISTART">     0</i>
    <i type="int" name="ICHARG">     2</i>
    <i type="int" name="INIWAV">     1</i>
   </separator>
   <separator name="electronic spin" >
    <i type="int" name="ISPIN">     1</i>
    <i type="logical" name="LNONCOLLINEAR"> F  </i>
    <v name="MAGMOM">      1.00000000      1.00000000      1.00000000      1.00000000      1.00000000      1.00000000      1.00000000      1.00000000      1.00000000      1.00000000      1.00000000      1.00000000      1.00000000      1.00000000      1.00000000      1.00000000</v>
    <i name="NUPDOWN">     -1.00000000</i>
    <i type="logical" name="LSORBIT"> F  </i>
    <v name="SAXIS">      0.00000000      0.00000000      1.00000000</v>
    <i type="logical" name="LSPIRAL"> F  </i>
    <v name="QSPIRAL">      0.00000000      0.00000000      0.00000000</v>
    <i type="logical" name="LZEROZ"> F  </i>
   </separator>
   <separator name="electronic exchange-correlation" >
    <i type="logical" name="LASPH"> T  </i>
    <i type="logical" name="LMETAGGA"> F  </i>
   </separator>
   <separator name="electronic convergence" >
    <i type="int" name="NELM">    60</i>
    <i type="int" name="NELMDL">    -5</i>
    <i type="int" name="NELMIN">     2</i>
    <i name="ENINI">    300.00000000</i>
    <separator name="electronic convergence detail" >
     <i type="logical" name="LDIAG"> T  </i>
     <i type="logical" name="LSUBROT"> F  </i>
     <i name="WEIMIN">      0.00100000</i>
     <i name="EBREAK">      0.00000045</i>
     <i name="DEPER">      0.30000000</i>
     <i type="int" name="NRMM">     4</i>
     <i name="TIME">      0.40000000</i>
    </separator>
   </separator>
   <separator name="electronic mixer" >
    <i name="AMIX">      0.40000000</i>
    <i name="BMIX">      1.00000000</i>
    <i name="AMIN">      0.10000000</i>
    <i name="AMIX_MAG">      1.60000000</i>
    <i name="BMIX_MAG">      1.00000000</i>
    <separator name="electronic mixer details" >
     <i type="int" name="IMIX">     4</i>
     <i type="logical" name="MIXFIRST"> F  </i>
     <i type="int" name="MAXMIX">   -45</i>
     <i name="WC">    100.00000000</i>
     <i type="int" name="INIMIX">     1</i>
     <i type="int" name="MIXPRE">     1</i>
     <i type="int" name="MREMOVE">     5</i>
    </separator>
   </separator>
   <separator name="electronic dipolcorrection" >
    <i type="logical" name="LDIPOL"> F  </i>
    <i type="logical" name="LMONO"> F  </i>
    <i type="int" name="IDIPOL">     0</i>
    <i name="EPSILON">      1.00000000</i>
    <v name="DIPOL">   -100.00000000   -100.00000000   -100.00000000</v>
    <i name="EFIELD">      0.00000000</i>
   </separator>
  </separator>
  <separator name="grids" >
   <i type="int" name="NGX">    28</i>
   <i type="int" name="NGY">    28</i>
   <i type="int" name="NGZ">    54</i>
   <i type="int" name="NGXF">    42</i>
   <i type="int" name="NGYF">    42</i>
   <i type="int" name="NGZF">    80</i>
   <i type="logical" name="ADDGRID"> F  </i>
  </separator>
  <separator name="ionic" >
   <i type="int" name="NSW">    99</i>
   <i type="int" name="IBRION">     2</i>
   <i type="int" name="MDALGO">     0</i>
   <i type="int" name="ISIF">     3</i>
   <i name="PSTRESS">      0.00000000</i>
   <i name="EDIFFG">     -0.05000000</i>
   <i type="int" name="NFREE">     1</i>
   <i name="POTIM">      0.10000000</i>
   <i name="SMASS">     -3.00000000</i>
   <i name="SCALEE">      1.00000000</i>
  </separator>
  <separator name="ionic md" >
   <i name="TEBEG">      0.00010000</i>
   <i name="TEEND">      0.00010000</i>
   <i type="int" name="NBLOCK">     1</i>
   <i type="int" name="KBLOCK">    99</i>
   <i type="int" name="NPACO">   256</i>
   <i name="APACO">     16.00000000</i>
  </separator>
  <separator name="symmetry" >
   <i type="int" name="ISYM">     2</i>
   <i name="SYMPREC">      0.00001000</i>
  </separator>
  <separator name="dos" >
   <i type="int" name="LORBIT">    10</i>
   <v name="RWIGS">     -1.00000000     -1.00000000     -1.00000000</v>
   <i type="int" name="NEDOS">   301</i>
   <i name="EMIN">     10.00000000</i>
   <i name="EMAX">    -10.00000000</i>
   <i name="EFERMI">      0.00000000</i>
  </separator>
  <separator name="writing" >
   <i type="int" name="NWRITE">     2</i>
   <i type="logical" name="LWAVE"> F  </i>
   <i type="logical" name="LDOWNSAMPLE"> F  </i>
   <i type="logical" name="LCHARG"> F  </i>
   <i type="logical" name="LPARD"> F  </i>
   <i type="logical" name="LVTOT"> F  </i>
   <i type="logical" name="LVHAR"> F  </i>
   <i type="logical" name="LELF"> F  </i>
   <i type="logical" name="LOPTICS"> F  </i>
   <v name="STM">      0.00000000      0.00000000      0.00000000      0.00000000      0.00000000      0.00000000      0.00000000</v>
  </separator>
  <separator name="performance" >
   <i type="int" name="NPAR">    14</i>
   <i type="int" name="NSIM">     4</i>
   <i type="int" name="NBLK">    -1</i>
   <i type="logical" name="LPLANE"> T  </i>
   <i type="logical" name="LSCALAPACK"> T  </i>
   <i type="logical" name="LSCAAWARE"> F  </i>
   <i type="logical" name="LSCALU"> F  </i>
   <i type="logical" name="LASYNC"> F  </i>
   <i type="logical" name="LORBITALREAL"> F  </i>
  </separator>
  <separator name="miscellaneous" >
   <i type="int" name="IDIOT">     3</i>
   <i type="int" name="ISPECIAL">     0</i>
   <i type="logical" name="LMUSIC"> F  </i>
   <v name="POMASS">      7.01000000    121.75000000     32.06600000</v>
   <v name="DARWINR">      0.00000000      0.00000000      0.00000000</v>
   <v name="DARWINV">      1.00000000      1.00000000      1.00000000</v>
   <i type="logical" name="LCORR"> T  </i>
  </separator>
  <i type="logical" name="GGA_COMPAT"> T  </i>
  <i type="logical" name="LBERRY"> F  </i>
  <i type="int" name="ICORELEVEL">     0</i>
  <i type="logical" name="LDAU"> F  </i>
  <i type="int" name="I_CONSTRAINED_M">     0</i>
  <separator name="electronic exchange-correlation" >
   <i type="string" name="GGA">--</i>
   <i type="int" name="VOSKOWN">     0</i>
   <i type="logical" name="LHFCALC"> F  </i>
   <i type="string" name="PRECFOCK"></i>
   <i type="logical" name="LSYMGRAD"> F  </i>
   <i type="logical" name="LHFONE"> F  </i>
   <i type="logical" name="LRHFCALC"> F  </i>
   <i type="logical" name="LTHOMAS"> F  </i>
   <i type="logical" name="LMODELHF"> F  </i>
   <i name="ENCUT4O">     -1.00000000</i>
   <i type="int" name="EXXOEP">     0</i>
   <i type="int" name="FOURORBIT">     0</i>
   <i name="AEXX">      0.00000000</i>
   <i name="HFALPHA">      0.00000000</i>
   <i name="MCALPHA">      0.00000000</i>
   <i name="ALDAX">      1.00000000</i>
   <i name="AGGAX">      1.00000000</i>
   <i name="ALDAC">      1.00000000</i>
   <i name="AGGAC">      1.00000000</i>
   <i type="int" name="NKREDX">     1</i>
   <i type="int" name="NKREDY">     1</i>
   <i type="int" name="NKREDZ">     1</i>
   <i type="logical" name="SHIFTRED"> F  </i>
   <i type="logical" name="ODDONLY"> F  </i>
   <i type="logical" name="EVENONLY"> F  </i>
   <i type="int" name="LMAXFOCK">     0</i>
   <i type="int" name="NMAXFOCKAE">     0</i>
   <i type="logical" name="LFOCKAEDFT"> F  </i>
   <i name="HFSCREEN">      0.00000000</i>
   <i name="HFSCREENC">      0.00000000</i>
   <i type="int" name="NBANDSGWLOW">     0</i>
  </separator>
  <separator name="vdW DFT" >
   <i type="logical" name="LUSE_VDW"> F  </i>
   <i name="Zab_VDW">     -0.84910000</i>
   <i name="PARAM1">      0.12340000</i>
   <i name="PARAM2">      1.00000000</i>
   <i name="PARAM3">      0.00000000</i>
  </separator>
  <separator name="model GW" >
   <i type="int" name="MODEL_GW">     0</i>
   <i name="MODEL_EPS0">     19.96476968</i>
   <i name="MODEL_ALPHA">      1.00000000</i>
  </separator>
  <separator name="linear response parameters" >
   <i type="logical" name="LEPSILON"> F  </i>
   <i type="logical" name="LRPA"> F  </i>
   <i type="logical" name="LNABLA"> F  </i>
   <i type="logical" name="LVEL"> F  </i>
   <i type="int" name="KINTER">     0</i>
   <i name="CSHIFT">      0.10000000</i>
   <i name="OMEGAMAX">     -1.00000000</i>
   <i name="DEG_THRESHOLD">      0.00200000</i>
   <i name="RTIME">     -0.10000000</i>
   <i name="WPLASMAI">      0.00000000</i>
   <v name="DFIELD">      0.00000000      0.00000000      0.00000000</v>
   <v name="WPLASMA">      0.00000000      0.00000000      0.00000000      0.00000000      0.00000000      0.00000000      0.00000000      0.00000000      0.00000000</v>
  </separator>
  <separator name="orbital magnetization" >
   <i type="logical" name="NUCIND"> F  </i>
   <v name="MAGPOS">      0.00000000      0.00000000      0.00000000</v>
   <i type="logical" name="LNICSALL"> T  </i>
   <i type="logical" name="ORBITALMAG"> F  </i>
   <i type="logical" name="LMAGBLOCH"> F  </i>
   <i type="logical" name="LCHIMAG"> F  </i>
   <i type="logical" name="LGAUGE"> T  </i>
   <i type="int" name="MAGATOM">     0</i>
   <v name="MAGDIPOL">      0.00000000      0.00000000      0.00000000</v>
   <v name="AVECCONST">      0.00000000      0.00000000      0.00000000</v>
  </separator>
  <separator name="response functions" >
   <i type="logical" name="LADDER"> F  </i>
   <i type="logical" name="LRPAFORCE"> F  </i>
   <i type="logical" name="LFXC"> F  </i>
   <i type="logical" name="LHARTREE"> T  </i>
   <i type="int" name="IBSE">     0</i>
   <v type="int" name="KPOINT">    -1     0     0     0</v>
   <i type="logical" name="LTCTE"> F  </i>
   <i type="logical" name="LTETE"> F  </i>
   <i type="logical" name="LTRIPLET"> F  </i>
   <i type="logical" name="LFXCEPS"> F  </i>
   <i type="logical" name="LFXHEG"> F  </i>
   <i type="int" name="NATURALO">     2</i>
   <i type="logical" name="L2ORDER"> F  </i>
   <i type="logical" name="LMP2LT"> F  </i>
   <i type="logical" name="LUSEW"> F  </i>
   <i name="ENCUTGW">     -2.00000000</i>
   <i name="ENCUTGWSOFT">     -2.00000000</i>
   <i name="ENCUTLF">     -1.00000000</i>
   <i type="int" name="LMAXMP2">    -1</i>
   <i name="SCISSOR">      0.00000000</i>
   <i type="int" name="NOMEGA">     0</i>
   <i type="int" name="NOMEGAR">     0</i>
   <i type="int" name="NBANDSGW">    -1</i>
   <i type="int" name="NBANDSO">    -1</i>
   <i type="int" name="NBANDSV">    -1</i>
   <i type="int" name="NELM">     1</i>
   <i type="int" name="NELMHF">     1</i>
   <i type="int" name="DIM">     3</i>
   <i type="int" name="ANTIRES">     0</i>
   <i name="OMEGAMAX">    -30.00000000</i>
   <i name="OMEGAMIN">    -30.00000000</i>
   <i name="OMEGATL">   -200.00000000</i>
   <i type="int" name="OMEGAGRID">   140</i>
   <i name="CSHIFT">     -0.10000000</i>
   <i type="logical" name="SELFENERGY"> F  </i>
   <i type="logical" name="LSPECTRAL"> F  </i>
   <i type="logical" name="LSPECTRALGW"> F  </i>
   <i type="logical" name="LSINGLES"> F  </i>
   <i type="logical" name="LFERMIGW"> F  </i>
   <i type="logical" name="ODDONLYGW"> F  </i>
   <i type="logical" name="EVENONLYGW"> F  </i>
   <i type="int" name="NKREDLFX">     1</i>
   <i type="int" name="NKREDLFY">     1</i>
   <i type="int" name="NKREDLFZ">     1</i>
   <i type="int" name="MAXMEM">  2800</i>
   <i type="int" name="TELESCOPE">     0</i>
   <i type="int" name="TAUPAR">     1</i>
   <i type="int" name="OMEGAPAR">    -1</i>
   <i name="LAMBDA">      1.00000000</i>
  </separator>
  <separator name="External order field" >
   <i name="OFIELD_KAPPA">      0.00000000</i>
   <v name="OFIELD_K">      0.00000000      0.00000000      0.00000000</v>
   <i name="OFIELD_Q6_NEAR">      0.00000000</i>
   <i name="OFIELD_Q6_FAR">      0.00000000</i>
   <i name="OFIELD_A">      0.00000000</i>
  </separator>
 </parameters>
 <atominfo>
  <atoms>      16 </atoms>
  <types>       3 </types>
  <array name="atoms" >
   <dimension dim="1">ion</dimension>
   <field type="string">element</field>
   <field type="int">atomtype</field>
   <set>
    <rc><c>Li</c><c>   1</c></rc>
    <rc><c>Li</c><c>   1</c></rc>
    <rc><c>Li</c><c>   1</c></rc>
    <rc><c>Li</c><c>   1</c></rc>
    <rc><c>Sb</c><c>   2</c></rc>
    <rc><c>Sb</c><c>   2</c></rc>
    <rc><c>Sb</c><c>   2</c></rc>
    <rc><c>Sb</c><c>   2</c></rc>
    <rc><c>S </c><c>   3</c></rc>
    <rc><c>S </c><c>   3</c></rc>
    <rc><c>S </c><c>   3</c></rc>
    <rc><c>S </c><c>   3</c></rc>
    <rc><c>S </c><c>   3</c></rc>
    <rc><c>S </c><c>   3</c></rc>
    <rc><c>S </c><c>   3</c></rc>
    <rc><c>S </c><c>   3</c></rc>
   </set>
  </array>
  <array name="atomtypes" >
   <dimension dim="1">type</dimension>
   <field type="int">atomspertype</field>
   <field type="string">element</field>
   <field>mass</field>
   <field>valence</field>
   <field type="string">pseudopotential</field>
   <set>
    <rc><c>   4</c><c>Li</c><c>      7.01000000</c><c>      1.00000000</c><c>  PAW_PBE Li 17Jan2003                  </c></rc>
    <rc><c>   4</c><c>Sb</c><c>    121.75000000</c><c>      5.00000000</c><c>  PAW_PBE Sb 06Sep2000                  </c></rc>
    <rc><c>   8</c><c>S </c><c>     32.06600000</c><c>      6.00000000</c><c>  PAW_PBE S 06Sep2000                   </c></rc>
   </set>
  </array>
 </atominfo>
 <structure name="initialpos" >
  <crystal>
   <varray name="basis" >
    <v>       6.45699942       0.79075414      -0.98815419 </v>
    <v>      -0.86514984       6.47025438      -0.53556584 </v>
    <v>       0.14726968       1.05451695      12.41014643 </v>
   </varray>
   <i name="volume">    532.39385827 </i>
   <varray name="rec_basis" >
    <v>       0.15188298       0.02001857      -0.00350340 </v>
    <v>      -0.02038979       0.15078655      -0.01257070 </v>
    <v>       0.01121371       0.00810124       0.07975778 </v>
   </varray>
  </crystal>
  <varray name="positions" >
   <v>       0.51696127       0.73781771       0.88080757 </v>
   <v>       0.48303873       0.26218229       0.11919243 </v>
   <v>       0.98367476       0.73743148       0.61946244 </v>
   <v>       0.01632524       0.26256852       0.38053756 </v>
   <v>       0.03733388       0.79571282       0.12119584 </v>
   <v>       0.96266612       0.20428718       0.87880416 </v>
   <v>       0.46308368       0.79527065       0.37915100 </v>
   <v>       0.53691632       0.20472935       0.62084900 </v>
   <v>       0.51656990       0.18558520       0.38446004 </v>
   <v>       0.48343010       0.81441480       0.61553996 </v>
   <v>       0.98260466       0.18602253       0.11531716 </v>
   <v>       0.01739534       0.81397747       0.88468284 </v>
   <v>       0.93178840       0.23024954       0.64474581 </v>
   <v>       0.06821160       0.76975046       0.35525419 </v>
   <v>       0.56779112       0.23067466       0.85497141 </v>
   <v>       0.43220888       0.76932534       0.14502859 </v>
  </varray>
 </structure>
 <calculation>
  <scstep>
   <time name="dav">    0.31    0.31</time>
   <time name="total">    0.44    0.46</time>
   <energy>
    <i name="alphaZ">     22.18718924 </i>
    <i name="ewald">  -2086.23039101 </i>
    <i name="hartreedc">   -684.11441158 </i>
    <i name="XCdc">   -109.12803108 </i>
    <i name="pawpsdc">   2425.24139867 </i>
    <i name="pawaedc">  -2161.66122930 </i>
    <i name="eentropy">     -0.00728322 </i>
    <i name="bandstr">     27.75907066 </i>
    <i name="atom">   2835.52185083 </i>
    <i name="e_fr_energy">    269.56816320 </i>
    <i name="e_wo_entrp">    269.57544642 </i>
    <i name="e_0_energy">    269.57180481 </i>
   </energy>
  </scstep>
  <scstep>
   <time name="dav">    0.38    0.38</time>
   <time name="total">    0.38    0.38</time>
   <energy>
    <i name="e_fr_energy">    -33.75052659 </i>
    <i name="e_wo_entrp">    -33.75052659 </i>
    <i name="e_0_energy">    -33.75052659 </i>
   </energy>
  </scstep>
  <scstep>
   <time name="dav">    0.36    0.36</time>
   <time name="total">    0.36    0.36</time>
   <energy>
    <i name="e_fr_energy">    -67.34438130 </i>
    <i name="e_wo_entrp">    -67.34438130 </i>
    <i name="e_0_energy">    -67.34438130 </i>
   </energy>
  </scstep>
  <scstep>
   <time name="dav">    0.40    0.40</time>
   <time name="total">    0.40    0.40</time>
   <energy>
    <i name="e_fr_energy">    -68.01868653 </i>
    <i name="e_wo_entrp">    -68.01868653 </i>
    <i name="e_0_energy">    -68.01868653 </i>
   </energy>
  </scstep>
  <scstep>
   <time name="dav">    0.39    0.39</time>
   <time name="total">    0.41    0.41</time>
   <energy>
    <i name="e_fr_energy">    -68.03139809 </i>
    <i name="e_wo_entrp">    -68.03139809 </i>
    <i name="e_0_energy">    -68.03139809 </i>
   </energy>
  </scstep>
  <scstep>
   <time name="dav">    0.35    0.35</time>
   <time name="total">    0.49    0.49</time>
   <energy>
    <i name="e_fr_energy">    -63.62141910 </i>
    <i name="e_wo_entrp">    -63.62141910 </i>
    <i name="e_0_energy">    -63.62141910 </i>
   </energy>
  </scstep>
  <scstep>
   <time name="dav">    0.44    0.44</time>
   <time name="total">    0.58    0.58</time>
   <energy>
    <i name="e_fr_energy">    -63.66766749 </i>
    <i name="e_wo_entrp">    -63.66766749 </i>
    <i name="e_0_energy">    -63.66766749 </i>
   </energy>
  </scstep>
  <scstep>
   <time name="dav">    0.34    0.34</time>
   <time name="total">    0.48    0.48</time>
   <energy>
    <i name="e_fr_energy">    -63.67136822 </i>
    <i name="e_wo_entrp">    -63.67136822 </i>
    <i name="e_0_energy">    -63.67136822 </i>
   </energy>
  </scstep>
  <scstep>
   <time name="dav">    0.45    0.45</time>
   <time name="total">    0.59    0.59</time>
   <energy>
    <i name="e_fr_energy">    -63.68508237 </i>
    <i name="e_wo_entrp">    -63.68508237 </i>
    <i name="e_0_energy">    -63.68508237 </i>
   </energy>
  </scstep>
  <scstep>
   <time name="dav">    0.41    0.41</time>
   <time name="total">    0.54    0.54</time>
   <energy>
    <i name="e_fr_energy">    -63.69004662 </i>
    <i name="e_wo_entrp">    -63.69004662 </i>
    <i name="e_0_energy">    -63.69004662 </i>
   </energy>
  </scstep>
  <scstep>
   <time name="dav">    0.28    0.28</time>
   <time name="total">    0.42    0.42</time>
   <energy>
    <i name="e_fr_energy">    -63.69268287 </i>
    <i name="e_wo_entrp">    -63.69268287 </i>
    <i name="e_0_energy">    -63.69268287 </i>
   </energy>
  </scstep>
  <scstep>
   <time name="dav">    0.34    0.34</time>
   <time name="total">    0.46    0.46</time>
   <energy>
    <i name="alphaZ">     22.18718924 </i>
    <i name="ewald">  -2086.23039101 </i>
    <i name="hartreedc">   -738.37901369 </i>
    <i name="XCdc">   -104.47606163 </i>
    <i name="pawpsdc">   4586.85656707 </i>
    <i name="pawaedc">  -4324.08157147 </i>
    <i name="eentropy">     -0.00000000 </i>
    <i name="bandstr">   -255.09127924 </i>
    <i name="atom">   2835.52185083 </i>
    <i name="e_fr_energy">    -63.69270990 </i>
    <i name="e_wo_entrp">    -63.69270990 </i>
    <i name="e_0_energy">    -63.69270990 </i>
   </energy>
  </scstep>
  <structure>
   <crystal>
    <varray name="basis" >
     <v>       6.45699942       0.79075414      -0.98815419 </v>
     <v>      -0.86514984       6.47025438      -0.53556584 </v>
     <v>       0.14726968       1.05451695      12.41014643 </v>
    </varray>
    <i name="volume">    532.39385827 </i>
    <varray name="rec_basis" >
     <v>       0.15188298       0.02001857      -0.00350340 </v>
     <v>      -0.02038979       0.15078655      -0.01257070 </v>
     <v>       0.01121371       0.00810124       0.07975778 </v>
    </varray>
   </crystal>
   <varray name="positions" >
    <v>       0.51696127       0.73781771       0.88080757 </v>
    <v>       0.48303873       0.26218229       0.11919243 </v>
    <v>       0.98367476       0.73743148       0.61946244 </v>
    <v>       0.01632524       0.26256852       0.38053756 </v>
    <v>       0.03733388       0.79571282       0.12119584 </v>
    <v>       0.96266612       0.20428718       0.87880416 </v>
    <v>       0.46308368       0.79527065       0.37915100 </v>
    <v>       0.53691632       0.20472935       0.62084900 </v>
    <v>       0.51656990       0.18558520       0.38446004 </v>
    <v>       0.48343010       0.81441480       0.61553996 </v>
    <v>       0.98260466       0.18602253       0.11531716 </v>
    <v>       0.01739534       0.81397747       0.88468284 </v>
    <v>       0.93178840       0.23024954       0.64474581 </v>
    <v>       0.06821160       0.76975046       0.35525419 </v>
    <v>       0.56779112       0.23067466       0.85497141 </v>
    <v>       0.43220888       0.76932534       0.14502859 </v>
   </varray>
  </structure>
  <varray name="forces" >
   <v>      -0.01713119       0.21188346      -0.17954775 </v>
   <v>       0.01713119      -0.21188346       0.17954775 </v>
   <v>      -0.04786985       0.23666543       0.14127954 </v>
   <v>       0.04786985      -0.23666543      -0.14127954 </v>
   <v>       0.70784296       0.91687037      -0.04881705 </v>
   <v>      -0.70784296      -0.91687037       0.04881705 </v>
   <v>      -0.85172877       0.65223162      -0.01058772 </v>
   <v>       0.85172877      -0.65223162       0.01058772 </v>
   <v>      -0.11059601      -0.69197731       0.16896231 </v>
   <v>       0.11059601       0.69197731      -0.16896231 </v>
   <v>       0.30150815      -0.65959465      -0.05755377 </v>
   <v>      -0.30150815       0.65959465       0.05755377 </v>
   <v>      -0.71535057      -0.20273139       0.16702257 </v>
   <v>       0.71535057       0.20273139      -0.16702257 </v>
   <v>       0.75296899      -0.05145164      -0.13656543 </v>
   <v>      -0.75296899       0.05145164       0.13656543 </v>
  </varray>
  <varray name="stress" >
   <v>     -59.23599003       1.15442410       5.49977160 </v>
   <v>       1.15442393     -63.03750193       1.23150947 </v>
   <v>       5.49977268       1.23150917     -57.48538604 </v>
  </varray>
  <energy>
   <i name="e_fr_energy">    -63.69270990 </i>
   <i name="e_wo_entrp">    -63.69270990 </i>
   <i name="e_0_energy">     -0.00000000 </i>
  </energy>
  <time name="totalsc">    6.10    6.26</time>
 </calculation>
 <calculation>
  <scstep>
   <time name="dav">    0.32    0.32</time>
   <time name="total">    0.46    0.51</time>
   <energy>
    <i name="alphaZ">     23.00601272 </i>
    <i name="ewald">  -2105.69763250 </i>
    <i name="hartreedc">   -752.62572679 </i>
    <i name="XCdc">   -102.88431665 </i>
    <i name="pawpsdc">   4580.65156201 </i>
    <i name="pawaedc">  -4317.87415085 </i>
    <i name="eentropy">     -0.00000000 </i>
    <i name="bandstr">   -224.89075722 </i>
    <i name="atom">   2835.52185083 </i>
    <i name="e_fr_energy">    -64.79315845 </i>
    <i name="e_wo_entrp">    -64.79315845 </i>
    <i name="e_0_energy">    -64.79315845 </i>
   </energy>
  </scstep>
  <scstep>
   <time name="dav">    0.30    0.30</time>
   <time name="total">    0.43    0.43</time>
   <energy>
    <i name="e_fr_energy">    -64.48023207 </i>
    <i name="e_wo_entrp">    -64.48023207 </i>
    <i name="e_0_energy">    -64.48023207 </i>
   </energy>
  </scstep>
  <scstep>
   <time name="dav">    0.32    0.32</time>
   <time name="total">    0.46    0.46</time>
   <energy>
    <i name="e_fr_energy">    -64.44506830 </i>
    <i name="e_wo_entrp">    -64.44506830 </i>
    <i name="e_0_energy">    -64.44506830 </i>
   </energy>
  </scstep>
  <scstep>
   <time name="dav">    0.34    0.34</time>
   <time name="total">    0.47    0.47</time>
   <energy>
    <i name="e_fr_energy">    -64.43986305 </i>
    <i name="e_wo_entrp">    -64.43986305 </i>
    <i name="e_0_energy">    -64.43986305 </i>
   </energy>
  </scstep>
  <scstep>
   <time name="dav">    0.39    0.39</time>
   <time name="total">    0.52    0.52</time>
   <energy>
    <i name="e_fr_energy">    -64.43768182 </i>
    <i name="e_wo_entrp">    -64.43768182 </i>
    <i name="e_0_energy">    -64.43768182 </i>
   </energy>
  </scstep>
  <scstep>
   <time name="dav">    0.41    0.41</time>
   <time name="total">    0.55    0.55</time>
   <energy>
    <i name="e_fr_energy">    -64.43754753 </i>
    <i name="e_wo_entrp">    -64.43754753 </i>
    <i name="e_0_energy">    -64.43754753 </i>
   </energy>
  </scstep>
  <scstep>
   <time name="dav">    0.32    0.32</time>
   <time name="total">    0.44    0.44</time>
   <energy>
    <i name="alphaZ">     23.00601272 </i>
    <i name="ewald">  -2105.69763250 </i>
    <i name="hartreedc">   -731.85833077 </i>
    <i name="XCdc">   -103.62041561 </i>
    <i name="pawpsdc">   4785.51369189 </i>
    <i name="pawaedc">  -4522.86580083 </i>
    <i name="eentropy">     -0.00000000 </i>
    <i name="bandstr">   -244.43692138 </i>
    <i name="atom">   2835.52185083 </i>
    <i name="e_fr_energy">    -64.43754565 </i>
    <i name="e_wo_entrp">    -64.43754565 </i>
    <i name="e_0_energy">    -64.43754565 </i>
   </energy>
  </scstep>
  <structure>
   <crystal>
    <varray name="basis" >
     <v>       6.37944900       0.78201539      -0.96946029 </v>
     <v>      -0.85397402       6.38819161      -0.52875332 </v>
     <v>       0.15944236       1.04429316      12.26761440 </v>
    </varray>
    <i name="volume">    513.44504699 </i>
    <varray name="rec_basis" >
     <v>       0.15370690       0.02023959      -0.00372065 </v>
     <v>      -0.02065628       0.15272363      -0.01273228 </v>
     <v>       0.01125652       0.00818208       0.08067263 </v>
    </varray>
   </crystal>
   <varray name="positions" >
    <v>       0.51698316       0.73815112       0.88068411 </v>
    <v>       0.48301684       0.26184888       0.11931589 </v>
    <v>       0.98364555       0.73776808       0.61958448 </v>
    <v>       0.01635445       0.26223192       0.38041552 </v>
    <v>       0.03854993       0.79691341       0.12130653 </v>
    <v>       0.96145007       0.20308659       0.87869347 </v>
    <v>       0.46196185       0.79638841       0.37910168 </v>
    <v>       0.53803815       0.20361159       0.62089832 </v>
    <v>       0.51626846       0.18457973       0.38452401 </v>
    <v>       0.48373154       0.81542027       0.61547599 </v>
    <v>       0.98292105       0.18501057       0.11525393 </v>
    <v>       0.01707895       0.81498943       0.88474607 </v>
    <v>       0.93069529       0.23007507       0.64478110 </v>
    <v>       0.06930471       0.76992493       0.35521890 </v>
    <v>       0.56888924       0.23046824       0.85494376 </v>
    <v>       0.43111076       0.76953176       0.14505624 </v>
   </varray>
  </structure>
  <varray name="forces" >
   <v>      -0.01716621       0.21121407      -0.17727467 </v>
   <v>       0.01716621      -0.21121407       0.17727467 </v>
   <v>      -0.04710770       0.23573771       0.14030266 </v>
   <v>       0.04710770      -0.23573771      -0.14030266 </v>
   <v>       0.40987937       0.48701297      -0.04391943 </v>
   <v>      -0.40987937      -0.48701297       0.04391943 </v>
   <v>      -0.58950726       0.35445190      -0.06989428 </v>
   <v>       0.58950726      -0.35445190       0.06989428 </v>
   <v>      -0.10189371      -0.41163044       0.03628916 </v>
   <v>       0.10189371       0.41163044      -0.03628916 </v>
   <v>       0.21732300      -0.36016255       0.03534318 </v>
   <v>      -0.21732300       0.36016255      -0.03534318 </v>
   <v>      -0.44552570      -0.15298311      -0.02484170 </v>
   <v>       0.44552570       0.15298311       0.02484170 </v>
   <v>       0.46927008      -0.04226798       0.04212400 </v>
   <v>      -0.46927008       0.04226798      -0.04212400 </v>
  </varray>
  <varray name="stress" >
   <v>     -51.27466785       0.64686247       5.52589493 </v>
   <v>       0.64686232     -54.21374491       1.19169949 </v>
   <v>       5.52589605       1.19170006     -49.50113499 </v>
  </varray>
  <energy>
   <i name="e_fr_energy">    -64.43754565 </i>
   <i name="e_wo_entrp">    -64.43754565 </i>
   <i name="e_0_energy">     -0.00000000 </i>
  </energy>
  <time name="totalsc">    3.94    4.13</time>
 </calculation>
 <calculation>
  <scstep>
   <time name="dav">    0.35    0.36</time>
   <time name="total">    0.50    0.53</time>
   <energy>
    <i name="alphaZ">     24.92929518 </i>
    <i name="ewald">  -2149.16354930 </i>
    <i name="hartreedc">   -763.36696595 </i>
    <i name="XCdc">   -100.06980975 </i>
    <i name="pawpsdc">   4786.03973259 </i>
    <i name="pawaedc">  -4523.39211960 </i>
    <i name="eentropy">     -0.00000000 </i>
    <i name="bandstr">   -177.64737171 </i>
    <i name="atom">   2835.52185083 </i>
    <i name="e_fr_energy">    -67.14893771 </i>
    <i name="e_wo_entrp">    -67.14893771 </i>
    <i name="e_0_energy">    -67.14893771 </i>
   </energy>
  </scstep>
  <scstep>
   <time name="dav">    0.35    0.35</time>
   <time name="total">    0.49    0.49</time>
   <energy>
    <i name="e_fr_energy">    -65.66078773 </i>
    <i name="e_wo_entrp">    -65.66078773 </i>
    <i name="e_0_energy">    -65.66078773 </i>
   </energy>
  </scstep>
  <scstep>
   <time name="dav">    0.40    0.40</time>
   <time name="total">    0.53    0.53</time>
   <energy>
    <i name="e_fr_energy">    -65.48480536 </i>
    <i name="e_wo_entrp">    -65.48480536 </i>
    <i name="e_0_energy">    -65.48480536 </i>
   </energy>
  </scstep>
  <scstep>
   <time name="dav">    0.42    0.42</time>
   <time name="total">    0.56    0.56</time>
   <energy>
    <i name="e_fr_energy">    -65.46504758 </i>
    <i name="e_wo_entrp">    -65.46504758 </i>
    <i name="e_0_energy">    -65.46504758 </i>
   </energy>
  </scstep>
  <scstep>
   <time name="dav">    0.42    0.42</time>
   <time name="total">    0.55    0.56</time>
   <energy>
    <i name="e_fr_energy">    -65.45160079 </i>
    <i name="e_wo_entrp">    -65.45160079 </i>
    <i name="e_0_energy">    -65.45160079 </i>
   </energy>
  </scstep>
  <scstep>
   <time name="dav">    0.34    0.34</time>
   <time name="total">    0.47    0.48</time>
   <energy>
    <i name="e_fr_energy">    -65.45147855 </i>
    <i name="e_wo_entrp">    -65.45147855 </i>
    <i name="e_0_energy">    -65.45147855 </i>
   </energy>
  </scstep>
  <scstep>
   <time name="dav">    0.38    0.38</time>
   <time name="total">    0.50    0.50</time>
   <energy>
    <i name="alphaZ">     24.92929518 </i>
    <i name="ewald">  -2149.16354930 </i>
    <i name="hartreedc">   -717.44856834 </i>
    <i name="XCdc">   -101.65765553 </i>
    <i name="pawpsdc">   5337.79987428 </i>
    <i name="pawaedc">  -5075.48309227 </i>
    <i name="eentropy">     -0.00000000 </i>
    <i name="bandstr">   -219.94954917 </i>
    <i name="atom">   2835.52185083 </i>
    <i name="e_fr_energy">    -65.45139432 </i>
    <i name="e_wo_entrp">    -65.45139432 </i>
    <i name="e_0_energy">    -65.45139432 </i>
   </energy>
  </scstep>
  <structure>
   <crystal>
    <varray name="basis" >
     <v>       6.21096853       0.76303020      -0.92884726 </v>
     <v>      -0.82969424       6.20990794      -0.51395294 </v>
     <v>       0.18588785       1.02208170      11.95795956 </v>
    </varray>
    <i name="volume">    473.83302243 </i>
    <varray name="rec_basis" >
     <v>       0.15782591       0.02073708      -0.00422588 </v>
     <v>      -0.02125990       0.15710845      -0.01309803 </v>
     <v>       0.01134555       0.00836329       0.08273510 </v>
    </varray>
   </crystal>
   <varray name="positions" >
    <v>       0.51703186       0.73888477       0.88041278 </v>
    <v>       0.48296814       0.26111523       0.11958722 </v>
    <v>       0.98358070       0.73850875       0.61985268 </v>
    <v>       0.01641930       0.26149125       0.38014732 </v>
    <v>       0.04122337       0.79955517       0.12154825 </v>
    <v>       0.95877663       0.20044483       0.87845175 </v>
    <v>       0.45949516       0.79884804       0.37899467 </v>
    <v>       0.54050484       0.20115196       0.62100533 </v>
    <v>       0.51560537       0.18236726       0.38466495 </v>
    <v>       0.48439463       0.81763274       0.61533505 </v>
    <v>       0.98361715       0.18278379       0.11511462 </v>
    <v>       0.01638285       0.81721621       0.88488538 </v>
    <v>       0.92829142       0.22969122       0.64485998 </v>
    <v>       0.07170858       0.77030878       0.35514002 </v>
    <v>       0.57130409       0.23001394       0.85488167 </v>
    <v>       0.42869591       0.76998606       0.14511833 </v>
   </varray>
  </structure>
  <varray name="forces" >
   <v>      -0.01990311       0.20049186      -0.17081237 </v>
   <v>       0.01990311      -0.20049186       0.17081237 </v>
   <v>      -0.04103452       0.22521728       0.13731391 </v>
   <v>       0.04103452      -0.22521728      -0.13731391 </v>
   <v>      -0.45661090      -0.40039915       0.10472188 </v>
   <v>       0.45661090       0.40039915      -0.10472188 </v>
   <v>       0.56951328      -0.25077703       0.01634866 </v>
   <v>      -0.56951328       0.25077703      -0.01634866 </v>
   <v>      -0.13159859       0.40130081      -0.26771604 </v>
   <v>       0.13159859      -0.40130081       0.26771604 </v>
   <v>       0.01923348       0.47408239       0.20757870 </v>
   <v>      -0.01923348      -0.47408239      -0.20757870 </v>
   <v>       0.34261213      -0.08590063      -0.36104600 </v>
   <v>      -0.34261213       0.08590063       0.36104600 </v>
   <v>      -0.32873938      -0.13033015       0.36882354 </v>
   <v>       0.32873938       0.13033015      -0.36882354 </v>
  </varray>
  <varray name="stress" >
   <v>     -20.77353064       1.72939311       6.03439860 </v>
   <v>       1.72939322     -26.31414505       0.95411562 </v>
   <v>       6.03439919       0.95411574     -28.12078180 </v>
  </varray>
  <energy>
   <i name="e_fr_energy">    -65.45139432 </i>
   <i name="e_wo_entrp">    -65.45139432 </i>
   <i name="e_0_energy">     -0.00000000 </i>
  </energy>
  <time name="totalsc">    4.20    4.43</time>
 </calculation>
 <calculation>
  <scstep>
   <time name="dav">    0.41    0.41</time>
   <time name="total">    0.56    0.64</time>
   <energy>
    <i name="alphaZ">     29.47161302 </i>
    <i name="ewald">  -2241.23918118 </i>
    <i name="hartreedc">   -783.77111790 </i>
    <i name="XCdc">    -94.10640423 </i>
    <i name="pawpsdc">   5327.95997978 </i>
    <i name="pawaedc">  -5065.65059163 </i>
    <i name="eentropy">     -0.00000000 </i>
    <i name="bandstr">    -78.90368047 </i>
    <i name="atom">   2835.52185083 </i>
    <i name="e_fr_energy">    -70.71753178 </i>
    <i name="e_wo_entrp">    -70.71753178 </i>
    <i name="e_0_energy">    -70.71753178 </i>
   </energy>
  </scstep>
  <scstep>
   <time name="dav">    0.38    0.38</time>
   <time name="total">    0.52    0.52</time>
   <energy>
    <i name="e_fr_energy">    -64.67317203 </i>
    <i name="e_wo_entrp">    -64.67317203 </i>
    <i name="e_0_energy">    -64.67317203 </i>
   </energy>
  </scstep>
  <scstep>
   <time name="dav">    0.45    0.46</time>
   <time name="total">    0.59    0.59</time>
   <energy>
    <i name="e_fr_energy">    -63.83225680 </i>
    <i name="e_wo_entrp">    -63.83225680 </i>
    <i name="e_0_energy">    -63.83225680 </i>
   </energy>
  </scstep>
  <scstep>
   <time name="dav">    0.37    0.37</time>
   <time name="total">    0.51    0.51</time>
   <energy>
    <i name="e_fr_energy">    -63.78379213 </i>
    <i name="e_wo_entrp">    -63.78379213 </i>
    <i name="e_0_energy">    -63.78379213 </i>
   </energy>
  </scstep>
  <scstep>
   <time name="dav">    0.43    0.43</time>
   <time name="total">    0.56    0.56</time>
   <energy>
    <i name="e_fr_energy">    -63.72351962 </i>
    <i name="e_wo_entrp">    -63.72351962 </i>
    <i name="e_0_energy">    -63.72351962 </i>
   </energy>
  </scstep>
  <scstep>
   <time name="dav">    0.38    0.38</time>
   <time name="total">    0.51    0.51</time>
   <energy>
    <i name="e_fr_energy">    -63.72355210 </i>
    <i name="e_wo_entrp">    -63.72355210 </i>
    <i name="e_0_energy">    -63.72355210 </i>
   </energy>
  </scstep>
  <scstep>
   <time name="dav">    0.40    0.40</time>
   <time name="total">    0.54    0.54</time>
   <energy>
    <i name="e_fr_energy">    -63.72313343 </i>
    <i name="e_wo_entrp">    -63.72313343 </i>
    <i name="e_0_energy">    -63.72313343 </i>
   </energy>
  </scstep>
  <scstep>
   <time name="dav">    0.41    0.41</time>
   <time name="total">    0.53    0.53</time>
   <energy>
    <i name="alphaZ">     29.47161302 </i>
    <i name="ewald">  -2241.23918118 </i>
    <i name="hartreedc">   -688.67595170 </i>
    <i name="XCdc">    -97.22098198 </i>
    <i name="pawpsdc">   7057.03654719 </i>
    <i name="pawaedc">  -6795.70035794 </i>
    <i name="eentropy">     -0.00000000 </i>
    <i name="bandstr">   -162.91666547 </i>
    <i name="atom">   2835.52185083 </i>
    <i name="e_fr_energy">    -63.72312723 </i>
    <i name="e_wo_entrp">    -63.72312723 </i>
    <i name="e_0_energy">    -63.72312723 </i>
   </energy>
  </scstep>
  <structure>
   <crystal>
    <varray name="basis" >
     <v>       5.87400758       0.72505983      -0.84762120 </v>
     <v>      -0.78113468       5.85334060      -0.48435217 </v>
     <v>       0.23877882       0.97765878      11.33864989 </v>
    </varray>
    <i name="volume">    400.80341978 </i>
    <varray name="rec_basis" >
     <v>       0.16677131       0.02180959      -0.00539251 </v>
     <v>      -0.02257936       0.16667949      -0.01389620 </v>
     <v>       0.01150247       0.00875041       0.08719720 </v>
    </varray>
   </crystal>
   <varray name="positions" >
    <v>       0.51713452       0.74039421       0.87985616 </v>
    <v>       0.48286548       0.25960579       0.12014384 </v>
    <v>       0.98344468       0.74003264       0.62040293 </v>
    <v>       0.01655532       0.25996736       0.37959707 </v>
    <v>       0.04671263       0.80499007       0.12203708 </v>
    <v>       0.95328737       0.19500993       0.87796292 </v>
    <v>       0.45442851       0.80390893       0.37878151 </v>
    <v>       0.54557149       0.19609107       0.62121849 </v>
    <v>       0.51424208       0.17781533       0.38495578 </v>
    <v>       0.48575792       0.82218467       0.61504422 </v>
    <v>       0.98504887       0.17820223       0.11482714 </v>
    <v>       0.01495113       0.82179777       0.88517286 </v>
    <v>       0.92335239       0.22890179       0.64502797 </v>
    <v>       0.07664761       0.77109821       0.35497203 </v>
    <v>       0.57626565       0.22907893       0.85474809 </v>
    <v>       0.42373435       0.77092107       0.14525191 </v>
   </varray>
  </structure>
  <varray name="forces" >
   <v>      -0.03696141       0.15046909      -0.14198425 </v>
   <v>       0.03696141      -0.15046909       0.14198425 </v>
   <v>      -0.00960356       0.17687734       0.12074554 </v>
   <v>       0.00960356      -0.17687734      -0.12074554 </v>
   <v>      -2.61880427      -3.90896973       0.46245805 </v>
   <v>       2.61880427       3.90896973      -0.46245805 </v>
   <v>       3.43711695      -3.03664404       0.14963847 </v>
   <v>      -3.43711695       3.03664404      -0.14963847 </v>
   <v>      -0.13090188       3.37765859      -1.35870929 </v>
   <v>       0.13090188      -3.37765859       1.35870929 </v>
   <v>      -0.81870511       3.54729627       0.77368190 </v>
   <v>       0.81870511      -3.54729627      -0.77368190 </v>
   <v>       3.22132771       0.50359062      -1.31374720 </v>
   <v>      -3.22132771      -0.50359062       1.31374720 </v>
   <v>      -3.36762021      -0.15860383       1.27020116 </v>
   <v>       3.36762021       0.15860383      -1.27020116 </v>
  </varray>
  <varray name="stress" >
   <v>      98.52312891      -0.03823256       8.21566548 </v>
   <v>      -0.03823243      95.15171844      -2.36801906 </v>
   <v>       8.21567000      -2.36801810      50.51782996 </v>
  </varray>
  <energy>
   <i name="e_fr_energy">    -63.72312723 </i>
   <i name="e_wo_entrp">    -63.72312723 </i>
   <i name="e_0_energy">     -0.00000000 </i>
  </energy>
  <time name="totalsc">    4.98    5.21</time>
 </calculation>
 <calculation>
  <scstep>
   <time name="dav">    0.33    0.33</time>
   <time name="total">    0.48    0.51</time>
   <energy>
    <i name="alphaZ">     25.61265310 </i>
    <i name="ewald">  -2165.41644750 </i>
    <i name="hartreedc">   -635.75693980 </i>
    <i name="XCdc">   -103.49292536 </i>
    <i name="pawpsdc">   7049.52074204 </i>
    <i name="pawaedc">  -6788.18652833 </i>
    <i name="eentropy">     -0.00000000 </i>
    <i name="bandstr">   -288.27975839 </i>
    <i name="atom">   2835.52185083 </i>
    <i name="e_fr_energy">    -70.47735343 </i>
    <i name="e_wo_entrp">    -70.47735343 </i>
    <i name="e_0_energy">    -70.47735343 </i>
   </energy>
  </scstep>
  <scstep>
   <time name="dav">    0.32    0.32</time>
   <time name="total">    0.46    0.46</time>
   <energy>
    <i name="e_fr_energy">    -66.25935590 </i>
    <i name="e_wo_entrp">    -66.25935590 </i>
    <i name="e_0_energy">    -66.25935590 </i>
   </energy>
  </scstep>
  <scstep>
   <time name="dav">    0.41    0.41</time>
   <time name="total">    0.54    0.54</time>
   <energy>
    <i name="e_fr_energy">    -65.67404749 </i>
    <i name="e_wo_entrp">    -65.67404749 </i>
    <i name="e_0_energy">    -65.67404749 </i>
   </energy>
  </scstep>
  <scstep>
   <time name="dav">    0.42    0.42</time>
   <time name="total">    0.56    0.56</time>
   <energy>
    <i name="e_fr_energy">    -65.60393740 </i>
    <i name="e_wo_entrp">    -65.60393740 </i>
    <i name="e_0_energy">    -65.60393740 </i>
   </energy>
  </scstep>
  <scstep>
   <time name="dav">    0.43    0.43</time>
   <time name="total">    0.57    0.57</time>
   <energy>
    <i name="e_fr_energy">    -65.58116595 </i>
    <i name="e_wo_entrp">    -65.58116595 </i>
    <i name="e_0_energy">    -65.58116595 </i>
   </energy>
  </scstep>
  <scstep>
   <time name="dav">    0.37    0.37</time>
   <time name="total">    0.50    0.50</time>
   <energy>
    <i name="e_fr_energy">    -65.57880262 </i>
    <i name="e_wo_entrp">    -65.57880262 </i>
    <i name="e_0_energy">    -65.57880262 </i>
   </energy>
  </scstep>
  <scstep>
   <time name="dav">    0.36    0.36</time>
   <time name="total">    0.49    0.49</time>
   <energy>
    <i name="e_fr_energy">    -65.57865740 </i>
    <i name="e_wo_entrp">    -65.57865740 </i>
    <i name="e_0_energy">    -65.57865740 </i>
   </energy>
  </scstep>
  <scstep>
   <time name="dav">    0.34    0.34</time>
   <time name="total">    0.46    0.46</time>
   <energy>
    <i name="alphaZ">     25.61265310 </i>
    <i name="ewald">  -2165.41644750 </i>
    <i name="hartreedc">   -711.27631112 </i>
    <i name="XCdc">   -101.00782112 </i>
    <i name="pawpsdc">   5528.19784590 </i>
    <i name="pawaedc">  -5266.01003830 </i>
    <i name="eentropy">     -0.00000000 </i>
    <i name="bandstr">   -211.20040440 </i>
    <i name="atom">   2835.52185083 </i>
    <i name="e_fr_energy">    -65.57867262 </i>
    <i name="e_wo_entrp">    -65.57867262 </i>
    <i name="e_0_energy">    -65.57867262 </i>
   </energy>
  </scstep>
  <structure>
   <crystal>
    <varray name="basis" >
     <v>       6.15523611       0.75675001      -0.91541269 </v>
     <v>      -0.82166262       6.15093268      -0.50905705 </v>
     <v>       0.19463587       1.01473428      11.85552744 </v>
    </varray>
    <i name="volume">    461.19092929 </i>
    <varray name="rec_basis" >
     <v>       0.15923797       0.02090710      -0.00440373 </v>
     <v>      -0.02146740       0.15861488      -0.01322367 </v>
     <v>       0.01137363       0.00842499       0.08344101 </v>
    </varray>
   </crystal>
   <varray name="positions" >
    <v>       0.51703892       0.73905766       0.88034598 </v>
    <v>       0.48296108       0.26094234       0.11965402 </v>
    <v>       0.98357007       0.73868328       0.61991869 </v>
    <v>       0.01642993       0.26131672       0.38008131 </v>
    <v>       0.04187332       0.80017836       0.12162041 </v>
    <v>       0.95812668       0.19982164       0.87837959 </v>
    <v>       0.45889883       0.79942706       0.37895691 </v>
    <v>       0.54110117       0.20057294       0.62104309 </v>
    <v>       0.51544737       0.18184573       0.38469666 </v>
    <v>       0.48455263       0.81815427       0.61530334 </v>
    <v>       0.98378198       0.18225921       0.11508334 </v>
    <v>       0.01621802       0.81774079       0.88491666 </v>
    <v>       0.92771285       0.22960018       0.64486836 </v>
    <v>       0.07228715       0.77039982       0.35513164 </v>
    <v>       0.57188540       0.22990747       0.85487746 </v>
    <v>       0.42811460       0.77009253       0.14512254 </v>
   </varray>
  </structure>
  <varray name="forces" >
   <v>      -0.02256208       0.19432398      -0.16768184 </v>
   <v>       0.02256208      -0.19432398       0.16768184 </v>
   <v>      -0.03691988       0.21939053       0.13557776 </v>
   <v>       0.03691988      -0.21939053      -0.13557776 </v>
   <v>      -0.59387044      -0.72392727      -0.02170947 </v>
   <v>       0.59387044       0.72392727       0.02170947 </v>
   <v>       0.79359648      -0.47568607       0.10934161 </v>
   <v>      -0.79359648       0.47568607      -0.10934161 </v>
   <v>      -0.14737314       0.70643347      -0.40539034 </v>
   <v>       0.14737314      -0.70643347       0.40539034 </v>
   <v>      -0.05665852       0.79337315       0.29172209 </v>
   <v>       0.05665852      -0.79337315      -0.29172209 </v>
   <v>       0.66288572      -0.04267705      -0.49224857 </v>
   <v>      -0.66288572       0.04267705       0.49224857 </v>
   <v>      -0.66731000      -0.13019756       0.48482499 </v>
   <v>       0.66731000       0.13019756      -0.48482499 </v>
  </varray>
  <varray name="stress" >
   <v>      -8.53572455       1.45448266       5.89601879 </v>
   <v>       1.45448304     -14.25241240      -0.03093825 </v>
   <v>       5.89602023      -0.03093791     -19.45048566 </v>
  </varray>
  <energy>
   <i name="e_fr_energy">    -65.57867262 </i>
   <i name="e_wo_entrp">    -65.57867262 </i>
   <i name="e_0_energy">     -0.00000000 </i>
  </energy>
  <time name="totalsc">    4.67    4.78</time>
 </calculation>
 <calculation>
  <scstep>
   <time name="dav">    0.36    0.37</time>
   <time name="total">    0.50    0.55</time>
   <energy>
    <i name="alphaZ">     25.90883822 </i>
    <i name="ewald">  -2171.66716846 </i>
    <i name="hartreedc">   -715.75130879 </i>
    <i name="XCdc">   -100.49505641 </i>
    <i name="pawpsdc">   5528.20784624 </i>
    <i name="pawaedc">  -5266.01845982 </i>
    <i name="eentropy">     -0.00000000 </i>
    <i name="bandstr">   -201.33024670 </i>
    <i name="atom">   2835.52185083 </i>
    <i name="e_fr_energy">    -65.62370489 </i>
    <i name="e_wo_entrp">    -65.62370489 </i>
    <i name="e_0_energy">    -65.62370489 </i>
   </energy>
  </scstep>
  <scstep>
   <time name="dav">    0.34    0.34</time>
   <time name="total">    0.48    0.48</time>
   <energy>
    <i name="e_fr_energy">    -65.59416167 </i>
    <i name="e_wo_entrp">    -65.59416167 </i>
    <i name="e_0_energy">    -65.59416167 </i>
   </energy>
  </scstep>
  <scstep>
   <time name="dav">    0.40    0.40</time>
   <time name="total">    0.53    0.53</time>
   <energy>
    <i name="e_fr_energy">    -65.59049923 </i>
    <i name="e_wo_entrp">    -65.59049923 </i>
    <i name="e_0_energy">    -65.59049923 </i>
   </energy>
  </scstep>
  <scstep>
   <time name="dav">    0.36    0.36</time>
   <time name="total">    0.49    0.49</time>
   <energy>
    <i name="e_fr_energy">    -65.59008391 </i>
    <i name="e_wo_entrp">    -65.59008391 </i>
    <i name="e_0_energy">    -65.59008391 </i>
   </energy>
  </scstep>
  <scstep>
   <time name="dav">    0.35    0.35</time>
   <time name="total">    0.49    0.49</time>
   <energy>
    <i name="e_fr_energy">    -65.58993132 </i>
    <i name="e_wo_entrp">    -65.58993132 </i>
    <i name="e_0_energy">    -65.58993132 </i>
   </energy>
  </scstep>
  <scstep>
   <time name="dav">    0.25    0.25</time>
   <time name="total">    0.37    0.37</time>
   <energy>
    <i name="alphaZ">     25.90883822 </i>
    <i name="ewald">  -2171.66716846 </i>
    <i name="hartreedc">   -709.42353050 </i>
    <i name="XCdc">   -100.70768038 </i>
    <i name="pawpsdc">   5633.94884398 </i>
    <i name="pawaedc">  -5371.81221097 </i>
    <i name="eentropy">     -0.00000000 </i>
    <i name="bandstr">   -207.35887673 </i>
    <i name="atom">   2835.52185083 </i>
    <i name="e_fr_energy">    -65.58993402 </i>
    <i name="e_wo_entrp">    -65.58993402 </i>
    <i name="e_0_energy">    -65.58993402 </i>
   </energy>
  </scstep>
  <structure>
   <crystal>
    <varray name="basis" >
     <v>       6.13169372       0.75409714      -0.90973768 </v>
     <v>      -0.81826992       6.12602045      -0.50698894 </v>
     <v>       0.19833120       1.01163059      11.81225824 </v>
    </varray>
    <i name="volume">    455.91867855 </i>
    <varray name="rec_basis" >
     <v>       0.15984215       0.02097976      -0.00448055 </v>
     <v>      -0.02155628       0.15925993      -0.01327747 </v>
     <v>       0.01138526       0.00845131       0.08374286 </v>
    </varray>
   </crystal>
   <varray name="positions" >
    <v>       0.51704622       0.73916414       0.88030675 </v>
    <v>       0.48295378       0.26083586       0.11969325 </v>
    <v>       0.98356041       0.73879077       0.61995747 </v>
    <v>       0.01643959       0.26120923       0.38004253 </v>
    <v>       0.04226025       0.80056171       0.12165469 </v>
    <v>       0.95773975       0.19943829       0.87834531 </v>
    <v>       0.45854164       0.79978405       0.37894204 </v>
    <v>       0.54145836       0.20021595       0.62105796 </v>
    <v>       0.51535123       0.18152465       0.38471719 </v>
    <v>       0.48464877       0.81847535       0.61528281 </v>
    <v>       0.98388296       0.18193604       0.11506304 </v>
    <v>       0.01611704       0.81806396       0.88493696 </v>
    <v>       0.92736463       0.22954450       0.64488035 </v>
    <v>       0.07263537       0.77045550       0.35511965 </v>
    <v>       0.57223521       0.22984151       0.85486790 </v>
    <v>       0.42776479       0.77015849       0.14513210 </v>
   </varray>
  </structure>
  <varray name="forces" >
   <v>      -0.02300077       0.19125509      -0.16572936 </v>
   <v>       0.02300077      -0.19125509       0.16572936 </v>
   <v>      -0.03530665       0.21657794       0.13450128 </v>
   <v>       0.03530665      -0.21657794      -0.13450128 </v>
   <v>      -0.78974759      -1.04533905      -0.03058515 </v>
   <v>       0.78974759       1.04533905       0.03058515 </v>
   <v>       1.01861298      -0.62481092       0.14222157 </v>
   <v>      -1.01861298       0.62481092      -0.14222157 </v>
   <v>      -0.16389724       0.87346575      -0.46111105 </v>
   <v>       0.16389724      -0.87346575       0.46111105 </v>
   <v>      -0.08887878       0.97352204       0.32484632 </v>
   <v>       0.08887878      -0.97352204      -0.32484632 </v>
   <v>       0.82794915      -0.01228592      -0.54921511 </v>
   <v>      -0.82794915       0.01228592       0.54921511 </v>
   <v>      -0.86691570      -0.13527861       0.54315714 </v>
   <v>       0.86691570       0.13527861      -0.54315714 </v>
  </varray>
  <varray name="stress" >
   <v>      -2.41767538       1.37938935       6.56312490 </v>
   <v>       1.37938939      -8.49642127      -0.18041548 </v>
   <v>       6.56312690      -0.18041489     -15.80699620 </v>
  </varray>
  <energy>
   <i name="e_fr_energy">    -65.58993402 </i>
   <i name="e_wo_entrp">    -65.58993402 </i>
   <i name="e_0_energy">     -0.00000000 </i>
  </energy>
  <time name="totalsc">    3.46    3.75</time>
 </calculation>
 <calculation>
  <scstep>
   <time name="dav">    0.35    0.35</time>
   <time name="total">    0.48    0.60</time>
   <energy>
    <i name="alphaZ">     26.43463950 </i>
    <i name="ewald">  -2199.25341277 </i>
    <i name="hartreedc">   -703.46682091 </i>
    <i name="XCdc">   -100.14381131 </i>
    <i name="pawpsdc">   5629.72239380 </i>
    <i name="pawaedc">  -5367.59264163 </i>
    <i name="eentropy">     -0.00000000 </i>
    <i name="bandstr">   -187.17056912 </i>
    <i name="atom">   2835.52185083 </i>
    <i name="e_fr_energy">    -65.94837162 </i>
    <i name="e_wo_entrp">    -65.94837162 </i>
    <i name="e_0_energy">    -65.94837162 </i>
   </energy>
  </scstep>
  <scstep>
   <time name="dav">    0.38    0.38</time>
   <time name="total">    0.52    0.52</time>
   <energy>
    <i name="e_fr_energy">    -65.86195920 </i>
    <i name="e_wo_entrp">    -65.86195920 </i>
    <i name="e_0_energy">    -65.86195920 </i>
   </energy>
  </scstep>
  <scstep>
   <time name="dav">    0.38    0.38</time>
   <time name="total">    0.51    0.52</time>
   <energy>
    <i name="e_fr_energy">    -65.84440108 </i>
    <i name="e_wo_entrp">    -65.84440108 </i>
    <i name="e_0_energy">    -65.84440108 </i>
   </energy>
  </scstep>
  <scstep>
   <time name="dav">    0.44    0.44</time>
   <time name="total">    0.57    0.57</time>
   <energy>
    <i name="e_fr_energy">    -65.84132344 </i>
    <i name="e_wo_entrp">    -65.84132344 </i>
    <i name="e_0_energy">    -65.84132344 </i>
   </energy>
  </scstep>
  <scstep>
   <time name="dav">    0.45    0.45</time>
   <time name="total">    0.59    0.59</time>
   <energy>
    <i name="e_fr_energy">    -65.84052464 </i>
    <i name="e_wo_entrp">    -65.84052464 </i>
    <i name="e_0_energy">    -65.84052464 </i>
   </energy>
  </scstep>
  <scstep>
   <time name="dav">    0.30    0.30</time>
   <time name="total">    0.42    0.42</time>
   <energy>
    <i name="alphaZ">     26.43463950 </i>
    <i name="ewald">  -2199.25341277 </i>
    <i name="hartreedc">   -691.08914591 </i>
    <i name="XCdc">   -100.55545141 </i>
    <i name="pawpsdc">   5643.59721553 </i>
    <i name="pawaedc">  -5381.45751772 </i>
    <i name="eentropy">     -0.00000000 </i>
    <i name="bandstr">   -199.03870554 </i>
    <i name="atom">   2835.52185083 </i>
    <i name="e_fr_energy">    -65.84052749 </i>
    <i name="e_wo_entrp">    -65.84052749 </i>
    <i name="e_0_energy">    -65.84052749 </i>
   </energy>
  </scstep>
  <structure>
   <crystal>
    <varray name="basis" >
     <v>       6.10059263       0.75182879      -0.88836715 </v>
     <v>      -0.81260428       6.08412727      -0.50431794 </v>
     <v>       0.22417422       1.00528375      11.71300333 </v>
    </varray>
    <i name="volume">    446.85017492 </i>
    <varray name="rec_basis" >
     <v>       0.16061398       0.02104728      -0.00488039 </v>
     <v>      -0.02170579       0.16035668      -0.01334740 </v>
     <v>       0.01124712       0.00850068       0.08443036 </v>
    </varray>
   </crystal>
   <varray name="positions" >
    <v>       0.51707169       0.73981065       0.88006370 </v>
    <v>       0.48292831       0.26018935       0.11993630 </v>
    <v>       0.98352238       0.73944338       0.62020266 </v>
    <v>       0.01647762       0.26055662       0.37979734 </v>
    <v>       0.04036338       0.79864471       0.12137154 </v>
    <v>       0.95963662       0.20135529       0.87862846 </v>
    <v>       0.46048912       0.79824315       0.37921329 </v>
    <v>       0.53951088       0.20175685       0.62078671 </v>
    <v>       0.51514907       0.18350860       0.38421736 </v>
    <v>       0.48485093       0.81649140       0.61578264 </v>
    <v>       0.98407417       0.18397897       0.11558402 </v>
    <v>       0.01592583       0.81602103       0.88441598 </v>
    <v>       0.92909264       0.22928274       0.64431429 </v>
    <v>       0.07090736       0.77071726       0.35568571 </v>
    <v>       0.57036200       0.22960658       0.85540198 </v>
    <v>       0.42963800       0.77039342       0.14459802 </v>
   </varray>
  </structure>
  <varray name="forces" >
   <v>      -0.03041094       0.18530385      -0.15750915 </v>
   <v>       0.03041094      -0.18530385       0.15750915 </v>
   <v>      -0.02727683       0.21142533       0.12731232 </v>
   <v>       0.02727683      -0.21142533      -0.12731232 </v>
   <v>      -0.71415978      -0.85611973       0.12136770 </v>
   <v>       0.71415978       0.85611973      -0.12136770 </v>
   <v>       0.85292990      -0.53164176      -0.02981618 </v>
   <v>      -0.85292990       0.53164176       0.02981618 </v>
   <v>      -0.13405648       0.84094103      -0.50899116 </v>
   <v>       0.13405648      -0.84094103       0.50899116 </v>
   <v>      -0.09174233       0.91922150       0.36436635 </v>
   <v>       0.09174233      -0.91922150      -0.36436635 </v>
   <v>       0.71677801       0.00836044      -0.56074620 </v>
   <v>      -0.71677801      -0.00836044       0.56074620 </v>
   <v>      -0.73340869      -0.09073734       0.56058326 </v>
   <v>       0.73340869       0.09073734      -0.56058326 </v>
  </varray>
  <varray name="stress" >
   <v>      -5.44324504       1.20909329       6.83994123 </v>
   <v>       1.20909355      -9.35483500       1.15596062 </v>
   <v>       6.83994290       1.15596168      -9.88880138 </v>
  </varray>
  <energy>
   <i name="e_fr_energy">    -65.84052749 </i>
   <i name="e_wo_entrp">    -65.84052749 </i>
   <i name="e_0_energy">     -0.00000000 </i>
  </energy>
  <time name="totalsc">    3.69    4.18</time>
 </calculation>
 <calculation>
  <scstep>
   <time name="dav">    0.32    0.32</time>
   <time name="total">    0.45    0.67</time>
   <energy>
    <i name="alphaZ">     28.10302367 </i>
    <i name="ewald">  -2282.06938666 </i>
    <i name="hartreedc">   -674.37508875 </i>
    <i name="XCdc">    -98.81108834 </i>
    <i name="pawpsdc">   5628.37060046 </i>
    <i name="pawaedc">  -5366.24139439 </i>
    <i name="eentropy">     -0.00000000 </i>
    <i name="bandstr">   -137.91359462 </i>
    <i name="atom">   2835.52185083 </i>
    <i name="e_fr_energy">    -67.41507781 </i>
    <i name="e_wo_entrp">    -67.41507781 </i>
    <i name="e_0_energy">    -67.41507781 </i>
   </energy>
  </scstep>
  <scstep>
   <time name="dav">    0.38    0.38</time>
   <time name="total">    0.52    0.52</time>
   <energy>
    <i name="e_fr_energy">    -66.61831526 </i>
    <i name="e_wo_entrp">    -66.61831526 </i>
    <i name="e_0_energy">    -66.61831526 </i>
   </energy>
  </scstep>
  <scstep>
   <time name="dav">    0.39    0.39</time>
   <time name="total">    0.52    0.52</time>
   <energy>
    <i name="e_fr_energy">    -66.45741293 </i>
    <i name="e_wo_entrp">    -66.45741293 </i>
    <i name="e_0_energy">    -66.45741293 </i>
   </energy>
  </scstep>
  <scstep>
   <time name="dav">    0.45    0.45</time>
   <time name="total">    0.59    0.59</time>
   <energy>
    <i name="e_fr_energy">    -66.43604023 </i>
    <i name="e_wo_entrp">    -66.43604023 </i>
    <i name="e_0_energy">    -66.43604023 </i>
   </energy>
  </scstep>
  <scstep>
   <time name="dav">    0.38    0.38</time>
   <time name="total">    0.51    0.51</time>
   <energy>
    <i name="e_fr_energy">    -66.42663631 </i>
    <i name="e_wo_entrp">    -66.42663631 </i>
    <i name="e_0_energy">    -66.42663631 </i>
   </energy>
  </scstep>
  <scstep>
   <time name="dav">    0.35    0.35</time>
   <time name="total">    0.48    0.48</time>
   <energy>
    <i name="e_fr_energy">    -66.42643027 </i>
    <i name="e_wo_entrp">    -66.42643027 </i>
    <i name="e_0_energy">    -66.42643027 </i>
   </energy>
  </scstep>
  <scstep>
   <time name="dav">    0.31    0.31</time>
   <time name="total">    0.43    0.43</time>
   <energy>
    <i name="alphaZ">     28.10302367 </i>
    <i name="ewald">  -2282.06938666 </i>
    <i name="hartreedc">   -637.51025336 </i>
    <i name="XCdc">   -100.00545603 </i>
    <i name="pawpsdc">   5672.82304238 </i>
    <i name="pawaedc">  -5410.71264234 </i>
    <i name="eentropy">     -0.00000000 </i>
    <i name="bandstr">   -172.57661472 </i>
    <i name="atom">   2835.52185083 </i>
    <i name="e_fr_energy">    -66.42643623 </i>
    <i name="e_wo_entrp">    -66.42643623 </i>
    <i name="e_0_energy">    -66.42643623 </i>
   </energy>
  </scstep>
  <structure>
   <crystal>
    <varray name="basis" >
     <v>       6.00728938       0.74502376      -0.82425554 </v>
     <v>      -0.79560737       5.95844774      -0.49630496 </v>
     <v>       0.30170328       0.98624326      11.41523862 </v>
    </varray>
    <i name="volume">    420.32214832 </i>
    <varray name="rec_basis" >
     <v>       0.16298589       0.02125111      -0.00614373 </v>
     <v>      -0.02216762       0.16373946      -0.01356072 </v>
     <v>       0.01080487       0.00865344       0.08656900 </v>
    </varray>
   </crystal>
   <varray name="positions" >
    <v>       0.51715173       0.74176333       0.87932862 </v>
    <v>       0.48284827       0.25823667       0.12067138 </v>
    <v>       0.98340435       0.74141487       0.62094451 </v>
    <v>       0.01659565       0.25858513       0.37905549 </v>
    <v>       0.03464737       0.79285408       0.12052294 </v>
    <v>       0.96535263       0.20714592       0.87947706 </v>
    <v>       0.46635801       0.79358874       0.38002496 </v>
    <v>       0.53364199       0.20641126       0.61997504 </v>
    <v>       0.51454614       0.18950099       0.38270693 </v>
    <v>       0.48545386       0.81049901       0.61729307 </v>
    <v>       0.98464360       0.19015028       0.11715927 </v>
    <v>       0.01535640       0.80984972       0.88284073 </v>
    <v>       0.93431100       0.22849150       0.64259479 </v>
    <v>       0.06568900       0.77150850       0.35740521 </v>
    <v>       0.56470624       0.22889748       0.85702529 </v>
    <v>       0.43529376       0.77110252       0.14297471 </v>
   </varray>
  </structure>
  <varray name="forces" >
   <v>      -0.04849928       0.16386481      -0.12819262 </v>
   <v>       0.04849928      -0.16386481       0.12819262 </v>
   <v>      -0.00386777       0.19163762       0.10314696 </v>
   <v>       0.00386777      -0.19163762      -0.10314696 </v>
   <v>      -0.35355051      -0.72516663       0.23226546 </v>
   <v>       0.35355051       0.72516663      -0.23226546 </v>
   <v>       0.62498609      -0.60469596      -0.08863487 </v>
   <v>      -0.62498609       0.60469596       0.08863487 </v>
   <v>      -0.10305293       0.71023153      -0.67930045 </v>
   <v>       0.10305293      -0.71023153       0.67930045 </v>
   <v>      -0.07894266       0.74529941       0.54994873 </v>
   <v>       0.07894266      -0.74529941      -0.54994873 </v>
   <v>       0.42917960       0.01293801      -0.73915708 </v>
   <v>      -0.42917960      -0.01293801       0.73915708 </v>
   <v>      -0.44141086       0.00783630       0.74185456 </v>
   <v>       0.44141086      -0.00783630      -0.74185456 </v>
  </varray>
  <varray name="stress" >
   <v>     -14.00771137       0.56336927       8.61351187 </v>
   <v>       0.56337031     -11.11550591       3.18085473 </v>
   <v>       8.61351343       3.18085466      10.99455147 </v>
  </varray>
  <energy>
   <i name="e_fr_energy">    -66.42643623 </i>
   <i name="e_wo_entrp">    -66.42643623 </i>
   <i name="e_0_energy">     -0.00000000 </i>
  </energy>
  <time name="totalsc">    4.15    4.68</time>
 </calculation>
 <calculation>
  <scstep>
   <time name="dav">    0.34    0.34</time>
   <time name="total">    0.47    0.50</time>
   <energy>
    <i name="alphaZ">     31.90312787 </i>
    <i name="ewald">  -2448.12945635 </i>
    <i name="hartreedc">   -608.73120667 </i>
    <i name="XCdc">    -96.23432747 </i>
    <i name="pawpsdc">   5681.17332529 </i>
    <i name="pawaedc">  -5419.05940609 </i>
    <i name="eentropy">     -0.00000000 </i>
    <i name="bandstr">    -47.41103550 </i>
    <i name="atom">   2835.52185083 </i>
    <i name="e_fr_energy">    -70.96712811 </i>
    <i name="e_wo_entrp">    -70.96712811 </i>
    <i name="e_0_energy">    -70.96712811 </i>
   </energy>
  </scstep>
  <scstep>
   <time name="dav">    0.39    0.40</time>
   <time name="total">    0.53    0.53</time>
   <energy>
    <i name="e_fr_energy">    -67.71716265 </i>
    <i name="e_wo_entrp">    -67.71716265 </i>
    <i name="e_0_energy">    -67.71716265 </i>
   </energy>
  </scstep>
  <scstep>
   <time name="dav">    0.39    0.39</time>
   <time name="total">    0.53    0.53</time>
   <energy>
    <i name="e_fr_energy">    -67.06178475 </i>
    <i name="e_wo_entrp">    -67.06178475 </i>
    <i name="e_0_energy">    -67.06178475 </i>
   </energy>
  </scstep>
  <scstep>
   <time name="dav">    0.36    0.36</time>
   <time name="total">    0.49    0.49</time>
   <energy>
    <i name="e_fr_energy">    -67.00399076 </i>
    <i name="e_wo_entrp">    -67.00399076 </i>
    <i name="e_0_energy">    -67.00399076 </i>
   </energy>
  </scstep>
  <scstep>
   <time name="dav">    0.40    0.40</time>
   <time name="total">    0.53    0.53</time>
   <energy>
    <i name="e_fr_energy">    -66.94878443 </i>
    <i name="e_wo_entrp">    -66.94878443 </i>
    <i name="e_0_energy">    -66.94878443 </i>
   </energy>
  </scstep>
  <scstep>
   <time name="dav">    0.45    0.45</time>
   <time name="total">    0.59    0.59</time>
   <energy>
    <i name="e_fr_energy">    -66.94776510 </i>
    <i name="e_wo_entrp">    -66.94776510 </i>
    <i name="e_0_energy">    -66.94776510 </i>
   </energy>
  </scstep>
  <scstep>
   <time name="dav">    0.43    0.43</time>
   <time name="total">    0.55    0.55</time>
   <energy>
    <i name="alphaZ">     31.90312787 </i>
    <i name="ewald">  -2448.12945635 </i>
    <i name="hartreedc">   -537.46610139 </i>
    <i name="XCdc">    -98.48056903 </i>
    <i name="pawpsdc">   5930.26200486 </i>
    <i name="pawaedc">  -5668.24030172 </i>
    <i name="eentropy">     -0.00000000 </i>
    <i name="bandstr">   -112.31833853 </i>
    <i name="atom">   2835.52185083 </i>
    <i name="e_fr_energy">    -66.94778348 </i>
    <i name="e_wo_entrp">    -66.94778348 </i>
    <i name="e_0_energy">    -66.94778348 </i>
   </energy>
  </scstep>
  <structure>
   <crystal>
    <varray name="basis" >
     <v>       5.82068288       0.73141369      -0.69603233 </v>
     <v>      -0.76161354       5.70708868      -0.48027898 </v>
     <v>       0.45676140       0.94816227      10.81970920 </v>
    </varray>
    <i name="volume">    370.25596147 </i>
    <varray name="rec_basis" >
     <v>       0.16800384       0.02166357      -0.00899084 </v>
     <v>      -0.02315597       0.17095205      -0.01400348 </v>
     <v>       0.00977982       0.00898205       0.09122394 </v>
    </varray>
   </crystal>
   <varray name="positions" >
    <v>       0.51733480       0.74574977       0.87782167 </v>
    <v>       0.48266520       0.25425023       0.12217833 </v>
    <v>       0.98314350       0.74544212       0.62246736 </v>
    <v>       0.01685650       0.25455788       0.37753264 </v>
    <v>       0.02305980       0.78102848       0.11883197 </v>
    <v>       0.97694020       0.21897152       0.88116803 </v>
    <v>       0.47825827       0.78408412       0.38163448 </v>
    <v>       0.52174173       0.21591588       0.61836552 </v>
    <v>       0.51336316       0.20173591       0.37961816 </v>
    <v>       0.48663684       0.79826409       0.62038184 </v>
    <v>       0.98575548       0.20275532       0.12038635 </v>
    <v>       0.01424452       0.79724468       0.87961365 </v>
    <v>       0.94496051       0.22687206       0.63902234 </v>
    <v>       0.05503949       0.77312794       0.36097766 </v>
    <v>       0.55317104       0.22745296       0.86040382 </v>
    <v>       0.44682896       0.77254704       0.13959618 </v>
   </varray>
  </structure>
  <varray name="forces" >
   <v>      -0.06824093       0.10765893      -0.04584856 </v>
   <v>       0.06824093      -0.10765893       0.04584856 </v>
   <v>       0.03218549       0.12766086       0.03175414 </v>
   <v>      -0.03218549      -0.12766086      -0.03175414 </v>
   <v>      -0.03909986      -0.60754081       0.50617545 </v>
   <v>       0.03909986       0.60754081      -0.50617545 </v>
   <v>       0.31421842      -0.66204427      -0.41961775 </v>
   <v>      -0.31421842       0.66204427       0.41961775 </v>
   <v>      -0.06997014       0.57565561      -1.14190685 </v>
   <v>       0.06997014      -0.57565561       1.14190685 </v>
   <v>      -0.06401610       0.59533156       1.02168505 </v>
   <v>       0.06401610      -0.59533156      -1.02168505 </v>
   <v>       0.02317918       0.09099016      -1.24468811 </v>
   <v>      -0.02317918      -0.09099016       1.24468811 </v>
   <v>      -0.02731115       0.31479124       1.24303486 </v>
   <v>       0.02731115      -0.31479124      -1.24303486 </v>
  </varray>
  <varray name="stress" >
   <v>     -20.20907139      -1.44916961      13.89746126 </v>
   <v>      -1.44916882      -4.08194952       8.66025250 </v>
   <v>      13.89746221       8.66025259      71.50470861 </v>
  </varray>
  <energy>
   <i name="e_fr_energy">    -66.94778348 </i>
   <i name="e_wo_entrp">    -66.94778348 </i>
   <i name="e_0_energy">     -0.00000000 </i>
  </energy>
  <time name="totalsc">    4.38    4.52</time>
 </calculation>
 <calculation>
  <scstep>
   <time name="dav">    0.36    0.36</time>
   <time name="total">    0.50    0.54</time>
   <energy>
    <i name="alphaZ">     32.32633905 </i>
    <i name="ewald">  -2476.30239534 </i>
    <i name="hartreedc">   -526.14305651 </i>
    <i name="XCdc">    -98.26321176 </i>
    <i name="pawpsdc">   5934.18223432 </i>
    <i name="pawaedc">  -5672.17009573 </i>
    <i name="eentropy">     -0.00000000 </i>
    <i name="bandstr">    -96.44950422 </i>
    <i name="atom">   2835.52185083 </i>
    <i name="e_fr_energy">    -67.29783936 </i>
    <i name="e_wo_entrp">    -67.29783936 </i>
    <i name="e_0_energy">    -67.29783936 </i>
   </energy>
  </scstep>
  <scstep>
   <time name="dav">    0.42    0.42</time>
   <time name="total">    0.55    0.55</time>
   <energy>
    <i name="e_fr_energy">    -67.27571346 </i>
    <i name="e_wo_entrp">    -67.27571346 </i>
    <i name="e_0_energy">    -67.27571346 </i>
   </energy>
  </scstep>
  <scstep>
   <time name="dav">    0.35    0.35</time>
   <time name="total">    0.48    0.48</time>
   <energy>
    <i name="e_fr_energy">    -67.26046531 </i>
    <i name="e_wo_entrp">    -67.26046531 </i>
    <i name="e_0_energy">    -67.26046531 </i>
   </energy>
  </scstep>
  <scstep>
   <time name="dav">    0.44    0.44</time>
   <time name="total">    0.57    0.57</time>
   <energy>
    <i name="e_fr_energy">    -67.25564901 </i>
    <i name="e_wo_entrp">    -67.25564901 </i>
    <i name="e_0_energy">    -67.25564901 </i>
   </energy>
  </scstep>
  <scstep>
   <time name="dav">    0.40    0.40</time>
   <time name="total">    0.53    0.53</time>
   <energy>
    <i name="e_fr_energy">    -67.25523873 </i>
    <i name="e_wo_entrp">    -67.25523873 </i>
    <i name="e_0_energy">    -67.25523873 </i>
   </energy>
  </scstep>
  <scstep>
   <time name="dav">    0.43    0.43</time>
   <time name="total">    0.55    0.55</time>
   <energy>
    <i name="alphaZ">     32.32633905 </i>
    <i name="ewald">  -2476.30239534 </i>
    <i name="hartreedc">   -517.30025413 </i>
    <i name="XCdc">    -98.56087314 </i>
    <i name="pawpsdc">   5838.82169209 </i>
    <i name="pawaedc">  -5576.75938637 </i>
    <i name="eentropy">     -0.00000000 </i>
    <i name="bandstr">   -105.00218038 </i>
    <i name="atom">   2835.52185083 </i>
    <i name="e_fr_energy">    -67.25520739 </i>
    <i name="e_wo_entrp">    -67.25520739 </i>
    <i name="e_0_energy">    -67.25520739 </i>
   </energy>
  </scstep>
  <structure>
   <crystal>
    <varray name="basis" >
     <v>       5.77732042       0.72713499      -0.67357466 </v>
     <v>      -0.75658749       5.66693910      -0.47730715 </v>
     <v>       0.49511465       0.95362799      10.83137173 </v>
    </varray>
    <i name="volume">    365.40863052 </i>
    <varray name="rec_basis" >
     <v>       0.16922397       0.02177989      -0.00965299 </v>
     <v>      -0.02331146       0.17216288      -0.01409217 </v>
     <v>       0.00949633       0.00894115       0.09110311 </v>
    </varray>
   </crystal>
   <varray name="positions" >
    <v>       0.51729745       0.74658107       0.87753846 </v>
    <v>       0.48270255       0.25341893       0.12246154 </v>
    <v>       0.98316087       0.74628105       0.62275796 </v>
    <v>       0.01683913       0.25371895       0.37724204 </v>
    <v>       0.02097510       0.77814460       0.11891210 </v>
    <v>       0.97902490       0.22185540       0.88108790 </v>
    <v>       0.48054760       0.78154365       0.38153183 </v>
    <v>       0.51945240       0.21845635       0.61846817 </v>
    <v>       0.51327888       0.20473715       0.37825844 </v>
    <v>       0.48672112       0.79526285       0.62174156 </v>
    <v>       0.98586062       0.20558836       0.12175595 </v>
    <v>       0.01413938       0.79441164       0.87824405 </v>
    <v>       0.94685656       0.22688090       0.63745387 </v>
    <v>       0.05314344       0.77311910       0.36254613 </v>
    <v>       0.55120096       0.22753235       0.86197069 </v>
    <v>       0.44879904       0.77246765       0.13802931 </v>
   </varray>
  </structure>
  <varray name="forces" >
   <v>      -0.06939700       0.09482221      -0.03738668 </v>
   <v>       0.06939700      -0.09482221       0.03738668 </v>
   <v>       0.03654018       0.11413630       0.02538745 </v>
   <v>      -0.03654018      -0.11413630      -0.02538745 </v>
   <v>       0.00889531      -0.42646022       0.44819758 </v>
   <v>      -0.00889531       0.42646022      -0.44819758 </v>
   <v>       0.11364198      -0.52577432      -0.31546539 </v>
[...]
        <r>  0.0001  0.0650  0.0000 </r>
       </set>
       <set comment="band 31">
        <r>  0.0001  0.0024  0.0000 </r>
        <r>  0.0001  0.0024  0.0000 </r>
        <r>  0.0001  0.0025  0.0000 </r>
        <r>  0.0001  0.0025  0.0000 </r>
        <r>  0.0166  0.0133  0.0011 </r>
        <r>  0.0166  0.0133  0.0011 </r>
        <r>  0.0164  0.0132  0.0011 </r>
        <r>  0.0164  0.0132  0.0011 </r>
        <r>  0.0009  0.0504  0.0000 </r>
        <r>  0.0009  0.0504  0.0000 </r>
        <r>  0.0009  0.0502  0.0000 </r>
        <r>  0.0009  0.0502  0.0000 </r>
        <r>  0.0010  0.0510  0.0000 </r>
        <r>  0.0010  0.0510  0.0000 </r>
        <r>  0.0011  0.0501  0.0000 </r>
        <r>  0.0011  0.0501  0.0000 </r>
       </set>
       <set comment="band 32">
        <r>  0.0000  0.0015  0.0000 </r>
        <r>  0.0000  0.0015  0.0000 </r>
        <r>  0.0000  0.0015  0.0000 </r>
        <r>  0.0000  0.0015  0.0000 </r>
        <r>  0.0102  0.0074  0.0016 </r>
        <r>  0.0102  0.0074  0.0016 </r>
        <r>  0.0101  0.0073  0.0016 </r>
        <r>  0.0101  0.0073  0.0016 </r>
        <r>  0.0015  0.0550  0.0000 </r>
        <r>  0.0015  0.0550  0.0000 </r>
        <r>  0.0015  0.0545  0.0000 </r>
        <r>  0.0015  0.0545  0.0000 </r>
        <r>  0.0015  0.0579  0.0000 </r>
        <r>  0.0015  0.0579  0.0000 </r>
        <r>  0.0016  0.0575  0.0000 </r>
        <r>  0.0016  0.0575  0.0000 </r>
       </set>
       <set comment="band 33">
        <r>  0.0000  0.0014  0.0000 </r>
        <r>  0.0000  0.0014  0.0000 </r>
        <r>  0.0000  0.0014  0.0000 </r>
        <r>  0.0000  0.0014  0.0000 </r>
        <r>  0.0170  0.0107  0.0014 </r>
        <r>  0.0170  0.0107  0.0014 </r>
        <r>  0.0126  0.0075  0.0013 </r>
        <r>  0.0126  0.0075  0.0013 </r>
        <r>  0.0013  0.0496  0.0000 </r>
        <r>  0.0013  0.0496  0.0000 </r>
        <r>  0.0013  0.0561  0.0000 </r>
        <r>  0.0013  0.0561  0.0000 </r>
        <r>  0.0010  0.0509  0.0000 </r>
        <r>  0.0010  0.0509  0.0000 </r>
        <r>  0.0016  0.0630  0.0000 </r>
        <r>  0.0016  0.0630  0.0000 </r>
       </set>
       <set comment="band 34">
        <r>  0.0000  0.0020  0.0000 </r>
        <r>  0.0000  0.0020  0.0000 </r>
        <r>  0.0000  0.0020  0.0000 </r>
        <r>  0.0000  0.0020  0.0000 </r>
        <r>  0.0141  0.0124  0.0008 </r>
        <r>  0.0141  0.0124  0.0008 </r>
        <r>  0.0187  0.0157  0.0009 </r>
        <r>  0.0187  0.0157  0.0009 </r>
        <r>  0.0015  0.0538  0.0000 </r>
        <r>  0.0015  0.0538  0.0000 </r>
        <r>  0.0014  0.0473  0.0000 </r>
        <r>  0.0014  0.0473  0.0000 </r>
        <r>  0.0019  0.0575  0.0000 </r>
        <r>  0.0019  0.0575  0.0000 </r>
        <r>  0.0014  0.0458  0.0000 </r>
        <r>  0.0014  0.0458  0.0000 </r>
       </set>
       <set comment="band 35">
        <r>  0.0004  0.0007  0.0000 </r>
        <r>  0.0004  0.0007  0.0000 </r>
        <r>  0.0004  0.0007  0.0000 </r>
        <r>  0.0004  0.0007  0.0000 </r>
        <r>  0.0265  0.0239  0.0005 </r>
        <r>  0.0265  0.0239  0.0005 </r>
        <r>  0.0265  0.0239  0.0005 </r>
        <r>  0.0265  0.0239  0.0005 </r>
        <r>  0.0034  0.0432  0.0000 </r>
        <r>  0.0034  0.0432  0.0000 </r>
        <r>  0.0034  0.0431  0.0000 </r>
        <r>  0.0034  0.0431  0.0000 </r>
        <r>  0.0033  0.0443  0.0000 </r>
        <r>  0.0033  0.0443  0.0000 </r>
        <r>  0.0033  0.0438  0.0000 </r>
        <r>  0.0033  0.0438  0.0000 </r>
       </set>
       <set comment="band 36">
        <r>  0.0007  0.0009  0.0000 </r>
        <r>  0.0007  0.0009  0.0000 </r>
        <r>  0.0007  0.0009  0.0000 </r>
        <r>  0.0007  0.0009  0.0000 </r>
        <r>  0.0317  0.0260  0.0007 </r>
        <r>  0.0317  0.0260  0.0007 </r>
        <r>  0.0320  0.0263  0.0007 </r>
        <r>  0.0320  0.0263  0.0007 </r>
        <r>  0.0040  0.0411  0.0000 </r>
        <r>  0.0040  0.0411  0.0000 </r>
        <r>  0.0040  0.0410  0.0000 </r>
        <r>  0.0040  0.0410  0.0000 </r>
        <r>  0.0042  0.0391  0.0000 </r>
        <r>  0.0042  0.0391  0.0000 </r>
        <r>  0.0043  0.0393  0.0000 </r>
        <r>  0.0043  0.0393  0.0000 </r>
       </set>
       <set comment="band 37">
        <r>  0.0006  0.0024  0.0000 </r>
        <r>  0.0006  0.0024  0.0000 </r>
        <r>  0.0006  0.0024  0.0000 </r>
        <r>  0.0006  0.0024  0.0000 </r>
        <r>  0.0048  0.0599  0.0017 </r>
        <r>  0.0048  0.0599  0.0017 </r>
        <r>  0.0049  0.0605  0.0018 </r>
        <r>  0.0049  0.0605  0.0018 </r>
        <r>  0.0092  0.0201  0.0000 </r>
        <r>  0.0092  0.0201  0.0000 </r>
        <r>  0.0091  0.0199  0.0000 </r>
        <r>  0.0091  0.0199  0.0000 </r>
        <r>  0.0052  0.0139  0.0000 </r>
        <r>  0.0052  0.0139  0.0000 </r>
        <r>  0.0052  0.0136  0.0000 </r>
        <r>  0.0052  0.0136  0.0000 </r>
       </set>
       <set comment="band 38">
        <r>  0.0001  0.0006  0.0000 </r>
        <r>  0.0001  0.0006  0.0000 </r>
        <r>  0.0001  0.0006  0.0000 </r>
        <r>  0.0001  0.0006  0.0000 </r>
        <r>  0.0024  0.0765  0.0034 </r>
        <r>  0.0024  0.0765  0.0034 </r>
        <r>  0.0024  0.0750  0.0033 </r>
        <r>  0.0024  0.0750  0.0033 </r>
        <r>  0.0034  0.0142  0.0000 </r>
        <r>  0.0034  0.0142  0.0000 </r>
        <r>  0.0035  0.0147  0.0000 </r>
        <r>  0.0035  0.0147  0.0000 </r>
        <r>  0.0072  0.0199  0.0000 </r>
        <r>  0.0072  0.0199  0.0000 </r>
        <r>  0.0072  0.0200  0.0000 </r>
        <r>  0.0072  0.0200  0.0000 </r>
       </set>
       <set comment="band 39">
        <r>  0.0001  0.0009  0.0000 </r>
        <r>  0.0001  0.0009  0.0000 </r>
        <r>  0.0001  0.0009  0.0000 </r>
        <r>  0.0001  0.0009  0.0000 </r>
        <r>  0.0005  0.0717  0.0026 </r>
        <r>  0.0005  0.0717  0.0026 </r>
        <r>  0.0005  0.0719  0.0026 </r>
        <r>  0.0005  0.0719  0.0026 </r>
        <r>  0.0061  0.0233  0.0000 </r>
        <r>  0.0061  0.0233  0.0000 </r>
        <r>  0.0061  0.0231  0.0000 </r>
        <r>  0.0061  0.0231  0.0000 </r>
        <r>  0.0075  0.0164  0.0000 </r>
        <r>  0.0075  0.0164  0.0000 </r>
        <r>  0.0074  0.0164  0.0000 </r>
        <r>  0.0074  0.0164  0.0000 </r>
       </set>
       <set comment="band 40">
        <r>  0.0007  0.0020  0.0000 </r>
        <r>  0.0007  0.0020  0.0000 </r>
        <r>  0.0007  0.0020  0.0000 </r>
        <r>  0.0007  0.0020  0.0000 </r>
        <r>  0.0001  0.0602  0.0005 </r>
        <r>  0.0001  0.0602  0.0005 </r>
        <r>  0.0001  0.0597  0.0005 </r>
        <r>  0.0001  0.0597  0.0005 </r>
        <r>  0.0078  0.0202  0.0000 </r>
        <r>  0.0078  0.0202  0.0000 </r>
        <r>  0.0079  0.0204  0.0000 </r>
        <r>  0.0079  0.0204  0.0000 </r>
        <r>  0.0051  0.0242  0.0000 </r>
        <r>  0.0051  0.0242  0.0000 </r>
        <r>  0.0053  0.0242  0.0000 </r>
        <r>  0.0053  0.0242  0.0000 </r>
       </set>
       <set comment="band 41">
        <r>  0.0001  0.0029  0.0000 </r>
        <r>  0.0001  0.0029  0.0000 </r>
        <r>  0.0001  0.0028  0.0000 </r>
        <r>  0.0001  0.0028  0.0000 </r>
        <r>  0.0006  0.0694  0.0026 </r>
        <r>  0.0006  0.0694  0.0026 </r>
        <r>  0.0009  0.0683  0.0025 </r>
        <r>  0.0009  0.0683  0.0025 </r>
        <r>  0.0049  0.0209  0.0000 </r>
        <r>  0.0049  0.0209  0.0000 </r>
        <r>  0.0050  0.0205  0.0000 </r>
        <r>  0.0050  0.0205  0.0000 </r>
        <r>  0.0053  0.0180  0.0000 </r>
        <r>  0.0053  0.0180  0.0000 </r>
        <r>  0.0058  0.0195  0.0000 </r>
        <r>  0.0058  0.0195  0.0000 </r>
       </set>
       <set comment="band 42">
        <r>  0.0001  0.0009  0.0000 </r>
        <r>  0.0001  0.0009  0.0000 </r>
        <r>  0.0001  0.0010  0.0000 </r>
        <r>  0.0001  0.0010  0.0000 </r>
        <r>  0.0127  0.0652  0.0029 </r>
        <r>  0.0127  0.0652  0.0029 </r>
        <r>  0.0124  0.0659  0.0030 </r>
        <r>  0.0124  0.0659  0.0030 </r>
        <r>  0.0028  0.0231  0.0000 </r>
        <r>  0.0028  0.0231  0.0000 </r>
        <r>  0.0026  0.0239  0.0000 </r>
        <r>  0.0026  0.0239  0.0000 </r>
        <r>  0.0042  0.0227  0.0000 </r>
        <r>  0.0042  0.0227  0.0000 </r>
        <r>  0.0038  0.0214  0.0000 </r>
        <r>  0.0038  0.0214  0.0000 </r>
       </set>
       <set comment="band 43">
        <r>  0.0007  0.0004  0.0000 </r>
        <r>  0.0007  0.0004  0.0000 </r>
        <r>  0.0007  0.0004  0.0000 </r>
        <r>  0.0007  0.0004  0.0000 </r>
        <r>  0.0064  0.0703  0.0036 </r>
        <r>  0.0064  0.0703  0.0036 </r>
        <r>  0.0067  0.0717  0.0038 </r>
        <r>  0.0067  0.0717  0.0038 </r>
        <r>  0.0023  0.0258  0.0000 </r>
        <r>  0.0023  0.0258  0.0000 </r>
        <r>  0.0020  0.0247  0.0000 </r>
        <r>  0.0020  0.0247  0.0000 </r>
        <r>  0.0024  0.0255  0.0000 </r>
        <r>  0.0024  0.0255  0.0000 </r>
        <r>  0.0025  0.0245  0.0000 </r>
        <r>  0.0025  0.0245  0.0000 </r>
       </set>
       <set comment="band 44">
        <r>  0.0005  0.0026  0.0000 </r>
        <r>  0.0005  0.0026  0.0000 </r>
        <r>  0.0005  0.0027  0.0000 </r>
        <r>  0.0005  0.0027  0.0000 </r>
        <r>  0.0038  0.0552  0.0018 </r>
        <r>  0.0038  0.0552  0.0018 </r>
        <r>  0.0034  0.0508  0.0016 </r>
        <r>  0.0034  0.0508  0.0016 </r>
        <r>  0.0061  0.0289  0.0000 </r>
        <r>  0.0061  0.0289  0.0000 </r>
        <r>  0.0066  0.0311  0.0000 </r>
        <r>  0.0066  0.0311  0.0000 </r>
        <r>  0.0053  0.0259  0.0000 </r>
        <r>  0.0053  0.0259  0.0000 </r>
        <r>  0.0051  0.0266  0.0000 </r>
        <r>  0.0051  0.0266  0.0000 </r>
       </set>
       <set comment="band 45">
        <r>  0.0016  0.0068  0.0000 </r>
        <r>  0.0016  0.0068  0.0000 </r>
        <r>  0.0015  0.0067  0.0000 </r>
        <r>  0.0015  0.0067  0.0000 </r>
        <r>  0.0002  0.0626  0.0013 </r>
        <r>  0.0002  0.0626  0.0013 </r>
        <r>  0.0003  0.0660  0.0014 </r>
        <r>  0.0003  0.0660  0.0014 </r>
        <r>  0.0022  0.0177  0.0000 </r>
        <r>  0.0022  0.0177  0.0000 </r>
        <r>  0.0020  0.0167  0.0000 </r>
        <r>  0.0020  0.0167  0.0000 </r>
        <r>  0.0011  0.0196  0.0000 </r>
        <r>  0.0011  0.0196  0.0000 </r>
        <r>  0.0014  0.0195  0.0000 </r>
        <r>  0.0014  0.0195  0.0000 </r>
       </set>
       <set comment="band 46">
        <r>  0.0001  0.0029  0.0000 </r>
        <r>  0.0001  0.0029  0.0000 </r>
        <r>  0.0001  0.0029  0.0000 </r>
        <r>  0.0001  0.0029  0.0000 </r>
        <r>  0.0130  0.0641  0.0025 </r>
        <r>  0.0130  0.0641  0.0025 </r>
        <r>  0.0129  0.0644  0.0025 </r>
        <r>  0.0129  0.0644  0.0025 </r>
        <r>  0.0015  0.0257  0.0000 </r>
        <r>  0.0015  0.0257  0.0000 </r>
        <r>  0.0014  0.0255  0.0000 </r>
        <r>  0.0014  0.0255  0.0000 </r>
        <r>  0.0020  0.0293  0.0000 </r>
        <r>  0.0020  0.0293  0.0000 </r>
        <r>  0.0020  0.0294  0.0000 </r>
        <r>  0.0020  0.0294  0.0000 </r>
       </set>
       <set comment="band 47">
        <r>  0.0021  0.0023  0.0000 </r>
        <r>  0.0021  0.0023  0.0000 </r>
        <r>  0.0020  0.0022  0.0000 </r>
        <r>  0.0020  0.0022  0.0000 </r>
        <r>  0.0081  0.0588  0.0017 </r>
        <r>  0.0081  0.0588  0.0017 </r>
        <r>  0.0081  0.0590  0.0017 </r>
        <r>  0.0081  0.0590  0.0017 </r>
        <r>  0.0018  0.0294  0.0000 </r>
        <r>  0.0018  0.0294  0.0000 </r>
        <r>  0.0018  0.0293  0.0000 </r>
        <r>  0.0018  0.0293  0.0000 </r>
        <r>  0.0023  0.0298  0.0000 </r>
        <r>  0.0023  0.0298  0.0000 </r>
        <r>  0.0023  0.0299  0.0000 </r>
        <r>  0.0023  0.0299  0.0000 </r>
       </set>
       <set comment="band 48">
        <r>  0.0000  0.0003  0.0000 </r>
        <r>  0.0000  0.0003  0.0000 </r>
        <r>  0.0000  0.0003  0.0000 </r>
        <r>  0.0000  0.0003  0.0000 </r>
        <r>  0.0160  0.0520  0.0021 </r>
        <r>  0.0160  0.0520  0.0021 </r>
        <r>  0.0162  0.0527  0.0021 </r>
        <r>  0.0162  0.0527  0.0021 </r>
        <r>  0.0044  0.0358  0.0000 </r>
        <r>  0.0044  0.0358  0.0000 </r>
        <r>  0.0043  0.0352  0.0000 </r>
        <r>  0.0043  0.0352  0.0000 </r>
        <r>  0.0051  0.0365  0.0000 </r>
        <r>  0.0051  0.0365  0.0000 </r>
        <r>  0.0051  0.0363  0.0000 </r>
        <r>  0.0051  0.0363  0.0000 </r>
       </set>
       <set comment="band 49">
        <r>  0.0084  0.0275  0.0000 </r>
        <r>  0.0084  0.0275  0.0000 </r>
        <r>  0.0079  0.0259  0.0000 </r>
        <r>  0.0079  0.0259  0.0000 </r>
        <r>  0.0006  0.0043  0.0040 </r>
        <r>  0.0006  0.0043  0.0040 </r>
        <r>  0.0007  0.0040  0.0042 </r>
        <r>  0.0007  0.0040  0.0042 </r>
        <r>  0.0053  0.0049  0.0000 </r>
        <r>  0.0053  0.0049  0.0000 </r>
        <r>  0.0052  0.0046  0.0000 </r>
        <r>  0.0052  0.0046  0.0000 </r>
        <r>  0.0052  0.0034  0.0000 </r>
        <r>  0.0052  0.0034  0.0000 </r>
        <r>  0.0055  0.0038  0.0000 </r>
        <r>  0.0055  0.0038  0.0000 </r>
       </set>
       <set comment="band 50">
        <r>  0.0092  0.0292  0.0000 </r>
        <r>  0.0092  0.0292  0.0000 </r>
        <r>  0.0027  0.0109  0.0000 </r>
        <r>  0.0027  0.0109  0.0000 </r>
        <r>  0.0028  0.0104  0.0085 </r>
        <r>  0.0028  0.0104  0.0085 </r>
        <r>  0.0020  0.0042  0.0036 </r>
        <r>  0.0020  0.0042  0.0036 </r>
        <r>  0.0003  0.0104  0.0000 </r>
        <r>  0.0003  0.0104  0.0000 </r>
        <r>  0.0030  0.0092  0.0000 </r>
        <r>  0.0030  0.0092  0.0000 </r>
        <r>  0.0014  0.0114  0.0000 </r>
        <r>  0.0014  0.0114  0.0000 </r>
        <r>  0.0014  0.0050  0.0000 </r>
        <r>  0.0014  0.0050  0.0000 </r>
       </set>
       <set comment="band 51">
        <r>  0.0050  0.0128  0.0000 </r>
        <r>  0.0050  0.0128  0.0000 </r>
        <r>  0.0120  0.0324  0.0000 </r>
        <r>  0.0120  0.0324  0.0000 </r>
        <r>  0.0010  0.0032  0.0030 </r>
        <r>  0.0010  0.0032  0.0030 </r>
        <r>  0.0017  0.0098  0.0078 </r>
        <r>  0.0017  0.0098  0.0078 </r>
        <r>  0.0028  0.0064  0.0000 </r>
        <r>  0.0028  0.0064  0.0000 </r>
        <r>  0.0001  0.0075  0.0000 </r>
        <r>  0.0001  0.0075  0.0000 </r>
        <r>  0.0013  0.0034  0.0000 </r>
        <r>  0.0013  0.0034  0.0000 </r>
        <r>  0.0011  0.0094  0.0000 </r>
        <r>  0.0011  0.0094  0.0000 </r>
       </set>
       <set comment="band 52">
        <r>  0.0013  0.0135  0.0000 </r>
        <r>  0.0013  0.0135  0.0000 </r>
        <r>  0.0013  0.0137  0.0000 </r>
        <r>  0.0013  0.0137  0.0000 </r>
        <r>  0.0008  0.0027  0.0116 </r>
        <r>  0.0008  0.0027  0.0116 </r>
        <r>  0.0008  0.0027  0.0114 </r>
        <r>  0.0008  0.0027  0.0114 </r>
        <r>  0.0006  0.0062  0.0000 </r>
        <r>  0.0006  0.0062  0.0000 </r>
        <r>  0.0006  0.0062  0.0000 </r>
        <r>  0.0006  0.0062  0.0000 </r>
        <r>  0.0005  0.0087  0.0000 </r>
        <r>  0.0005  0.0087  0.0000 </r>
        <r>  0.0004  0.0090  0.0000 </r>
        <r>  0.0004  0.0090  0.0000 </r>
       </set>
       <set comment="band 53">
        <r>  0.0106  0.0228  0.0000 </r>
        <r>  0.0106  0.0228  0.0000 </r>
        <r>  0.0107  0.0228  0.0000 </r>
        <r>  0.0107  0.0228  0.0000 </r>
        <r>  0.0004  0.0087  0.0066 </r>
        <r>  0.0004  0.0087  0.0066 </r>
        <r>  0.0004  0.0087  0.0067 </r>
        <r>  0.0004  0.0087  0.0067 </r>
        <r>  0.0007  0.0078  0.0000 </r>
        <r>  0.0007  0.0078  0.0000 </r>
        <r>  0.0007  0.0077  0.0000 </r>
        <r>  0.0007  0.0077  0.0000 </r>
        <r>  0.0005  0.0072  0.0000 </r>
        <r>  0.0005  0.0072  0.0000 </r>
        <r>  0.0004  0.0073  0.0000 </r>
        <r>  0.0004  0.0073  0.0000 </r>
       </set>
       <set comment="band 54">
        <r>  0.0098  0.0279  0.0000 </r>
        <r>  0.0098  0.0279  0.0000 </r>
        <r>  0.0097  0.0276  0.0000 </r>
        <r>  0.0097  0.0276  0.0000 </r>
        <r>  0.0008  0.0150  0.0029 </r>
        <r>  0.0008  0.0150  0.0029 </r>
        <r>  0.0008  0.0151  0.0029 </r>
        <r>  0.0008  0.0151  0.0029 </r>
        <r>  0.0015  0.0083  0.0000 </r>
        <r>  0.0015  0.0083  0.0000 </r>
        <r>  0.0015  0.0082  0.0000 </r>
        <r>  0.0015  0.0082  0.0000 </r>
        <r>  0.0019  0.0094  0.0000 </r>
        <r>  0.0019  0.0094  0.0000 </r>
        <r>  0.0019  0.0095  0.0000 </r>
        <r>  0.0019  0.0095  0.0000 </r>
       </set>
       <set comment="band 55">
        <r>  0.0033  0.0271  0.0000 </r>
        <r>  0.0033  0.0271  0.0000 </r>
        <r>  0.0032  0.0272  0.0000 </r>
        <r>  0.0032  0.0272  0.0000 </r>
        <r>  0.0005  0.0076  0.0025 </r>
        <r>  0.0005  0.0076  0.0025 </r>
        <r>  0.0005  0.0075  0.0025 </r>
        <r>  0.0005  0.0075  0.0025 </r>
        <r>  0.0009  0.0108  0.0000 </r>
        <r>  0.0009  0.0108  0.0000 </r>
        <r>  0.0009  0.0110  0.0000 </r>
        <r>  0.0009  0.0110  0.0000 </r>
        <r>  0.0029  0.0108  0.0000 </r>
        <r>  0.0029  0.0108  0.0000 </r>
        <r>  0.0029  0.0108  0.0000 </r>
        <r>  0.0029  0.0108  0.0000 </r>
       </set>
       <set comment="band 56">
        <r>  0.0012  0.0288  0.0000 </r>
        <r>  0.0012  0.0288  0.0000 </r>
        <r>  0.0012  0.0287  0.0000 </r>
        <r>  0.0012  0.0287  0.0000 </r>
        <r>  0.0005  0.0097  0.0038 </r>
        <r>  0.0005  0.0097  0.0038 </r>
        <r>  0.0005  0.0098  0.0039 </r>
        <r>  0.0005  0.0098  0.0039 </r>
        <r>  0.0020  0.0124  0.0000 </r>
        <r>  0.0020  0.0124  0.0000 </r>
        <r>  0.0021  0.0125  0.0000 </r>
        <r>  0.0021  0.0125  0.0000 </r>
        <r>  0.0004  0.0126  0.0000 </r>
        <r>  0.0004  0.0126  0.0000 </r>
        <r>  0.0004  0.0125  0.0000 </r>
        <r>  0.0004  0.0125  0.0000 </r>
       </set>
      </set>
     </set>
    </set>
   </array>
  </projected>
 </calculation>
 <structure name="finalpos" >
  <crystal>
   <varray name="basis" >
    <v>       5.33298892       0.67692689      -0.46396171 </v>
    <v>      -0.71936417       5.33686232      -0.43923134 </v>
    <v>       0.85491352       1.04692744      11.11652650 </v>
   </varray>
   <i name="volume">    326.46990548 </i>
   <varray name="rec_basis" >
    <v>       0.18313239       0.02334465      -0.01628229 </v>
    <v>      -0.02453767       0.18280693      -0.01532925 </v>
    <v>       0.00667373       0.00819730       0.08867091 </v>
   </varray>
  </crystal>
  <varray name="positions" >
   <v>       0.50353270       0.75020631       0.87614786 </v>
   <v>       0.49646730       0.24979369       0.12385214 </v>
   <v>       0.99623664       0.74996936       0.62419546 </v>
   <v>       0.00376336       0.25003064       0.37580454 </v>
   <v>       0.00055108       0.75001078       0.12375932 </v>
   <v>      -0.00055108       0.24998922       0.87624068 </v>
   <v>       0.49973426       0.75016208       0.37626839 </v>
   <v>       0.50026574       0.24983792       0.62373161 </v>
   <v>       0.50292703       0.25237074       0.37674431 </v>
   <v>       0.49707297       0.74762926       0.62325569 </v>
   <v>       0.99770302       0.24773826       0.12338959 </v>
   <v>       0.00229698       0.75226174       0.87661041 </v>
   <v>       0.99697639       0.24920718       0.62703319 </v>
   <v>       0.00302361       0.75079282       0.37296681 </v>
   <v>       0.50274743       0.25085326       0.87292116 </v>
   <v>       0.49725257       0.74914674       0.12707884 </v>
  </varray>
 </structure>
</modeling>
