/etc/profile: 第 79 行:ulimit: stack size: 无法修改 limit 值: 不允许的操作
/home/customer/.bashrc: 第 12 行:ulimit: stack size: 无法修改 limit 值: 不允许的操作
Intel(R) Parallel Studio XE 2018 Update 3 for Linux*
Copyright (C) 2009-2018 Intel Corporation. All rights reserved.
 running on   14 total cores
 distrk:  each k-point on   14 cores,    1 groups
 distr:  one band on    1 cores,   14 groups
 using from now: INCAR     
 vasp.5.4.4.18Apr17-6-g9f103f2a35 (build Oct 27 2022 13:04:57) complex          
  
 POSCAR found type information on POSCAR  Li Sb S 
 POSCAR found :  3 types and      16 ions
 scaLAPACK will be used

 ----------------------------------------------------------------------------- 
|                                                                             |
|           W    W    AA    RRRRR   N    N  II  N    N   GGGG   !!!           |
|           W    W   A  A   R    R  NN   N  II  NN   N  G    G  !!!           |
|           W    W  A    A  R    R  N N  N  II  N N  N  G       !!!           |
|           W WW W  AAAAAA  RRRRR   N  N N  II  N  N N  G  GGG   !            |
|           WW  WW  A    A  R   R   N   NN  II  N   NN  G    G                |
|           W    W  A    A  R    R  N    N  II  N    N   GGGG   !!!           |
|                                                                             |
|      For optimal performance we recommend to set                            |
|        NCORE= 4 - approx SQRT( number of cores)                             |
|      NCORE specifies how many cores store one orbital (NPAR=cpu/NCORE).     |
|      This setting can  greatly improve the performance of VASP for DFT.     |
|      The default,   NCORE=1            might be grossly inefficient         |
|      on modern multi-core architectures or massively parallel machines.     |
|      Do your own testing !!!!                                               |
|      Unfortunately you need to use the default for GW and RPA calculations. |
|      (for HF NCORE is supported but not extensively tested yet)             |
|                                                                             |
 ----------------------------------------------------------------------------- 

 LDA part: xc-table for Pade appr. of Perdew
 POSCAR, INCAR and KPOINTS ok, starting setup
 FFT: planning ...
 WAVECAR not read
 entering main loop
       N       E                     dE             d eps       ncg     rms          rms(c)
DAV:   1     0.269568163203E+03    0.26957E+03   -0.18748E+04  1008   0.651E+02
DAV:   2    -0.337505265860E+02   -0.30332E+03   -0.29216E+03  1386   0.140E+02
DAV:   3    -0.673443813018E+02   -0.33594E+02   -0.33227E+02  1260   0.517E+01
DAV:   4    -0.680186865299E+02   -0.67431E+00   -0.67340E+00  1274   0.893E+00
DAV:   5    -0.680313980901E+02   -0.12712E-01   -0.12710E-01  1344   0.120E+00    0.126E+01
DAV:   6    -0.636214191028E+02    0.44100E+01   -0.97218E+00  1134   0.866E+00    0.972E+00
DAV:   7    -0.636676674917E+02   -0.46248E-01   -0.14428E+00  1274   0.320E+00    0.523E+00
DAV:   8    -0.636713682196E+02   -0.37007E-02   -0.91728E-02  1204   0.110E+00    0.157E+00
DAV:   9    -0.636850823682E+02   -0.13714E-01   -0.31931E-02  1260   0.639E-01    0.372E-01
DAV:  10    -0.636900466241E+02   -0.49643E-02   -0.48748E-03  1176   0.210E-01    0.184E-01
DAV:  11    -0.636926828708E+02   -0.26362E-02   -0.38094E-03  1162   0.195E-01    0.836E-02
DAV:  12    -0.636927098959E+02   -0.27025E-04   -0.70535E-05  1036   0.283E-02
   1 F= -.63692710E+02 E0= -.63692710E+02  d E =-.636927E+02
 curvature:   0.00 expect dE= 0.000E+00 dE for cont linesearch  0.000E+00
 trial: gam= 0.00000 g(F)=  0.939E-01 g(S)=  0.723E+00 ort = 0.000E+00 (trialstep = 0.100E+01)
 search vector abs. value=  0.817E+00
 bond charge predicted
       N       E                     dE             d eps       ncg     rms          rms(c)
DAV:   1    -0.647931584478E+02   -0.11005E+01   -0.69301E+00  1148   0.759E+00    0.422E+00
DAV:   2    -0.644802320679E+02    0.31293E+00   -0.74106E-01  1092   0.246E+00    0.126E+00
DAV:   3    -0.644450682987E+02    0.35164E-01   -0.14297E-01  1232   0.101E+00    0.572E-01
DAV:   4    -0.644398630486E+02    0.52053E-02   -0.51634E-03  1372   0.240E-01    0.431E-01
DAV:   5    -0.644376818193E+02    0.21812E-02   -0.30360E-03  1344   0.150E-01    0.223E-01
DAV:   6    -0.644375475268E+02    0.13429E-03   -0.44096E-04  1274   0.613E-02    0.655E-02
DAV:   7    -0.644375456454E+02    0.18815E-05   -0.46521E-05   798   0.220E-02
   2 F= -.64437546E+02 E0= -.64437546E+02  d E =-.744836E+00
 trial-energy change:   -0.744836  1 .order   -0.737267   -0.816639   -0.657894
 step:   3.1725(harm=  5.1444)  dis= 0.02807  next Energy=   -65.229807 (dE=-0.154E+01)
 bond charge predicted
       N       E                     dE             d eps       ncg     rms          rms(c)
DAV:   1    -0.671489377078E+02   -0.27114E+01   -0.33662E+01  1218   0.172E+01    0.996E+00
DAV:   2    -0.656607877342E+02    0.14881E+01   -0.34326E+00  1148   0.536E+00    0.323E+00
DAV:   3    -0.654848053608E+02    0.17598E+00   -0.79261E-01  1274   0.234E+00    0.148E+00
DAV:   4    -0.654650475831E+02    0.19758E-01   -0.19152E-02  1330   0.504E-01    0.113E+00
DAV:   5    -0.654516007905E+02    0.13447E-01   -0.22929E-02  1386   0.415E-01    0.501E-01
DAV:   6    -0.654514785517E+02    0.12224E-03   -0.17205E-03  1218   0.130E-01    0.177E-01
DAV:   7    -0.654513943191E+02    0.84233E-04   -0.48535E-04  1358   0.603E-02
   3 F= -.65451394E+02 E0= -.65451394E+02  d E =-.175868E+01
 curvature:  -1.99 expect dE=-0.284E+00 dE for cont linesearch -0.123E+00
 ZBRENT: increasing intervall
 opt :   7.5176  next Energy=   -64.547872 (dE=-0.855E+00)
 bond charge predicted
       N       E                     dE             d eps       ncg     rms          rms(c)
DAV:   1    -0.707175317752E+02   -0.52661E+01   -0.14343E+02  1302   0.374E+01    0.237E+01
DAV:   2    -0.646731720327E+02    0.60444E+01   -0.13654E+01  1148   0.106E+01    0.903E+00
DAV:   3    -0.638322568014E+02    0.84092E+00   -0.40460E+00  1330   0.530E+00    0.425E+00
DAV:   4    -0.637837921276E+02    0.48465E-01   -0.10149E-01  1330   0.110E+00    0.325E+00
DAV:   5    -0.637235196196E+02    0.60273E-01   -0.12911E-01  1372   0.102E+00    0.765E-01
DAV:   6    -0.637235520953E+02   -0.32476E-04   -0.81706E-03  1246   0.299E-01    0.477E-01
DAV:   7    -0.637231334291E+02    0.41867E-03   -0.28329E-03  1372   0.150E-01    0.177E-01
DAV:   8    -0.637231272317E+02    0.61974E-05   -0.36207E-04  1274   0.543E-02
   4 F= -.63723127E+02 E0= -.63723127E+02  d E =-.304173E-01
 curvature:  14.58 expect dE= 0.388E+02 dE for cont linesearch  0.230E+02
 ZBRENT: bracketing found
 ZBRENT: interpolating
 opt :   3.8912  next Energy=   -65.532235 (dE=-0.184E+01)
 bond charge predicted
       N       E                     dE             d eps       ncg     rms          rms(c)
DAV:   1    -0.704773534312E+02   -0.67542E+01   -0.91473E+01  1232   0.273E+01    0.145E+01
DAV:   2    -0.662593559046E+02    0.42180E+01   -0.10183E+01  1218   0.913E+00    0.483E+00
DAV:   3    -0.656740474895E+02    0.58531E+00   -0.20842E+00  1302   0.380E+00    0.235E+00
DAV:   4    -0.656039373961E+02    0.70110E-01   -0.65042E-02  1344   0.908E-01    0.137E+00
DAV:   5    -0.655811659546E+02    0.22771E-01   -0.32531E-02  1358   0.512E-01    0.487E-01
DAV:   6    -0.655788026227E+02    0.23633E-02   -0.41719E-03  1288   0.196E-01    0.232E-01
DAV:   7    -0.655786573997E+02    0.14522E-03   -0.77693E-04  1218   0.827E-02    0.588E-02
DAV:   8    -0.655786726242E+02   -0.15224E-04   -0.59828E-05   952   0.283E-02
   5 F= -.65578673E+02 E0= -.65578673E+02  d E =-.188596E+01
 curvature:  -0.05 expect dE=-0.647E-02 dE for cont linesearch -0.304E-03
 ZBRENT: interpolating
 opt :   4.1948  next Energy=   -65.589854 (dE=-0.190E+01)
 bond charge predicted
       N       E                     dE             d eps       ncg     rms          rms(c)
DAV:   1    -0.656237048936E+02   -0.45047E-01   -0.66033E-01  1260   0.240E+00    0.136E+00
DAV:   2    -0.655941616689E+02    0.29543E-01   -0.68872E-02  1162   0.755E-01    0.440E-01
DAV:   3    -0.655904992344E+02    0.36624E-02   -0.15360E-02  1330   0.326E-01    0.166E-01
DAV:   4    -0.655900839136E+02    0.41532E-03   -0.38270E-04  1232   0.734E-02    0.123E-01
DAV:   5    -0.655899313217E+02    0.15259E-03   -0.31281E-04  1260   0.486E-02    0.612E-02
DAV:   6    -0.655899340232E+02   -0.27015E-05   -0.21687E-05   630   0.161E-02
   6 F= -.65589934E+02 E0= -.65589934E+02  d E =-.189722E+01
 curvature:  -1.88 expect dE=-0.308E+00 dE for cont linesearch -0.207E-03
 trial: gam= 0.21174 g(F)=  0.143E+00 g(S)=  0.204E-01 ort =-0.947E-02 (trialstep = 0.164E+01)
 search vector abs. value=  0.196E+00
 bond charge predicted
       N       E                     dE             d eps       ncg     rms          rms(c)
DAV:   1    -0.659483716219E+02   -0.35844E+00   -0.44469E+00  1008   0.603E+00    0.202E+00
DAV:   2    -0.658619592014E+02    0.86412E-01   -0.36253E-01  1260   0.188E+00    0.889E-01
DAV:   3    -0.658444010810E+02    0.17558E-01   -0.45046E-02  1218   0.593E-01    0.459E-01
DAV:   4    -0.658413234409E+02    0.30776E-02   -0.48216E-03  1386   0.218E-01    0.275E-01
DAV:   5    -0.658405246402E+02    0.79880E-03   -0.18463E-03  1386   0.118E-01    0.144E-01
DAV:   6    -0.658405274909E+02   -0.28507E-05   -0.79928E-05   896   0.318E-02
   7 F= -.65840527E+02 E0= -.65840527E+02  d E =-.250593E+00
 ZBRENT: can't locate minimum, use default step
 trial-energy change:   -0.250593  1 .order   -0.249928   -0.264582   -0.235274
 step:   6.5558(harm= 14.7961)  dis= 0.05384  next Energy=   -66.440976 (dE=-0.851E+00)
 bond charge predicted
       N       E                     dE             d eps       ncg     rms          rms(c)
DAV:   1    -0.674150778088E+02   -0.15746E+01   -0.40949E+01  1008   0.185E+01    0.673E+00
DAV:   2    -0.666183152618E+02    0.79676E+00   -0.34761E+00  1260   0.580E+00    0.280E+00
DAV:   3    -0.664574129291E+02    0.16090E+00   -0.45901E-01  1232   0.190E+00    0.145E+00
DAV:   4    -0.664360402270E+02    0.21373E-01   -0.37964E-02  1386   0.624E-01    0.104E+00
DAV:   5    -0.664266363070E+02    0.94039E-02   -0.17957E-02  1358   0.366E-01    0.414E-01
DAV:   6    -0.664264302696E+02    0.20604E-03   -0.14553E-03  1358   0.120E-01    0.129E-01
DAV:   7    -0.664264362286E+02   -0.59590E-05   -0.15838E-04   966   0.433E-02
   8 F= -.66426436E+02 E0= -.66426436E+02  d E =-.836502E+00
 curvature:  -5.46 expect dE=-0.652E+00 dE for cont linesearch -0.313E+00
 ZBRENT: increasing intervall
 opt :  16.3895  next Energy=   -67.099480 (dE=-0.151E+01)
 bond charge predicted
       N       E                     dE             d eps       ncg     rms          rms(c)
DAV:   1    -0.709671281078E+02   -0.45407E+01   -0.17034E+02  1008   0.385E+01    0.172E+01
DAV:   2    -0.677171626504E+02    0.32500E+01   -0.15338E+01  1274   0.122E+01    0.647E+00
DAV:   3    -0.670617847455E+02    0.65538E+00   -0.21664E+00  1246   0.415E+00    0.377E+00
DAV:   4    -0.670039907566E+02    0.57794E-01   -0.14832E-01  1386   0.126E+00    0.298E+00
DAV:   5    -0.669487844309E+02    0.55206E-01   -0.10292E-01  1330   0.886E-01    0.738E-01
DAV:   6    -0.669477651019E+02    0.10193E-02   -0.10857E-02  1386   0.325E-01    0.353E-01
DAV:   7    -0.669477834771E+02   -0.18375E-04   -0.68405E-04  1260   0.854E-02
   9 F= -.66947783E+02 E0= -.66947783E+02  d E =-.135785E+01
 curvature: -11.74 expect dE=-0.403E+01 dE for cont linesearch -0.254E-01
 trial: gam= 1.75409 g(F)=  0.147E+00 g(S)=  0.196E+00 ort = 0.206E-01 (trialstep = 0.884E+00)
 search vector abs. value=  0.102E+01
 bond charge predicted
       N       E                     dE             d eps       ncg     rms          rms(c)
DAV:   1    -0.672978393649E+02   -0.35007E+00   -0.68703E+00  1008   0.763E+00    0.204E+00
DAV:   2    -0.672757134559E+02    0.22126E-01   -0.51415E-01  1260   0.237E+00    0.758E-01
DAV:   3    -0.672604653129E+02    0.15248E-01   -0.24087E-02  1386   0.511E-01    0.481E-01
DAV:   4    -0.672556490117E+02    0.48163E-02   -0.97973E-03  1386   0.298E-01    0.310E-01
DAV:   5    -0.672552387324E+02    0.41028E-03   -0.16103E-03  1246   0.132E-01    0.105E-01
DAV:   6    -0.672552073928E+02    0.31340E-04   -0.35459E-04  1274   0.555E-02
  10 F= -.67255207E+02 E0= -.67255207E+02  d E =-.307424E+00
 ZBRENT: can't locate minimum, use default step
 trial-energy change:   -0.307424  1 .order   -0.307018   -0.334812   -0.279224
 step:   3.5341(harm=  5.3216)  dis= 0.07318  next Energy=   -67.956092 (dE=-0.101E+01)
 bond charge predicted
       N       E                     dE             d eps       ncg     rms          rms(c)
DAV:   1    -0.682712281379E+02   -0.10160E+01   -0.62695E+01  1008   0.232E+01    0.664E+00
DAV:   2    -0.680880784994E+02    0.18315E+00   -0.48919E+00  1260   0.723E+00    0.227E+00
DAV:   3    -0.679544290374E+02    0.13365E+00   -0.22626E-01  1330   0.159E+00    0.161E+00
DAV:   4    -0.679184503338E+02    0.35979E-01   -0.65799E-02  1386   0.787E-01    0.115E+00
DAV:   5    -0.679107017452E+02    0.77486E-02   -0.15241E-02  1330   0.394E-01    0.190E-01
DAV:   6    -0.679100841617E+02    0.61758E-03   -0.34347E-03  1386   0.185E-01    0.927E-02
DAV:   7    -0.679101334602E+02   -0.49299E-04   -0.50601E-04  1106   0.698E-02
  11 F= -.67910133E+02 E0= -.67910133E+02  d E =-.962350E+00
 curvature:  -5.99 expect dE=-0.556E+00 dE for cont linesearch -0.183E+00
 ZBRENT: increasing intervall
 opt :   8.8353  next Energy=   -68.103962 (dE=-0.116E+01)
 bond charge predicted
       N       E                     dE             d eps       ncg     rms          rms(c)
DAV:   1    -0.694910579620E+02   -0.15810E+01   -0.25165E+02  1008   0.474E+01    0.202E+01
DAV:   2    -0.689770836096E+02    0.51397E+00   -0.21694E+01  1260   0.150E+01    0.487E+00
DAV:   3    -0.684801400774E+02    0.49694E+00   -0.97441E-01  1246   0.334E+00    0.480E+00
DAV:   4    -0.683668398695E+02    0.11330E+00   -0.18991E-01  1316   0.136E+00    0.342E+00
DAV:   5    -0.683036372493E+02    0.63203E-01   -0.93551E-02  1260   0.962E-01    0.551E-01
DAV:   6    -0.683023260928E+02    0.13112E-02   -0.21247E-02  1386   0.453E-01    0.267E-01
DAV:   7    -0.683024646626E+02   -0.13857E-03   -0.13952E-03  1190   0.120E-01    0.200E-01
DAV:   8    -0.683024656957E+02   -0.10332E-05   -0.24402E-04  1022   0.467E-02
  12 F= -.68302466E+02 E0= -.68302466E+02  d E =-.135468E+01
 curvature:  -6.35 expect dE=-0.335E+00 dE for cont linesearch -0.174E-01
 ZBRENT: bracketing found
 ZBRENT: interpolating
 opt :   7.6127  next Energy=   -68.334773 (dE=-0.139E+01)
 bond charge predicted
       N       E                     dE             d eps       ncg     rms          rms(c)
DAV:   1    -0.683849956708E+02   -0.82531E-01   -0.12660E+01  1008   0.106E+01    0.296E+00
DAV:   2    -0.683700028584E+02    0.14993E-01   -0.98778E-01  1260   0.332E+00    0.155E+00
DAV:   3    -0.683453313982E+02    0.24671E-01   -0.35123E-02  1288   0.655E-01    0.988E-01
DAV:   4    -0.683314780746E+02    0.13853E-01   -0.25129E-02  1274   0.489E-01    0.282E-01
DAV:   5    -0.683310164117E+02    0.46166E-03   -0.44539E-03  1260   0.212E-01    0.152E-01
DAV:   6    -0.683308843188E+02    0.13209E-03   -0.52351E-04  1302   0.682E-02    0.142E-01
DAV:   7    -0.683308777406E+02    0.65782E-05   -0.89567E-05   826   0.329E-02
  13 F= -.68330878E+02 E0= -.68330878E+02  d E =-.138309E+01
 curvature: -11.78 expect dE=-0.408E+00 dE for cont linesearch -0.389E-02
 ZBRENT: interpolating
 opt :   7.9277  next Energy=   -68.333768 (dE=-0.139E+01)
 bond charge predicted
       N       E                     dE             d eps       ncg     rms          rms(c)
DAV:   1    -0.683357061041E+02   -0.48218E-02   -0.86025E-01  1008   0.276E+00    0.734E-01
DAV:   2    -0.683343813827E+02    0.13247E-02   -0.67157E-02  1260   0.861E-01    0.330E-01
DAV:   3    -0.683325862553E+02    0.17951E-02   -0.26121E-03  1302   0.177E-01    0.185E-01
DAV:   4    -0.683318684197E+02    0.71784E-03   -0.13353E-03  1302   0.114E-01    0.756E-02
DAV:   5    -0.683318415230E+02    0.26897E-04   -0.20839E-04   994   0.478E-02
  14 F= -.68331842E+02 E0= -.68331842E+02  d E =-.138406E+01
 curvature:  -8.74 expect dE=-0.313E+00 dE for cont linesearch -0.873E-04
 trial: gam= 0.08228 g(F)=  0.298E-01 g(S)=  0.599E-02 ort =-0.319E-02 (trialstep = 0.229E+01)
 search vector abs. value=  0.422E-01
 bond charge predicted
       N       E                     dE             d eps       ncg     rms          rms(c)
DAV:   1    -0.683971872456E+02   -0.65319E-01   -0.18532E+00  1008   0.405E+00    0.946E-01
DAV:   2    -0.684075981623E+02   -0.10411E-01   -0.13408E-01  1302   0.122E+00    0.348E-01
DAV:   3    -0.684064535164E+02    0.11446E-02   -0.25567E-03  1288   0.205E-01    0.241E-01
DAV:   4    -0.684058030040E+02    0.65051E-03   -0.16840E-03  1260   0.134E-01    0.740E-02
DAV:   5    -0.684058059873E+02   -0.29833E-05   -0.34739E-04  1050   0.622E-02
  15 F= -.68405806E+02 E0= -.68405806E+02  d E =-.739645E-01
 ZBRENT: can't locate minimum, use default step
 trial-energy change:   -0.073964  1 .order   -0.073893   -0.081494   -0.066291
 step:   9.1695(harm= 12.2882)  dis= 0.05122  next Energy=   -68.550265 (dE=-0.218E+00)
 bond charge predicted
       N       E                     dE             d eps       ncg     rms          rms(c)
DAV:   1    -0.684611273440E+02   -0.55324E-01   -0.16596E+01  1008   0.121E+01    0.292E+00
DAV:   2    -0.685568179323E+02   -0.95691E-01   -0.12134E+00  1316   0.367E+00    0.115E+00
DAV:   3    -0.685470142825E+02    0.98036E-02   -0.22794E-02  1302   0.610E-01    0.832E-01
DAV:   4    -0.685410028152E+02    0.60115E-02   -0.13759E-02  1260   0.384E-01    0.252E-01
DAV:   5    -0.685409724290E+02    0.30386E-04   -0.31552E-03  1176   0.182E-01    0.134E-01
DAV:   6    -0.685409702141E+02    0.22150E-05   -0.20808E-04   994   0.489E-02
  16 F= -.68540970E+02 E0= -.68540970E+02  d E =-.209129E+00
 curvature:  -6.58 expect dE=-0.108E+00 dE for cont linesearch -0.225E-01
 ZBRENT: increasing intervall
 opt :  22.9236  next Energy=   -68.473220 (dE=-0.141E+00)
 bond charge predicted
       N       E                     dE             d eps       ncg     rms          rms(c)
DAV:   1    -0.681733942520E+02    0.36758E+00   -0.65836E+01  1008   0.242E+01    0.721E+00
DAV:   2    -0.685705827068E+02   -0.39719E+00   -0.49578E+00  1302   0.735E+00    0.297E+00
DAV:   3    -0.685322588566E+02    0.38324E-01   -0.94015E-02  1302   0.124E+00    0.221E+00
DAV:   4    -0.685069132582E+02    0.25346E-01   -0.50159E-02  1260   0.726E-01    0.717E-01
DAV:   5    -0.685061072899E+02    0.80597E-03   -0.13257E-02  1260   0.363E-01    0.250E-01
DAV:   6    -0.685060922174E+02    0.15073E-04   -0.78765E-04  1414   0.906E-02
  17 F= -.68506092E+02 E0= -.68506092E+02  d E =-.174251E+00
 curvature:  19.86 expect dE= 0.115E+01 dE for cont linesearch  0.815E-01
 ZBRENT: bracketing found
 ZBRENT: interpolating
 opt :  15.7298  next Energy=   -68.580320 (dE=-0.248E+00)
 bond charge predicted
       N       E                     dE             d eps       ncg     rms          rms(c)
DAV:   1    -0.685024518303E+02    0.36555E-02   -0.17917E+01  1008   0.124E+01    0.287E+00
DAV:   2    -0.685952268193E+02   -0.92775E-01   -0.12514E+00  1288   0.374E+00    0.917E-01
DAV:   3    -0.685848863542E+02    0.10340E-01   -0.23167E-02  1344   0.616E-01    0.644E-01
DAV:   4    -0.685792719700E+02    0.56144E-02   -0.13272E-02  1260   0.376E-01    0.286E-01
DAV:   5    -0.685792106292E+02    0.61341E-04   -0.28637E-03  1218   0.176E-01    0.120E-01
DAV:   6    -0.685791678511E+02    0.42778E-04   -0.17814E-04   910   0.483E-02
  18 F= -.68579168E+02 E0= -.68579168E+02  d E =-.247326E+00
 curvature:  -9.59 expect dE=-0.315E+00 dE for cont linesearch -0.274E-02
 trial: gam= 1.09082 g(F)=  0.742E-02 g(S)=  0.254E-01 ort =-0.347E-02 (trialstep = 0.278E+01)
 search vector abs. value=  0.754E-01
 bond charge predicted
       N       E                     dE             d eps       ncg     rms          rms(c)
DAV:   1    -0.686463354201E+02   -0.67125E-01   -0.51515E+00  1022   0.667E+00    0.177E+00
DAV:   2    -0.686489272419E+02   -0.25918E-02   -0.38064E-01  1274   0.204E+00    0.822E-01
DAV:   3    -0.686436649855E+02    0.52623E-02   -0.13556E-02  1302   0.395E-01    0.478E-01
DAV:   4    -0.686411074068E+02    0.25576E-02   -0.41774E-03  1274   0.202E-01    0.169E-01
DAV:   5    -0.686409079987E+02    0.19941E-03   -0.80874E-04  1274   0.895E-02    0.652E-02
DAV:   6    -0.686408664275E+02    0.41571E-04   -0.95415E-05   840   0.310E-02
  19 F= -.68640866E+02 E0= -.68640866E+02  d E =-.616986E-01
 trial-energy change:   -0.061699  1 .order   -0.062464   -0.080831   -0.044097
 step:   8.0025(harm=  6.1275)  dis= 0.05658  next Energy=   -68.677145 (dE=-0.980E-01)
 bond charge predicted
       N       E                     dE             d eps       ncg     rms          rms(c)
DAV:   1    -0.686843512826E+02   -0.43443E-01   -0.18245E+01  1050   0.126E+01    0.354E+00
DAV:   2    -0.686960378886E+02   -0.11687E-01   -0.13746E+00  1274   0.387E+00    0.149E+00
DAV:   3    -0.686770228603E+02    0.19015E-01   -0.49982E-02  1302   0.756E-01    0.826E-01
DAV:   4    -0.686688762647E+02    0.81466E-02   -0.13803E-02  1274   0.369E-01    0.333E-01
DAV:   5    -0.686681699867E+02    0.70628E-03   -0.23865E-03  1330   0.157E-01    0.127E-01
DAV:   6    -0.686679711676E+02    0.19882E-03   -0.46243E-04  1260   0.640E-02    0.933E-02
DAV:   7    -0.686679833096E+02   -0.12142E-04   -0.49494E-05   756   0.270E-02
  20 F= -.68667983E+02 E0= -.68667983E+02  d E =-.888155E-01
 curvature:  -5.46 expect dE=-0.440E-01 dE for cont linesearch -0.235E-02
 ZBRENT: interpolating
 opt :   6.6209  next Energy=   -68.671923 (dE=-0.928E-01)
 bond charge predicted
       N       E                     dE             d eps       ncg     rms          rms(c)
DAV:   1    -0.686722282249E+02   -0.42571E-02   -0.12698E+00  1036   0.335E+00    0.892E-01
DAV:   2    -0.686736196094E+02   -0.13914E-02   -0.96316E-02  1288   0.103E+00    0.491E-01
DAV:   3    -0.686723866789E+02    0.12329E-02   -0.31683E-03  1302   0.194E-01    0.319E-01
DAV:   4    -0.686715863710E+02    0.80031E-03   -0.12426E-03  1274   0.109E-01    0.908E-02
DAV:   5    -0.686715207874E+02    0.65584E-04   -0.24937E-04   896   0.504E-02
  21 F= -.68671521E+02 E0= -.68671521E+02  d E =-.923529E-01
 curvature:  -9.14 expect dE=-0.637E-01 dE for cont linesearch -0.381E-04
 trial: gam= 0.03774 g(F)=  0.315E-02 g(S)=  0.382E-02 ort = 0.561E-03 (trialstep = 0.355E+01)
 search vector abs. value=  0.712E-02
 bond charge predicted
       N       E                     dE             d eps       ncg     rms          rms(c)
DAV:   1    -0.686974388413E+02   -0.25852E-01   -0.70840E-01  1078   0.259E+00    0.792E-01
DAV:   2    -0.686949810339E+02    0.24578E-02   -0.49080E-02  1260   0.753E-01    0.318E-01
DAV:   3    -0.686930577943E+02    0.19232E-02   -0.31203E-03  1302   0.195E-01    0.196E-01
DAV:   4    -0.686921273870E+02    0.93041E-03   -0.13513E-03  1260   0.119E-01    0.750E-02
DAV:   5    -0.686920585515E+02    0.68836E-04   -0.27535E-04   952   0.542E-02
  22 F= -.68692059E+02 E0= -.68692059E+02  d E =-.205378E-01
 trial-energy change:   -0.020538  1 .order   -0.020459   -0.024837   -0.016082
 step:  10.0763(harm= 10.0763)  dis= 0.01728  next Energy=   -68.706751 (dE=-0.352E-01)
 bond charge predicted
       N       E                     dE             d eps       ncg     rms          rms(c)
DAV:   1    -0.687236298725E+02   -0.31502E-01   -0.23891E+00  1078   0.475E+00    0.147E+00
DAV:   2    -0.687152283393E+02    0.84015E-02   -0.16485E-01  1260   0.138E+00    0.580E-01
DAV:   3    -0.687086065535E+02    0.66218E-02   -0.10708E-02  1302   0.360E-01    0.357E-01
DAV:   4    -0.687055585663E+02    0.30480E-02   -0.45785E-03  1246   0.219E-01    0.134E-01
DAV:   5    -0.687053632153E+02    0.19535E-03   -0.96894E-04  1288   0.986E-02    0.705E-02
DAV:   6    -0.687053616801E+02    0.15352E-05   -0.43126E-05   686   0.237E-02
  23 F= -.68705362E+02 E0= -.68705362E+02  d E =-.338409E-01
 curvature:  -5.13 expect dE=-0.293E-01 dE for cont linesearch -0.619E-04
 trial: gam= 0.85347 g(F)=  0.328E-02 g(S)=  0.243E-02 ort =-0.293E-03 (trialstep = 0.333E+01)
 search vector abs. value=  0.104E-01
 bond charge predicted
       N       E                     dE             d eps       ncg     rms          rms(c)
DAV:   1    -0.687177435955E+02   -0.12380E-01   -0.79389E-01  1022   0.262E+00    0.477E-01
DAV:   2    -0.687201753839E+02   -0.24318E-02   -0.50798E-02  1302   0.756E-01    0.249E-01
DAV:   3    -0.687196126333E+02    0.56275E-03   -0.12957E-03  1316   0.133E-01    0.174E-01
DAV:   4    -0.687192230628E+02    0.38957E-03   -0.46098E-04  1260   0.695E-02    0.819E-02
DAV:   5    -0.687191499798E+02    0.73083E-04   -0.19274E-04   882   0.485E-02
  24 F= -.68719150E+02 E0= -.68719150E+02  d E =-.137883E-01
 trial-energy change:   -0.013788  1 .order   -0.013960   -0.018162   -0.009758
 step:   7.1891(harm=  7.1891)  dis= 0.02377  next Energy=   -68.724987 (dE=-0.196E-01)
 bond charge predicted
       N       E                     dE             d eps       ncg     rms          rms(c)
DAV:   1    -0.687234074737E+02   -0.41844E-02   -0.10617E+00  1022   0.303E+00    0.566E-01
DAV:   2    -0.687265447958E+02   -0.31373E-02   -0.68085E-02  1316   0.873E-01    0.274E-01
DAV:   3    -0.687257780592E+02    0.76674E-03   -0.17813E-03  1302   0.155E-01    0.189E-01
DAV:   4    -0.687252931323E+02    0.48493E-03   -0.55452E-04  1260   0.762E-02    0.903E-02
DAV:   5    -0.687251920849E+02    0.10105E-03   -0.26971E-04  1050   0.556E-02    0.352E-02
DAV:   6    -0.687251942583E+02   -0.21735E-05   -0.53975E-05   686   0.252E-02
  25 F= -.68725194E+02 E0= -.68725194E+02  d E =-.198326E-01
 curvature:  -6.84 expect dE=-0.404E-01 dE for cont linesearch -0.782E-05
 trial: gam= 0.66768 g(F)=  0.310E-02 g(S)=  0.281E-02 ort =-0.109E-03 (trialstep = 0.410E+01)
 search vector abs. value=  0.104E-01
 bond charge predicted
       N       E                     dE             d eps       ncg     rms          rms(c)
DAV:   1    -0.687389453567E+02   -0.13753E-01   -0.13575E+00  1064   0.349E+00    0.851E-01
DAV:   2    -0.687418435592E+02   -0.28982E-02   -0.96177E-02  1246   0.105E+00    0.377E-01
DAV:   3    -0.687402535691E+02    0.15900E-02   -0.43338E-03  1274   0.233E-01    0.237E-01
DAV:   4    -0.687393257929E+02    0.92778E-03   -0.10974E-03  1246   0.109E-01    0.112E-01
DAV:   5    -0.687391689479E+02    0.15684E-03   -0.51015E-04  1260   0.753E-02    0.338E-02
DAV:   6    -0.687391735041E+02   -0.45562E-05   -0.65385E-05   602   0.278E-02
  26 F= -.68739174E+02 E0= -.68739174E+02  d E =-.139792E-01
 trial-energy change:   -0.013979  1 .order   -0.013426   -0.023919   -0.002934
 step:   4.5857(harm=  4.6718)  dis= 0.01384  next Energy=   -68.739349 (dE=-0.142E-01)
 bond charge predicted
       N       E                     dE             d eps       ncg     rms          rms(c)
DAV:   1    -0.687394620615E+02   -0.29311E-03   -0.19347E-02  1064   0.417E-01    0.111E-01
DAV:   2    -0.687395133287E+02   -0.51267E-04   -0.14111E-03  1246   0.127E-01    0.406E-02
DAV:   3    -0.687394901829E+02    0.23146E-04   -0.51015E-05   630   0.278E-02
  27 F= -.68739490E+02 E0= -.68739490E+02  d E =-.142959E-01
 curvature:  -4.07 expect dE=-0.129E-01 dE for cont linesearch -0.156E-03
 trial: gam= 0.34558 g(F)=  0.292E-02 g(S)=  0.261E-03 ort = 0.631E-03 (trialstep = 0.420E+01)
 search vector abs. value=  0.486E-02
 bond charge predicted
       N       E                     dE             d eps       ncg     rms          rms(c)
DAV:   1    -0.687433015740E+02   -0.37882E-02   -0.46070E-01  1008   0.211E+00    0.567E-01
DAV:   2    -0.687449424729E+02   -0.16409E-02   -0.36278E-02  1358   0.622E-01    0.177E-01
DAV:   3    -0.687441933221E+02    0.74915E-03   -0.10652E-03  1260   0.129E-01    0.112E-01
DAV:   4    -0.687438996445E+02    0.29368E-03   -0.63786E-04  1260   0.812E-02    0.480E-02
DAV:   5    -0.687438876000E+02    0.12045E-04   -0.83519E-05   616   0.327E-02
  28 F= -.68743888E+02 E0= -.68743888E+02  d E =-.439742E-02
 trial-energy change:   -0.004397  1 .order   -0.006932   -0.014267    0.000404
 step:   3.4346(harm=  4.0806)  dis= 0.00773  next Energy=   -68.743939 (dE=-0.445E-02)
 bond charge predicted
       N       E                     dE             d eps       ncg     rms          rms(c)
DAV:   1    -0.687439324680E+02   -0.32824E-04   -0.15250E-02  1008   0.384E-01    0.930E-02
DAV:   2    -0.687439846728E+02   -0.52205E-04   -0.12061E-03  1330   0.114E-01    0.375E-02
DAV:   3    -0.687439599442E+02    0.24729E-04   -0.29145E-05   546   0.229E-02
  29 F= -.68743960E+02 E0= -.68743960E+02  d E =-.446976E-02
 curvature:  88.31 expect dE= 0.723E-01 dE for cont linesearch  0.135E-03
 trial: gam= 0.24836 g(F)=  0.599E-03 g(S)=  0.219E-03 ort =-0.862E-04 (trialstep = 0.404E+01)
 search vector abs. value=  0.108E-02
 bond charge predicted
       N       E                     dE             d eps       ncg     rms          rms(c)
DAV:   1    -0.687458071672E+02   -0.18225E-02   -0.10521E-01  1008   0.972E-01    0.233E-01
DAV:   2    -0.687462045356E+02   -0.39737E-03   -0.75398E-03  1302   0.293E-01    0.930E-02
DAV:   3    -0.687461167179E+02    0.87818E-04   -0.19551E-04  1008   0.529E-02
  30 F= -.68746117E+02 E0= -.68746117E+02  d E =-.215677E-02
 trial-energy change:   -0.002157  1 .order   -0.002403   -0.003222   -0.001583
 step:   7.9488(harm=  7.9488)  dis= 0.00812  next Energy=   -68.747127 (dE=-0.317E-02)
 bond charge predicted
       N       E                     dE             d eps       ncg     rms          rms(c)
DAV:   1    -0.687468773225E+02   -0.67279E-03   -0.93733E-02  1008   0.916E-01    0.223E-01
DAV:   2    -0.687471643090E+02   -0.28699E-03   -0.64611E-03  1302   0.272E-01    0.841E-02
DAV:   3    -0.687470756440E+02    0.88665E-04   -0.18859E-04   952   0.518E-02
  31 F= -.68747076E+02 E0= -.68747076E+02  d E =-.311570E-02
 curvature:  -5.36 expect dE=-0.307E-02 dE for cont linesearch -0.764E-04
 ZBRENT: extrapolating
 opt :   9.7546  next Energy=   -68.747187 (dE=-0.323E-02)
 bond charge predicted
       N       E                     dE             d eps       ncg     rms          rms(c)
DAV:   1    -0.687470793269E+02    0.84982E-04   -0.19316E-02  1008   0.415E-01    0.105E-01
DAV:   2    -0.687471263519E+02   -0.47025E-04   -0.12896E-03  1302   0.122E-01    0.375E-02
DAV:   3    -0.687471044468E+02    0.21905E-04   -0.40369E-05   672   0.241E-02
  32 F= -.68747104E+02 E0= -.68747104E+02  d E =-.314450E-02
 curvature:  -7.84 expect dE=-0.651E-02 dE for cont linesearch -0.567E-05
 trial: gam= 1.05037 g(F)=  0.683E-03 g(S)=  0.148E-03 ort =-0.279E-04 (trialstep = 0.285E+01)
 search vector abs. value=  0.196E-02
 bond charge predicted
       N       E                     dE             d eps       ncg     rms          rms(c)
DAV:   1    -0.687479785863E+02   -0.85223E-03   -0.10104E-01  1008   0.930E-01    0.193E-01
DAV:   2    -0.687485131507E+02   -0.53456E-03   -0.65821E-03  1288   0.276E-01    0.578E-02
DAV:   3    -0.687484615258E+02    0.51625E-04   -0.10678E-04   938   0.439E-02
  33 F= -.68748462E+02 E0= -.68748462E+02  d E =-.135708E-02
 trial-energy change:   -0.001357  1 .order   -0.001587   -0.002282   -0.000892
 step:   4.6738(harm=  4.6738)  dis= 0.00745  next Energy=   -68.748977 (dE=-0.187E-02)
 bond charge predicted
       N       E                     dE             d eps       ncg     rms          rms(c)
DAV:   1    -0.687487164937E+02   -0.20334E-03   -0.39857E-02  1008   0.582E-01    0.123E-01
DAV:   2    -0.687489102327E+02   -0.19374E-03   -0.24968E-03  1302   0.171E-01    0.366E-02
DAV:   3    -0.687488893183E+02    0.20914E-04   -0.41156E-05   798   0.276E-02
  34 F= -.68748889E+02 E0= -.68748889E+02  d E =-.178487E-02
 curvature:  -5.71 expect dE=-0.572E-02 dE for cont linesearch -0.747E-04
 trial: gam= 0.58928 g(F)=  0.786E-03 g(S)=  0.215E-03 ort = 0.160E-03 (trialstep = 0.321E+01)
 search vector abs. value=  0.187E-02
 bond charge predicted
       N       E                     dE             d eps       ncg     rms          rms(c)
DAV:   1    -0.687508333792E+02   -0.19231E-02   -0.97676E-02  1036   0.948E-01    0.241E-01
DAV:   2    -0.687508829547E+02   -0.49575E-04   -0.70518E-03  1330   0.283E-01    0.111E-01
DAV:   3    -0.687507655362E+02    0.11742E-03   -0.26809E-04  1022   0.572E-02    0.588E-02
DAV:   4    -0.687507195015E+02    0.46035E-04   -0.89159E-05   672   0.321E-02
  35 F= -.68750720E+02 E0= -.68750720E+02  d E =-.183018E-02
 trial-energy change:   -0.001830  1 .order   -0.002132   -0.003518   -0.000746
 step:   4.0773(harm=  4.0773)  dis= 0.00516  next Energy=   -68.751122 (dE=-0.223E-02)
 bond charge predicted
       N       E                     dE             d eps       ncg     rms          rms(c)
DAV:   1    -0.687507612702E+02    0.42660E-05   -0.69395E-03  1022   0.254E-01    0.657E-02
DAV:   2    -0.687507624938E+02   -0.12236E-05   -0.49466E-04  1260   0.749E-02
  36 F= -.68750762E+02 E0= -.68750762E+02  d E =-.187318E-02
 curvature:  -3.48 expect dE=-0.228E-02 dE for cont linesearch -0.574E-06
 trial: gam= 0.72632 g(F)=  0.525E-03 g(S)=  0.129E-03 ort = 0.176E-04 (trialstep = 0.339E+01)
 search vector abs. value=  0.167E-02
 bond charge predicted
       N       E                     dE             d eps       ncg     rms          rms(c)
DAV:   1    -0.687517350046E+02   -0.97373E-03   -0.10568E-01  1008   0.978E-01    0.238E-01
DAV:   2    -0.687519534517E+02   -0.21845E-03   -0.71524E-03  1260   0.295E-01    0.958E-02
DAV:   3    -0.687518372998E+02    0.11615E-03   -0.35940E-04  1218   0.667E-02    0.602E-02
DAV:   4    -0.687517720753E+02    0.65224E-04   -0.61777E-05   658   0.285E-02
  37 F= -.68751772E+02 E0= -.68751772E+02  d E =-.100958E-02
 trial-energy change:   -0.001010  1 .order   -0.001383   -0.002258   -0.000508
 step:   4.3680(harm=  4.3680)  dis= 0.00476  next Energy=   -68.752219 (dE=-0.146E-02)
 bond charge predicted
       N       E                     dE             d eps       ncg     rms          rms(c)
DAV:   1    -0.687517982792E+02    0.39021E-04   -0.82019E-03  1008   0.274E-01    0.678E-02
DAV:   2    -0.687518097952E+02   -0.11516E-04   -0.53192E-04  1260   0.803E-02
  38 F= -.68751810E+02 E0= -.68751810E+02  d E =-.104730E-02
 curvature:  -5.45 expect dE=-0.352E-02 dE for cont linesearch -0.312E-05
 trial: gam= 0.74561 g(F)=  0.470E-03 g(S)=  0.176E-03 ort = 0.308E-04 (trialstep = 0.358E+01)
 search vector abs. value=  0.162E-02
 bond charge predicted
       N       E                     dE             d eps       ncg     rms          rms(c)
DAV:   1    -0.687532408736E+02   -0.14426E-02   -0.12652E-01  1036   0.106E+00    0.258E-01
DAV:   2    -0.687534365799E+02   -0.19571E-03   -0.88493E-03  1260   0.323E-01    0.124E-01
DAV:   3    -0.687533225219E+02    0.11406E-03   -0.38504E-04  1232   0.677E-02    0.804E-02
DAV:   4    -0.687532450839E+02    0.77438E-04   -0.77437E-05   644   0.307E-02
  39 F= -.68753245E+02 E0= -.68753245E+02  d E =-.143529E-02
 trial-energy change:   -0.001435  1 .order   -0.001516   -0.002397   -0.000635
 step:   4.8724(harm=  4.8724)  dis= 0.00553  next Energy=   -68.753440 (dE=-0.163E-02)
 bond charge predicted
       N       E                     dE             d eps       ncg     rms          rms(c)
DAV:   1    -0.687533427347E+02   -0.20213E-04   -0.15431E-02  1022   0.371E-01    0.899E-02
DAV:   2    -0.687533543311E+02   -0.11596E-04   -0.10571E-03  1260   0.111E-01    0.381E-02
DAV:   3    -0.687533403100E+02    0.14021E-04   -0.51400E-05   686   0.259E-02
  40 F= -.68753340E+02 E0= -.68753340E+02  d E =-.153051E-02
 curvature:  -5.89 expect dE=-0.541E-02 dE for cont linesearch -0.339E-04
 trial: gam= 1.09702 g(F)=  0.676E-03 g(S)=  0.242E-03 ort = 0.965E-04 (trialstep = 0.202E+01)
 search vector abs. value=  0.308E-02
 bond charge predicted
       N       E                     dE             d eps       ncg     rms          rms(c)
DAV:   1    -0.687546380571E+02   -0.12837E-02   -0.74716E-02  1022   0.813E-01    0.172E-01
DAV:   2    -0.687549420690E+02   -0.30401E-03   -0.51518E-03  1274   0.241E-01    0.770E-02
DAV:   3    -0.687548917469E+02    0.50322E-04   -0.10127E-04   910   0.410E-02
  41 F= -.68754892E+02 E0= -.68754892E+02  d E =-.155144E-02
 trial-energy change:   -0.001551  1 .order   -0.001623   -0.002067   -0.001180
 step:   4.7044(harm=  4.7044)  dis= 0.00716  next Energy=   -68.755748 (dE=-0.241E-02)
 bond charge predicted
       N       E                     dE             d eps       ncg     rms          rms(c)
DAV:   1    -0.687551303779E+02   -0.18831E-03   -0.12943E-01  1036   0.107E+00    0.224E-01
DAV:   2    -0.687556288074E+02   -0.49843E-03   -0.87854E-03  1288   0.315E-01    0.100E-01
DAV:   3    -0.687555419419E+02    0.86865E-04   -0.18656E-04  1022   0.540E-02
  42 F= -.68755542E+02 E0= -.68755542E+02  d E =-.220163E-02
 curvature:  -7.07 expect dE=-0.583E-02 dE for cont linesearch -0.207E-04
 trial: gam= 0.56585 g(F)=  0.625E-03 g(S)=  0.199E-03 ort = 0.949E-04 (trialstep = 0.256E+01)
 search vector abs. value=  0.192E-02
 bond charge predicted
       N       E                     dE             d eps       ncg     rms          rms(c)
DAV:   1    -0.687565588378E+02   -0.93003E-03   -0.68417E-02  1036   0.784E-01    0.164E-01
DAV:   2    -0.687567875050E+02   -0.22867E-03   -0.48045E-03  1316   0.239E-01    0.870E-02
DAV:   3    -0.687567559434E+02    0.31562E-04   -0.22050E-04  1008   0.530E-02
  43 F= -.68756756E+02 E0= -.68756756E+02  d E =-.121400E-02
 trial-energy change:   -0.001214  1 .order   -0.001341   -0.002245   -0.000438
 step:   3.1760(harm=  3.1760)  dis= 0.00463  next Energy=   -68.756936 (dE=-0.139E-02)
 bond charge predicted
       N       E                     dE             d eps       ncg     rms          rms(c)
DAV:   1    -0.687568330976E+02   -0.45593E-04   -0.38300E-03  1036   0.185E-01    0.435E-02
DAV:   2    -0.687568217275E+02    0.11370E-04   -0.21488E-04  1022   0.554E-02
  44 F= -.68756822E+02 E0= -.68756822E+02  d E =-.127979E-02
 curvature:  -3.47 expect dE=-0.124E-02 dE for cont linesearch -0.642E-04
 ZBRENT: increasing intervall
 opt :   4.4147  next Energy=   -68.757076 (dE=-0.153E-02)
 bond charge predicted
       N       E                     dE             d eps       ncg     rms          rms(c)
DAV:   1    -0.687569405776E+02   -0.10748E-03   -0.16455E-02  1036   0.383E-01    0.819E-02
DAV:   2    -0.687569868297E+02   -0.46252E-04   -0.11810E-03  1358   0.119E-01    0.474E-02
DAV:   3    -0.687569742620E+02    0.12568E-04   -0.48528E-05   714   0.260E-02
  45 F= -.68756974E+02 E0= -.68756974E+02  d E =-.143232E-02
 curvature: -13.75 expect dE=-0.491E-02 dE for cont linesearch -0.123E-03
 ZBRENT: increasing intervall
 opt :   6.8921  next Energy=   -68.757156 (dE=-0.161E-02)
 bond charge predicted
       N       E                     dE             d eps       ncg     rms          rms(c)
DAV:   1    -0.687565822320E+02    0.40460E-03   -0.65179E-02  1036   0.766E-01    0.161E-01
DAV:   2    -0.687567905249E+02   -0.20829E-03   -0.46514E-03  1288   0.235E-01    0.826E-02
DAV:   3    -0.687567553917E+02    0.35133E-04   -0.22375E-04  1036   0.535E-02
  46 F= -.68756755E+02 E0= -.68756755E+02  d E =-.121345E-02
 curvature: -20.35 expect dE=-0.217E-01 dE for cont linesearch -0.126E-02
 ZBRENT: bracketing found
 ZBRENT: interpolating
 opt :   5.0976  next Energy=   -68.757019 (dE=-0.148E-02)
 bond charge predicted
       N       E                     dE             d eps       ncg     rms          rms(c)
DAV:   1    -0.687568737153E+02   -0.83190E-04   -0.35677E-02  1036   0.568E-01    0.135E-01
DAV:   2    -0.687570603066E+02   -0.18659E-03   -0.28024E-03  1274   0.178E-01    0.521E-02
DAV:   3    -0.687570527622E+02    0.75444E-05   -0.96921E-05   686   0.372E-02
  47 F= -.68757053E+02 E0= -.68757053E+02  d E =-.151082E-02
 curvature:  -0.72 expect dE=-0.250E-03 dE for cont linesearch -0.373E-05
 ZBRENT: bisectioning
 opt :   5.9949  next Energy=   -68.757123 (dE=-0.158E-02)
 bond charge predicted
       N       E                     dE             d eps       ncg     rms          rms(c)
DAV:   1    -0.687569509510E+02    0.10936E-03   -0.89893E-03  1036   0.286E-01    0.679E-02
DAV:   2    -0.687569962143E+02   -0.45263E-04   -0.71350E-04  1260   0.903E-02
  48 F= -.68756996E+02 E0= -.68756996E+02  d E =-.145427E-02
 curvature: -13.69 expect dE=-0.897E-02 dE for cont linesearch -0.127E-03
 ZBRENT: interpolating
 opt :   5.4806  next Energy=   -68.757072 (dE=-0.153E-02)
 bond charge predicted
       N       E                     dE             d eps       ncg     rms          rms(c)
DAV:   1    -0.687570362257E+02   -0.85275E-04   -0.28674E-03  1050   0.163E-01    0.414E-02
DAV:   2    -0.687570482656E+02   -0.12040E-04   -0.20734E-04   784   0.506E-02
  49 F= -.68757048E+02 E0= -.68757048E+02  d E =-.150632E-02
 curvature:  -2.05 expect dE=-0.135E-02 dE for cont linesearch -0.487E-05
 trial: gam= 0.91752 g(F)=  0.535E-03 g(S)=  0.125E-03 ort =-0.675E-04 (trialstep = 0.280E+01)
 search vector abs. value=  0.215E-02
 bond charge predicted
       N       E                     dE             d eps       ncg     rms          rms(c)
DAV:   1    -0.687574523690E+02   -0.41614E-03   -0.11534E-01  1050   0.100E+00    0.224E-01
DAV:   2    -0.687580135010E+02   -0.56113E-03   -0.79985E-03  1274   0.301E-01    0.815E-02
DAV:   3    -0.687579541698E+02    0.59331E-04   -0.16498E-04   826   0.526E-02
  50 F= -.68757954E+02 E0= -.68757954E+02  d E =-.905904E-03
 trial-energy change:   -0.000906  1 .order   -0.001053   -0.001674   -0.000432
 step:   3.7769(harm=  3.7769)  dis= 0.00495  next Energy=   -68.758177 (dE=-0.113E-02)
 bond charge predicted
       N       E                     dE             d eps       ncg     rms          rms(c)
DAV:   1    -0.687579730116E+02    0.40489E-04   -0.12832E-02  1050   0.331E-01    0.728E-02
DAV:   2    -0.687580112978E+02   -0.38286E-04   -0.77225E-04  1274   0.953E-02
  51 F= -.68758011E+02 E0= -.68758011E+02  d E =-.963032E-03
 curvature:  -6.79 expect dE=-0.415E-02 dE for cont linesearch -0.291E-04
 trial: gam= 0.36832 g(F)=  0.553E-03 g(S)=  0.574E-04 ort = 0.960E-04 (trialstep = 0.300E+01)
 search vector abs. value=  0.973E-03
 bond charge predicted
       N       E                     dE             d eps       ncg     rms          rms(c)
DAV:   1    -0.687594849055E+02   -0.15119E-02   -0.48636E-02  1008   0.664E-01    0.128E-01
DAV:   2    -0.687597105827E+02   -0.22568E-03   -0.34385E-03  1330   0.199E-01    0.664E-02
DAV:   3    -0.687596809602E+02    0.29623E-04   -0.79752E-05   840   0.360E-02
  52 F= -.68759681E+02 E0= -.68759681E+02  d E =-.166966E-02
 trial-energy change:   -0.001670  1 .order   -0.001676   -0.001936   -0.001417
 step:  11.1728(harm= 11.1728)  dis= 0.01169  next Energy=   -68.761620 (dE=-0.361E-02)
 bond charge predicted
       N       E                     dE             d eps       ncg     rms          rms(c)
DAV:   1    -0.687583969209E+02    0.13137E-02   -0.35778E-01  1008   0.181E+00    0.352E-01
DAV:   2    -0.687601500963E+02   -0.17532E-02   -0.25862E-02  1344   0.543E-01    0.158E-01
DAV:   3    -0.687599592101E+02    0.19089E-03   -0.68597E-04  1316   0.985E-02    0.101E-01
DAV:   4    -0.687598551538E+02    0.10406E-03   -0.13879E-04   882   0.419E-02    0.523E-02
DAV:   5    -0.687598333364E+02    0.21817E-04   -0.12647E-04   896   0.412E-02
  53 F= -.68759833E+02 E0= -.68759833E+02  d E =-.182204E-02
 curvature:  -8.41 expect dE=-0.127E-01 dE for cont linesearch -0.168E-02
 ZBRENT: interpolating
 opt :   7.2306  next Energy=   -68.760701 (dE=-0.269E-02)
 bond charge predicted
       N       E                     dE             d eps       ncg     rms          rms(c)
DAV:   1    -0.687604657139E+02   -0.61056E-03   -0.84491E-02  1022   0.876E-01    0.162E-01
DAV:   2    -0.687609055199E+02   -0.43981E-03   -0.61388E-03  1344   0.265E-01    0.800E-02
DAV:   3    -0.687608613162E+02    0.44204E-04   -0.13861E-04   924   0.471E-02
  54 F= -.68760861E+02 E0= -.68760861E+02  d E =-.285002E-02
 curvature:  -4.36 expect dE=-0.276E-02 dE for cont linesearch -0.407E-05
 trial: gam= 1.15272 g(F)=  0.361E-03 g(S)=  0.273E-03 ort =-0.301E-04 (trialstep = 0.201E+01)
 search vector abs. value=  0.186E-02
 bond charge predicted
       N       E                     dE             d eps       ncg     rms          rms(c)
DAV:   1    -0.687614828870E+02   -0.57737E-03   -0.52877E-02  1022   0.683E-01    0.163E-01
DAV:   2    -0.687617014479E+02   -0.21856E-03   -0.37691E-03  1260   0.208E-01    0.609E-02
DAV:   3    -0.687616667000E+02    0.34748E-04   -0.87736E-05   784   0.371E-02
  55 F= -.68761667E+02 E0= -.68761667E+02  d E =-.805384E-03
 trial-energy change:   -0.000805  1 .order   -0.000875   -0.001206   -0.000543
 step:   3.6637(harm=  3.6637)  dis= 0.00506  next Energy=   -68.761959 (dE=-0.110E-02)
 bond charge predicted
       N       E                     dE             d eps       ncg     rms          rms(c)
DAV:   1    -0.687618143787E+02   -0.11293E-03   -0.33215E-02  1050   0.539E-01    0.119E-01
DAV:   2    -0.687619093377E+02   -0.94959E-04   -0.21253E-03  1274   0.158E-01    0.521E-02
DAV:   3    -0.687618824893E+02    0.26848E-04   -0.59619E-05   728   0.299E-02
  56 F= -.68761882E+02 E0= -.68761882E+02  d E =-.102117E-02
 curvature:  -5.68 expect dE=-0.381E-02 dE for cont linesearch -0.600E-05
 trial: gam= 0.43857 g(F)=  0.485E-03 g(S)=  0.185E-03 ort = 0.443E-04 (trialstep = 0.234E+01)
 search vector abs. value=  0.107E-02
 bond charge predicted
       N       E                     dE             d eps       ncg     rms          rms(c)
DAV:   1    -0.687628270772E+02   -0.91774E-03   -0.37376E-02  1050   0.592E-01    0.155E-01
DAV:   2    -0.687629271908E+02   -0.10011E-03   -0.27973E-03  1316   0.178E-01    0.546E-02
DAV:   3    -0.687628615872E+02    0.65604E-04   -0.74414E-05   770   0.361E-02
  57 F= -.68762862E+02 E0= -.68762862E+02  d E =-.979098E-03
 trial-energy change:   -0.000979  1 .order   -0.001017   -0.001616   -0.000417
 step:   3.1597(harm=  3.1597)  dis= 0.00303  next Energy=   -68.762972 (dE=-0.109E-02)
 reached required accuracy - stopping structural energy minimisation
