CIS                                     
           1
     6.456999    0.790754   -0.988154
    -0.865150    6.470254   -0.535566
     0.147270    1.054517   12.410146
   Li   Sb   S 
   4   4   8
Direct configuration=     1
   0.51696127  0.73781771  0.88080757
   0.48303873  0.26218229  0.11919243
   0.98367476  0.73743148  0.61946244
   0.01632524  0.26256852  0.38053756
   0.03733388  0.79571282  0.12119584
   0.96266612  0.20428718  0.87880416
   0.46308368  0.79527065  0.37915100
   0.53691632  0.20472935  0.62084900
   0.51656990  0.18558520  0.38446004
   0.48343010  0.81441480  0.61553996
   0.98260466  0.18602253  0.11531716
   0.01739534  0.81397747  0.88468284
   0.93178840  0.23024954  0.64474581
   0.06821160  0.76975046  0.35525419
   0.56779112  0.23067466  0.85497141
   0.43220888  0.76932534  0.14502859
CIS                                     
           1
     6.379449    0.782015   -0.969460
    -0.853974    6.388192   -0.528753
     0.159442    1.044293   12.267614
   Li   Sb   S 
   4   4   8
Direct configuration=     2
   0.51698316  0.73815112  0.88068411
   0.48301684  0.26184888  0.11931589
   0.98364555  0.73776808  0.61958448
   0.01635445  0.26223192  0.38041552
   0.03854993  0.79691341  0.12130653
   0.96145007  0.20308659  0.87869347
   0.46196185  0.79638841  0.37910168
   0.53803815  0.20361159  0.62089832
   0.51626846  0.18457973  0.38452401
   0.48373154  0.81542027  0.61547599
   0.98292105  0.18501057  0.11525393
   0.01707895  0.81498943  0.88474607
   0.93069529  0.23007507  0.64478110
   0.06930471  0.76992493  0.35521890
   0.56888924  0.23046824  0.85494376
   0.43111076  0.76953176  0.14505624
CIS                                     
           1
     6.210969    0.763030   -0.928847
    -0.829694    6.209908   -0.513953
     0.185888    1.022082   11.957960
   Li   Sb   S 
   4   4   8
Direct configuration=     3
   0.51703186  0.73888477  0.88041278
   0.48296814  0.26111523  0.11958722
   0.98358070  0.73850875  0.61985268
   0.01641930  0.26149125  0.38014732
   0.04122337  0.79955517  0.12154825
   0.95877663  0.20044483  0.87845175
   0.45949516  0.79884804  0.37899467
   0.54050484  0.20115196  0.62100533
   0.51560537  0.18236726  0.38466495
   0.48439463  0.81763274  0.61533505
   0.98361715  0.18278379  0.11511462
   0.01638285  0.81721621  0.88488538
   0.92829142  0.22969122  0.64485998
   0.07170858  0.77030878  0.35514002
   0.57130409  0.23001394  0.85488167
   0.42869591  0.76998606  0.14511833
CIS                                     
           1
     5.874008    0.725060   -0.847621
    -0.781135    5.853341   -0.484352
     0.238779    0.977659   11.338650
   Li   Sb   S 
   4   4   8
Direct configuration=     4
   0.51713452  0.74039421  0.87985616
   0.48286548  0.25960579  0.12014384
   0.98344468  0.74003264  0.62040293
   0.01655532  0.25996736  0.37959707
   0.04671263  0.80499007  0.12203708
   0.95328737  0.19500993  0.87796292
   0.45442851  0.80390893  0.37878151
   0.54557149  0.19609107  0.62121849
   0.51424208  0.17781533  0.38495578
   0.48575792  0.82218467  0.61504422
   0.98504887  0.17820223  0.11482714
   0.01495113  0.82179777  0.88517286
   0.92335239  0.22890179  0.64502797
   0.07664761  0.77109821  0.35497203
   0.57626565  0.22907893  0.85474809
   0.42373435  0.77092107  0.14525191
CIS                                     
           1
     6.155236    0.756750   -0.915413
    -0.821663    6.150933   -0.509057
     0.194636    1.014734   11.855527
   Li   Sb   S 
   4   4   8
Direct configuration=     5
   0.51703892  0.73905766  0.88034598
   0.48296108  0.26094234  0.11965402
   0.98357007  0.73868328  0.61991869
   0.01642993  0.26131672  0.38008131
   0.04187332  0.80017836  0.12162041
   0.95812668  0.19982164  0.87837959
   0.45889883  0.79942706  0.37895691
   0.54110117  0.20057294  0.62104309
   0.51544737  0.18184573  0.38469666
   0.48455263  0.81815427  0.61530334
   0.98378198  0.18225921  0.11508334
   0.01621802  0.81774079  0.88491666
   0.92771285  0.22960018  0.64486836
   0.07228715  0.77039982  0.35513164
   0.57188540  0.22990747  0.85487746
   0.42811460  0.77009253  0.14512254
CIS                                     
           1
     6.131694    0.754097   -0.909738
    -0.818270    6.126020   -0.506989
     0.198331    1.011631   11.812258
   Li   Sb   S 
   4   4   8
Direct configuration=     6
   0.51704622  0.73916414  0.88030675
   0.48295378  0.26083586  0.11969325
   0.98356041  0.73879077  0.61995747
   0.01643959  0.26120923  0.38004253
   0.04226025  0.80056171  0.12165469
   0.95773975  0.19943829  0.87834531
   0.45854164  0.79978405  0.37894204
   0.54145836  0.20021595  0.62105796
   0.51535123  0.18152465  0.38471719
   0.48464877  0.81847535  0.61528281
   0.98388296  0.18193604  0.11506304
   0.01611704  0.81806396  0.88493696
   0.92736463  0.22954450  0.64488035
   0.07263537  0.77045550  0.35511965
   0.57223521  0.22984151  0.85486790
   0.42776479  0.77015849  0.14513210
CIS                                     
           1
     6.100593    0.751829   -0.888367
    -0.812604    6.084127   -0.504318
     0.224174    1.005284   11.713003
   Li   Sb   S 
   4   4   8
Direct configuration=     7
   0.51707169  0.73981065  0.88006370
   0.48292831  0.26018935  0.11993630
   0.98352238  0.73944338  0.62020266
   0.01647762  0.26055662  0.37979734
   0.04036338  0.79864471  0.12137154
   0.95963662  0.20135529  0.87862846
   0.46048912  0.79824315  0.37921329
   0.53951088  0.20175685  0.62078671
   0.51514907  0.18350860  0.38421736
   0.48485093  0.81649140  0.61578264
   0.98407417  0.18397897  0.11558402
   0.01592583  0.81602103  0.88441598
   0.92909264  0.22928274  0.64431429
   0.07090736  0.77071726  0.35568571
   0.57036200  0.22960658  0.85540198
   0.42963800  0.77039342  0.14459802
CIS                                     
           1
     6.007289    0.745024   -0.824256
    -0.795607    5.958448   -0.496305
     0.301703    0.986243   11.415239
   Li   Sb   S 
   4   4   8
Direct configuration=     8
   0.51715173  0.74176333  0.87932862
   0.48284827  0.25823667  0.12067138
   0.98340435  0.74141487  0.62094451
   0.01659565  0.25858513  0.37905549
   0.03464737  0.79285408  0.12052294
   0.96535263  0.20714592  0.87947706
   0.46635801  0.79358874  0.38002496
   0.53364199  0.20641126  0.61997504
   0.51454614  0.18950099  0.38270693
   0.48545386  0.81049901  0.61729307
   0.98464360  0.19015028  0.11715927
   0.01535640  0.80984972  0.88284073
   0.93431100  0.22849150  0.64259479
   0.06568900  0.77150850  0.35740521
   0.56470624  0.22889748  0.85702529
   0.43529376  0.77110252  0.14297471
CIS                                     
           1
     5.820683    0.731414   -0.696032
    -0.761614    5.707089   -0.480279
     0.456761    0.948162   10.819709
   Li   Sb   S 
   4   4   8
Direct configuration=     9
   0.51733480  0.74574977  0.87782167
   0.48266520  0.25425023  0.12217833
   0.98314350  0.74544212  0.62246736
   0.01685650  0.25455788  0.37753264
   0.02305980  0.78102848  0.11883197
   0.97694020  0.21897152  0.88116803
   0.47825827  0.78408412  0.38163448
   0.52174173  0.21591588  0.61836552
   0.51336316  0.20173591  0.37961816
   0.48663684  0.79826409  0.62038184
   0.98575548  0.20275532  0.12038635
   0.01424452  0.79724468  0.87961365
   0.94496051  0.22687206  0.63902234
   0.05503949  0.77312794  0.36097766
   0.55317104  0.22745296  0.86040382
   0.44682896  0.77254704  0.13959618
CIS                                     
           1
     5.777320    0.727135   -0.673575
    -0.756587    5.666939   -0.477307
     0.495115    0.953628   10.831372
   Li   Sb   S 
   4   4   8
Direct configuration=    10
   0.51729745  0.74658107  0.87753846
   0.48270255  0.25341893  0.12246154
   0.98316087  0.74628105  0.62275796
   0.01683913  0.25371895  0.37724204
   0.02097510  0.77814460  0.11891210
   0.97902490  0.22185540  0.88108790
   0.48054760  0.78154365  0.38153183
   0.51945240  0.21845635  0.61846817
   0.51327888  0.20473715  0.37825844
   0.48672112  0.79526285  0.62174156
   0.98586062  0.20558836  0.12175595
   0.01413938  0.79441164  0.87824405
   0.94685656  0.22688090  0.63745387
   0.05314344  0.77311910  0.36254613
   0.55120096  0.22753235  0.86197069
   0.44879904  0.77246765  0.13802931
CIS                                     
           1
     5.647233    0.714299   -0.606202
    -0.741509    5.546490   -0.468392
     0.610174    0.970025   10.866359
   Li   Sb   S 
   4   4   8
Direct configuration=    11
   0.51719019  0.74909252  0.87669037
   0.48280981  0.25090748  0.12330963
   0.98320783  0.74881576  0.62362850
   0.01679217  0.25118424  0.37637150
   0.01467113  0.76943157  0.11916178
   0.98532887  0.23056843  0.88083822
   0.48746972  0.77386858  0.38121306
   0.51253028  0.22613142  0.61878694
   0.51305108  0.21380408  0.37418606
   0.48694892  0.78619592  0.62581394
   0.98615220  0.21414808  0.12585853
   0.01384780  0.78585192  0.87414147
   0.95261879  0.22690729  0.63274632
   0.04738121  0.77309271  0.36725368
   0.54521501  0.22777250  0.86667378
   0.45478499  0.77222750  0.13332622
CIS                                     
           1
     5.387058    0.688627   -0.471456
    -0.711353    5.305593   -0.450561
     0.840294    1.002820   10.936334
   Li   Sb   S 
   4   4   8
Direct configuration=    12
   0.51700511  0.75422366  0.87500315
   0.48299489  0.24577634  0.12499685
   0.98327020  0.75399569  0.62536224
   0.01672980  0.24600431  0.37463776
   0.00175314  0.75162633  0.11971835
   0.99824686  0.24837367  0.88028165
   0.50165056  0.75818733  0.38050882
   0.49834944  0.24181267  0.61949118
   0.51274946  0.23232799  0.36608087
   0.48725054  0.76767201  0.63391913
   0.98658893  0.23164157  0.13402758
   0.01341107  0.76835843  0.86597242
   0.96460200  0.22695937  0.62331562
   0.03539800  0.77304063  0.37668438
   0.53277407  0.22826498  0.87609786
   0.46722593  0.77173502  0.12390214
CIS                                     
           1
     5.447063    0.694548   -0.502532
    -0.718308    5.361152   -0.454673
     0.787221    0.995256   10.920196
   Li   Sb   S 
   4   4   8
Direct configuration=    13
   0.51703342  0.75298693  0.87538838
   0.48296658  0.24701307  0.12461162
   0.98327122  0.75274661  0.62496549
   0.01672878  0.24725339  0.37503451
   0.00488789  0.75591960  0.11956180
   0.99511211  0.24408040  0.88043820
   0.49821129  0.76196701  0.38070405
   0.50178871  0.23803299  0.61929595
   0.51274372  0.22786358  0.36793317
   0.48725628  0.77213642  0.63206683
   0.98655969  0.22742280  0.13215890
   0.01344031  0.77257720  0.86784110
   0.96161039  0.22694762  0.62550098
   0.03838961  0.77305238  0.37449902
   0.53587641  0.22814547  0.87391291
   0.46412359  0.77185453  0.12608709
CIS                                     
           1
     5.431601    0.693022   -0.494524
    -0.716516    5.346835   -0.453613
     0.800897    0.997205   10.924355
   Li   Sb   S 
   4   4   8
Direct configuration=    14
   0.51702525  0.75330234  0.87528889
   0.48297475  0.24669766  0.12471111
   0.98327190  0.75306513  0.62506790
   0.01672810  0.24693487  0.37493210
   0.00408975  0.75482477  0.11960041
   0.99591025  0.24517523  0.88039959
   0.49908708  0.76100306  0.38065576
   0.50091292  0.23899694  0.61934424
   0.51274059  0.22900218  0.36745489
   0.48725941  0.77099782  0.63254511
   0.98657160  0.22849860  0.13264130
   0.01342840  0.77150140  0.86735870
   0.96236721  0.22695066  0.62493856
   0.03763279  0.77304934  0.37506144
   0.53509138  0.22817590  0.87447516
   0.46490862  0.77182410  0.12552484
CIS                                     
           1
     5.423314    0.691784   -0.491642
    -0.718751    5.361902   -0.453030
     0.805195    1.001968   10.930487
   Li   Sb   S 
   4   4   8
Direct configuration=    15
   0.51679619  0.75335735  0.87529042
   0.48320381  0.24664265  0.12470958
   0.98348652  0.75307870  0.62506881
   0.01651348  0.24692130  0.37493119
   0.00405775  0.75426624  0.12029531
   0.99594225  0.24573376  0.87970469
   0.49935830  0.75958457  0.37993230
   0.50064170  0.24041543  0.62006770
   0.51309484  0.23125112  0.36799009
   0.48690516  0.76874888  0.63200991
   0.98630973  0.23052093  0.13208629
   0.01369027  0.76947907  0.86791371
   0.96388900  0.22895990  0.62449555
   0.03611100  0.77104010  0.37550445
   0.53354802  0.23016923  0.87503331
   0.46645198  0.76983077  0.12496669
CIS                                     
           1
     5.398455    0.688071   -0.482996
    -0.725457    5.407105   -0.451282
     0.818090    1.016255   10.948884
   Li   Sb   S 
   4   4   8
Direct configuration=    16
   0.51610793  0.75352188  0.87529513
   0.48389207  0.24647812  0.12470487
   0.98413139  0.75311933  0.62507142
   0.01586861  0.24688067  0.37492858
   0.00395984  0.75259390  0.12237901
   0.99604016  0.24740610  0.87762099
   0.50017467  0.75534247  0.37776385
   0.49982533  0.24465753  0.62223615
   0.51415844  0.23797813  0.36959338
   0.48584156  0.76202187  0.63040662
   0.98552461  0.23657209  0.13042143
   0.01447539  0.76342791  0.86957857
   0.96846295  0.23497199  0.62316548
   0.03153705  0.76502801  0.37683452
   0.52890978  0.23613112  0.87670660
   0.47109022  0.76386888  0.12329340
CIS                                     
           1
     5.348736    0.680645   -0.465704
    -0.738870    5.497509   -0.447784
     0.843879    1.044830   10.985677
   Li   Sb   S 
   4   4   8
Direct configuration=    17
   0.51472498  0.75384794  0.87530516
   0.48527502  0.24615206  0.12469484
   0.98542722  0.75320015  0.62507583
   0.01457278  0.24679985  0.37492417
   0.00375253  0.74926864  0.12654040
   0.99624747  0.25073136  0.87345960
   0.50182367  0.74693757  0.37343827
   0.49817633  0.25306243  0.62656173
   0.51629079  0.25131462  0.37278613
   0.48370921  0.74868538  0.62721387
   0.98395731  0.24858037  0.12709288
   0.01604269  0.75141963  0.87290712
   0.97766276  0.24690352  0.62049913
   0.02233724  0.75309648  0.37950087
   0.51958401  0.24794755  0.88004639
   0.48041599  0.75205245  0.11995361
CIS                                     
           1
     5.374741    0.684529   -0.474748
    -0.731855    5.450225   -0.449613
     0.830390    1.029885   10.966433
   Li   Sb   S 
   4   4   8
Direct configuration=    18
   0.51545516  0.75368049  0.87529927
   0.48454484  0.24631951  0.12470073
   0.98474299  0.75315831  0.62507435
   0.01525701  0.24684169  0.37492565
   0.00387309  0.75098802  0.12437014
   0.99612691  0.24901198  0.87562986
   0.50094395  0.75125273  0.37568904
   0.49905605  0.24874727  0.62431096
   0.51517001  0.24445908  0.37113045
   0.48482999  0.75554092  0.62886955
   0.98477400  0.24239564  0.12883248
   0.01522600  0.75760436  0.87116752
   0.97279591  0.24075743  0.62190012
   0.02720409  0.75924257  0.37809988
   0.52451400  0.24187672  0.87830640
   0.47548600  0.75812328  0.12169360
CIS                                     
           1
     5.357071    0.682596   -0.470171
    -0.726588    5.413301   -0.443947
     0.834376    1.034036   10.946917
   Li   Sb   S 
   4   4   8
Direct configuration=    19
   0.51491954  0.75371925  0.87528989
   0.48508046  0.24628075  0.12471011
   0.98524637  0.75315328  0.62508575
   0.01475363  0.24684672  0.37491425
   0.00287546  0.75031319  0.12495985
   0.99712454  0.24968681  0.87504015
   0.50071688  0.74932163  0.37515949
   0.49928312  0.25067837  0.62484051
   0.51533622  0.24754972  0.37248197
   0.48466378  0.75245028  0.62751803
   0.98484360  0.24516101  0.12746370
   0.01515640  0.75483899  0.87253630
   0.97552927  0.24406525  0.62169354
   0.02447073  0.75593475  0.37830646
   0.52181291  0.24509294  0.87862037
   0.47818709  0.75490706  0.12137963
CIS                                     
           1
     5.323962    0.678976   -0.461596
    -0.716719    5.344114   -0.433330
     0.841844    1.041815   10.910348
   Li   Sb   S 
   4   4   8
Direct configuration=    20
   0.51391258  0.75379243  0.87527256
   0.48608742  0.24620757  0.12472744
   0.98619272  0.75314376  0.62510688
   0.01380728  0.24685624  0.37489312
   0.00099862  0.74903900  0.12606756
   0.99900138  0.25096100  0.87393244
   0.50029115  0.74567925  0.37416652
   0.49970885  0.25432075  0.62583348
   0.51564574  0.25337834  0.37501726
   0.48435426  0.74662166  0.62498274
   0.98497728  0.25038078  0.12489327
   0.01502272  0.74961922  0.87510673
   0.98066849  0.25030631  0.62130290
   0.01933151  0.74969369  0.37869710
   0.51673396  0.25116038  0.87920964
   0.48326604  0.74883962  0.12079036
CIS                                     
           1
     5.332729    0.679934   -0.463866
    -0.719332    5.362434   -0.436141
     0.839866    1.039755   10.920031
   Li   Sb   S 
   4   4   8
Direct configuration=    21
   0.51418088  0.75377278  0.87527704
   0.48581912  0.24622722  0.12472296
   0.98594057  0.75314633  0.62510140
   0.01405943  0.24685367  0.37489860
   0.00149933  0.74938131  0.12577290
   0.99850067  0.25061869  0.87422710
   0.50040400  0.74665581  0.37442978
   0.49959600  0.25334419  0.62557022
   0.51556475  0.25181608  0.37434455
   0.48443525  0.74818392  0.62565545
   0.98494023  0.24897939  0.12557671
   0.01505977  0.75102061  0.87442329
   0.97929893  0.24863204  0.62140813
   0.02070107  0.75136796  0.37859187
   0.51808766  0.24953309  0.87905315
   0.48191234  0.75046691  0.12094685
CIS                                     
           1
     5.351314    0.682582   -0.462944
    -0.717438    5.346703   -0.438348
     0.848320    1.036129   10.950601
   Li   Sb   S 
   4   4   8
Direct configuration=    22
   0.51388437  0.75367249  0.87529071
   0.48611563  0.24632751  0.12470929
   0.98622041  0.75308402  0.62509988
   0.01377959  0.24691598  0.37490012
   0.00125011  0.74948435  0.12544082
   0.99874989  0.25051565  0.87455918
   0.50064721  0.74692074  0.37500850
   0.49935279  0.25307926  0.62499150
   0.51495129  0.25202338  0.37449703
   0.48504871  0.74797662  0.62550297
   0.98561511  0.24917839  0.12544251
   0.01438489  0.75082161  0.87455749
   0.98012863  0.24878084  0.62189810
   0.01987137  0.75121916  0.37810190
   0.51740591  0.24971230  0.87848983
   0.48259409  0.75028770  0.12151017
CIS                                     
           1
     5.385451    0.687446   -0.461249
    -0.713959    5.317805   -0.442401
     0.863849    1.029467   11.006755
   Li   Sb   S 
   4   4   8
Direct configuration=    23
   0.51334157  0.75348776  0.87531582
   0.48665843  0.24651224  0.12468418
   0.98673268  0.75296921  0.62509695
   0.01326732  0.24703079  0.37490305
   0.00079446  0.74967335  0.12483267
   0.99920554  0.25032665  0.87516733
   0.50109141  0.74741022  0.37606865
   0.49890859  0.25258978  0.62393135
   0.51382803  0.25240566  0.37477673
   0.48617197  0.74759434  0.62522327
   0.98685077  0.24954465  0.12519651
   0.01314923  0.75045535  0.87480349
   0.98164660  0.24905614  0.62279536
   0.01835340  0.75094386  0.37720464
   0.51615888  0.25004107  0.87745833
   0.48384112  0.74995893  0.12254167
CIS                                     
           1
     5.381668    0.687327   -0.460089
    -0.713603    5.315653   -0.444835
     0.868557    1.027317   11.038188
   Li   Sb   S 
   4   4   8
Direct configuration=    24
   0.51285578  0.75330854  0.87539910
   0.48714422  0.24669146  0.12460090
   0.98719312  0.75284013  0.62506274
   0.01280688  0.24715987  0.37493726
   0.00107926  0.75001839  0.12400187
   0.99892074  0.24998161  0.87599813
   0.50099891  0.74855559  0.37628859
   0.49900109  0.25144441  0.62371141
   0.51295124  0.25256544  0.37504621
   0.48704876  0.74743456  0.62495379
   0.98781576  0.24969685  0.12496503
   0.01218424  0.75030315  0.87503497
   0.98257379  0.24919698  0.62367392
   0.01742621  0.75080302  0.37632608
   0.51548511  0.25024345  0.87643907
   0.48451489  0.74975655  0.12356093
CIS                                     
           1
     5.377276    0.687189   -0.458742
    -0.713191    5.313154   -0.447662
     0.874024    1.024820   11.074683
   Li   Sb   S 
   4   4   8
Direct configuration=    25
   0.51229132  0.75310050  0.87549551
   0.48770868  0.24689950  0.12450449
   0.98772813  0.75269013  0.62502306
   0.01227187  0.24730987  0.37497694
   0.00141042  0.75041819  0.12304002
   0.99858958  0.24958181  0.87695998
   0.50089129  0.74988619  0.37654355
   0.49910871  0.25011381  0.62345645
   0.51193239  0.25275138  0.37535834
   0.48806761  0.74724862  0.62464166
   0.98893706  0.24987330  0.12469697
   0.01106294  0.75012670  0.87530303
   0.98365079  0.24936151  0.62469107
   0.01634921  0.75063849  0.37530893
   0.51470257  0.25047740  0.87525908
   0.48529743  0.74952260  0.12474092
CIS                                     
           1
     5.351656    0.683033   -0.461464
    -0.714896    5.323483   -0.446527
     0.863610    1.028054   11.081284
   Li   Sb   S 
   4   4   8
Direct configuration=    26
   0.51160383  0.75283098  0.87561468
   0.48839617  0.24716902  0.12438532
   0.98838306  0.75245931  0.62490577
   0.01161694  0.24754069  0.37509423
   0.00180868  0.75013497  0.12347680
   0.99819132  0.24986503  0.87652320
   0.50001084  0.75095636  0.37691716
   0.49998916  0.24904364  0.62308284
   0.51086584  0.25269527  0.37571493
   0.48913416  0.74730473  0.62428507
   0.98997574  0.24986680  0.12430328
   0.01002426  0.75013320  0.87569672
   0.98470812  0.24929632  0.62584929
   0.01529188  0.75070368  0.37415071
   0.51391877  0.25063405  0.87412778
   0.48608123  0.74936595  0.12587222
CIS                                     
           1
     5.348613    0.682540   -0.461788
    -0.715099    5.324711   -0.446393
     0.862373    1.028438   11.082069
   Li   Sb   S 
   4   4   8
Direct configuration=    27
   0.51152179  0.75279900  0.87562880
   0.48847821  0.24720100  0.12437120
   0.98846121  0.75243196  0.62489188
   0.01153879  0.24756804  0.37510812
   0.00185631  0.75010135  0.12352868
   0.99814369  0.24989865  0.87647132
   0.49990584  0.75108322  0.37696146
   0.50009416  0.24891678  0.62303854
   0.51073861  0.25268857  0.37575721
   0.48926139  0.74731143  0.62424279
   0.99009964  0.24986608  0.12425659
   0.00990036  0.75013392  0.87574341
   0.98483459  0.24928849  0.62598687
   0.01516541  0.75071151  0.37401313
   0.51382496  0.25065271  0.87399341
   0.48617504  0.74934729  0.12600659
CIS                                     
           1
     5.337660    0.679753   -0.464266
    -0.717543    5.335941   -0.445317
     0.855142    1.032137   11.089915
   Li   Sb   S 
   4   4   8
Direct configuration=    28
   0.51097873  0.75260012  0.87571768
   0.48902127  0.24739988  0.12428232
   0.98897333  0.75222601  0.62481614
   0.01102667  0.24777399  0.37518386
   0.00103476  0.74962039  0.12406558
   0.99896524  0.25037961  0.87593442
   0.49948206  0.75029595  0.37606005
   0.50051794  0.24970405  0.62393995
   0.51019440  0.25246792  0.37601993
   0.48980560  0.74753208  0.62398007
   0.99060917  0.24978530  0.12405460
   0.00939083  0.75021470  0.87594540
   0.98564604  0.24919572  0.62644333
   0.01435396  0.75080428  0.37355667
   0.51303677  0.25069500  0.87351399
   0.48696323  0.74930500  0.12648601
CIS                                     
           1
     5.339647    0.680258   -0.463816
    -0.717099    5.333903   -0.445512
     0.856454    1.031466   11.088491
   Li   Sb   S 
   4   4   8
Direct configuration=    29
   0.51107747  0.75263617  0.87570159
   0.48892253  0.24736383  0.12429841
   0.98888023  0.75226328  0.62482984
   0.01111977  0.24773672  0.37517016
   0.00118405  0.74970759  0.12396823
   0.99881595  0.25029241  0.87603177
   0.49955938  0.75043843  0.37622353
   0.50044062  0.24956157  0.62377647
   0.51029332  0.25250794  0.37597231
   0.48970668  0.74749206  0.62402769
   0.99051656  0.24979988  0.12409120
   0.00948344  0.75020012  0.87590880
   0.98549836  0.24921256  0.62636049
   0.01450164  0.75078744  0.37363951
   0.51318023  0.25068731  0.87360098
   0.48681977  0.74931269  0.12639902
CIS                                     
           1
     5.343515    0.681155   -0.465126
    -0.716397    5.333499   -0.443604
     0.854402    1.035574   11.093064
   Li   Sb   S 
   4   4   8
Direct configuration=    30
   0.51067022  0.75250289  0.87573394
   0.48932978  0.24749711  0.12426606
   0.98926599  0.75211071  0.62479630
   0.01073401  0.24788929  0.37520370
   0.00070311  0.74959631  0.12390856
   0.99929689  0.25040369  0.87609144
   0.49962179  0.74965165  0.37624518
   0.50037821  0.25034835  0.62375482
   0.51005153  0.25233458  0.37614536
   0.48994847  0.74766542  0.62385464
   0.99068248  0.24973119  0.12400348
   0.00931752  0.75026881  0.87599652
   0.98617297  0.24911229  0.62647202
   0.01382703  0.75088771  0.37352798
   0.51247717  0.25063832  0.87347977
   0.48752283  0.74936168  0.12652023
CIS                                     
           1
     5.347250    0.682020   -0.466391
    -0.715718    5.333110   -0.441761
     0.852420    1.039541   11.097481
   Li   Sb   S 
   4   4   8
Direct configuration=    31
   0.51027726  0.75237418  0.87576515
   0.48972274  0.24762582  0.12423485
   0.98963824  0.75196335  0.62476398
   0.01036176  0.24803665  0.37523602
   0.00023902  0.74948892  0.12385094
   0.99976098  0.25051108  0.87614906
   0.49968209  0.74889178  0.37626622
   0.50031791  0.25110822  0.62373378
   0.50981829  0.25216706  0.37631240
   0.49018171  0.74783294  0.62368760
   0.99084256  0.24966489  0.12391883
   0.00915744  0.75033511  0.87608117
   0.98682398  0.24901532  0.62657974
   0.01317602  0.75098468  0.37342026
   0.51179871  0.25059115  0.87336271
   0.48820129  0.74940885  0.12663729
CIS                                     
           1
     5.348977    0.682421   -0.466976
    -0.715405    5.332930   -0.440909
     0.851503    1.041375   11.099524
   Li   Sb   S 
   4   4   8
Direct configuration=    32
   0.51009569  0.75231466  0.87577958
   0.48990431  0.24768534  0.12422042
   0.98981025  0.75189520  0.62474907
   0.01018975  0.24810480  0.37525093
   0.00002456  0.74943929  0.12382429
   0.99997544  0.25056071  0.87617571
   0.49970999  0.74854034  0.37627600
   0.50029001  0.25145966  0.62372400
   0.50971054  0.25208953  0.37638962
   0.49028946  0.74791047  0.62361038
   0.99091652  0.24963424  0.12387971
   0.00908348  0.75036576  0.87612029
   0.98712483  0.24897041  0.62662957
   0.01287517  0.75102959  0.37337043
   0.51148518  0.25056940  0.87330859
   0.48851482  0.74943060  0.12669141
CIS                                     
           1
     5.348199    0.682082   -0.467692
    -0.715143    5.331646   -0.437799
     0.849399    1.047717   11.103881
   Li   Sb   S 
   4   4   8
Direct configuration=    33
   0.50962518  0.75216208  0.87581337
   0.49037482  0.24783792  0.12418663
   0.99025823  0.75173694  0.62470905
   0.00974177  0.24826306  0.37529095
  -0.00025654  0.74988183  0.12366988
   0.00025654  0.25011817  0.87633012
   0.49970858  0.74855266  0.37631233
   0.50029142  0.25144734  0.62368767
   0.50944724  0.25198483  0.37652723
   0.49055276  0.74801517  0.62347277
   0.99111078  0.24955721  0.12378045
   0.00888922  0.75044279  0.87621955
   0.98795165  0.24891542  0.62671861
   0.01204835  0.75108458  0.37328139
   0.51077873  0.25053857  0.87322960
   0.48922127  0.74946143  0.12677040
CIS                                     
           1
     5.347700    0.681865   -0.468151
    -0.714976    5.330822   -0.435804
     0.848050    1.051785   11.106676
   Li   Sb   S 
   4   4   8
Direct configuration=    34
   0.50932332  0.75206414  0.87583504
   0.49067668  0.24793586  0.12416496
   0.99054562  0.75163544  0.62468343
   0.00945438  0.24836456  0.37531657
  -0.00043691  0.75016589  0.12357079
   0.00043691  0.24983411  0.87642921
   0.49970768  0.74856054  0.37633562
   0.50029232  0.25143946  0.62366438
   0.50927834  0.25191755  0.37661548
   0.49072166  0.74808245  0.62338452
   0.99123539  0.24950786  0.12371683
   0.00876461  0.75049214  0.87628317
   0.98848213  0.24888008  0.62677575
   0.01151787  0.75111992  0.37322425
   0.51032548  0.25051884  0.87317892
   0.48967452  0.74948116  0.12682108
CIS                                     
           1
     5.341376    0.680879   -0.467663
    -0.714853    5.329708   -0.434003
     0.847347    1.055160   11.105674
   Li   Sb   S 
   4   4   8
Direct configuration=    35
   0.50884394  0.75190139  0.87586568
   0.49115606  0.24809861  0.12413432
   0.99101045  0.75148734  0.62463502
   0.00898955  0.24851266  0.37536498
   0.00001851  0.75078613  0.12371805
  -0.00001851  0.24921387  0.87628195
   0.49973047  0.74909281  0.37623106
   0.50026953  0.25090719  0.62376894
   0.50892105  0.25190706  0.37669070
   0.49107895  0.74809294  0.62330930
   0.99155122  0.24937136  0.12361309
   0.00844878  0.75062864  0.87638691
   0.98923630  0.24891083  0.62684251
   0.01076370  0.75108917  0.37315749
   0.50978422  0.25046951  0.87315346
   0.49021578  0.74953049  0.12684654
CIS                                     
           1
     5.339673    0.680614   -0.467532
    -0.714820    5.329408   -0.433519
     0.847158    1.056069   11.105404
   Li   Sb   S 
   4   4   8
Direct configuration=    36
   0.50871476  0.75185756  0.87587393
   0.49128524  0.24814244  0.12412607
   0.99113572  0.75144748  0.62462200
   0.00886428  0.24855252  0.37537800
   0.00014124  0.75095309  0.12375766
  -0.00014124  0.24904691  0.87624234
   0.49973661  0.74923613  0.37620289
   0.50026339  0.25076387  0.62379711
   0.50882477  0.25190422  0.37671095
   0.49117523  0.74809578  0.62328905
   0.99163632  0.24933463  0.12358518
   0.00836368  0.75066537  0.87641482
   0.98943954  0.24891911  0.62686048
   0.01056046  0.75108089  0.37313952
   0.50963837  0.25045623  0.87314661
   0.49036163  0.74954377  0.12685339