  26  26   1   0
  0.3395270E+02  0.4244012E-09  0.1341347E-08  0.1555955E-08  0.1000000E-15
  1.000000000000000E-004
  CAR 
 CIS                                     
      7.79577186    -11.59712007  301      3.21016095      1.00000000
    -11.597  0.0000E+00  0.0000E+00
    -11.532  0.0000E+00  0.0000E+00
    -11.468  0.0000E+00  0.0000E+00
    -11.403  0.0000E+00  0.0000E+00
    -11.339  0.0000E+00  0.0000E+00
    -11.274  0.0000E+00  0.0000E+00
    -11.209  0.0000E+00  0.0000E+00
    -11.145  0.0000E+00  0.0000E+00
    -11.080  0.0000E+00  0.0000E+00
    -11.015  0.0000E+00  0.0000E+00
    -10.951  0.4622E-12  0.2988E-13
    -10.886  0.2242E-07  0.1449E-08
    -10.821  0.4361E-04  0.2821E-05
    -10.757  0.4012E-02  0.2622E-03
    -10.692  0.2831E-01  0.2093E-02
    -10.627  0.3854E-01  0.4584E-02
    -10.563  0.2109E-01  0.5947E-02
    -10.498  0.1781E-01  0.7098E-02
    -10.434  0.9744E-01  0.1340E-01
    -10.369  0.1001E+00  0.1987E-01
    -10.304  0.3474E-01  0.2211E-01
    -10.240  0.2102E-01  0.2347E-01
    -10.175  0.8803E-01  0.2916E-01
    -10.110  0.6310E-01  0.3324E-01
    -10.046  0.4806E-01  0.3635E-01
     -9.981  0.3539E-01  0.3864E-01
     -9.916  0.4748E-01  0.4170E-01
     -9.852  0.8443E-01  0.4716E-01
     -9.787  0.1532E+00  0.5707E-01
     -9.722  0.1451E+00  0.6644E-01
     -9.658  0.1084E+00  0.7345E-01
     -9.593  0.7286E-01  0.7816E-01
     -9.529  0.1365E+00  0.8699E-01
     -9.464  0.1300E+00  0.9539E-01
     -9.399  0.9347E-01  0.1014E+00
     -9.335  0.8351E-01  0.1068E+00
     -9.270  0.1481E+00  0.1164E+00
     -9.205  0.1347E+00  0.1251E+00
     -9.141  0.1468E+00  0.1346E+00
     -9.076  0.3066E+00  0.1544E+00
     -9.011  0.3979E+00  0.1801E+00
     -8.947  0.4194E+00  0.2073E+00
     -8.882  0.3845E+00  0.2321E+00
     -8.817  0.3146E+00  0.2524E+00
     -8.753  0.2307E+00  0.2674E+00
     -8.688  0.1417E+00  0.2765E+00
     -8.624  0.8456E-01  0.2820E+00
     -8.559  0.1292E-01  0.2828E+00
     -8.494  0.1265E-03  0.2828E+00
     -8.430  0.5561E-07  0.2828E+00
     -8.365  0.9730E-12  0.2828E+00
     -8.300  0.0000E+00  0.2828E+00
     -8.236  0.0000E+00  0.2828E+00
     -8.171  0.0000E+00  0.2828E+00
     -8.106  0.0000E+00  0.2828E+00
     -8.042  0.0000E+00  0.2828E+00
     -7.977  0.0000E+00  0.2828E+00
     -7.912  0.0000E+00  0.2828E+00
     -7.848  0.0000E+00  0.2828E+00
     -7.783  0.3183E-12  0.2828E+00
     -7.719  0.2034E-07  0.2828E+00
     -7.654  0.5155E-04  0.2828E+00
     -7.589  0.5876E-02  0.2832E+00
     -7.525  0.4462E-01  0.2861E+00
     -7.460  0.6077E-01  0.2900E+00
     -7.395  0.7874E-01  0.2951E+00
     -7.331  0.1148E+00  0.3025E+00
     -7.266  0.1115E+00  0.3097E+00
     -7.201  0.1630E+00  0.3203E+00
     -7.137  0.9288E-01  0.3263E+00
     -7.072  0.6399E-01  0.3304E+00
     -7.007  0.1771E+00  0.3419E+00
     -6.943  0.1085E+00  0.3489E+00
     -6.878  0.8869E-01  0.3546E+00
     -6.814  0.8832E-01  0.3603E+00
     -6.749  0.1270E+00  0.3685E+00
     -6.684  0.1552E+00  0.3786E+00
     -6.620  0.1929E+00  0.3910E+00
     -6.555  0.1495E+00  0.4007E+00
     -6.490  0.8063E-01  0.4059E+00
     -6.426  0.5574E-01  0.4095E+00
     -6.361  0.6991E-01  0.4140E+00
     -6.296  0.3945E-01  0.4166E+00
     -6.232  0.2401E-01  0.4181E+00
     -6.167  0.3939E-01  0.4207E+00
     -6.102  0.6325E-01  0.4248E+00
     -6.038  0.4881E-01  0.4279E+00
     -5.973  0.6147E-02  0.4283E+00
     -5.909  0.1328E-01  0.4292E+00
     -5.844  0.5138E-01  0.4325E+00
     -5.779  0.9575E-01  0.4387E+00
     -5.715  0.2600E-01  0.4404E+00
     -5.650  0.5430E-03  0.4404E+00
     -5.585  0.2844E-04  0.4404E+00
     -5.521  0.4192E-02  0.4407E+00
     -5.456  0.3520E-01  0.4430E+00
     -5.391  0.2212E-01  0.4444E+00
     -5.327  0.9544E-03  0.4444E+00
     -5.262  0.2060E-05  0.4444E+00
     -5.197  0.1852E-09  0.4444E+00
     -5.133  0.6454E-15  0.4444E+00
     -5.068  0.0000E+00  0.4444E+00
     -5.004  0.0000E+00  0.4444E+00
     -4.939  0.0000E+00  0.4444E+00
     -4.874  0.0000E+00  0.4444E+00
     -4.810  0.0000E+00  0.4444E+00
     -4.745  0.0000E+00  0.4444E+00
     -4.680  0.0000E+00  0.4444E+00
     -4.616  0.0000E+00  0.4444E+00
     -4.551  0.0000E+00  0.4444E+00
     -4.486  0.0000E+00  0.4444E+00
     -4.422  0.0000E+00  0.4444E+00
     -4.357  0.0000E+00  0.4444E+00
     -4.292  0.0000E+00  0.4444E+00
     -4.228  0.0000E+00  0.4444E+00
     -4.163  0.0000E+00  0.4444E+00
     -4.099  0.0000E+00  0.4444E+00
     -4.034  0.0000E+00  0.4444E+00
     -3.969  0.0000E+00  0.4444E+00
     -3.905  0.0000E+00  0.4444E+00
     -3.840  0.0000E+00  0.4444E+00
     -3.775  0.0000E+00  0.4444E+00
     -3.711  0.0000E+00  0.4444E+00
     -3.646  0.0000E+00  0.4444E+00
     -3.581  0.0000E+00  0.4444E+00
     -3.517  0.0000E+00  0.4444E+00
     -3.452  0.0000E+00  0.4444E+00
     -3.387  0.0000E+00  0.4444E+00
     -3.323  0.0000E+00  0.4444E+00
     -3.258  0.0000E+00  0.4444E+00
     -3.194  0.0000E+00  0.4444E+00
     -3.129  0.0000E+00  0.4444E+00
     -3.064  0.0000E+00  0.4444E+00
     -3.000  0.0000E+00  0.4444E+00
     -2.935  0.0000E+00  0.4444E+00
     -2.870  0.0000E+00  0.4444E+00
     -2.806  0.0000E+00  0.4444E+00
     -2.741  0.0000E+00  0.4444E+00
     -2.676  0.0000E+00  0.4444E+00
     -2.612  0.0000E+00  0.4444E+00
     -2.547  0.0000E+00  0.4444E+00
     -2.482  0.0000E+00  0.4444E+00
     -2.418  0.0000E+00  0.4444E+00
     -2.353  0.0000E+00  0.4444E+00
     -2.289  0.0000E+00  0.4444E+00
     -2.224  0.0000E+00  0.4444E+00
     -2.159  0.0000E+00  0.4444E+00
     -2.095  0.0000E+00  0.4444E+00
     -2.030  0.0000E+00  0.4444E+00
     -1.965  0.2064E-13  0.4444E+00
     -1.901  0.2206E-08  0.4444E+00
     -1.836  0.9245E-05  0.4444E+00
     -1.771  0.1679E-02  0.4446E+00
     -1.707  0.1681E-01  0.4456E+00
     -1.642  0.1870E-01  0.4468E+00
     -1.577  0.2624E-01  0.4485E+00
     -1.513  0.7110E-01  0.4531E+00
     -1.448  0.1287E+00  0.4615E+00
     -1.384  0.1611E+00  0.4719E+00
     -1.319  0.1231E+00  0.4798E+00
     -1.254  0.1052E+00  0.4866E+00
     -1.190  0.1120E+00  0.4939E+00
     -1.125  0.8228E-01  0.4992E+00
     -1.060  0.3765E-01  0.5016E+00
     -0.996  0.8279E-01  0.5070E+00
     -0.931  0.8713E-01  0.5126E+00
     -0.866  0.9718E-01  0.5189E+00
     -0.802  0.1488E+00  0.5285E+00
     -0.737  0.1095E+00  0.5356E+00
     -0.672  0.1114E+00  0.5428E+00
     -0.608  0.2481E+00  0.5588E+00
     -0.543  0.2334E+00  0.5739E+00
     -0.479  0.1701E+00  0.5849E+00
     -0.414  0.1150E+00  0.5923E+00
     -0.349  0.1423E+00  0.6016E+00
     -0.285  0.1609E+00  0.6120E+00
     -0.220  0.1623E+00  0.6224E+00
     -0.155  0.2095E+00  0.6360E+00
     -0.091  0.2299E+00  0.6509E+00
     -0.026  0.2652E+00  0.6680E+00
      0.039  0.1472E+00  0.6775E+00
      0.103  0.1732E+00  0.6887E+00
      0.168  0.2398E+00  0.7042E+00
      0.233  0.2461E+00  0.7201E+00
      0.297  0.2753E+00  0.7379E+00
      0.362  0.1969E+00  0.7506E+00
      0.426  0.1659E+00  0.7614E+00
      0.491  0.1433E+00  0.7706E+00
      0.556  0.2154E+00  0.7845E+00
      0.620  0.2640E+00  0.8016E+00
      0.685  0.1347E+00  0.8103E+00
      0.750  0.2253E+00  0.8249E+00
      0.814  0.2936E+00  0.8439E+00
      0.879  0.2008E+00  0.8568E+00
      0.944  0.1954E+00  0.8695E+00
      1.008  0.2514E+00  0.8857E+00
      1.073  0.1303E+00  0.8941E+00
      1.138  0.1609E+00  0.9045E+00
      1.202  0.2153E+00  0.9185E+00
      1.267  0.2406E+00  0.9340E+00
      1.331  0.2390E+00  0.9495E+00
      1.396  0.1396E+00  0.9585E+00
      1.461  0.1662E+00  0.9692E+00
      1.525  0.2431E+00  0.9849E+00
      1.590  0.1821E+00  0.9967E+00
      1.655  0.2082E+00  0.1010E+01
      1.719  0.2508E+00  0.1026E+01
      1.784  0.2119E+00  0.1040E+01
      1.849  0.3190E+00  0.1061E+01
      1.913  0.3222E+00  0.1082E+01
      1.978  0.2711E+00  0.1099E+01
      2.043  0.2696E+00  0.1116E+01
      2.107  0.3949E+00  0.1142E+01
      2.172  0.3069E+00  0.1162E+01
      2.236  0.2753E+00  0.1180E+01
      2.301  0.2082E+00  0.1193E+01
      2.366  0.2371E+00  0.1208E+01
      2.430  0.2891E+00  0.1227E+01
      2.495  0.1895E+00  0.1239E+01
      2.560  0.1406E+00  0.1248E+01
      2.624  0.1885E+00  0.1261E+01
      2.689  0.1526E+00  0.1271E+01
      2.754  0.1439E+00  0.1280E+01
      2.818  0.9538E-01  0.1286E+01
      2.883  0.5483E-01  0.1290E+01
      2.948  0.2705E-01  0.1291E+01
      3.012  0.2166E-01  0.1293E+01
      3.077  0.3870E-02  0.1293E+01
      3.141  0.4510E-04  0.1293E+01
      3.206  0.2384E-07  0.1293E+01
      3.271  0.5028E-12  0.1293E+01
      3.335  0.0000E+00  0.1293E+01
      3.400  0.0000E+00  0.1293E+01
      3.465  0.0000E+00  0.1293E+01
      3.529  0.0000E+00  0.1293E+01
      3.594  0.0000E+00  0.1293E+01
      3.659  0.2602E-13  0.1293E+01
      3.723  0.2626E-08  0.1293E+01
      3.788  0.1040E-04  0.1293E+01
      3.853  0.1791E-02  0.1293E+01
      3.917  0.1695E-01  0.1294E+01
      3.982  0.1191E-01  0.1295E+01
      4.046  0.5822E-03  0.1295E+01
      4.111  0.1449E-05  0.1295E+01
      4.176  0.2419E-04  0.1295E+01
      4.240  0.3384E-02  0.1295E+01
      4.305  0.3509E-01  0.1297E+01
      4.370  0.6358E-01  0.1302E+01
      4.434  0.1256E+00  0.1310E+01
      4.499  0.1049E+00  0.1316E+01
      4.564  0.3593E-01  0.1319E+01
      4.628  0.4853E-01  0.1322E+01
      4.693  0.8722E-01  0.1328E+01
      4.758  0.9011E-01  0.1333E+01
      4.822  0.1215E+00  0.1341E+01
      4.887  0.1490E+00  0.1351E+01
      4.951  0.1412E+00  0.1360E+01
      5.016  0.1692E+00  0.1371E+01
      5.081  0.2371E+00  0.1386E+01
      5.145  0.1854E+00  0.1398E+01
      5.210  0.1406E+00  0.1407E+01
      5.275  0.1745E+00  0.1419E+01
      5.339  0.2367E+00  0.1434E+01
      5.404  0.1943E+00  0.1446E+01
      5.469  0.1957E+00  0.1459E+01
      5.533  0.2239E+00  0.1474E+01
      5.598  0.2978E+00  0.1493E+01
      5.663  0.2325E+00  0.1508E+01
      5.727  0.1714E+00  0.1519E+01
      5.792  0.1656E+00  0.1530E+01
      5.856  0.2371E+00  0.1545E+01
      5.921  0.1950E+00  0.1558E+01
      5.986  0.2146E+00  0.1571E+01
      6.050  0.2111E+00  0.1585E+01
      6.115  0.1625E+00  0.1596E+01
      6.180  0.1852E+00  0.1608E+01
      6.244  0.1943E+00  0.1620E+01
      6.309  0.1026E+00  0.1627E+01
      6.374  0.1048E+00  0.1634E+01
      6.438  0.1393E+00  0.1643E+01
      6.503  0.1108E+00  0.1650E+01
      6.568  0.1270E+00  0.1658E+01
      6.632  0.1800E+00  0.1670E+01
      6.697  0.1493E+00  0.1679E+01
      6.761  0.1015E+00  0.1686E+01
      6.826  0.4554E-01  0.1689E+01
      6.891  0.4625E-01  0.1692E+01
      6.955  0.7103E-01  0.1696E+01
      7.020  0.1042E-01  0.1697E+01
      7.085  0.1005E-03  0.1697E+01
      7.149  0.4769E-07  0.1697E+01
      7.214  0.9479E-12  0.1697E+01
      7.279  0.0000E+00  0.1697E+01
      7.343  0.0000E+00  0.1697E+01
      7.408  0.0000E+00  0.1697E+01
      7.473  0.0000E+00  0.1697E+01
      7.537  0.0000E+00  0.1697E+01
      7.602  0.0000E+00  0.1697E+01
      7.666  0.0000E+00  0.1697E+01
      7.731  0.0000E+00  0.1697E+01
      7.796  0.0000E+00  0.1697E+01
      7.79577186    -11.59712007  301      3.21016095      1.00000000
    -11.597  0.0000E+00  0.0000E+00  0.0000E+00
    -11.532  0.0000E+00  0.0000E+00  0.0000E+00
    -11.468  0.0000E+00  0.0000E+00  0.0000E+00
    -11.403  0.0000E+00  0.0000E+00  0.0000E+00
    -11.339  0.0000E+00  0.0000E+00  0.0000E+00
    -11.274  0.0000E+00  0.0000E+00  0.0000E+00
    -11.209  0.0000E+00  0.0000E+00  0.0000E+00
    -11.145  0.0000E+00  0.0000E+00  0.0000E+00
    -11.080  0.0000E+00  0.0000E+00  0.0000E+00
    -11.015  0.0000E+00  0.0000E+00  0.0000E+00
    -10.951  0.5428E-14  0.3099E-14  0.0000E+00
    -10.886  0.2633E-09  0.1502E-09  0.0000E+00
    -10.821  0.5128E-06  0.2905E-06  0.0000E+00
    -10.757  0.4761E-04  0.2551E-04  0.0000E+00
    -10.692  0.3495E-03  0.1446E-03  0.0000E+00
    -10.627  0.4743E-03  0.2422E-03  0.0000E+00
    -10.563  0.2248E-03  0.2705E-03  0.0000E+00
    -10.498  0.1781E-03  0.1383E-03  0.0000E+00
    -10.434  0.1102E-02  0.6717E-03  0.0000E+00
    -10.369  0.1144E-02  0.9164E-03  0.0000E+00
    -10.304  0.2915E-03  0.4863E-03  0.0000E+00
    -10.240  0.1720E-03  0.1466E-03  0.0000E+00
    -10.175  0.8787E-03  0.7998E-03  0.0000E+00
    -10.110  0.7625E-03  0.8550E-03  0.0000E+00
    -10.046  0.6793E-03  0.7898E-03  0.0000E+00
     -9.981  0.3978E-03  0.3334E-03  0.0000E+00
     -9.916  0.2962E-03  0.3234E-03  0.0000E+00
     -9.852  0.9911E-03  0.1515E-02  0.0000E+00
     -9.787  0.1475E-02  0.1999E-02  0.0000E+00
     -9.722  0.1310E-02  0.1907E-02  0.0000E+00
     -9.658  0.1681E-02  0.2040E-02  0.0000E+00
     -9.593  0.8031E-03  0.9718E-03  0.0000E+00
     -9.529  0.1253E-02  0.2102E-02  0.0000E+00
     -9.464  0.2668E-02  0.3240E-02  0.0000E+00
     -9.399  0.1983E-02  0.2308E-02  0.0000E+00
     -9.335  0.3991E-03  0.1129E-02  0.0000E+00
     -9.270  0.8999E-03  0.2715E-02  0.0000E+00
     -9.205  0.1751E-02  0.2514E-02  0.0000E+00
     -9.141  0.2288E-02  0.2846E-02  0.0000E+00
     -9.076  0.6199E-02  0.6495E-02  0.0000E+00
     -9.011  0.6740E-02  0.1048E-01  0.0000E+00
     -8.947  0.7711E-02  0.1542E-01  0.0000E+00
     -8.882  0.4610E-02  0.8174E-02  0.0000E+00
     -8.817  0.2325E-02  0.3640E-02  0.0000E+00
     -8.753  0.2616E-02  0.4533E-02  0.0000E+00
     -8.688  0.3686E-02  0.6014E-02  0.0000E+00
     -8.624  0.3525E-02  0.5032E-02  0.0000E+00
     -8.559  0.5610E-03  0.7893E-03  0.0000E+00
     -8.494  0.5503E-05  0.7721E-05  0.0000E+00
     -8.430  0.2423E-08  0.3391E-08  0.0000E+00
     -8.365  0.4244E-13  0.5925E-13  0.0000E+00
     -8.300  0.0000E+00  0.0000E+00  0.0000E+00
     -8.236  0.0000E+00  0.0000E+00  0.0000E+00
     -8.171  0.0000E+00  0.0000E+00  0.0000E+00
     -8.106  0.0000E+00  0.0000E+00  0.0000E+00
     -8.042  0.0000E+00  0.0000E+00  0.0000E+00
     -7.977  0.0000E+00  0.0000E+00  0.0000E+00
     -7.912  0.0000E+00  0.0000E+00  0.0000E+00
     -7.848  0.0000E+00  0.0000E+00  0.0000E+00
     -7.783  0.2192E-14  0.3976E-14  0.0000E+00
     -7.719  0.1401E-09  0.2541E-09  0.0000E+00
     -7.654  0.3550E-06  0.6439E-06  0.0000E+00
     -7.589  0.4058E-04  0.7357E-04  0.0000E+00
     -7.525  0.3187E-03  0.5745E-03  0.0000E+00
     -7.460  0.4583E-03  0.8236E-03  0.0000E+00
     -7.395  0.1662E-03  0.5799E-03  0.0000E+00
     -7.331  0.7463E-04  0.8009E-03  0.0000E+00
     -7.266  0.3189E-03  0.7812E-03  0.0000E+00
     -7.201  0.4808E-03  0.1683E-02  0.0000E+00
     -7.137  0.3358E-03  0.1347E-02  0.0000E+00
     -7.072  0.3635E-03  0.7744E-03  0.0000E+00
     -7.007  0.8078E-03  0.1594E-02  0.0000E+00
     -6.943  0.3210E-03  0.1218E-02  0.0000E+00
     -6.878  0.4872E-03  0.1303E-02  0.0000E+00
     -6.814  0.7955E-03  0.9765E-03  0.0000E+00
     -6.749  0.1074E-02  0.2252E-02  0.0000E+00
     -6.684  0.1436E-02  0.2808E-02  0.0000E+00
     -6.620  0.1154E-02  0.2249E-02  0.0000E+00
     -6.555  0.1367E-02  0.1770E-02  0.0000E+00
     -6.490  0.1688E-02  0.1565E-02  0.0000E+00
     -6.426  0.1219E-02  0.1188E-02  0.0000E+00
     -6.361  0.1168E-02  0.1808E-02  0.0000E+00
     -6.296  0.1037E-02  0.1181E-02  0.0000E+00
     -6.232  0.1311E-02  0.6778E-03  0.0000E+00
     -6.167  0.6981E-03  0.6716E-03  0.0000E+00
     -6.102  0.1490E-02  0.1357E-02  0.0000E+00
     -6.038  0.1240E-02  0.1169E-02  0.0000E+00
     -5.973  0.1310E-03  0.1386E-03  0.0000E+00
     -5.909  0.2207E-03  0.2326E-03  0.0000E+00
     -5.844  0.8685E-03  0.7904E-03  0.0000E+00
     -5.779  0.1064E-02  0.1217E-02  0.0000E+00
     -5.715  0.2130E-03  0.3108E-03  0.0000E+00
     -5.650  0.4151E-05  0.6461E-05  0.0000E+00
     -5.585  0.2785E-06  0.5284E-06  0.0000E+00
     -5.521  0.4144E-04  0.7844E-04  0.0000E+00
     -5.456  0.3495E-03  0.6582E-03  0.0000E+00
     -5.391  0.2205E-03  0.4135E-03  0.0000E+00
     -5.327  0.9558E-05  0.1783E-04  0.0000E+00
     -5.262  0.2074E-07  0.3846E-07  0.0000E+00
     -5.197  0.1873E-11  0.3454E-11  0.0000E+00
     -5.133  0.6564E-17  0.1203E-16  0.0000E+00
     -5.068  0.0000E+00  0.0000E+00  0.0000E+00
     -5.004  0.0000E+00  0.0000E+00  0.0000E+00
     -4.939  0.0000E+00  0.0000E+00  0.0000E+00
     -4.874  0.0000E+00  0.0000E+00  0.0000E+00
     -4.810  0.0000E+00  0.0000E+00  0.0000E+00
     -4.745  0.0000E+00  0.0000E+00  0.0000E+00
     -4.680  0.0000E+00  0.0000E+00  0.0000E+00
     -4.616  0.0000E+00  0.0000E+00  0.0000E+00
     -4.551  0.0000E+00  0.0000E+00  0.0000E+00
     -4.486  0.0000E+00  0.0000E+00  0.0000E+00
     -4.422  0.0000E+00  0.0000E+00  0.0000E+00
     -4.357  0.0000E+00  0.0000E+00  0.0000E+00
     -4.292  0.0000E+00  0.0000E+00  0.0000E+00
     -4.228  0.0000E+00  0.0000E+00  0.0000E+00
     -4.163  0.0000E+00  0.0000E+00  0.0000E+00
     -4.099  0.0000E+00  0.0000E+00  0.0000E+00
     -4.034  0.0000E+00  0.0000E+00  0.0000E+00
     -3.969  0.0000E+00  0.0000E+00  0.0000E+00
     -3.905  0.0000E+00  0.0000E+00  0.0000E+00
     -3.840  0.0000E+00  0.0000E+00  0.0000E+00
     -3.775  0.0000E+00  0.0000E+00  0.0000E+00
     -3.711  0.0000E+00  0.0000E+00  0.0000E+00
     -3.646  0.0000E+00  0.0000E+00  0.0000E+00
     -3.581  0.0000E+00  0.0000E+00  0.0000E+00
     -3.517  0.0000E+00  0.0000E+00  0.0000E+00
     -3.452  0.0000E+00  0.0000E+00  0.0000E+00
     -3.387  0.0000E+00  0.0000E+00  0.0000E+00
     -3.323  0.0000E+00  0.0000E+00  0.0000E+00
     -3.258  0.0000E+00  0.0000E+00  0.0000E+00
     -3.194  0.0000E+00  0.0000E+00  0.0000E+00
     -3.129  0.0000E+00  0.0000E+00  0.0000E+00
     -3.064  0.0000E+00  0.0000E+00  0.0000E+00
     -3.000  0.0000E+00  0.0000E+00  0.0000E+00
     -2.935  0.0000E+00  0.0000E+00  0.0000E+00
     -2.870  0.0000E+00  0.0000E+00  0.0000E+00
     -2.806  0.0000E+00  0.0000E+00  0.0000E+00
     -2.741  0.0000E+00  0.0000E+00  0.0000E+00
     -2.676  0.0000E+00  0.0000E+00  0.0000E+00
     -2.612  0.0000E+00  0.0000E+00  0.0000E+00
     -2.547  0.0000E+00  0.0000E+00  0.0000E+00
     -2.482  0.0000E+00  0.0000E+00  0.0000E+00
     -2.418  0.0000E+00  0.0000E+00  0.0000E+00
     -2.353  0.0000E+00  0.0000E+00  0.0000E+00
     -2.289  0.0000E+00  0.0000E+00  0.0000E+00
     -2.224  0.0000E+00  0.0000E+00  0.0000E+00
     -2.159  0.0000E+00  0.0000E+00  0.0000E+00
     -2.095  0.0000E+00  0.0000E+00  0.0000E+00
     -2.030  0.0000E+00  0.0000E+00  0.0000E+00
     -1.965  0.4962E-15  0.3476E-15  0.0000E+00
     -1.901  0.5303E-10  0.3715E-10  0.0000E+00
     -1.836  0.2223E-06  0.1557E-06  0.0000E+00
     -1.771  0.4038E-04  0.2829E-04  0.0000E+00
     -1.707  0.4026E-03  0.2815E-03  0.0000E+00
     -1.642  0.3751E-03  0.2362E-03  0.0000E+00
     -1.577  0.4791E-03  0.4154E-03  0.0000E+00
     -1.513  0.2524E-02  0.3386E-02  0.0000E+00
     -1.448  0.4424E-02  0.4695E-02  0.0000E+00
     -1.384  0.5887E-02  0.5526E-02  0.0000E+00
     -1.319  0.6700E-02  0.1040E-01  0.0000E+00
     -1.254  0.1154E-01  0.1395E-01  0.0000E+00
     -1.190  0.1262E-01  0.1094E-01  0.0000E+00
     -1.125  0.6193E-02  0.4473E-02  0.0000E+00
     -1.060  0.1833E-02  0.1134E-02  0.0000E+00
     -0.996  0.2774E-02  0.4229E-02  0.0000E+00
     -0.931  0.3833E-02  0.4040E-02  0.0000E+00
     -0.866  0.5429E-02  0.3992E-02  0.0000E+00
     -0.802  0.9281E-02  0.6228E-02  0.0000E+00
     -0.737  0.4618E-02  0.5472E-02  0.0000E+00
     -0.672  0.4145E-02  0.6913E-02  0.0000E+00
     -0.608  0.9088E-02  0.1459E-01  0.0000E+00
     -0.543  0.9156E-02  0.1209E-01  0.0000E+00
     -0.479  0.1125E-01  0.8872E-02  0.0000E+00
     -0.414  0.6704E-02  0.7052E-02  0.0000E+00
     -0.349  0.1190E-01  0.9661E-02  0.0000E+00
     -0.285  0.1852E-01  0.1012E-01  0.0000E+00
     -0.220  0.1000E-01  0.1436E-01  0.0000E+00
     -0.155  0.1200E-01  0.1949E-01  0.0000E+00
     -0.091  0.1369E-01  0.1993E-01  0.0000E+00
     -0.026  0.8873E-02  0.2659E-01  0.0000E+00
      0.039  0.5638E-02  0.1153E-01  0.0000E+00
      0.103  0.9832E-02  0.9767E-02  0.0000E+00
      0.168  0.9078E-02  0.1381E-01  0.0000E+00
      0.233  0.1283E-01  0.1511E-01  0.0000E+00
      0.297  0.1831E-01  0.1852E-01  0.0000E+00
      0.362  0.1583E-01  0.1324E-01  0.0000E+00
      0.426  0.1460E-01  0.1265E-01  0.0000E+00
      0.491  0.6158E-02  0.1345E-01  0.0000E+00
      0.556  0.9121E-02  0.1884E-01  0.0000E+00
      0.620  0.1849E-01  0.2031E-01  0.0000E+00
      0.685  0.1414E-01  0.1331E-01  0.0000E+00
      0.750  0.2088E-01  0.2486E-01  0.0000E+00
      0.814  0.3406E-01  0.2692E-01  0.0000E+00
      0.879  0.2527E-01  0.1591E-01  0.0000E+00
      0.944  0.1700E-01  0.1945E-01  0.0000E+00
      1.008  0.2838E-01  0.3004E-01  0.0000E+00
      1.073  0.3119E-01  0.1908E-01  0.0000E+00
      1.138  0.3720E-01  0.2748E-01  0.0000E+00
      1.202  0.4095E-01  0.4055E-01  0.0000E+00
      1.267  0.5650E-01  0.4177E-01  0.0000E+00
      1.331  0.4648E-01  0.3841E-01  0.0000E+00
      1.396  0.1788E-01  0.4124E-01  0.0000E+00
      1.461  0.1658E-01  0.4519E-01  0.0000E+00
      1.525  0.2516E-01  0.5557E-01  0.0000E+00
      1.590  0.1250E-01  0.2894E-01  0.0000E+00
      1.655  0.1823E-01  0.2757E-01  0.0000E+00
      1.719  0.4539E-01  0.4526E-01  0.0000E+00
      1.784  0.3345E-01  0.4735E-01  0.0000E+00
      1.849  0.3921E-01  0.9251E-01  0.0000E+00
      1.913  0.3011E-01  0.8317E-01  0.0000E+00
      1.978  0.2360E-01  0.7616E-01  0.0000E+00
      2.043  0.2377E-01  0.6031E-01  0.0000E+00
      2.107  0.2768E-01  0.7223E-01  0.0000E+00
      2.172  0.2203E-01  0.5493E-01  0.0000E+00
      2.236  0.1310E-01  0.3612E-01  0.0000E+00
      2.301  0.1049E-01  0.3436E-01  0.0000E+00
      2.366  0.1209E-01  0.2763E-01  0.0000E+00
      2.430  0.1377E-01  0.3065E-01  0.0000E+00
      2.495  0.4821E-02  0.1869E-01  0.0000E+00
      2.560  0.4998E-02  0.1407E-01  0.0000E+00
      2.624  0.8060E-02  0.2039E-01  0.0000E+00
      2.689  0.5546E-02  0.1426E-01  0.0000E+00
      2.754  0.3711E-02  0.1081E-01  0.0000E+00
      2.818  0.1600E-02  0.5160E-02  0.0000E+00
      2.883  0.7568E-03  0.2993E-02  0.0000E+00
      2.948  0.2588E-03  0.1890E-02  0.0000E+00
      3.012  0.1177E-03  0.1184E-02  0.0000E+00
      3.077  0.1882E-04  0.2015E-03  0.0000E+00
      3.141  0.2184E-06  0.2343E-05  0.0000E+00
      3.206  0.1154E-09  0.1238E-08  0.0000E+00
      3.271  0.2434E-14  0.2612E-13  0.0000E+00
      3.335  0.0000E+00  0.0000E+00  0.0000E+00
      3.400  0.0000E+00  0.0000E+00  0.0000E+00
      3.465  0.0000E+00  0.0000E+00  0.0000E+00
      3.529  0.0000E+00  0.0000E+00  0.0000E+00
      3.594  0.0000E+00  0.0000E+00  0.0000E+00
      3.659  0.3332E-14  0.3564E-14  0.0000E+00
      3.723  0.3362E-09  0.3596E-09  0.0000E+00
      3.788  0.1332E-05  0.1425E-05  0.0000E+00
      3.853  0.2293E-03  0.2453E-03  0.0000E+00
      3.917  0.2170E-02  0.2321E-02  0.0000E+00
      3.982  0.1526E-02  0.1632E-02  0.0000E+00
      4.046  0.7454E-04  0.7972E-04  0.0000E+00
      4.111  0.1858E-06  0.1990E-06  0.0000E+00
      4.176  0.3826E-05  0.4922E-05  0.0000E+00
      4.240  0.4842E-03  0.6025E-03  0.0000E+00
      4.305  0.4610E-02  0.4441E-02  0.0000E+00
      4.370  0.8521E-02  0.6099E-02  0.0000E+00
      4.434  0.7867E-02  0.1955E-01  0.0000E+00
      4.499  0.5349E-02  0.1711E-01  0.0000E+00
      4.564  0.8513E-03  0.6632E-02  0.0000E+00
      4.628  0.2936E-02  0.8106E-02  0.0000E+00
      4.693  0.1425E-01  0.9804E-02  0.0000E+00
      4.758  0.1680E-01  0.9394E-02  0.0000E+00
      4.822  0.1805E-01  0.1604E-01  0.0000E+00
      4.887  0.1879E-01  0.2102E-01  0.0000E+00
      4.951  0.1469E-01  0.2927E-01  0.0000E+00
      5.016  0.1460E-01  0.3398E-01  0.0000E+00
      5.081  0.1825E-01  0.4386E-01  0.0000E+00
      5.145  0.2902E-01  0.2562E-01  0.0000E+00
      5.210  0.1633E-01  0.1856E-01  0.0000E+00
      5.275  0.1669E-01  0.2981E-01  0.0000E+00
      5.339  0.2122E-01  0.4769E-01  0.0000E+00
      5.404  0.1003E-01  0.3582E-01  0.0000E+00
      5.469  0.8026E-02  0.3221E-01  0.0000E+00
      5.533  0.2016E-01  0.4512E-01  0.0000E+00
      5.598  0.3175E-01  0.5946E-01  0.0000E+00
      5.663  0.2919E-01  0.4565E-01  0.0000E+00
      5.727  0.1726E-01  0.3446E-01  0.0000E+00
      5.792  0.1016E-01  0.3225E-01  0.0000E+00
      5.856  0.1241E-01  0.4401E-01  0.0000E+00
      5.921  0.1079E-01  0.3968E-01  0.0000E+00
      5.986  0.1780E-01  0.3546E-01  0.0000E+00
      6.050  0.2227E-01  0.3736E-01  0.0000E+00
      6.115  0.2130E-01  0.3122E-01  0.0000E+00
      6.180  0.2351E-01  0.4056E-01  0.0000E+00
      6.244  0.2031E-01  0.4210E-01  0.0000E+00
      6.309  0.1735E-01  0.1610E-01  0.0000E+00
      6.374  0.1677E-01  0.1655E-01  0.0000E+00
      6.438  0.8588E-02  0.2238E-01  0.0000E+00
      6.503  0.6703E-02  0.1260E-01  0.0000E+00
      6.568  0.3871E-02  0.1670E-01  0.0000E+00
      6.632  0.2230E-02  0.2261E-01  0.0000E+00
      6.697  0.1767E-02  0.1323E-01  0.0000E+00
      6.761  0.1436E-02  0.1261E-01  0.0000E+00
      6.826  0.8784E-03  0.1005E-01  0.0000E+00
      6.891  0.5365E-02  0.4453E-02  0.0000E+00
      6.955  0.7595E-02  0.5250E-02  0.0000E+00
      7.020  0.9060E-03  0.7223E-03  0.0000E+00
      7.085  0.7157E-05  0.6607E-05  0.0000E+00
      7.149  0.2975E-08  0.3041E-08  0.0000E+00
      7.214  0.5526E-13  0.5957E-13  0.0000E+00
      7.279  0.0000E+00  0.0000E+00  0.0000E+00
      7.343  0.0000E+00  0.0000E+00  0.0000E+00
      7.408  0.0000E+00  0.0000E+00  0.0000E+00
      7.473  0.0000E+00  0.0000E+00  0.0000E+00
      7.537  0.0000E+00  0.0000E+00  0.0000E+00
      7.602  0.0000E+00  0.0000E+00  0.0000E+00
      7.666  0.0000E+00  0.0000E+00  0.0000E+00
      7.731  0.0000E+00  0.0000E+00  0.0000E+00
      7.796  0.0000E+00  0.0000E+00  0.0000E+00
      7.79577186    -11.59712007  301      3.21016095      1.00000000
    -11.597  0.0000E+00  0.0000E+00  0.0000E+00
    -11.532  0.0000E+00  0.0000E+00  0.0000E+00
    -11.468  0.0000E+00  0.0000E+00  0.0000E+00
    -11.403  0.0000E+00  0.0000E+00  0.0000E+00
    -11.339  0.0000E+00  0.0000E+00  0.0000E+00
    -11.274  0.0000E+00  0.0000E+00  0.0000E+00
    -11.209  0.0000E+00  0.0000E+00  0.0000E+00
    -11.145  0.0000E+00  0.0000E+00  0.0000E+00
    -11.080  0.0000E+00  0.0000E+00  0.0000E+00
    -11.015  0.0000E+00  0.0000E+00  0.0000E+00
    -10.951  0.5428E-14  0.3099E-14  0.0000E+00
    -10.886  0.2633E-09  0.1502E-09  0.0000E+00
    -10.821  0.5128E-06  0.2905E-06  0.0000E+00
    -10.757  0.4761E-04  0.2551E-04  0.0000E+00
    -10.692  0.3495E-03  0.1446E-03  0.0000E+00
    -10.627  0.4743E-03  0.2422E-03  0.0000E+00
    -10.563  0.2248E-03  0.2705E-03  0.0000E+00
    -10.498  0.1781E-03  0.1383E-03  0.0000E+00
    -10.434  0.1102E-02  0.6717E-03  0.0000E+00
    -10.369  0.1144E-02  0.9164E-03  0.0000E+00
    -10.304  0.2915E-03  0.4863E-03  0.0000E+00
    -10.240  0.1720E-03  0.1466E-03  0.0000E+00
    -10.175  0.8787E-03  0.7998E-03  0.0000E+00
    -10.110  0.7625E-03  0.8550E-03  0.0000E+00
    -10.046  0.6793E-03  0.7898E-03  0.0000E+00
     -9.981  0.3978E-03  0.3334E-03  0.0000E+00
     -9.916  0.2962E-03  0.3234E-03  0.0000E+00
     -9.852  0.9911E-03  0.1515E-02  0.0000E+00
     -9.787  0.1475E-02  0.1999E-02  0.0000E+00
     -9.722  0.1310E-02  0.1907E-02  0.0000E+00
     -9.658  0.1681E-02  0.2040E-02  0.0000E+00
     -9.593  0.8031E-03  0.9718E-03  0.0000E+00
     -9.529  0.1253E-02  0.2102E-02  0.0000E+00
     -9.464  0.2668E-02  0.3240E-02  0.0000E+00
     -9.399  0.1983E-02  0.2308E-02  0.0000E+00
     -9.335  0.3991E-03  0.1129E-02  0.0000E+00
     -9.270  0.8999E-03  0.2715E-02  0.0000E+00
     -9.205  0.1751E-02  0.2514E-02  0.0000E+00
     -9.141  0.2288E-02  0.2846E-02  0.0000E+00
     -9.076  0.6199E-02  0.6495E-02  0.0000E+00
     -9.011  0.6740E-02  0.1048E-01  0.0000E+00
     -8.947  0.7711E-02  0.1542E-01  0.0000E+00
     -8.882  0.4610E-02  0.8174E-02  0.0000E+00
     -8.817  0.2325E-02  0.3640E-02  0.0000E+00
     -8.753  0.2616E-02  0.4533E-02  0.0000E+00
     -8.688  0.3686E-02  0.6014E-02  0.0000E+00
     -8.624  0.3525E-02  0.5032E-02  0.0000E+00
     -8.559  0.5610E-03  0.7893E-03  0.0000E+00
     -8.494  0.5503E-05  0.7721E-05  0.0000E+00
     -8.430  0.2423E-08  0.3391E-08  0.0000E+00
     -8.365  0.4244E-13  0.5925E-13  0.0000E+00
     -8.300  0.0000E+00  0.0000E+00  0.0000E+00
     -8.236  0.0000E+00  0.0000E+00  0.0000E+00
     -8.171  0.0000E+00  0.0000E+00  0.0000E+00
     -8.106  0.0000E+00  0.0000E+00  0.0000E+00
     -8.042  0.0000E+00  0.0000E+00  0.0000E+00
     -7.977  0.0000E+00  0.0000E+00  0.0000E+00
     -7.912  0.0000E+00  0.0000E+00  0.0000E+00
     -7.848  0.0000E+00  0.0000E+00  0.0000E+00
     -7.783  0.2192E-14  0.3976E-14  0.0000E+00
     -7.719  0.1401E-09  0.2541E-09  0.0000E+00
     -7.654  0.3550E-06  0.6439E-06  0.0000E+00
     -7.589  0.4058E-04  0.7357E-04  0.0000E+00
     -7.525  0.3187E-03  0.5745E-03  0.0000E+00
     -7.460  0.4583E-03  0.8236E-03  0.0000E+00
     -7.395  0.1662E-03  0.5799E-03  0.0000E+00
     -7.331  0.7463E-04  0.8009E-03  0.0000E+00
     -7.266  0.3189E-03  0.7812E-03  0.0000E+00
     -7.201  0.4808E-03  0.1683E-02  0.0000E+00
     -7.137  0.3358E-03  0.1347E-02  0.0000E+00
     -7.072  0.3635E-03  0.7744E-03  0.0000E+00
     -7.007  0.8078E-03  0.1594E-02  0.0000E+00
     -6.943  0.3210E-03  0.1218E-02  0.0000E+00
     -6.878  0.4872E-03  0.1303E-02  0.0000E+00
     -6.814  0.7955E-03  0.9765E-03  0.0000E+00
     -6.749  0.1074E-02  0.2252E-02  0.0000E+00
     -6.684  0.1436E-02  0.2808E-02  0.0000E+00
     -6.620  0.1154E-02  0.2249E-02  0.0000E+00
     -6.555  0.1367E-02  0.1770E-02  0.0000E+00
     -6.490  0.1688E-02  0.1565E-02  0.0000E+00
     -6.426  0.1219E-02  0.1188E-02  0.0000E+00
     -6.361  0.1168E-02  0.1808E-02  0.0000E+00
     -6.296  0.1037E-02  0.1181E-02  0.0000E+00
     -6.232  0.1311E-02  0.6778E-03  0.0000E+00
     -6.167  0.6981E-03  0.6716E-03  0.0000E+00
     -6.102  0.1490E-02  0.1357E-02  0.0000E+00
     -6.038  0.1240E-02  0.1169E-02  0.0000E+00
     -5.973  0.1310E-03  0.1386E-03  0.0000E+00
     -5.909  0.2207E-03  0.2326E-03  0.0000E+00
     -5.844  0.8685E-03  0.7904E-03  0.0000E+00