       N       E                     dE             d eps       ncg     rms          rms(c)
DAV:   1     0.542921914927E+03    0.54292E+03   -0.33941E+04  1008   0.780E+02
DAV:   2    -0.364820063016E+02   -0.57940E+03   -0.55881E+03  1358   0.160E+02
DAV:   3    -0.101336680737E+03   -0.64855E+02   -0.64181E+02  1218   0.587E+01
DAV:   4    -0.103515566142E+03   -0.21789E+01   -0.21729E+01  1568   0.111E+01
DAV:   5    -0.103541451249E+03   -0.25885E-01   -0.25871E-01  1260   0.135E+00    0.137E+01
DAV:   6    -0.985969466056E+02    0.49445E+01   -0.11029E+01  1176   0.718E+00    0.734E+00
DAV:   7    -0.984215221785E+02    0.17542E+00   -0.32075E+00  1288   0.366E+00    0.468E+00
DAV:   8    -0.983979758785E+02    0.23546E-01   -0.34681E-01  1470   0.152E+00    0.159E+00
DAV:   9    -0.984007034121E+02   -0.27275E-02   -0.69619E-02  1274   0.861E-01    0.434E-01
DAV:  10    -0.984051400040E+02   -0.44366E-02   -0.21618E-02  1288   0.317E-01    0.261E-01
DAV:  11    -0.984079277433E+02   -0.27877E-02   -0.39785E-03  1232   0.192E-01    0.124E-01
DAV:  12    -0.984101195007E+02   -0.21918E-02   -0.36677E-03  1176   0.148E-01    0.543E-02
DAV:  13    -0.984104321599E+02   -0.31266E-03   -0.61573E-04  1162   0.546E-02    0.363E-02
DAV:  14    -0.984105872935E+02   -0.15513E-03   -0.24240E-04  1008   0.346E-02    0.199E-02
DAV:  15    -0.984106223253E+02   -0.35032E-04   -0.37443E-05   910   0.160E-02
   1 F= -.98410622E+02 E0= -.98410622E+02  d E =-.984106E+02
       N       E                     dE             d eps       ncg     rms          rms(c)
DAV:   1    -0.985081505211E+02   -0.97563E-01   -0.75899E-01  1092   0.205E+00    0.612E-01
DAV:   2    -0.984976762755E+02    0.10474E-01   -0.44226E-02  1148   0.515E-01    0.272E-01
DAV:   3    -0.984940313909E+02    0.36449E-02   -0.74981E-03  1260   0.194E-01    0.135E-01
DAV:   4    -0.984933787221E+02    0.65267E-03   -0.16140E-03  1274   0.919E-02    0.711E-02
DAV:   5    -0.984933091383E+02    0.69584E-04   -0.30033E-04  1008   0.392E-02
   2 F= -.98493309E+02 E0= -.98493309E+02  d E =-.826868E-01
       N       E                     dE             d eps       ncg     rms          rms(c)
DAV:   1    -0.988561619814E+02   -0.36278E+00   -0.68764E+00  1064   0.619E+00    0.188E+00
DAV:   2    -0.987592416422E+02    0.96920E-01   -0.40901E-01  1064   0.156E+00    0.812E-01
DAV:   3    -0.987261170307E+02    0.33125E-01   -0.70932E-02  1260   0.598E-01    0.412E-01
DAV:   4    -0.987205403251E+02    0.55767E-02   -0.14248E-02  1274   0.273E-01    0.224E-01
DAV:   5    -0.987198947966E+02    0.64553E-03   -0.29771E-03  1428   0.116E-01    0.109E-01
DAV:   6    -0.987199143929E+02   -0.19596E-04   -0.49467E-04  1260   0.554E-02
   3 F= -.98719914E+02 E0= -.98719914E+02  d E =-.309292E+00
       N       E                     dE             d eps       ncg     rms          rms(c)
DAV:   1    -0.996146780191E+02   -0.89478E+00   -0.28243E+01  1064   0.126E+01    0.396E+00
DAV:   2    -0.992125009213E+02    0.40218E+00   -0.17346E+00  1078   0.321E+00    0.165E+00
DAV:   3    -0.990785540223E+02    0.13395E+00   -0.30572E-01  1260   0.125E+00    0.849E-01
DAV:   4    -0.990579732491E+02    0.20581E-01   -0.57474E-02  1274   0.550E-01    0.475E-01
DAV:   5    -0.990552601372E+02    0.27131E-02   -0.11155E-02  1428   0.224E-01    0.223E-01
DAV:   6    -0.990552683985E+02   -0.82613E-05   -0.21212E-03  1288   0.115E-01    0.999E-02
DAV:   7    -0.990554382137E+02   -0.16982E-03   -0.44893E-04  1162   0.486E-02    0.317E-02
DAV:   8    -0.990554731004E+02   -0.34887E-04   -0.40731E-05   868   0.183E-02
   4 F= -.99055473E+02 E0= -.99055473E+02  d E =-.644851E+00
       N       E                     dE             d eps       ncg     rms          rms(c)
DAV:   1    -0.101530527232E+03   -0.24751E+01   -0.11879E+02  1078   0.261E+01    0.890E+00
DAV:   2    -0.998039594662E+02    0.17266E+01   -0.78495E+00  1148   0.681E+00    0.344E+00
DAV:   3    -0.992670199179E+02    0.53694E+00   -0.13887E+00  1260   0.268E+00    0.190E+00
DAV:   4    -0.991922848034E+02    0.74735E-01   -0.23508E-01  1260   0.112E+00    0.112E+00
DAV:   5    -0.991798736493E+02    0.12411E-01   -0.42980E-02  1442   0.433E-01    0.498E-01
DAV:   6    -0.991793172984E+02    0.55635E-03   -0.92813E-03  1330   0.239E-01    0.181E-01
DAV:   7    -0.991798479559E+02   -0.53066E-03   -0.17314E-03  1190   0.977E-02    0.652E-02
DAV:   8    -0.991799576023E+02   -0.10965E-03   -0.14698E-04   994   0.329E-02    0.288E-02
DAV:   9    -0.991800135460E+02   -0.55944E-04   -0.87283E-05   854   0.231E-02
   5 F= -.99180014E+02 E0= -.99180014E+02  d E =-.769391E+00
       N       E                     dE             d eps       ncg     rms          rms(c)
DAV:   1    -0.994055136537E+02   -0.22556E+00   -0.94874E+00  1092   0.724E+00    0.215E+00
DAV:   2    -0.992784805103E+02    0.12703E+00   -0.52544E-01  1176   0.182E+00    0.103E+00
DAV:   3    -0.992302823823E+02    0.48198E-01   -0.99286E-02  1260   0.696E-01    0.497E-01
DAV:   4    -0.992206890114E+02    0.95934E-02   -0.21998E-02  1260   0.336E-01    0.236E-01
DAV:   5    -0.992197650700E+02    0.92394E-03   -0.39318E-03  1428   0.132E-01    0.146E-01
DAV:   6    -0.992198180460E+02   -0.52976E-04   -0.54523E-04  1246   0.581E-02
   6 F= -.99219818E+02 E0= -.99219818E+02  d E =-.809196E+00
       N       E                     dE             d eps       ncg     rms          rms(c)
DAV:   1    -0.993133679060E+02   -0.93603E-01   -0.12530E+00  1008   0.267E+00    0.523E-01
DAV:   2    -0.993153756485E+02   -0.20077E-02   -0.69708E-02  1176   0.655E-01    0.211E-01
DAV:   3    -0.993137239494E+02    0.16517E-02   -0.23119E-03  1274   0.136E-01    0.149E-01
DAV:   4    -0.993130380471E+02    0.68590E-03   -0.22367E-03  1260   0.108E-01    0.552E-02
DAV:   5    -0.993130442679E+02   -0.62208E-05   -0.27145E-04   966   0.431E-02
   7 F= -.99313044E+02 E0= -.99313044E+02  d E =-.932262E-01
       N       E                     dE             d eps       ncg     rms          rms(c)
DAV:   1    -0.995691091182E+02   -0.25607E+00   -0.11255E+01  1008   0.800E+00    0.156E+00
DAV:   2    -0.995849043893E+02   -0.15795E-01   -0.63110E-01  1176   0.197E+00    0.640E-01
DAV:   3    -0.995700397473E+02    0.14865E-01   -0.21759E-02  1260   0.410E-01    0.459E-01
DAV:   4    -0.995640990345E+02    0.59407E-02   -0.19840E-02  1260   0.320E-01    0.173E-01
DAV:   5    -0.995642032905E+02   -0.10426E-03   -0.26269E-03  1232   0.129E-01    0.709E-02
DAV:   6    -0.995641934531E+02    0.98374E-05   -0.35313E-04  1092   0.445E-02
   8 F= -.99564193E+02 E0= -.99564193E+02  d E =-.344375E+00
       N       E                     dE             d eps       ncg     rms          rms(c)
DAV:   1    -0.999723397914E+02   -0.40814E+00   -0.45272E+01  1008   0.160E+01    0.329E+00
DAV:   2    -0.100029630194E+03   -0.57290E-01   -0.25836E+00  1176   0.396E+00    0.134E+00
DAV:   3    -0.999718882212E+02    0.57742E-01   -0.94076E-02  1260   0.842E-01    0.976E-01
DAV:   4    -0.999500584066E+02    0.21830E-01   -0.74203E-02  1260   0.622E-01    0.379E-01
DAV:   5    -0.999503082609E+02   -0.24985E-03   -0.10280E-02  1274   0.250E-01    0.151E-01
DAV:   6    -0.999502958508E+02    0.12410E-04   -0.95391E-04  1316   0.756E-02
   9 F= -.99950296E+02 E0= -.99950296E+02  d E =-.730478E+00
       N       E                     dE             d eps       ncg     rms          rms(c)
DAV:   1    -0.100367408530E+03   -0.41710E+00   -0.18141E+02  1008   0.318E+01    0.824E+00
DAV:   2    -0.100576987669E+03   -0.20958E+00   -0.11048E+01  1176   0.808E+00    0.308E+00
DAV:   3    -0.100366350663E+03    0.21064E+00   -0.43377E-01  1246   0.177E+00    0.237E+00
DAV:   4    -0.100293861679E+03    0.72489E-01   -0.24879E-01  1260   0.117E+00    0.975E-01
DAV:   5    -0.100292839082E+03    0.10226E-02   -0.41153E-02  1316   0.486E-01    0.333E-01
DAV:   6    -0.100292952499E+03   -0.11342E-03   -0.20086E-03  1470   0.116E-01    0.201E-01
DAV:   7    -0.100293339551E+03   -0.38705E-03   -0.11535E-03  1176   0.875E-02    0.368E-02
DAV:   8    -0.100293410780E+03   -0.71228E-04   -0.12491E-04   840   0.301E-02
  10 F= -.10029341E+03 E0= -.10029341E+03  d E =-.107359E+01
       N       E                     dE             d eps       ncg     rms          rms(c)
DAV:   1    -0.100496755123E+03   -0.20342E+00   -0.24590E+00  1008   0.397E+00    0.697E-01
DAV:   2    -0.100505809542E+03   -0.90544E-02   -0.18783E-01  1260   0.106E+00    0.360E-01
DAV:   3    -0.100504535632E+03    0.12739E-02   -0.89309E-03  1260   0.239E-01    0.226E-01
DAV:   4    -0.100503764744E+03    0.77089E-03   -0.17111E-03  1274   0.989E-02    0.997E-02
DAV:   5    -0.100503596339E+03    0.16841E-03   -0.42282E-04  1204   0.526E-02    0.480E-02
DAV:   6    -0.100503598587E+03   -0.22476E-05   -0.10569E-04   742   0.265E-02
  11 F= -.10050360E+03 E0= -.10050360E+03  d E =-.210188E+00
       N       E                     dE             d eps       ncg     rms          rms(c)
DAV:   1    -0.100829531707E+03   -0.32594E+00   -0.21982E+01  1008   0.119E+01    0.214E+00
DAV:   2    -0.100913342131E+03   -0.83810E-01   -0.17103E+00  1260   0.321E+00    0.111E+00
DAV:   3    -0.100902482918E+03    0.10859E-01   -0.85690E-02  1260   0.739E-01    0.717E-01
DAV:   4    -0.100895135253E+03    0.73477E-02   -0.15919E-02  1260   0.298E-01    0.318E-01
DAV:   5    -0.100893287582E+03    0.18477E-02   -0.45668E-03  1330   0.174E-01    0.146E-01
DAV:   6    -0.100893348838E+03   -0.61256E-04   -0.12808E-03  1260   0.841E-02    0.759E-02
DAV:   7    -0.100893396441E+03   -0.47603E-04   -0.14728E-04   756   0.312E-02
  12 F= -.10089340E+03 E0= -.10089340E+03  d E =-.599986E+00
       N       E                     dE             d eps       ncg     rms          rms(c)
DAV:   1    -0.100387961260E+03    0.50539E+00   -0.86587E+01  1008   0.235E+01    0.474E+00
DAV:   2    -0.100750090596E+03   -0.36213E+00   -0.71181E+00  1246   0.652E+00    0.235E+00
DAV:   3    -0.100709552138E+03    0.40538E-01   -0.37283E-01  1260   0.156E+00    0.161E+00
DAV:   4    -0.100677585494E+03    0.31967E-01   -0.68429E-02  1274   0.607E-01    0.758E-01
DAV:   5    -0.100667484120E+03    0.10101E-01   -0.22951E-02  1260   0.393E-01    0.311E-01
DAV:   6    -0.100667646159E+03   -0.16204E-03   -0.65895E-03  1400   0.186E-01    0.188E-01
DAV:   7    -0.100667892655E+03   -0.24650E-03   -0.10023E-03  1260   0.738E-02    0.562E-02
DAV:   8    -0.100667920135E+03   -0.27481E-04   -0.10928E-04   756   0.302E-02
  13 F= -.10066792E+03 E0= -.10066792E+03  d E =-.374509E+00
       N       E                     dE             d eps       ncg     rms          rms(c)
DAV:   1    -0.100850212815E+03   -0.18232E+00   -0.39070E+01  1008   0.158E+01    0.299E+00
DAV:   2    -0.100995896303E+03   -0.14568E+00   -0.31148E+00  1260   0.433E+00    0.133E+00
DAV:   3    -0.100978837806E+03    0.17058E-01   -0.14570E-01  1260   0.971E-01    0.780E-01
DAV:   4    -0.100969546909E+03    0.92909E-02   -0.23535E-02  1260   0.361E-01    0.413E-01
DAV:   5    -0.100966882805E+03    0.26641E-02   -0.61306E-03  1302   0.204E-01    0.220E-01
DAV:   6    -0.100966924077E+03   -0.41272E-04   -0.24994E-03  1372   0.121E-01    0.101E-01
DAV:   7    -0.100966978200E+03   -0.54123E-04   -0.39684E-04  1162   0.484E-02
  14 F= -.10096698E+03 E0= -.10096698E+03  d E =-.673567E+00
       N       E                     dE             d eps       ncg     rms          rms(c)
DAV:   1    -0.101300918904E+03   -0.33399E+00   -0.12048E+01  1008   0.862E+00    0.247E+00
DAV:   2    -0.101204819580E+03    0.96099E-01   -0.84762E-01  1204   0.227E+00    0.105E+00
DAV:   3    -0.101175435854E+03    0.29384E-01   -0.11095E-01  1204   0.781E-01    0.503E-01
DAV:   4    -0.101167808457E+03    0.76274E-02   -0.15075E-02  1260   0.307E-01    0.287E-01
DAV:   5    -0.101166283347E+03    0.15251E-02   -0.42495E-03  1288   0.156E-01    0.161E-01
DAV:   6    -0.101166209920E+03    0.73427E-04   -0.12185E-03  1288   0.773E-02    0.877E-02
DAV:   7    -0.101166240847E+03   -0.30926E-04   -0.10559E-04   756   0.293E-02
  15 F= -.10116624E+03 E0= -.10116624E+03  d E =-.199263E+00
       N       E                     dE             d eps       ncg     rms          rms(c)
DAV:   1    -0.101269468381E+03   -0.10326E+00   -0.58054E+00  1008   0.600E+00    0.172E+00
DAV:   2    -0.101222915875E+03    0.46553E-01   -0.41036E-01  1218   0.159E+00    0.751E-01
DAV:   3    -0.101208602546E+03    0.14313E-01   -0.54377E-02  1204   0.544E-01    0.348E-01
DAV:   4    -0.101204838392E+03    0.37642E-02   -0.72581E-03  1260   0.214E-01    0.194E-01
DAV:   5    -0.101204116047E+03    0.72235E-03   -0.20417E-03  1274   0.109E-01    0.111E-01
DAV:   6    -0.101204087392E+03    0.28655E-04   -0.56822E-04  1176   0.535E-02
  16 F= -.10120409E+03 E0= -.10120409E+03  d E =-.237109E+00
       N       E                     dE             d eps       ncg     rms          rms(c)
DAV:   1    -0.101313674346E+03   -0.10956E+00   -0.11003E+01  1008   0.816E+00    0.131E+00
DAV:   2    -0.101368425435E+03   -0.54751E-01   -0.73506E-01  1246   0.203E+00    0.478E-01
DAV:   3    -0.101364555780E+03    0.38697E-02   -0.14279E-02  1274   0.345E-01    0.353E-01
DAV:   4    -0.101363118529E+03    0.14373E-02   -0.47859E-03  1246   0.168E-01    0.173E-01
DAV:   5    -0.101362963279E+03    0.15525E-03   -0.85406E-04  1260   0.774E-02    0.544E-02
DAV:   6    -0.101362955930E+03    0.73487E-05   -0.19246E-04   770   0.391E-02
  17 F= -.10136296E+03 E0= -.10136296E+03  d E =-.158869E+00
       N       E                     dE             d eps       ncg     rms          rms(c)
DAV:   1    -0.101393192055E+03   -0.30229E-01   -0.12282E+01  1008   0.862E+00    0.139E+00
DAV:   2    -0.101454320117E+03   -0.61128E-01   -0.81859E-01  1246   0.214E+00    0.502E-01
DAV:   3    -0.101450081966E+03    0.42382E-02   -0.15698E-02  1274   0.363E-01    0.369E-01
DAV:   4    -0.101448527721E+03    0.15542E-02   -0.51928E-03  1246   0.175E-01    0.181E-01
DAV:   5    -0.101448347339E+03    0.18038E-03   -0.93669E-04  1260   0.809E-02    0.582E-02
DAV:   6    -0.101448341314E+03    0.60248E-05   -0.21222E-04   798   0.410E-02
  18 F= -.10144834E+03 E0= -.10144834E+03  d E =-.244254E+00
       N       E                     dE             d eps       ncg     rms          rms(c)
DAV:   1    -0.101125640562E+03    0.32271E+00   -0.48796E+01  1008   0.172E+01    0.312E+00
DAV:   2    -0.101374318145E+03   -0.24868E+00   -0.33515E+00  1246   0.431E+00    0.109E+00
DAV:   3    -0.101357525089E+03    0.16793E-01   -0.62461E-02  1288   0.737E-01    0.827E-01
DAV:   4    -0.101351826346E+03    0.56987E-02   -0.20706E-02  1246   0.352E-01    0.424E-01
DAV:   5    -0.101351082567E+03    0.74378E-03   -0.37782E-03  1316   0.162E-01    0.141E-01
DAV:   6    -0.101351060118E+03    0.22448E-04   -0.93098E-04  1274   0.834E-02
  19 F= -.10135106E+03 E0= -.10135106E+03  d E =-.146973E+00
       N       E                     dE             d eps       ncg     rms          rms(c)
DAV:   1    -0.101331482864E+03    0.19600E-01   -0.26816E+01  1036   0.126E+01    0.226E+00
DAV:   2    -0.101468367081E+03   -0.13688E+00   -0.17506E+00  1246   0.316E+00    0.932E-01
DAV:   3    -0.101459471813E+03    0.88953E-02   -0.35502E-02  1274   0.522E-01    0.660E-01
DAV:   4    -0.101454665028E+03    0.48068E-02   -0.10887E-02  1246   0.250E-01    0.278E-01
DAV:   5    -0.101453997273E+03    0.66775E-03   -0.28061E-03  1302   0.132E-01    0.751E-02
DAV:   6    -0.101454002538E+03   -0.52651E-05   -0.49601E-04  1176   0.541E-02
  20 F= -.10145400E+03 E0= -.10145400E+03  d E =-.249915E+00
       N       E                     dE             d eps       ncg     rms          rms(c)
DAV:   1    -0.101516494607E+03   -0.62497E-01   -0.88119E+00  1008   0.740E+00    0.145E+00
DAV:   2    -0.101540451698E+03   -0.23957E-01   -0.57855E-01  1232   0.187E+00    0.731E-01
DAV:   3    -0.101533644662E+03    0.68070E-02   -0.22328E-02  1288   0.376E-01    0.454E-01
DAV:   4    -0.101529365160E+03    0.42795E-02   -0.53779E-03  1260   0.197E-01    0.192E-01
DAV:   5    -0.101528606452E+03    0.75871E-03   -0.29454E-03  1232   0.133E-01    0.664E-02
DAV:   6    -0.101528626599E+03   -0.20146E-04   -0.35252E-04  1120   0.473E-02
  21 F= -.10152863E+03 E0= -.10152863E+03  d E =-.746241E-01
       N       E                     dE             d eps       ncg     rms          rms(c)
DAV:   1    -0.101496383480E+03    0.32223E-01   -0.13761E+01  1008   0.922E+00    0.182E+00
DAV:   2    -0.101534362313E+03   -0.37979E-01   -0.90378E-01  1218   0.234E+00    0.913E-01
DAV:   3    -0.101524120743E+03    0.10242E-01   -0.34379E-02  1330   0.463E-01    0.567E-01
DAV:   4    -0.101517421351E+03    0.66994E-02   -0.83878E-03  1246   0.245E-01    0.239E-01
DAV:   5    -0.101516273135E+03    0.11482E-02   -0.46394E-03  1190   0.166E-01    0.819E-02
DAV:   6    -0.101516304352E+03   -0.31217E-04   -0.56294E-04  1204   0.594E-02
  22 F= -.10151630E+03 E0= -.10151630E+03  d E =-.623018E-01
       N       E                     dE             d eps       ncg     rms          rms(c)
DAV:   1    -0.101534334006E+03   -0.18061E-01   -0.49375E+00  1008   0.552E+00    0.108E+00
DAV:   2    -0.101546012362E+03   -0.11678E-01   -0.31407E-01  1204   0.138E+00    0.495E-01
DAV:   3    -0.101542220135E+03    0.37922E-02   -0.12610E-02  1302   0.282E-01    0.303E-01
DAV:   4    -0.101540117391E+03    0.21027E-02   -0.28122E-03  1260   0.143E-01    0.137E-01
DAV:   5    -0.101539742936E+03    0.37445E-03   -0.15455E-03  1218   0.963E-02    0.465E-02
DAV:   6    -0.101539748367E+03   -0.54314E-05   -0.16666E-04   756   0.342E-02
  23 F= -.10153975E+03 E0= -.10153975E+03  d E =-.857458E-01
       N       E                     dE             d eps       ncg     rms          rms(c)
DAV:   1    -0.101589722177E+03   -0.49979E-01   -0.65165E+00  1008   0.635E+00    0.112E+00
DAV:   2    -0.101614412708E+03   -0.24691E-01   -0.42353E-01  1218   0.157E+00    0.479E-01
DAV:   3    -0.101610097211E+03    0.43155E-02   -0.10666E-02  1288   0.281E-01    0.315E-01
DAV:   4    -0.101607949903E+03    0.21473E-02   -0.49342E-03  1260   0.180E-01    0.139E-01
DAV:   5    -0.101607813046E+03    0.13686E-03   -0.10548E-03  1246   0.842E-02    0.581E-02
DAV:   6    -0.101607813633E+03   -0.58648E-06   -0.13368E-04   756   0.315E-02
  24 F= -.10160781E+03 E0= -.10160781E+03  d E =-.680653E-01
       N       E                     dE             d eps       ncg     rms          rms(c)
DAV:   1    -0.101606742105E+03    0.10709E-02   -0.12740E+01  1008   0.888E+00    0.160E+00
DAV:   2    -0.101654377549E+03   -0.47635E-01   -0.83009E-01  1190   0.220E+00    0.668E-01
DAV:   3    -0.101645873616E+03    0.85039E-02   -0.20942E-02  1288   0.394E-01    0.441E-01
DAV:   4    -0.101641734404E+03    0.41392E-02   -0.96395E-03  1260   0.252E-01    0.195E-01
DAV:   5    -0.101641468793E+03    0.26561E-03   -0.19942E-03  1260   0.116E-01    0.818E-02
DAV:   6    -0.101641471418E+03   -0.26253E-05   -0.29731E-04  1036   0.446E-02
  25 F= -.10164147E+03 E0= -.10164147E+03  d E =-.101723E+00
       N       E                     dE             d eps       ncg     rms          rms(c)
DAV:   1    -0.101694212330E+03   -0.52744E-01   -0.46574E+00  1008   0.546E+00    0.101E+00
DAV:   2    -0.101700374724E+03   -0.61624E-02   -0.28928E-01  1218   0.133E+00    0.517E-01
DAV:   3    -0.101694275181E+03    0.60995E-02   -0.10662E-02  1372   0.287E-01    0.321E-01
DAV:   4    -0.101691155269E+03    0.31199E-02   -0.67766E-03  1218   0.215E-01    0.954E-02
DAV:   5    -0.101691050640E+03    0.10463E-03   -0.10026E-03  1246   0.893E-02    0.585E-02
DAV:   6    -0.101691061676E+03   -0.11036E-04   -0.15874E-04   742   0.330E-02
  26 F= -.10169106E+03 E0= -.10169106E+03  d E =-.495903E-01
       N       E                     dE             d eps       ncg     rms          rms(c)
DAV:   1    -0.101703280439E+03   -0.12230E-01   -0.23984E+00  1008   0.392E+00    0.722E-01
DAV:   2    -0.101706471511E+03   -0.31911E-02   -0.14884E-01  1260   0.953E-01    0.361E-01
DAV:   3    -0.101703296187E+03    0.31753E-02   -0.53323E-03  1344   0.205E-01    0.226E-01
DAV:   4    -0.101701752673E+03    0.15435E-02   -0.33660E-03  1204   0.150E-01    0.703E-02
DAV:   5    -0.101701692786E+03    0.59887E-04   -0.48522E-04  1218   0.611E-02
  27 F= -.10170169E+03 E0= -.10170169E+03  d E =-.602214E-01
       N       E                     dE             d eps       ncg     rms          rms(c)
DAV:   1    -0.101725492506E+03   -0.23740E-01   -0.48860E+00  1008   0.552E+00    0.899E-01
DAV:   2    -0.101750799202E+03   -0.25307E-01   -0.31700E-01  1246   0.135E+00    0.351E-01
DAV:   3    -0.101749187782E+03    0.16114E-02   -0.53850E-03  1344   0.215E-01    0.249E-01
DAV:   4    -0.101748358632E+03    0.82915E-03   -0.23800E-03  1204   0.128E-01    0.113E-01
DAV:   5    -0.101748312708E+03    0.45924E-04   -0.52021E-04  1190   0.595E-02
  28 F= -.10174831E+03 E0= -.10174831E+03  d E =-.466199E-01
       N       E                     dE             d eps       ncg     rms          rms(c)
DAV:   1    -0.101749746186E+03   -0.13876E-02   -0.40481E+00  1008   0.502E+00    0.812E-01
DAV:   2    -0.101770598709E+03   -0.20853E-01   -0.26160E-01  1232   0.123E+00    0.321E-01
DAV:   3    -0.101769303721E+03    0.12950E-02   -0.45782E-03  1358   0.196E-01    0.226E-01
DAV:   4    -0.101768609666E+03    0.69405E-03   -0.19951E-03  1232   0.117E-01    0.102E-01
DAV:   5    -0.101768575444E+03    0.34222E-04   -0.42625E-04  1134   0.551E-02
  29 F= -.10176858E+03 E0= -.10176858E+03  d E =-.668827E-01
       N       E                     dE             d eps       ncg     rms          rms(c)
DAV:   1    -0.101673750814E+03    0.94859E-01   -0.16218E+01  1008   0.101E+01    0.168E+00
DAV:   2    -0.101758135391E+03   -0.84385E-01   -0.10589E+00  1232   0.247E+00    0.646E-01
DAV:   3    -0.101752822626E+03    0.53128E-02   -0.18277E-02  1358   0.395E-01    0.463E-01
DAV:   4    -0.101749996803E+03    0.28258E-02   -0.81087E-03  1232   0.236E-01    0.209E-01
DAV:   5    -0.101749856206E+03    0.14060E-03   -0.17139E-03  1260   0.110E-01    0.748E-02
DAV:   6    -0.101749870281E+03   -0.14075E-04   -0.29837E-04  1008   0.457E-02
  30 F= -.10174987E+03 E0= -.10174987E+03  d E =-.481775E-01
       N       E                     dE             d eps       ncg     rms          rms(c)
DAV:   1    -0.101729960006E+03    0.19896E-01   -0.88027E+00  1008   0.738E+00    0.119E+00
DAV:   2    -0.101775418078E+03   -0.45458E-01   -0.56144E-01  1246   0.181E+00    0.511E-01
DAV:   3    -0.101772353446E+03    0.30646E-02   -0.96623E-03  1358   0.284E-01    0.357E-01
DAV:   4    -0.101770625918E+03    0.17275E-02   -0.43541E-03  1204   0.173E-01    0.154E-01
DAV:   5    -0.101770509279E+03    0.11664E-03   -0.98787E-04  1274   0.812E-02    0.566E-02
DAV:   6    -0.101770508922E+03    0.35678E-06   -0.14467E-04   756   0.329E-02
  31 F= -.10177051E+03 E0= -.10177051E+03  d E =-.688161E-01
       N       E                     dE             d eps       ncg     rms          rms(c)
DAV:   1    -0.101815115229E+03   -0.44606E-01   -0.61596E+00  1008   0.619E+00    0.120E+00
DAV:   2    -0.101822385577E+03   -0.72703E-02   -0.38514E-01  1218   0.154E+00    0.534E-01
DAV:   3    -0.101816819733E+03    0.55658E-02   -0.20291E-02  1302   0.370E-01    0.322E-01
DAV:   4    -0.101814438001E+03    0.23817E-02   -0.48504E-03  1260   0.184E-01    0.152E-01
DAV:   5    -0.101814027464E+03    0.41054E-03   -0.14684E-03  1246   0.997E-02    0.713E-02
DAV:   6    -0.101814034576E+03   -0.71124E-05   -0.24070E-04   770   0.403E-02
  32 F= -.10181403E+03 E0= -.10181403E+03  d E =-.435257E-01
       N       E                     dE             d eps       ncg     rms          rms(c)
DAV:   1    -0.101826772313E+03   -0.12745E-01   -0.12712E+00  1008   0.281E+00    0.538E-01
DAV:   2    -0.101828316654E+03   -0.15443E-02   -0.79171E-02  1218   0.699E-01    0.243E-01
DAV:   3    -0.101827165563E+03    0.11511E-02   -0.41624E-03  1302   0.168E-01    0.147E-01
DAV:   4    -0.101826671277E+03    0.49429E-03   -0.10287E-03  1260   0.847E-02    0.687E-02
DAV:   5    -0.101826591621E+03    0.79655E-04   -0.28166E-04   854   0.457E-02
  33 F= -.10182659E+03 E0= -.10182659E+03  d E =-.560827E-01
       N       E                     dE             d eps       ncg     rms          rms(c)
DAV:   1    -0.101838681740E+03   -0.12010E-01   -0.50926E+00  1008   0.563E+00    0.110E+00
DAV:   2    -0.101844349343E+03   -0.56676E-02   -0.31734E-01  1204   0.140E+00    0.486E-01
DAV:   3    -0.101839721996E+03    0.46273E-02   -0.17294E-02  1316   0.340E-01    0.290E-01
DAV:   4    -0.101837752769E+03    0.19692E-02   -0.39875E-03  1246   0.168E-01    0.140E-01
DAV:   5    -0.101837419580E+03    0.33319E-03   -0.12522E-03  1246   0.923E-02    0.668E-02
DAV:   6    -0.101837427404E+03   -0.78237E-05   -0.20430E-04   728   0.372E-02
  34 F= -.10183743E+03 E0= -.10183743E+03  d E =-.669185E-01
       N       E                     dE             d eps       ncg     rms          rms(c)
DAV:   1    -0.101857556144E+03   -0.20137E-01   -0.15533E+00  1008   0.310E+00    0.494E-01
DAV:   2    -0.101862564496E+03   -0.50084E-02   -0.94455E-02  1204   0.754E-01    0.242E-01
DAV:   3    -0.101861585787E+03    0.97871E-03   -0.30913E-03  1358   0.160E-01    0.160E-01
DAV:   4    -0.101861013437E+03    0.57235E-03   -0.12607E-03  1302   0.978E-02    0.653E-02
DAV:   5    -0.101860942787E+03    0.70651E-04   -0.28608E-04   966   0.509E-02
  35 F= -.10186094E+03 E0= -.10186094E+03  d E =-.235154E-01
       N       E                     dE             d eps       ncg     rms          rms(c)
DAV:   1    -0.101878502328E+03   -0.17489E-01   -0.13904E+01  1008   0.925E+00    0.153E+00
DAV:   2    -0.101924342222E+03   -0.45840E-01   -0.85465E-01  1218   0.226E+00    0.753E-01
DAV:   3    -0.101915661133E+03    0.86811E-02   -0.27604E-02  1344   0.477E-01    0.504E-01
DAV:   4    -0.101910445938E+03    0.52152E-02   -0.11275E-02  1316   0.291E-01    0.205E-01
DAV:   5    -0.101909792502E+03    0.65344E-03   -0.27818E-03  1232   0.154E-01    0.976E-02
DAV:   6    -0.101909821127E+03   -0.28625E-04   -0.55469E-04  1204   0.600E-02
  36 F= -.10190982E+03 E0= -.10190982E+03  d E =-.723937E-01
       N       E                     dE             d eps       ncg     rms          rms(c)
DAV:   1    -0.101808868756E+03    0.10092E+00   -0.55244E+01  1008   0.184E+01    0.339E+00
DAV:   2    -0.102001583872E+03   -0.19272E+00   -0.35095E+00  1218   0.455E+00    0.166E+00
DAV:   3    -0.101967085991E+03    0.34498E-01   -0.10872E-01  1316   0.945E-01    0.115E+00
DAV:   4    -0.101944952558E+03    0.22133E-01   -0.45107E-02  1316   0.579E-01    0.470E-01
DAV:   5    -0.101941853414E+03    0.30991E-02   -0.12075E-02  1288   0.318E-01    0.204E-01
DAV:   6    -0.101941957784E+03   -0.10437E-03   -0.23014E-03  1274   0.123E-01    0.112E-01
DAV:   7    -0.101941994776E+03   -0.36992E-04   -0.20200E-04   840   0.398E-02
  37 F= -.10194199E+03 E0= -.10194199E+03  d E =-.104567E+00
       N       E                     dE             d eps       ncg     rms          rms(c)
DAV:   1    -0.101955964708E+03   -0.14007E-01   -0.62776E+00  1008   0.615E+00    0.965E-01
DAV:   2    -0.101982955630E+03   -0.26991E-01   -0.37808E-01  1162   0.149E+00    0.412E-01
DAV:   3    -0.101980455156E+03    0.25005E-02   -0.87235E-03  1386   0.263E-01    0.293E-01
DAV:   4    -0.101978928297E+03    0.15269E-02   -0.36638E-03  1260   0.170E-01    0.117E-01
DAV:   5    -0.101978875445E+03    0.52852E-04   -0.94204E-04  1218   0.838E-02
  38 F= -.10197888E+03 E0= -.10197888E+03  d E =-.368807E-01
       N       E                     dE             d eps       ncg     rms          rms(c)
DAV:   1    -0.101859898073E+03    0.11903E+00   -0.56258E+01  1008   0.184E+01    0.338E+00
DAV:   2    -0.102107110619E+03   -0.24721E+00   -0.35228E+00  1162   0.449E+00    0.138E+00
DAV:   3    -0.102084670916E+03    0.22440E-01   -0.79703E-02  1372   0.800E-01    0.101E+00
DAV:   4    -0.102070985363E+03    0.13686E-01   -0.33235E-02  1274   0.511E-01    0.408E-01
DAV:   5    -0.102070340388E+03    0.64498E-03   -0.86954E-03  1232   0.256E-01    0.148E-01
DAV:   6    -0.102070370623E+03   -0.30235E-04   -0.13379E-03  1274   0.920E-02    0.761E-02
DAV:   7    -0.102070387192E+03   -0.16569E-04   -0.13501E-04   742   0.339E-02
  39 F= -.10207039E+03 E0= -.10207039E+03  d E =-.128392E+00
       N       E                     dE             d eps       ncg     rms          rms(c)
DAV:   1    -0.101094310242E+03    0.97606E+00   -0.22290E+02  1008   0.364E+01    0.983E+00
DAV:   2    -0.102190241404E+03   -0.10959E+01   -0.15604E+01  1162   0.931E+00    0.379E+00
DAV:   3    -0.102096442729E+03    0.93799E-01   -0.33686E-01  1344   0.167E+00    0.289E+00
DAV:   4    -0.102040912687E+03    0.55530E-01   -0.14201E-01  1218   0.103E+00    0.118E+00
DAV:   5    -0.102037245533E+03    0.36672E-02   -0.35785E-02  1260   0.522E-01    0.367E-01
DAV:   6    -0.102037320823E+03   -0.75290E-04   -0.57048E-03  1246   0.192E-01    0.168E-01
DAV:   7    -0.102037394941E+03   -0.74119E-04   -0.64635E-04  1162   0.695E-02
  40 F= -.10203739E+03 E0= -.10203739E+03  d E =-.954002E-01
       N       E                     dE             d eps       ncg     rms          rms(c)
DAV:   1    -0.101731763049E+03    0.30556E+00   -0.97968E+01  1008   0.243E+01    0.458E+00
DAV:   2    -0.102172595844E+03   -0.44083E+00   -0.60330E+00  1148   0.598E+00    0.198E+00
DAV:   3    -0.102130516607E+03    0.42079E-01   -0.14017E-01  1358   0.104E+00    0.142E+00
DAV:   4    -0.102099296053E+03    0.31221E-01   -0.62058E-02  1260   0.691E-01    0.514E-01
DAV:   5    -0.102097618331E+03    0.16777E-02   -0.18261E-02  1232   0.356E-01    0.199E-01
DAV:   6    -0.102097618259E+03    0.72353E-07   -0.22911E-03  1288   0.115E-01    0.108E-01
DAV:   7    -0.102097641605E+03   -0.23346E-04   -0.25648E-04   840   0.450E-02
  41 F= -.10209764E+03 E0= -.10209764E+03  d E =-.155647E+00
       N       E                     dE             d eps       ncg     rms          rms(c)
DAV:   1    -0.102174831604E+03   -0.77213E-01   -0.28378E+00  1008   0.418E+00    0.998E-01
DAV:   2    -0.102167808179E+03    0.70234E-02   -0.17313E-01  1232   0.108E+00    0.433E-01
DAV:   3    -0.102163409180E+03    0.43990E-02   -0.17416E-02  1260   0.313E-01    0.235E-01
DAV:   4    -0.102161915685E+03    0.14935E-02   -0.23554E-03  1246   0.125E-01    0.117E-01
DAV:   5    -0.102161602464E+03    0.31322E-03   -0.11010E-03  1204   0.830E-02    0.571E-02
DAV:   6    -0.102161611776E+03   -0.93118E-05   -0.14519E-04   756   0.304E-02
  42 F= -.10216161E+03 E0= -.10216161E+03  d E =-.639702E-01
       N       E                     dE             d eps       ncg     rms          rms(c)
DAV:   1    -0.102224858353E+03   -0.63256E-01   -0.59464E+00  1008   0.606E+00    0.146E+00
DAV:   2    -0.102210219457E+03    0.14639E-01   -0.36544E-01  1246   0.157E+00    0.628E-01
DAV:   3    -0.102200857569E+03    0.93619E-02   -0.36612E-02  1232   0.453E-01    0.344E-01
DAV:   4    -0.102197835441E+03    0.30221E-02   -0.46579E-03  1260   0.178E-01    0.176E-01
DAV:   5    -0.102197140755E+03    0.69469E-03   -0.24577E-03  1218   0.123E-01    0.837E-02
DAV:   6    -0.102197167627E+03   -0.26873E-04   -0.34197E-04  1022   0.443E-02
  43 F= -.10219717E+03 E0= -.10219717E+03  d E =-.995260E-01
       N       E                     dE             d eps       ncg     rms          rms(c)
DAV:   1    -0.102257322169E+03   -0.60181E-01   -0.35098E+00  1008   0.463E+00    0.901E-01
DAV:   2    -0.102261143308E+03   -0.38211E-02   -0.21086E-01  1218   0.116E+00    0.450E-01
DAV:   3    -0.102258268119E+03    0.28752E-02   -0.11665E-02  1302   0.261E-01    0.261E-01
DAV:   4    -0.102256696463E+03    0.15717E-02   -0.17277E-03  1260   0.112E-01    0.108E-01
DAV:   5    -0.102256412156E+03    0.28431E-03   -0.10125E-03  1274   0.802E-02    0.455E-02
DAV:   6    -0.102256429957E+03   -0.17800E-04   -0.12115E-04   756   0.291E-02
  44 F= -.10225643E+03 E0= -.10225643E+03  d E =-.592623E-01
       N       E                     dE             d eps       ncg     rms          rms(c)
DAV:   1    -0.102306415493E+03   -0.50003E-01   -0.10033E+01  1008   0.781E+00    0.152E+00
DAV:   2    -0.102318051444E+03   -0.11636E-01   -0.60038E-01  1218   0.195E+00    0.766E-01
DAV:   3    -0.102310064497E+03    0.79869E-02   -0.32602E-02  1330   0.436E-01    0.453E-01
DAV:   4    -0.102305476326E+03    0.45882E-02   -0.51385E-03  1232   0.192E-01    0.187E-01
DAV:   5    -0.102304682789E+03    0.79354E-03   -0.29302E-03  1302   0.136E-01    0.790E-02
DAV:   6    -0.102304734315E+03   -0.51526E-04   -0.38982E-04  1106   0.492E-02
  45 F= -.10230473E+03 E0= -.10230473E+03  d E =-.107567E+00
       N       E                     dE             d eps       ncg     rms          rms(c)
DAV:   1    -0.102308120246E+03   -0.34375E-02   -0.13050E+00  1008   0.282E+00    0.549E-01
DAV:   2    -0.102309635154E+03   -0.15149E-02   -0.77754E-02  1218   0.700E-01    0.260E-01
DAV:   3    -0.102308611323E+03    0.10238E-02   -0.42257E-03  1330   0.157E-01    0.152E-01
DAV:   4    -0.102308066517E+03    0.54481E-03   -0.60491E-04  1190   0.662E-02    0.670E-02
DAV:   5    -0.102307961189E+03    0.10533E-03   -0.36422E-04  1050   0.489E-02    0.258E-02
DAV:   6    -0.102307970154E+03   -0.89652E-05   -0.55831E-05   756   0.204E-02
  46 F= -.10230797E+03 E0= -.10230797E+03  d E =-.110803E+00
       N       E                     dE             d eps       ncg     rms          rms(c)
DAV:   1    -0.102342756373E+03   -0.34795E-01   -0.55708E+00  1008   0.578E+00    0.900E-01
DAV:   2    -0.102368894840E+03   -0.26138E-01   -0.33255E-01  1190   0.138E+00    0.369E-01
DAV:   3    -0.102367722560E+03    0.11723E-02   -0.63404E-03  1330   0.209E-01    0.263E-01
DAV:   4    -0.102366780263E+03    0.94230E-03   -0.21176E-03  1190   0.125E-01    0.114E-01
DAV:   5    -0.102366750997E+03    0.29266E-04   -0.72520E-04  1218   0.709E-02
  47 F= -.10236675E+03 E0= -.10236675E+03  d E =-.587808E-01
       N       E                     dE             d eps       ncg     rms          rms(c)
DAV:   1    -0.102260252954E+03    0.10653E+00   -0.49993E+01  1008   0.173E+01    0.312E+00
DAV:   2    -0.102499897332E+03   -0.23964E+00   -0.30805E+00  1218   0.418E+00    0.123E+00
DAV:   3    -0.102488838890E+03    0.11058E-01   -0.55117E-02  1302   0.632E-01    0.900E-01
DAV:   4    -0.102480546465E+03    0.82924E-02   -0.19049E-02  1232   0.373E-01    0.400E-01
DAV:   5    -0.102480196812E+03    0.34965E-03   -0.64686E-03  1218   0.212E-01    0.140E-01
DAV:   6    -0.102480241199E+03   -0.44386E-04   -0.79623E-04  1260   0.672E-02
  48 F= -.10248024E+03 E0= -.10248024E+03  d E =-.172271E+00
       N       E                     dE             d eps       ncg     rms          rms(c)
DAV:   1    -0.102450268042E+03    0.29929E-01   -0.90434E+00  1008   0.738E+00    0.117E+00
DAV:   2    -0.102492408642E+03   -0.42141E-01   -0.54106E-01  1204   0.176E+00    0.484E-01
DAV:   3    -0.102490393806E+03    0.20148E-02   -0.10303E-02  1330   0.269E-01    0.345E-01
DAV:   4    -0.102488832251E+03    0.15616E-02   -0.35284E-03  1190   0.163E-01    0.154E-01
DAV:   5    -0.102488780285E+03    0.51966E-04   -0.12699E-03  1246   0.936E-02    0.597E-02
DAV:   6    -0.102488785873E+03   -0.55883E-05   -0.13158E-04   714   0.293E-02
  49 F= -.10248879E+03 E0= -.10248879E+03  d E =-.180816E+00
       N       E                     dE             d eps       ncg     rms          rms(c)
DAV:   1    -0.102528349989E+03   -0.39570E-01   -0.10295E+01  1008   0.805E+00    0.135E+00
DAV:   2    -0.102577757561E+03   -0.49408E-01   -0.67622E-01  1204   0.201E+00    0.578E-01
DAV:   3    -0.102574278255E+03    0.34793E-02   -0.17070E-02  1330   0.351E-01    0.413E-01
DAV:   4    -0.102571749934E+03    0.25283E-02   -0.39108E-03  1288   0.177E-01    0.199E-01
DAV:   5    -0.102571273702E+03    0.47623E-03   -0.19960E-03  1274   0.128E-01    0.751E-02
DAV:   6    -0.102571294250E+03   -0.20548E-04   -0.40804E-04  1106   0.487E-02
  50 F= -.10257129E+03 E0= -.10257129E+03  d E =-.825084E-01
       N       E                     dE             d eps       ncg     rms          rms(c)
DAV:   1    -0.102494765615E+03    0.76508E-01   -0.22964E+01  1008   0.120E+01    0.207E+00
DAV:   2    -0.102605736526E+03   -0.11097E+00   -0.15196E+00  1204   0.301E+00    0.884E-01
DAV:   3    -0.102598208707E+03    0.75278E-02   -0.39263E-02  1344   0.530E-01    0.630E-01
DAV:   4    -0.102592544922E+03    0.56638E-02   -0.85365E-03  1260   0.262E-01    0.308E-01
DAV:   5    -0.102591416946E+03    0.11280E-02   -0.46528E-03  1302   0.195E-01    0.116E-01
DAV:   6    -0.102591465052E+03   -0.48106E-04   -0.95862E-04  1176   0.743E-02
  51 F= -.10259147E+03 E0= -.10259147E+03  d E =-.102679E+00
       N       E                     dE             d eps       ncg     rms          rms(c)
DAV:   1    -0.102588531097E+03    0.28858E-02   -0.26724E+00  1008   0.409E+00    0.657E-01
DAV:   2    -0.102601063021E+03   -0.12532E-01   -0.17133E-01  1218   0.101E+00    0.284E-01
DAV:   3    -0.102600120260E+03    0.94276E-03   -0.41664E-03  1344   0.174E-01    0.202E-01
DAV:   4    -0.102599467968E+03    0.65229E-03   -0.97199E-04  1260   0.875E-02    0.969E-02
DAV:   5    -0.102599340103E+03    0.12787E-03   -0.50235E-04  1218   0.640E-02    0.368E-02
DAV:   6    -0.102599344442E+03   -0.43396E-05   -0.98820E-05   658   0.250E-02
  52 F= -.10259934E+03 E0= -.10259934E+03  d E =-.110559E+00
       N       E                     dE             d eps       ncg     rms          rms(c)
DAV:   1    -0.102645113974E+03   -0.45774E-01   -0.91365E+00  1008   0.760E+00    0.132E+00
DAV:   2    -0.102672999897E+03   -0.27886E-01   -0.56000E-01  1204   0.185E+00    0.602E-01
DAV:   3    -0.102666572769E+03    0.64271E-02   -0.17892E-02  1372   0.354E-01    0.409E-01
DAV:   4    -0.102662468876E+03    0.41039E-02   -0.57931E-03  1232   0.214E-01    0.161E-01
DAV:   5    -0.102662059834E+03    0.40904E-03   -0.24646E-03  1232   0.131E-01    0.654E-02
DAV:   6    -0.102662072435E+03   -0.12601E-04   -0.30928E-04  1050   0.437E-02
  53 F= -.10266207E+03 E0= -.10266207E+03  d E =-.627280E-01
       N       E                     dE             d eps       ncg     rms          rms(c)
DAV:   1    -0.102668492613E+03   -0.64328E-02   -0.43699E+00  1008   0.526E+00    0.905E-01
DAV:   2    -0.102682072909E+03   -0.13580E-01   -0.26986E-01  1218   0.128E+00    0.415E-01
DAV:   3    -0.102678992416E+03    0.30805E-02   -0.86027E-03  1372   0.246E-01    0.283E-01
DAV:   4    -0.102677065685E+03    0.19267E-02   -0.27241E-03  1204   0.147E-01    0.113E-01
DAV:   5    -0.102676868644E+03    0.19704E-03   -0.11988E-03  1274   0.914E-02    0.454E-02
DAV:   6    -0.102676874204E+03   -0.55608E-05   -0.14189E-04   728   0.309E-02
  54 F= -.10267687E+03 E0= -.10267687E+03  d E =-.775298E-01
       N       E                     dE             d eps       ncg     rms          rms(c)
DAV:   1    -0.102700242500E+03   -0.23374E-01   -0.20975E+00  1008   0.361E+00    0.505E-01
DAV:   2    -0.102710882905E+03   -0.10640E-01   -0.12977E-01  1260   0.878E-01    0.209E-01
DAV:   3    -0.102710728531E+03    0.15437E-03   -0.32355E-03  1302   0.154E-01    0.147E-01
DAV:   4    -0.102710580635E+03    0.14790E-03   -0.39299E-04  1176   0.529E-02    0.842E-02
DAV:   5    -0.102710532453E+03    0.48182E-04   -0.20853E-04   812   0.441E-02
  55 F= -.10271053E+03 E0= -.10271053E+03  d E =-.336582E-01
       N       E                     dE             d eps       ncg     rms          rms(c)
DAV:   1    -0.102710843761E+03   -0.26313E-03   -0.39314E+00  1008   0.494E+00    0.700E-01
DAV:   2    -0.102730556926E+03   -0.19713E-01   -0.24188E-01  1246   0.120E+00    0.293E-01
DAV:   3    -0.102730315587E+03    0.24134E-03   -0.63149E-03  1302   0.214E-01    0.202E-01
DAV:   4    -0.102730040062E+03    0.27552E-03   -0.74142E-04  1274   0.729E-02    0.115E-01
DAV:   5    -0.102729958702E+03    0.81360E-04   -0.40225E-04  1190   0.594E-02
  56 F= -.10272996E+03 E0= -.10272996E+03  d E =-.530845E-01
       N       E                     dE             d eps       ncg     rms          rms(c)
DAV:   1    -0.102728629799E+03    0.14103E-02   -0.88953E-01  1008   0.235E+00    0.332E-01
DAV:   2    -0.102733056501E+03   -0.44267E-02   -0.54829E-02  1246   0.568E-01    0.138E-01
DAV:   3    -0.102733012485E+03    0.44016E-04   -0.14891E-03  1302   0.104E-01    0.925E-02
DAV:   4    -0.102732953947E+03    0.58537E-04   -0.15027E-04   756   0.357E-02
  57 F= -.10273295E+03 E0= -.10273295E+03  d E =-.560797E-01
       N       E                     dE             d eps       ncg     rms          rms(c)
DAV:   1    -0.102773936359E+03   -0.40924E-01   -0.36534E+00  1008   0.472E+00    0.110E+00
DAV:   2    -0.102763578170E+03    0.10358E-01   -0.22273E-01  1162   0.115E+00    0.528E-01
DAV:   3    -0.102757834112E+03    0.57441E-02   -0.15368E-02  1302   0.303E-01    0.278E-01
DAV:   4    -0.102755551294E+03    0.22828E-02   -0.44726E-03  1204   0.163E-01    0.120E-01
DAV:   5    -0.102755308502E+03    0.24279E-03   -0.87112E-04  1176   0.708E-02    0.671E-02
DAV:   6    -0.102755297640E+03    0.10862E-04   -0.16195E-04   756   0.316E-02
  58 F= -.10275530E+03 E0= -.10275530E+03  d E =-.223437E-01
       N       E                     dE             d eps       ncg     rms          rms(c)
DAV:   1    -0.102760222927E+03   -0.49144E-02   -0.57337E-01  1008   0.187E+00    0.433E-01
DAV:   2    -0.102758603662E+03    0.16193E-02   -0.35133E-02  1162   0.454E-01    0.201E-01
DAV:   3    -0.102757690970E+03    0.91269E-03   -0.24440E-03  1302   0.121E-01    0.105E-01
DAV:   4    -0.102757353048E+03    0.33792E-03   -0.66730E-04  1190   0.631E-02    0.484E-02
DAV:   5    -0.102757311175E+03    0.41873E-04   -0.11050E-04   714   0.275E-02
  59 F= -.10275731E+03 E0= -.10275731E+03  d E =-.243572E-01
       N       E                     dE             d eps       ncg     rms          rms(c)
DAV:   1    -0.102760299253E+03   -0.29462E-02   -0.31276E+00  1008   0.439E+00    0.648E-01
DAV:   2    -0.102777206437E+03   -0.16907E-01   -0.19683E-01  1176   0.107E+00    0.253E-01
DAV:   3    -0.102776882520E+03    0.32392E-03   -0.37958E-03  1316   0.173E-01    0.185E-01
DAV:   4    -0.102776658458E+03    0.22406E-03   -0.60685E-04  1190   0.676E-02    0.104E-01
DAV:   5    -0.102776615878E+03    0.42580E-04   -0.27118E-04   826   0.469E-02
  60 F= -.10277662E+03 E0= -.10277662E+03  d E =-.193047E-01
       N       E                     dE             d eps       ncg     rms          rms(c)
DAV:   1    -0.102772876129E+03    0.37823E-02   -0.17452E+00  1008   0.328E+00    0.488E-01
DAV:   2    -0.102782153912E+03   -0.92778E-02   -0.10927E-01  1176   0.801E-01    0.189E-01
DAV:   3    -0.102781995846E+03    0.15807E-03   -0.22427E-03  1302   0.132E-01    0.134E-01
DAV:   4    -0.102781878253E+03    0.11759E-03   -0.31383E-04  1008   0.505E-02    0.760E-02
DAV:   5    -0.102781860017E+03    0.18237E-04   -0.18028E-04   700   0.386E-02
  61 F= -.10278186E+03 E0= -.10278186E+03  d E =-.245488E-01
       N       E                     dE             d eps       ncg     rms          rms(c)
DAV:   1    -0.102779835835E+03    0.20424E-02   -0.29461E-01  1008   0.135E+00    0.202E-01
DAV:   2    -0.102781388984E+03   -0.15531E-02   -0.18467E-02  1190   0.329E-01    0.772E-02
DAV:   3    -0.102781364865E+03    0.24120E-04   -0.38108E-04  1176   0.552E-02
  62 F= -.10278136E+03 E0= -.10278136E+03  d E =-.240537E-01
       N       E                     dE             d eps       ncg     rms          rms(c)
DAV:   1    -0.102781365352E+03    0.23633E-04   -0.93349E-02  1008   0.760E-01    0.132E-01
DAV:   2    -0.102781909030E+03   -0.54368E-03   -0.63462E-03  1162   0.191E-01    0.307E-02
DAV:   3    -0.102781899266E+03    0.97639E-05   -0.98226E-05   756   0.304E-02
  63 F= -.10278190E+03 E0= -.10278190E+03  d E =-.245881E-01
       N       E                     dE             d eps       ncg     rms          rms(c)
DAV:   1    -0.102791956036E+03   -0.10047E-01   -0.82530E-01  1008   0.228E+00    0.370E-01
DAV:   2    -0.102795140266E+03   -0.31842E-02   -0.54692E-02  1232   0.579E-01    0.174E-01
DAV:   3    -0.102794904523E+03    0.23574E-03   -0.22286E-03  1260   0.123E-01    0.109E-01
DAV:   4    -0.102794726981E+03    0.17754E-03   -0.31708E-04   966   0.454E-02    0.611E-02
DAV:   5    -0.102794661339E+03    0.65643E-04   -0.20843E-04   770   0.416E-02
  64 F= -.10279466E+03 E0= -.10279466E+03  d E =-.127621E-01
       N       E                     dE             d eps       ncg     rms          rms(c)
DAV:   1    -0.102795659931E+03   -0.93295E-03   -0.12087E+00  1008   0.276E+00    0.447E-01
DAV:   2    -0.102800243489E+03   -0.45836E-02   -0.80050E-02  1232   0.701E-01    0.218E-01
DAV:   3    -0.102799920974E+03    0.32251E-03   -0.34150E-03  1274   0.152E-01    0.134E-01
DAV:   4    -0.102799665338E+03    0.25564E-03   -0.50378E-04  1162   0.556E-02    0.742E-02
DAV:   5    -0.102799572255E+03    0.93082E-04   -0.25258E-04   910   0.461E-02
  65 F= -.10279957E+03 E0= -.10279957E+03  d E =-.176730E-01
       N       E                     dE             d eps       ncg     rms          rms(c)
DAV:   1    -0.102804814851E+03   -0.51495E-02   -0.86520E-01  1008   0.235E+00    0.448E-01
DAV:   2    -0.102807115638E+03   -0.23008E-02   -0.57272E-02  1232   0.588E-01    0.209E-01
DAV:   3    -0.102806320766E+03    0.79487E-03   -0.20091E-03  1316   0.115E-01    0.127E-01
DAV:   4    -0.102805904855E+03    0.41591E-03   -0.64703E-04  1218   0.657E-02    0.489E-02
DAV:   5    -0.102805852606E+03    0.52249E-04   -0.17134E-04   756   0.357E-02
  66 F= -.10280585E+03 E0= -.10280585E+03  d E =-.628035E-02
       N       E                     dE             d eps       ncg     rms          rms(c)
DAV:   1    -0.102805882676E+03    0.22179E-04   -0.95184E-03  1078   0.247E-01    0.526E-02
DAV:   2    -0.102805909011E+03   -0.26335E-04   -0.62650E-04  1176   0.611E-02
  67 F= -.10280591E+03 E0= -.10280591E+03  d E =-.633676E-02
       N       E                     dE             d eps       ncg     rms          rms(c)
DAV:   1    -0.102811623137E+03   -0.57405E-02   -0.56096E-01  1008   0.188E+00    0.284E-01
DAV:   2    -0.102814224416E+03   -0.26013E-02   -0.35730E-02  1232   0.464E-01    0.124E-01
DAV:   3    -0.102814108446E+03    0.11597E-03   -0.10837E-03  1330   0.857E-02    0.854E-02
DAV:   4    -0.102814019441E+03    0.89005E-04   -0.11400E-04   756   0.318E-02
  68 F= -.10281402E+03 E0= -.10281402E+03  d E =-.811043E-02
       N       E                     dE             d eps       ncg     rms          rms(c)
DAV:   1    -0.102808475998E+03    0.56324E-02   -0.18327E+00  1008   0.339E+00    0.523E-01
DAV:   2    -0.102816615453E+03   -0.81395E-02   -0.11646E-01  1246   0.838E-01    0.223E-01
DAV:   3    -0.102816196947E+03    0.41851E-03   -0.36837E-03  1330   0.158E-01    0.150E-01
DAV:   4    -0.102815902625E+03    0.29432E-03   -0.42652E-04  1162   0.575E-02    0.814E-02
DAV:   5    -0.102815803126E+03    0.99498E-04   -0.37197E-04  1106   0.528E-02
  69 F= -.10281580E+03 E0= -.10281580E+03  d E =-.989412E-02
       N       E                     dE             d eps       ncg     rms          rms(c)
DAV:   1    -0.102815919973E+03   -0.17349E-04   -0.18748E-01  1008   0.108E+00    0.158E-01
DAV:   2    -0.102816811214E+03   -0.89124E-03   -0.12030E-02  1204   0.269E-01    0.746E-02
DAV:   3    -0.102816759565E+03    0.51649E-04   -0.31500E-04  1190   0.472E-02
  70 F= -.10281676E+03 E0= -.10281676E+03  d E =-.108506E-01
       N       E                     dE             d eps       ncg     rms          rms(c)
DAV:   1    -0.102816628442E+03    0.18277E-03   -0.45252E-02  1008   0.531E-01    0.724E-02
DAV:   2    -0.102816769961E+03   -0.14152E-03   -0.26513E-03  1246   0.128E-01    0.485E-02
DAV:   3    -0.102816746561E+03    0.23399E-04   -0.89814E-05   714   0.258E-02
  71 F= -.10281675E+03 E0= -.10281675E+03  d E =-.108375E-01
       N       E                     dE             d eps       ncg     rms          rms(c)
DAV:   1    -0.102820125896E+03   -0.33559E-02   -0.17514E-01  1008   0.104E+00    0.192E-01
DAV:   2    -0.102820420611E+03   -0.29472E-03   -0.99234E-03  1218   0.254E-01    0.865E-02
DAV:   3    -0.102820248227E+03    0.17238E-03   -0.45728E-04  1274   0.567E-02    0.552E-02
DAV:   4    -0.102820156483E+03    0.91744E-04   -0.10172E-04   756   0.306E-02
  72 F= -.10282016E+03 E0= -.10282016E+03  d E =-.340992E-02
       N       E                     dE             d eps       ncg     rms          rms(c)
DAV:   1    -0.102823004693E+03   -0.27565E-02   -0.92777E-01  1008   0.239E+00    0.446E-01
DAV:   2    -0.102824218863E+03   -0.12142E-02   -0.52020E-02  1218   0.582E-01    0.205E-01
DAV:   3    -0.102823217100E+03    0.10018E-02   -0.25736E-03  1358   0.134E-01    0.130E-01
DAV:   4    -0.102822709977E+03    0.50712E-03   -0.65916E-04  1204   0.725E-02    0.517E-02
DAV:   5    -0.102822640106E+03    0.69871E-04   -0.29807E-04  1008   0.480E-02
  73 F= -.10282264E+03 E0= -.10282264E+03  d E =-.589354E-02
       N       E                     dE             d eps       ncg     rms          rms(c)
DAV:   1    -0.102823540144E+03   -0.83017E-03   -0.24346E-02  1050   0.382E-01    0.659E-02
DAV:   2    -0.102823643952E+03   -0.10381E-03   -0.14492E-03  1190   0.932E-02    0.250E-02
DAV:   3    -0.102823636400E+03    0.75518E-05   -0.31617E-05   700   0.166E-02
  74 F= -.10282364E+03 E0= -.10282364E+03  d E =-.996294E-03
       N       E                     dE             d eps       ncg     rms          rms(c)
DAV:   1    -0.102824586560E+03   -0.94261E-03   -0.21569E-01  1008   0.114E+00    0.183E-01
DAV:   2    -0.102825503845E+03   -0.91728E-03   -0.12687E-02  1190   0.277E-01    0.777E-02
DAV:   3    -0.102825433046E+03    0.70799E-04   -0.30744E-04  1162   0.483E-02
  75 F= -.10282543E+03 E0= -.10282543E+03  d E =-.279294E-02
       N       E                     dE             d eps       ncg     rms          rms(c)
DAV:   1    -0.102822037824E+03    0.34660E-02   -0.86011E-01  1008   0.227E+00    0.365E-01
DAV:   2    -0.102825582449E+03   -0.35446E-02   -0.50030E-02  1190   0.551E-01    0.161E-01
DAV:   3    -0.102825291915E+03    0.29053E-03   -0.13111E-03  1358   0.974E-02    0.112E-01
DAV:   4    -0.102825098398E+03    0.19352E-03   -0.34898E-04   994   0.525E-02    0.472E-02
DAV:   5    -0.102825086145E+03    0.12252E-04   -0.18031E-04   686   0.372E-02
  76 F= -.10282509E+03 E0= -.10282509E+03  d E =-.244604E-02
       N       E                     dE             d eps       ncg     rms          rms(c)
DAV:   1    -0.102825205846E+03   -0.10745E-03   -0.15316E-01  1008   0.957E-01    0.152E-01
DAV:   2    -0.102825883029E+03   -0.67718E-03   -0.90252E-03  1176   0.234E-01    0.663E-02
DAV:   3    -0.102825833221E+03    0.49807E-04   -0.20168E-04   966   0.402E-02
  77 F= -.10282583E+03 E0= -.10282583E+03  d E =-.319312E-02
       N       E                     dE             d eps       ncg     rms          rms(c)
DAV:   1    -0.102828187612E+03   -0.23046E-02   -0.32901E-02  1008   0.458E-01    0.100E-01
DAV:   2    -0.102828182765E+03    0.48462E-05   -0.20492E-03  1274   0.116E-01    0.446E-02
DAV:   3    -0.102828116359E+03    0.66406E-04   -0.10779E-04   756   0.294E-02
  78 F= -.10282812E+03 E0= -.10282812E+03  d E =-.228314E-02
       N       E                     dE             d eps       ncg     rms          rms(c)
DAV:   1    -0.102832302783E+03   -0.41200E-02   -0.28795E-01  1036   0.135E+00    0.282E-01
DAV:   2    -0.102832156500E+03    0.14628E-03   -0.17053E-02  1274   0.335E-01    0.133E-01
DAV:   3    -0.102831573378E+03    0.58312E-03   -0.10314E-03  1358   0.850E-02    0.818E-02
DAV:   4    -0.102831316823E+03    0.25655E-03   -0.37660E-04  1148   0.535E-02    0.280E-02
DAV:   5    -0.102831292589E+03    0.24234E-04   -0.10969E-04   756   0.300E-02
  79 F= -.10283129E+03 E0= -.10283129E+03  d E =-.545937E-02
       N       E                     dE             d eps       ncg     rms          rms(c)
DAV:   1    -0.102831374830E+03   -0.58008E-04   -0.12407E-02  1106   0.281E-01    0.625E-02
DAV:   2    -0.102831374697E+03    0.13379E-06   -0.73299E-04  1218   0.690E-02
  80 F= -.10283137E+03 E0= -.10283137E+03  d E =-.554148E-02
       N       E                     dE             d eps       ncg     rms          rms(c)
DAV:   1    -0.102833268643E+03   -0.18938E-02   -0.47154E-02  1036   0.537E-01    0.109E-01
DAV:   2    -0.102833302972E+03   -0.34329E-04   -0.30282E-03  1232   0.139E-01    0.484E-02
DAV:   3    -0.102833265826E+03    0.37146E-04   -0.21181E-04   826   0.382E-02
  81 F= -.10283327E+03 E0= -.10283327E+03  d E =-.189113E-02
       N       E                     dE             d eps       ncg     rms          rms(c)
DAV:   1    -0.102836529418E+03   -0.32264E-02   -0.42073E-01  1008   0.160E+00    0.331E-01
DAV:   2    -0.102836603401E+03   -0.73983E-04   -0.26777E-02  1218   0.415E-01    0.144E-01
DAV:   3    -0.102836219084E+03    0.38432E-03   -0.21385E-03  1274   0.116E-01    0.827E-02
DAV:   4    -0.102836066179E+03    0.15290E-03   -0.27714E-04   966   0.438E-02    0.414E-02
DAV:   5    -0.102836024592E+03    0.41587E-04   -0.12945E-04   658   0.319E-02
  82 F= -.10283602E+03 E0= -.10283602E+03  d E =-.464990E-02
       N       E                     dE             d eps       ncg     rms          rms(c)
DAV:   1    -0.102836110810E+03   -0.44631E-04   -0.14725E-02  1022   0.301E-01    0.645E-02
DAV:   2    -0.102836118922E+03   -0.81112E-05   -0.93981E-04  1260   0.773E-02
  83 F= -.10283612E+03 E0= -.10283612E+03  d E =-.474423E-02
       N       E                     dE             d eps       ncg     rms          rms(c)
DAV:   1    -0.102837892928E+03   -0.17821E-02   -0.14032E-01  1008   0.923E-01    0.139E-01
DAV:   2    -0.102838572477E+03   -0.67955E-03   -0.84943E-03  1190   0.222E-01    0.616E-02
DAV:   3    -0.102838533139E+03    0.39338E-04   -0.14956E-04   952   0.361E-02
  84 F= -.10283853E+03 E0= -.10283853E+03  d E =-.241422E-02
       N       E                     dE             d eps       ncg     rms          rms(c)
DAV:   1    -0.102837567257E+03    0.10052E-02   -0.12601E+00  1008   0.277E+00    0.412E-01
DAV:   2    -0.102843720208E+03   -0.61530E-02   -0.76040E-02  1190   0.662E-01    0.180E-01
DAV:   3    -0.102843422956E+03    0.29725E-03   -0.15578E-03  1330   0.110E-01    0.128E-01
DAV:   4    -0.102843222169E+03    0.20079E-03   -0.41891E-04  1134   0.571E-02    0.637E-02
DAV:   5    -0.102843198861E+03    0.23308E-04   -0.16112E-04   714   0.361E-02
  85 F= -.10284320E+03 E0= -.10284320E+03  d E =-.707994E-02
       N       E                     dE             d eps       ncg     rms          rms(c)
DAV:   1    -0.102845706028E+03   -0.24839E-02   -0.14803E-01  1008   0.959E-01    0.166E-01
DAV:   2    -0.102846256645E+03   -0.55062E-03   -0.92202E-03  1162   0.231E-01    0.685E-02
DAV:   3    -0.102846164802E+03    0.91842E-04   -0.20586E-04  1022   0.409E-02
  86 F= -.10284616E+03 E0= -.10284616E+03  d E =-.296594E-02
       N       E                     dE             d eps       ncg     rms          rms(c)
DAV:   1    -0.102847053225E+03   -0.79658E-03   -0.77696E-01  1008   0.219E+00    0.367E-01
DAV:   2    -0.102849826860E+03   -0.27736E-02   -0.47961E-02  1176   0.528E-01    0.167E-01
DAV:   3    -0.102849315401E+03    0.51146E-03   -0.11451E-03  1330   0.925E-02    0.114E-01
DAV:   4    -0.102849002644E+03    0.31276E-03   -0.64866E-04  1176   0.679E-02    0.440E-02
DAV:   5    -0.102848992681E+03    0.99622E-05   -0.14602E-04   714   0.336E-02
  87 F= -.10284899E+03 E0= -.10284899E+03  d E =-.579382E-02
       N       E                     dE             d eps       ncg     rms          rms(c)
DAV:   1    -0.102848984451E+03    0.18192E-04   -0.34078E-02  1008   0.461E-01    0.823E-02
DAV:   2    -0.102849114568E+03   -0.13012E-03   -0.21517E-03  1176   0.111E-01    0.320E-02
DAV:   3    -0.102849093794E+03    0.20773E-04   -0.44086E-05   714   0.198E-02
  88 F= -.10284909E+03 E0= -.10284909E+03  d E =-.589493E-02
       N       E                     dE             d eps       ncg     rms          rms(c)
DAV:   1    -0.102851492370E+03   -0.23778E-02   -0.20723E-01  1008   0.114E+00    0.198E-01
DAV:   2    -0.102851987959E+03   -0.49559E-03   -0.12529E-02  1232   0.277E-01    0.986E-02
DAV:   3    -0.102851838557E+03    0.14940E-03   -0.48561E-04  1246   0.598E-02    0.626E-02
DAV:   4    -0.102851763487E+03    0.75070E-04   -0.13579E-04   686   0.317E-02
  89 F= -.10285176E+03 E0= -.10285176E+03  d E =-.266969E-02
       N       E                     dE             d eps       ncg     rms          rms(c)
DAV:   1    -0.102852247330E+03   -0.40877E-03   -0.21065E-01  1008   0.115E+00    0.203E-01
DAV:   2    -0.102852727732E+03   -0.48040E-03   -0.12750E-02  1274   0.279E-01    0.999E-02
DAV:   3    -0.102852572262E+03    0.15547E-03   -0.51545E-04  1260   0.617E-02    0.620E-02
DAV:   4    -0.102852496777E+03    0.75486E-04   -0.13984E-04   686   0.322E-02
  90 F= -.10285250E+03 E0= -.10285250E+03  d E =-.340298E-02
       N       E                     dE             d eps       ncg     rms          rms(c)
DAV:   1    -0.102854877479E+03   -0.23052E-02   -0.19289E-01  1008   0.111E+00    0.209E-01
DAV:   2    -0.102855099847E+03   -0.22237E-03   -0.11768E-02  1260   0.271E-01    0.104E-01
DAV:   3    -0.102854918808E+03    0.18104E-03   -0.51472E-04  1274   0.564E-02    0.582E-02
DAV:   4    -0.102854835926E+03    0.82882E-04   -0.86554E-05   700   0.257E-02
  91 F= -.10285484E+03 E0= -.10285484E+03  d E =-.233915E-02
