 vasp.5.4.4.18Apr17-6-g9f103f2a35 (build Oct 27 2022 13:04:57) complex          
  
 executed on             LinuxIFC date 2024.07.04  02:33:44
 running on   14 total cores
 distrk:  each k-point on   14 cores,    1 groups
 distr:  one band on NCORES_PER_BAND=   1 cores,   14 groups


--------------------------------------------------------------------------------------------------------


 INCAR:
 POTCAR:    PAW_PBE Li 17Jan2003                  
 POTCAR:    PAW_PBE Bi 08Apr2002                  
 POTCAR:    PAW_PBE Se 06Sep2000                  

 ----------------------------------------------------------------------------- 
|                                                                             |
|           W    W    AA    RRRRR   N    N  II  N    N   GGGG   !!!           |
|           W    W   A  A   R    R  NN   N  II  NN   N  G    G  !!!           |
|           W    W  A    A  R    R  N N  N  II  N N  N  G       !!!           |
|           W WW W  AAAAAA  RRRRR   N  N N  II  N  N N  G  GGG   !            |
|           WW  WW  A    A  R   R   N   NN  II  N   NN  G    G                |
|           W    W  A    A  R    R  N    N  II  N    N   GGGG   !!!           |
|                                                                             |
|      For optimal performance we recommend to set                            |
|        NCORE= 4 - approx SQRT( number of cores)                             |
|      NCORE specifies how many cores store one orbital (NPAR=cpu/NCORE).     |
|      This setting can  greatly improve the performance of VASP for DFT.     |
|      The default,   NCORE=1            might be grossly inefficient         |
|      on modern multi-core architectures or massively parallel machines.     |
|      Do your own testing !!!!                                               |
|      Unfortunately you need to use the default for GW and RPA calculations. |
|      (for HF NCORE is supported but not extensively tested yet)             |
|                                                                             |
 ----------------------------------------------------------------------------- 

 POTCAR:    PAW_PBE Li 17Jan2003                  
   VRHFIN =Li: s1p0                                                             
   LEXCH  = PE                                                                  
   EATOM  =     5.3001 eV,    0.3895 Ry                                         
                                                                                
   TITEL  = PAW_PBE Li 17Jan2003                                                
   LULTRA =        F    use ultrasoft PP ?                                      
   IUNSCR =        1    unscreen: 0-lin 1-nonlin 2-no                           
   RPACOR =    1.500    partial core radius                                     
   POMASS =    7.010; ZVAL   =    1.000    mass and valenz                      
   RCORE  =    2.050    outmost cutoff radius                                   
   RWIGS  =    2.600; RWIGS  =    1.376    wigner-seitz radius (au A)           
   ENMAX  =  140.000; ENMIN  =  100.000 eV                                      
   ICORE  =        2    local potential                                         
   LCOR   =        T    correct aug charges                                     
   LPAW   =        T    paw PP                                                  
   EAUG   =  331.638                                                            
   DEXC   =    0.000                                                            
   RMAX   =    2.098    core radius for proj-oper                               
   RAUG   =    1.300    factor for augmentation sphere                          
   RDEP   =    2.094    radius for radial grids                                 
   RDEPT  =    1.810    core radius for aug-charge                              
                                                                                
   Atomic configuration                                                         
    4 entries                                                                   
     n  l   j            E        occ.                                          
     1  0  0.50       -51.8549   2.0000                                         
     2  0  0.50        -2.8742   1.0000                                         
     2  1  0.50        -1.3606   0.0000                                         
     3  2  1.50        -1.3606   0.0000                                         
   Description                                                                  
     l       E           TYP  RCUT    TYP  RCUT                                 
     0     -2.8742052     23  2.050                                             
     0     27.2116520     23  2.050                                             
     1     -1.3605826     23  2.050                                             
     2     -1.3605826     23  2.050                                             
  local pseudopotential read in
  partial core-charges read in
  partial kinetic energy density read in
  atomic valenz-charges read in
  non local Contribution for L=           0  read in
    real space projection operators read in
  non local Contribution for L=           0  read in
    real space projection operators read in
  non local Contribution for L=           1  read in
    real space projection operators read in
    PAW grid and wavefunctions read in
 
   number of l-projection  operators is LMAX  =           3
   number of lm-projection operators is LMMAX =           5
 
 POTCAR:    PAW_PBE Bi 08Apr2002                  
   VRHFIN =Bi:                                                                  
   LEXCH  = PE                                                                  
   EATOM  =   150.8133 eV,   11.0845 Ry                                         
                                                                                
   TITEL  = PAW_PBE Bi 08Apr2002                                                
   LULTRA =        F    use ultrasoft PP ?                                      
   IUNSCR =        1    unscreen: 0-lin 1-nonlin 2-no                           
   RPACOR =    2.200    partial core radius                                     
   POMASS =  208.980; ZVAL   =    5.000    mass and valenz                      
   RCORE  =    3.000    outmost cutoff radius                                   
   RWIGS  =    3.090; RWIGS  =    1.635    wigner-seitz radius (au A)           
   ENMAX  =  105.037; ENMIN  =   78.777 eV                                      
   ICORE  =        3    local potential                                         
   LCOR   =        T    correct aug charges                                     
   LPAW   =        T    paw PP                                                  
   EAUG   =  265.427                                                            
   DEXC   =    0.000                                                            
   RMAX   =    3.067    core radius for proj-oper                               
   RAUG   =    1.300    factor for augmentation sphere                          
   RDEP   =    3.012    radius for radial grids                                 
   RDEPT  =    2.604    core radius for aug-charge                              
                                                                                
   Atomic configuration                                                         
   17 entries                                                                   
     n  l   j            E        occ.                                          
     1  0  0.50    -90639.6582   2.0000                                         
     2  0  0.50    -16282.4667   2.0000                                         
     2  1  1.50    -13922.8287   6.0000                                         
     3  0  0.50     -3930.4763   2.0000                                         
     3  1  1.50     -3256.7013   6.0000                                         
     3  2  2.50     -2581.6169  10.0000                                         
     4  0  0.50      -902.2614   2.0000                                         
     4  1  1.50      -681.5915   6.0000                                         
     4  2  2.50      -429.8249  10.0000                                         
     4  3  3.50      -152.6004  14.0000                                         
     5  0  0.50      -157.7156   2.0000                                         
     5  1  1.50       -95.8054   6.0000                                         
     5  2  2.50       -27.0806  10.0000                                         
     6  0  0.50       -14.4732   2.0000                                         
     6  1  1.50        -4.5702   3.0000                                         
     6  2  2.50        -2.7212   0.0000                                         
     5  3  2.50        -2.7212   0.0000                                         
   Description                                                                  
     l       E           TYP  RCUT    TYP  RCUT                                 
     0    -14.4732299     23  3.000                                             
     0    -12.2452434     23  3.000                                             
     1     -4.5701666     23  3.000                                             
     1    -13.6058260     23  3.000                                             
     2     -2.7211652     23  3.000                                             
     3     -1.3605826      7  3.000                                             
  local pseudopotential read in
  partial core-charges read in
  partial kinetic energy density read in
  kinetic energy density of atom read in
  atomic valenz-charges read in
  non local Contribution for L=           0  read in
    real space projection operators read in
  non local Contribution for L=           0  read in
    real space projection operators read in
  non local Contribution for L=           1  read in
    real space projection operators read in
  non local Contribution for L=           1  read in
    real space projection operators read in
  non local Contribution for L=           2  read in
    real space projection operators read in
    PAW grid and wavefunctions read in
 
   number of l-projection  operators is LMAX  =           5
   number of lm-projection operators is LMMAX =          13
 
 POTCAR:    PAW_PBE Se 06Sep2000                  
   VRHFIN =Se: s2p4                                                             
   LEXCH  = PE                                                                  
   EATOM  =   257.1286 eV,   18.8984 Ry                                         
                                                                                
   TITEL  = PAW_PBE Se 06Sep2000                                                
   LULTRA =        F    use ultrasoft PP ?                                      
   IUNSCR =        1    unscreen: 0-lin 1-nonlin 2-no                           
   RPACOR =    1.900    partial core radius                                     
   POMASS =   78.960; ZVAL   =    6.000    mass and valenz                      
   RCORE  =    2.100    outmost cutoff radius                                   
   RWIGS  =    2.200; RWIGS  =    1.164    wigner-seitz radius (au A)           
   ENMAX  =  211.555; ENMIN  =  158.666 eV                                      
   ICORE  =        3    local potential                                         
   LCOR   =        T    correct aug charges                                     
   LPAW   =        T    paw PP                                                  
   EAUG   =  446.842                                                            
   DEXC   =    0.000                                                            
   RMAX   =    2.147    core radius for proj-oper                               
   RAUG   =    1.300    factor for augmentation sphere                          
   RDEP   =    2.177    radius for radial grids                                 
   RDEPT  =    1.928    core radius for aug-charge                              
                                                                                
   Atomic configuration                                                         
   10 entries                                                                   
     n  l   j            E        occ.                                          
     1  0  0.50    -12503.4787   2.0000                                         
     2  0  0.50     -1606.9547   2.0000                                         
     2  1  1.50     -1413.3140   6.0000                                         
     3  0  0.50      -213.4885   2.0000                                         
     3  1  1.50      -152.9538   6.0000                                         
     3  2  2.50       -53.1221  10.0000                                         
     4  0  0.50       -17.2865   2.0000                                         
     4  1  0.50        -6.5110   4.0000                                         
     4  2  2.50        -6.8029   0.0000                                         
     4  3  2.50        -6.8029   0.0000                                         
   Description                                                                  
     l       E           TYP  RCUT    TYP  RCUT                                 
     0    -17.2865377     23  2.100                                             
     0    -15.3094411     23  2.100                                             
     1     -6.5110275     23  2.100                                             
     1     -0.0695192     23  2.100                                             
     2     -6.8029130     23  2.100                                             
     3     -1.3605826      7  2.100                                             
  local pseudopotential read in
  partial core-charges read in
  partial kinetic energy density read in
  atomic valenz-charges read in
  non local Contribution for L=           0  read in
    real space projection operators read in
  non local Contribution for L=           0  read in
    real space projection operators read in
  non local Contribution for L=           1  read in
    real space projection operators read in
  non local Contribution for L=           1  read in
    real space projection operators read in
  non local Contribution for L=           2  read in
    real space projection operators read in
    PAW grid and wavefunctions read in
 
   number of l-projection  operators is LMAX  =           5
   number of lm-projection operators is LMMAX =          13
 
 Optimization of the real space projectors (new method)

 maximal supplied QI-value         = 18.33
 optimisation between [QCUT,QGAM] = [  8.80, 17.60] = [ 21.68, 86.71] Ry 
 Optimized for a Real-space Cutoff    1.15 Angstroem

   l    n(q)    QCUT    max X(q) W(low)/X(q) W(high)/X(q)  e(spline) 
   0      6     8.799    33.825    0.11E-02    0.11E-02    0.82E-07
   0      6     8.799     8.944    0.75E-03    0.85E-03    0.59E-07
   1      5     8.799     4.214    0.92E-03    0.27E-03    0.41E-07
 Optimization of the real space projectors (new method)

 maximal supplied QI-value         = 12.47
 optimisation between [QCUT,QGAM] = [  8.86, 17.71] = [ 21.96, 87.83] Ry 
 Optimized for a Real-space Cutoff    1.59 Angstroem

   l    n(q)    QCUT    max X(q) W(low)/X(q) W(high)/X(q)  e(spline) 
   0      8     8.855    93.365    0.12E-03    0.22E-03    0.92E-07
   0      8     8.855    75.373    0.13E-03    0.24E-03    0.10E-06
   1      8     8.855    32.978    0.17E-02    0.62E-03    0.17E-06
   1      8     8.855    35.433    0.19E-02    0.68E-03    0.19E-06
   2      7     8.855     8.108    0.22E-03    0.34E-03    0.64E-07
 Optimization of the real space projectors (new method)

 maximal supplied QI-value         = 17.95
 optimisation between [QCUT,QGAM] = [  8.80, 17.59] = [ 21.67, 86.68] Ry 
 Optimized for a Real-space Cutoff    1.19 Angstroem

   l    n(q)    QCUT    max X(q) W(low)/X(q) W(high)/X(q)  e(spline) 
   0      6     8.797   133.320    0.14E-02    0.11E-02    0.95E-07
   0      6     8.797   111.601    0.15E-02    0.12E-02    0.10E-06
   1      6     8.797    47.222    0.19E-02    0.96E-03    0.11E-06
   1      6     8.797    33.775    0.19E-02    0.99E-03    0.11E-06
   2      5     8.797     3.720    0.16E-02    0.14E-02    0.40E-07
  PAW_PBE Li 17Jan2003                  :
 energy of atom  1       EATOM=   -5.3001
 kinetic energy error for atom=    0.0000 (will be added to EATOM!!)
  PAW_PBE Bi 08Apr2002                  :
 energy of atom  2       EATOM= -150.8133
 kinetic energy error for atom=    0.0003 (will be added to EATOM!!)
  PAW_PBE Se 06Sep2000                  :
 energy of atom  3       EATOM= -257.1286
 kinetic energy error for atom=    0.0040 (will be added to EATOM!!)
 
 
 POSCAR: Li4 Bi8 Se14                            
  positions in direct lattice
  No initial velocities read in
 exchange correlation table for  LEXCH =        8
   RHO(1)=    0.500       N(1)  =     2000
   RHO(2)=  100.500       N(2)  =     4000
 


--------------------------------------------------------------------------------------------------------


 ion  position               nearest neighbor table
   1  0.250  0.568  0.812-
   2  0.750  0.432  0.188-
   3  0.750  0.829  0.623-
   4  0.250  0.171  0.377-
   5  0.250  0.946  0.880-  18 2.80  19 2.93  19 2.93  26 3.02  26 3.02  25 3.17
   6  0.750  0.054  0.120-  17 2.80  20 2.93  20 2.93  25 3.02  25 3.02  26 3.17
   7  0.250  0.832  0.275-  21 2.85  23 2.91  23 2.91  17 3.00  17 3.00  25 3.06
   8  0.750  0.168  0.725-  22 2.85  24 2.91  24 2.91  18 3.00  18 3.00  26 3.06
   9  0.750  0.731  0.051-  15 2.79  15 2.79  23 2.96  19 2.98  25 3.21  25 3.21
  10  0.250  0.269  0.949-  16 2.79  16 2.79  24 2.96  20 2.98  26 3.21  26 3.21
  11  0.750  0.607  0.428-  14 2.84  21 2.96  21 2.96  13 2.99  13 2.99  23 3.05
  12  0.250  0.393  0.572-  13 2.84  22 2.96  22 2.96  14 2.99  14 2.99  24 3.05
  13  0.250  0.458  0.393-  12 2.84  11 2.99  11 2.99
  14  0.750  0.542  0.607-  11 2.84  12 2.99  12 2.99
  15  0.250  0.598  0.038-   9 2.79   9 2.79
  16  0.750  0.402  0.962-  10 2.79  10 2.79
  17  0.750  0.986  0.295-   6 2.80   7 3.00   7 3.00
  18  0.250  0.014  0.705-   5 2.80   8 3.00   8 3.00
  19  0.750  0.798  0.863-   5 2.93   5 2.93   9 2.98
  20  0.250  0.202  0.137-   6 2.93   6 2.93  10 2.98
  21  0.250  0.755  0.452-   7 2.85  11 2.96  11 2.96
  22  0.750  0.245  0.548-   8 2.85  12 2.96  12 2.96
  23  0.750  0.692  0.240-   7 2.91   7 2.91   9 2.96  11 3.05
  24  0.250  0.308  0.760-   8 2.91   8 2.91  10 2.96  12 3.05
  25  0.250  0.904  0.083-   6 3.02   6 3.02   7 3.06   5 3.17   9 3.21   9 3.21
  26  0.750  0.096  0.917-   5 3.02   5 3.02   8 3.06   6 3.17  10 3.21  10 3.21
 
  LATTYP: Found a simple monoclinic cell.
 ALAT       =    21.3605926023
 B/A-ratio  =     0.1986841797
 C/A-ratio  =     1.5026816239
 COS(beta)  =    -0.9528717542
  
  Lattice vectors:
  
 A1 = (   0.0000000000, -14.6430014100, -15.5517660100)
 A2 = (  -4.2440118200,   0.0000000000,   0.0000000000)
 A3 = (   0.0000000000,  28.0564101800,  15.5926381300)


Analysis of symmetry for initial positions (statically):
=====================================================================
 Subroutine PRICEL returns:
 Original cell was already a primitive cell.
 

 Routine SETGRP: Setting up the symmetry group for a 
 simple monoclinic supercell.


 Subroutine GETGRP returns: Found  4 space group operations
 (whereof  2 operations were pure point group operations)
 out of a pool of  4 trial point group operations.


The static configuration has the point symmetry S_2 .
 The point group associated with its full space group is C_2h.


Analysis of symmetry for dynamics (positions and initial velocities):
=====================================================================
 Subroutine PRICEL returns:
 Original cell was already a primitive cell.
 

 Routine SETGRP: Setting up the symmetry group for a 
 simple monoclinic supercell.


 Subroutine GETGRP returns: Found  4 space group operations
 (whereof  2 operations were pure point group operations)
 out of a pool of  4 trial point group operations.


The dynamic configuration has the point symmetry S_2 .
 The point group associated with its full space group is C_2h.


 Subroutine INISYM returns: Found  4 space group operations
 (whereof  2 operations are pure point group operations),
 and found     1 'primitive' translations

 
 
 KPOINTS: pymatgen with grid density = 807 / numbe

Automatic generation of k-mesh.
Space group operators:
 irot       det(A)        alpha          n_x          n_y          n_z        tau_x        tau_y        tau_z
    1     1.000000     0.000000     1.000000     0.000000     0.000000     0.000000     0.000000     0.000000
    2    -1.000000     0.000000     1.000000     0.000000     0.000000     0.000000     0.000000     0.000000
    3     1.000000   180.000000     1.000000     0.000000     0.000000    -0.500000    -0.000000    -0.000000
    4    -1.000000   180.000000     1.000000     0.000000     0.000000    -0.500000     0.000000     0.000000
 
 Subroutine IBZKPT returns following result:
 ===========================================
 
 Found      6 irreducible k-points:
 
 Following reciprocal coordinates:
            Coordinates               Weight
  0.000000  0.250000  0.250000      2.000000
  0.200000  0.250000  0.250000      4.000000
  0.400000  0.250000  0.250000      4.000000
  0.000000 -0.250000  0.250000      2.000000
  0.200000 -0.250000  0.250000      4.000000
  0.400000 -0.250000  0.250000      4.000000
 
 Following cartesian coordinates:
            Coordinates               Weight
  0.000000  0.018593  0.014644      2.000000
  0.047125  0.018593  0.014644      4.000000
  0.094250  0.018593  0.014644      4.000000
  0.000000 -0.018692  0.017599      2.000000
  0.047125 -0.018692  0.017599      4.000000
  0.094250 -0.018692  0.017599      4.000000
 


--------------------------------------------------------------------------------------------------------




 Dimension of arrays:
   k-points           NKPTS =      6   k-points in BZ     NKDIM =      6   number of bands    NBANDS=     84
   number of dos      NEDOS =    301   number of ions     NIONS =     26
   non local maximal  LDIM  =      5   non local SUM 2l+1 LMDIM =     13
   total plane-waves  NPLWV =  75600
   max r-space proj   IRMAX =   1503   max aug-charges    IRDMAX=   4394
   dimension x,y,z NGX =    18 NGY =   60 NGZ =   70
   dimension x,y,z NGXF=    30 NGYF=   96 NGZF=  108
   support grid    NGXF=    30 NGYF=   96 NGZF=  108
   ions per type =               4   8  14
   NGX,Y,Z   is equivalent  to a cutoff of   7.05,  7.44,  7.48 a.u.
   NGXF,Y,Z  is equivalent  to a cutoff of  11.75, 11.90, 11.54 a.u.

 SYSTEM =  CIS                                     
 POSCAR =  Li4 Bi8 Se14                            

 Startparameter for this run:
   NWRITE =      2    write-flag & timer
   PREC   = medium    normal or accurate (medium, high low for compatibility)
   ISTART =      0    job   : 0-new  1-cont  2-samecut
   ICHARG =      2    charge: 1-file 2-atom 10-const
   ISPIN  =      1    spin polarized calculation?
   LNONCOLLINEAR =      F non collinear calculations
   LSORBIT =      F    spin-orbit coupling
   INIWAV =      1    electr: 0-lowe 1-rand  2-diag
   LASPH  =      T    aspherical Exc in radial PAW
   METAGGA=      F    non-selfconsistent MetaGGA calc.

 Electronic Relaxation 1
   ENCUT  =  300.0 eV  22.05 Ry    4.70 a.u.   5.99 18.94 21.97*2*pi/ulx,y,z
   ENINI  =  300.0     initial cutoff
   ENAUG  =  446.8 eV  augmentation charge cutoff
   NELM   =     60;   NELMIN=  2; NELMDL= -5     # of ELM steps 
   EDIFF  = 0.1E-03   stopping-criterion for ELM
   LREAL  =      T    real-space projection
   NLSPLINE    = F    spline interpolate recip. space projectors
   LCOMPAT=      F    compatible to vasp.4.4
   GGA_COMPAT  = T    GGA compatible to vasp.4.4-vasp.4.6
   LMAXPAW     = -100 max onsite density
   LMAXMIX     =    4 max onsite mixed and CHGCAR
   VOSKOWN=      0    Vosko Wilk Nusair interpolation
   ROPT   =   -0.00200  -0.00200  -0.00200
 Ionic relaxation
   EDIFFG = -.5E-01   stopping-criterion for IOM
   NSW    =     99    number of steps for IOM
   NBLOCK =      1;   KBLOCK =     99    inner block; outer block 
   IBRION =      2    ionic relax: 0-MD 1-quasi-New 2-CG
   NFREE  =      1    steps in history (QN), initial steepest desc. (CG)
   ISIF   =      3    stress and relaxation
   IWAVPR =     11    prediction:  0-non 1-charg 2-wave 3-comb
   ISYM   =      2    0-nonsym 1-usesym 2-fastsym
   LCORR  =      T    Harris-Foulkes like correction to forces

   POTIM  = 0.1000    time-step for ionic-motion
   TEIN   =    0.0    initial temperature
   TEBEG  =    0.0;   TEEND  =   0.0 temperature during run
   SMASS  =  -3.00    Nose mass-parameter (am)
   estimated Nose-frequenzy (Omega)   =  0.10E-29 period in steps =****** mass=  -0.412E-27a.u.
   SCALEE = 1.0000    scale energy and forces
   NPACO  =    256;   APACO  = 16.0  distance and # of slots for P.C.
   PSTRESS=    0.0 pullay stress

  Mass of Ions in am
   POMASS =   7.01208.98 78.96
  Ionic Valenz
   ZVAL   =   1.00  5.00  6.00
  Atomic Wigner-Seitz radii
   RWIGS  =  -1.00 -1.00 -1.00
  virtual crystal weights 
   VCA    =   1.00  1.00  1.00
   NELECT =     128.0000    total number of electrons
   NUPDOWN=      -1.0000    fix difference up-down

 DOS related values:
   EMIN   =  10.00;   EMAX   =-10.00  energy-range for DOS
   EFERMI =   0.00
   ISMEAR =     0;   SIGMA  =   0.05  broadening in eV -4-tet -1-fermi 0-gaus

 Electronic relaxation 2 (details)
   IALGO  =     38    algorithm
   LDIAG  =      T    sub-space diagonalisation (order eigenvalues)
   LSUBROT=      F    optimize rotation matrix (better conditioning)
   TURBO    =      0    0=normal 1=particle mesh
   IRESTART =      0    0=no restart 2=restart with 2 vectors
   NREBOOT  =      0    no. of reboots
   NMIN     =      0    reboot dimension
   EREF     =   0.00    reference energy to select bands
   IMIX   =      4    mixing-type and parameters
     AMIX     =   0.40;   BMIX     =  1.00
     AMIX_MAG =   1.60;   BMIX_MAG =  1.00
     AMIN     =   0.10
     WC   =   100.;   INIMIX=   1;  MIXPRE=   1;  MAXMIX= -45

 Intra band minimization:
   WEIMIN = 0.0010     energy-eigenvalue tresh-hold
   EBREAK =  0.30E-06  absolut break condition
   DEPER  =   0.30     relativ break condition  

   TIME   =   0.40     timestep for ELM

  volume/ion in A,a.u.               =      33.95       229.12
  Fermi-wavevector in a.u.,A,eV,Ry     =   0.860060  1.625278 10.064282  0.739704
  Thomas-Fermi vector in A             =   1.977509
 
 Write flags
   LWAVE        =      F    write WAVECAR
   LDOWNSAMPLE  =      F    k-point downsampling of WAVECAR
   LCHARG       =      F    write CHGCAR
   LVTOT        =      F    write LOCPOT, total local potential
   LVHAR        =      F    write LOCPOT, Hartree potential only
   LELF         =      F    write electronic localiz. function (ELF)
   LORBIT       =     10    0 simple, 1 ext, 2 COOP (PROOUT), +10 PAW based schemes


 Dipole corrections
   LMONO  =      F    monopole corrections only (constant potential shift)
   LDIPOL =      F    correct potential (dipole corrections)
   IDIPOL =      0    1-x, 2-y, 3-z, 4-all directions 
   EPSILON=  1.0000000 bulk dielectric constant

 Exchange correlation treatment:
   GGA     =    --    GGA type
   LEXCH   =     8    internal setting for exchange type
   VOSKOWN=      0    Vosko Wilk Nusair interpolation
   LHFCALC =     F    Hartree Fock is set to
   LHFONE  =     F    Hartree Fock one center treatment
   AEXX    =    0.0000 exact exchange contribution

 Linear response parameters
   LEPSILON=     F    determine dielectric tensor
   LRPA    =     F    only Hartree local field effects (RPA)
   LNABLA  =     F    use nabla operator in PAW spheres
   LVEL    =     F    velocity operator in full k-point grid
   LINTERFAST=   F  fast interpolation
   KINTER  =     0    interpolate to denser k-point grid
   CSHIFT  =0.1000    complex shift for real part using Kramers Kronig
   OMEGAMAX=  -1.0    maximum frequency
   DEG_THRESHOLD= 0.2000000E-02 threshold for treating states as degnerate
   RTIME   =   -0.100 relaxation time in fs
  (WPLASMAI=    0.000 imaginary part of plasma frequency in eV, 0.658/RTIME)
   DFIELD  = 0.0000000 0.0000000 0.0000000 field for delta impulse in time
 
 Orbital magnetization related:
   ORBITALMAG=     F  switch on orbital magnetization
   LCHIMAG   =     F  perturbation theory with respect to B field
   DQ        =  0.001000  dq finite difference perturbation B field
   LLRAUG    =     F  two centre corrections for induced B field



--------------------------------------------------------------------------------------------------------


 conjugate gradient relaxation of ions
 charge density and potential will be updated during run
 non-spin polarized calculation
 Variant of blocked Davidson
 Davidson routine will perform the subspace rotation
 perform sub-space diagonalisation
    after iterative eigenvector-optimisation
 modified Broyden-mixing scheme, WC =      100.0
 initial mixing is a Kerker type mixing with AMIX =  0.4000 and BMIX =      1.0000
 Hartree-type preconditioning will be used
 using additional bands           20
 real space projection scheme for non local part
 use partial core corrections
 calculate Harris-corrections to forces 
   (improved forces if not selfconsistent)
 use gradient corrections 
 use of overlap-Matrix (Vanderbilt PP)
 Gauss-broadening in eV      SIGMA  =   0.05


--------------------------------------------------------------------------------------------------------


  energy-cutoff  :      300.00
  volume of cell :      882.77
      direct lattice vectors                 reciprocal lattice vectors
     4.244011820  0.000000000  0.000000000     0.235626111  0.000000000  0.000000000
     0.000000000 13.413408770  0.040872120     0.000000000  0.074570277 -0.005911398
     0.000000000  1.229592640 15.510893890     0.000000000 -0.000196497  0.064486394

  length of vectors
     4.244011820 13.413471041 15.559554214     0.235626111  0.074804217  0.064486693


 
 k-points in units of 2pi/SCALE and weight: pymatgen with grid density = 807 / numbe
   0.00000000  0.01859345  0.01464375       0.100
   0.04712522  0.01859345  0.01464375       0.200
   0.09425044  0.01859345  0.01464375       0.200
   0.00000000 -0.01869169  0.01759945       0.100
   0.04712522 -0.01869169  0.01759945       0.200
   0.09425044 -0.01869169  0.01759945       0.200
 
 k-points in reciprocal lattice and weights: pymatgen with grid density = 807 / numbe
   0.00000000  0.25000000  0.25000000       0.100
   0.20000000  0.25000000  0.25000000       0.200
   0.40000000  0.25000000  0.25000000       0.200
   0.00000000 -0.25000000  0.25000000       0.100
   0.20000000 -0.25000000  0.25000000       0.200
   0.40000000 -0.25000000  0.25000000       0.200
 
 position of ions in fractional coordinates (direct lattice) 
   0.25000000  0.56849279  0.81209004
   0.75000000  0.43150721  0.18790996
   0.75000000  0.82875309  0.62285478
   0.25000000  0.17124691  0.37714522
   0.25000000  0.94612343  0.87977359
   0.75000000  0.05387657  0.12022641
   0.25000000  0.83155606  0.27488852
   0.75000000  0.16844394  0.72511148
   0.75000000  0.73146608  0.05056020
   0.25000000  0.26853392  0.94943980
   0.75000000  0.60668333  0.42829721
   0.25000000  0.39331667  0.57170279
   0.25000000  0.45798711  0.39320698
   0.75000000  0.54201289  0.60679302
   0.25000000  0.59813812  0.03793755
   0.75000000  0.40186188  0.96206245
   0.75000000  0.98566906  0.29540055
   0.25000000  0.01433094  0.70459945
   0.75000000  0.79785506  0.86286623
   0.25000000  0.20214494  0.13713377
   0.25000000  0.75545718  0.45156839
   0.75000000  0.24454282  0.54843161
   0.75000000  0.69160821  0.24041933
   0.25000000  0.30839179  0.75958067
   0.25000000  0.90357682  0.08303846
   0.75000000  0.09642318  0.91696154
 
 position of ions in cartesian coordinates  (Angst):
   1.06100295  8.62396611 12.61947795
   3.18300886  6.01903530  2.93228806
   3.18300886 11.88226162  9.69490730
   1.06100295  2.76073979  5.85685871
   1.06100295 13.77250344 13.68474487
   3.18300886  0.87049797  1.86702114
   1.06100295 11.49200225  4.29775412
   3.18300886  3.15099916 11.25401189
   3.18300886  9.87362198  0.81413047
   1.06100295  4.76937943 14.73763554
   3.18300886  8.66432260  6.66806901
   1.06100295  5.97867881  8.88369700
   1.06100295  6.62665273  6.11771065
   3.18300886  8.01634868  9.43405536
   1.06100295  8.06971884  0.61289249
   3.18300886  6.57328257 14.93887352
   3.18300886 13.58440436  4.62221297
   1.06100295  1.05859705 10.92955304
   3.18300886 11.76293002 13.41643656
   1.06100295  2.88007139  2.13532945
   1.06100295 10.68850113  7.03510652
   3.18300886  3.95450028  8.51665949
   3.18300886  9.57244147  3.75738621
   1.06100295  5.07055994 11.79437980
   1.06100295 12.22214872  1.32493184
   3.18300886  2.42085269 14.22683417
 


--------------------------------------------------------------------------------------------------------


 k-point  1 :   0.0000 0.2500 0.2500  plane waves:   10345
 k-point  2 :   0.2000 0.2500 0.2500  plane waves:   10416
 k-point  3 :   0.4000 0.2500 0.2500  plane waves:   10443
 k-point  4 :   0.0000-0.2500 0.2500  plane waves:   10347
 k-point  5 :   0.2000-0.2500 0.2500  plane waves:   10416
 k-point  6 :   0.4000-0.2500 0.2500  plane waves:   10459

 maximum and minimum number of plane-waves per node :     10459    10345

 maximum number of plane-waves:     10459
 maximum index in each direction: 
   IXMAX=    5   IYMAX=   19   IZMAX=   21
   IXMIN=   -6   IYMIN=  -19   IZMIN=  -22


 serial   3D FFT for wavefunctions
 parallel 3D FFT for charge:
    minimum data exchange during FFTs selected (reduces bandwidth)


 total amount of memory used by VASP MPI-rank0    45786. kBytes
=======================================================================

   base      :      30000. kBytes
   nonlr-proj:       2963. kBytes
   fftplans  :       1345. kBytes
   grid      :       5059. kBytes
   one-center:        210. kBytes
   wavefun   :       6209. kBytes
 
     INWAV:  cpu time    0.0000: real time    0.0001
 Broyden mixing: mesh for mixing (old mesh)
   NGX = 11   NGY = 37   NGZ = 43
  (NGX  = 30   NGY  = 96   NGZ  =108)
  gives a total of  17501 points

 initial charge density was supplied:
 charge density of overlapping atoms calculated
 number of electron     128.0000000 magnetization 
 keeping initial charge density in first step


--------------------------------------------------------------------------------------------------------


 Maximum index for non-local projection operator         1414
 Maximum index for augmentation-charges          431 (set IRDMAX)


--------------------------------------------------------------------------------------------------------


 First call to EWALD:  gamma=   0.185
 Maximum number of real-space cells 6x 2x 2
 Maximum number of reciprocal cells 1x 4x 4

    FEWALD:  cpu time    0.0028: real time    0.0028


--------------------------------------- Iteration      1(   1)  ---------------------------------------


    POTLOK:  cpu time    0.0356: real time    0.0356
    SETDIJ:  cpu time    0.3484: real time    0.3490
     EDDAV:  cpu time    0.9021: real time    0.9078
       DOS:  cpu time    0.0004: real time    0.0004
    --------------------------------------------
      LOOP:  cpu time    1.2864: real time    1.2928

 eigenvalue-minimisations  :  1008
 total energy-change (2. order) : 0.5429219E+03  (-0.3394089E+04)
 number of electron     128.0000000 magnetization 
 augmentation part      128.0000000 magnetization 

 Free energy of the ion-electron system (eV)
  ---------------------------------------------------
  alpha Z        PSCENC =       133.41790639
  Ewald energy   TEWEN  =     -3311.06114051
  -Hartree energ DENC   =     -1503.87128078
  -exchange      EXHF   =         0.00000000
  -V(xc)+E(xc)   XCENC  =      -910.27527871
  PAW double counting   =      4775.59959367    -3625.09483459
  entropy T*S    EENTRO =        -0.00196987
  eigenvalues    EBANDS =       156.76032409
  atomic energy  EATOM  =      4827.44859523
  Solvation  Ediel_sol  =         0.00000000
  ---------------------------------------------------
  free energy    TOTEN  =       542.92191493 eV

  energy without entropy =      542.92388480  energy(sigma->0) =      542.92289986


--------------------------------------------------------------------------------------------------------




--------------------------------------- Iteration      1(   2)  ---------------------------------------


     EDDAV:  cpu time    0.8799: real time    0.8895
       DOS:  cpu time    0.0002: real time    0.0002
    --------------------------------------------
      LOOP:  cpu time    0.8800: real time    0.8897

 eigenvalue-minimisations  :  1358
 total energy-change (2. order) :-0.5794039E+03  (-0.5588058E+03)
 number of electron     128.0000000 magnetization 
 augmentation part      128.0000000 magnetization 

 Free energy of the ion-electron system (eV)
  ---------------------------------------------------
  alpha Z        PSCENC =       133.41790639
  Ewald energy   TEWEN  =     -3311.06114051
  -Hartree energ DENC   =     -1503.87128078
  -exchange      EXHF   =         0.00000000
  -V(xc)+E(xc)   XCENC  =      -910.27527871
  PAW double counting   =      4775.59959367    -3625.09483459
  entropy T*S    EENTRO =        -0.00000000
  eigenvalues    EBANDS =      -422.64556701
  atomic energy  EATOM  =      4827.44859523
  Solvation  Ediel_sol  =         0.00000000
  ---------------------------------------------------
  free energy    TOTEN  =       -36.48200630 eV

  energy without entropy =      -36.48200630  energy(sigma->0) =      -36.48200630


--------------------------------------------------------------------------------------------------------




--------------------------------------- Iteration      1(   3)  ---------------------------------------


     EDDAV:  cpu time    0.9794: real time    0.9823
       DOS:  cpu time    0.0008: real time    0.0007
    --------------------------------------------
      LOOP:  cpu time    0.9802: real time    0.9830

 eigenvalue-minimisations  :  1218
 total energy-change (2. order) :-0.6485467E+02  (-0.6418112E+02)
 number of electron     128.0000000 magnetization 
 augmentation part      128.0000000 magnetization 

 Free energy of the ion-electron system (eV)
  ---------------------------------------------------
  alpha Z        PSCENC =       133.41790639
  Ewald energy   TEWEN  =     -3311.06114051
  -Hartree energ DENC   =     -1503.87128078
  -exchange      EXHF   =         0.00000000
  -V(xc)+E(xc)   XCENC  =      -910.27527871
  PAW double counting   =      4775.59959367    -3625.09483459
  entropy T*S    EENTRO =        -0.00000000
  eigenvalues    EBANDS =      -487.50024144
  atomic energy  EATOM  =      4827.44859523
  Solvation  Ediel_sol  =         0.00000000
  ---------------------------------------------------
  free energy    TOTEN  =      -101.33668074 eV

  energy without entropy =     -101.33668074  energy(sigma->0) =     -101.33668074


--------------------------------------------------------------------------------------------------------




--------------------------------------- Iteration      1(   4)  ---------------------------------------


     EDDAV:  cpu time    1.4475: real time    1.4662
       DOS:  cpu time    0.0003: real time    0.0003
    --------------------------------------------
      LOOP:  cpu time    1.4478: real time    1.4665

 eigenvalue-minimisations  :  1568
 total energy-change (2. order) :-0.2178885E+01  (-0.2172881E+01)
 number of electron     128.0000000 magnetization 
 augmentation part      128.0000000 magnetization 

 Free energy of the ion-electron system (eV)
  ---------------------------------------------------
  alpha Z        PSCENC =       133.41790639
  Ewald energy   TEWEN  =     -3311.06114051
  -Hartree energ DENC   =     -1503.87128078
  -exchange      EXHF   =         0.00000000
  -V(xc)+E(xc)   XCENC  =      -910.27527871
  PAW double counting   =      4775.59959367    -3625.09483459
  entropy T*S    EENTRO =        -0.00000000
  eigenvalues    EBANDS =      -489.67912685
  atomic energy  EATOM  =      4827.44859523
  Solvation  Ediel_sol  =         0.00000000
  ---------------------------------------------------
  free energy    TOTEN  =      -103.51556614 eV

  energy without entropy =     -103.51556614  energy(sigma->0) =     -103.51556614


--------------------------------------------------------------------------------------------------------




--------------------------------------- Iteration      1(   5)  ---------------------------------------


     EDDAV:  cpu time    1.0747: real time    1.0752
       DOS:  cpu time    0.0003: real time    0.0003
    CHARGE:  cpu time    0.0485: real time    0.0486
    MIXING:  cpu time    0.0010: real time    0.0010
    --------------------------------------------
      LOOP:  cpu time    1.1245: real time    1.1250

 eigenvalue-minimisations  :  1260
 total energy-change (2. order) :-0.2588511E-01  (-0.2587065E-01)
 number of electron     127.9999446 magnetization 
 augmentation part      -28.4931237 magnetization 

 Broyden mixing:
  rms(total) = 0.13651E+01    rms(broyden)= 0.13651E+01
  rms(prec ) = 0.15863E+01
  weight for this iteration     100.00

 Free energy of the ion-electron system (eV)
  ---------------------------------------------------
  alpha Z        PSCENC =       133.41790639
  Ewald energy   TEWEN  =     -3311.06114051
  -Hartree energ DENC   =     -1503.87128078
  -exchange      EXHF   =         0.00000000
  -V(xc)+E(xc)   XCENC  =      -910.27527871
  PAW double counting   =      4775.59959367    -3625.09483459
  entropy T*S    EENTRO =        -0.00000000
  eigenvalues    EBANDS =      -489.70501196
  atomic energy  EATOM  =      4827.44859523
  Solvation  Ediel_sol  =         0.00000000
  ---------------------------------------------------
  free energy    TOTEN  =      -103.54145125 eV

  energy without entropy =     -103.54145125  energy(sigma->0) =     -103.54145125


--------------------------------------------------------------------------------------------------------




--------------------------------------- Iteration      1(   6)  ---------------------------------------


    POTLOK:  cpu time    0.0228: real time    0.0236
    SETDIJ:  cpu time    0.2427: real time    0.2427
     EDDAV:  cpu time    1.0798: real time    1.0805
       DOS:  cpu time    0.0002: real time    0.0002
    CHARGE:  cpu time    0.0386: real time    0.0386
    MIXING:  cpu time    0.0011: real time    0.0011
    --------------------------------------------
      LOOP:  cpu time    1.3853: real time    1.3869

 eigenvalue-minimisations  :  1176
 total energy-change (2. order) : 0.4944505E+01  (-0.1102853E+01)
 number of electron     127.9999463 magnetization 
 augmentation part      -28.3187672 magnetization 

 Broyden mixing:
  rms(total) = 0.73446E+00    rms(broyden)= 0.73445E+00
  rms(prec ) = 0.79012E+00
  weight for this iteration     100.00

 eigenvalues of (default mixing * dielectric matrix)
  average eigenvalue GAMMA=   1.5133
  1.5133

 Free energy of the ion-electron system (eV)
  ---------------------------------------------------
  alpha Z        PSCENC =       133.41790639
  Ewald energy   TEWEN  =     -3311.06114051
  -Hartree energ DENC   =     -1546.84159444
  -exchange      EXHF   =         0.00000000
  -V(xc)+E(xc)   XCENC  =      -906.69250689
  PAW double counting   =      5369.27374824    -4219.39882537
  entropy T*S    EENTRO =        -0.00000000
  eigenvalues    EBANDS =      -444.74312925
  atomic energy  EATOM  =      4827.44859523
  Solvation  Ediel_sol  =         0.00000000
  ---------------------------------------------------
  free energy    TOTEN  =       -98.59694661 eV

  energy without entropy =      -98.59694661  energy(sigma->0) =      -98.59694661


--------------------------------------------------------------------------------------------------------




--------------------------------------- Iteration      1(   7)  ---------------------------------------


    POTLOK:  cpu time    0.0140: real time    0.0141
    SETDIJ:  cpu time    0.2432: real time    0.2445
     EDDAV:  cpu time    0.8748: real time    0.8822
       DOS:  cpu time    0.0002: real time    0.0002
    CHARGE:  cpu time    0.0324: real time    0.0324
    MIXING:  cpu time    0.0005: real time    0.0006
    --------------------------------------------
      LOOP:  cpu time    1.1652: real time    1.1738

 eigenvalue-minimisations  :  1288
 total energy-change (2. order) : 0.1754244E+00  (-0.3207493E+00)
 number of electron     127.9999471 magnetization 
 augmentation part      -28.4222280 magnetization 

 Broyden mixing:
  rms(total) = 0.46812E+00    rms(broyden)= 0.46812E+00
  rms(prec ) = 0.49024E+00
  weight for this iteration     100.00

 eigenvalues of (default mixing * dielectric matrix)
  average eigenvalue GAMMA=   1.5420
  0.8500  2.2341

 Free energy of the ion-electron system (eV)
  ---------------------------------------------------
  alpha Z        PSCENC =       133.41790639
  Ewald energy   TEWEN  =     -3311.06114051
  -Hartree energ DENC   =     -1567.86259445
  -exchange      EXHF   =         0.00000000
  -V(xc)+E(xc)   XCENC  =      -905.04362387
  PAW double counting   =      5942.83911876    -4793.47003631
  entropy T*S    EENTRO =        -0.00000000
  eigenvalues    EBANDS =      -424.68974743
  atomic energy  EATOM  =      4827.44859523
  Solvation  Ediel_sol  =         0.00000000
  ---------------------------------------------------
  free energy    TOTEN  =       -98.42152218 eV

  energy without entropy =      -98.42152218  energy(sigma->0) =      -98.42152218


--------------------------------------------------------------------------------------------------------




--------------------------------------- Iteration      1(   8)  ---------------------------------------


    POTLOK:  cpu time    0.0116: real time    0.0117
    SETDIJ:  cpu time    0.2356: real time    0.2356
     EDDAV:  cpu time    1.2259: real time    1.2328
       DOS:  cpu time    0.0003: real time    0.0003
    CHARGE:  cpu time    0.0384: real time    0.0384
    MIXING:  cpu time    0.0007: real time    0.0007
    --------------------------------------------
      LOOP:  cpu time    1.5125: real time    1.5195

 eigenvalue-minimisations  :  1470
 total energy-change (2. order) : 0.2354630E-01  (-0.3468106E-01)
 number of electron     127.9999471 magnetization 
 augmentation part      -28.4844002 magnetization 

 Broyden mixing:
  rms(total) = 0.15919E+00    rms(broyden)= 0.15919E+00
  rms(prec ) = 0.17246E+00
  weight for this iteration     100.00

 eigenvalues of (default mixing * dielectric matrix)
  average eigenvalue GAMMA=   1.5442
  2.4918  1.0703  1.0703

 Free energy of the ion-electron system (eV)
  ---------------------------------------------------
  alpha Z        PSCENC =       133.41790639
  Ewald energy   TEWEN  =     -3311.06114051
  -Hartree energ DENC   =     -1575.76813484
  -exchange      EXHF   =         0.00000000
  -V(xc)+E(xc)   XCENC  =      -904.44237664
  PAW double counting   =      6362.32430791    -5213.09439617
  entropy T*S    EENTRO =        -0.00000000
  eigenvalues    EBANDS =      -417.22273726
  atomic energy  EATOM  =      4827.44859523
  Solvation  Ediel_sol  =         0.00000000
  ---------------------------------------------------
  free energy    TOTEN  =       -98.39797588 eV

  energy without entropy =      -98.39797588  energy(sigma->0) =      -98.39797588


--------------------------------------------------------------------------------------------------------




--------------------------------------- Iteration      1(   9)  ---------------------------------------


    POTLOK:  cpu time    0.0152: real time    0.0153
    SETDIJ:  cpu time    0.2400: real time    0.2403
     EDDAV:  cpu time    1.0902: real time    1.0974
       DOS:  cpu time    0.0002: real time    0.0002
    CHARGE:  cpu time    0.0411: real time    0.0411
    MIXING:  cpu time    0.0010: real time    0.0010
    --------------------------------------------
      LOOP:  cpu time    1.3877: real time    1.3953

 eigenvalue-minimisations  :  1274
 total energy-change (2. order) :-0.2727534E-02  (-0.6961940E-02)
 number of electron     127.9999470 magnetization 
 augmentation part      -28.4929289 magnetization 

 Broyden mixing:
  rms(total) = 0.43449E-01    rms(broyden)= 0.43449E-01
  rms(prec ) = 0.52286E-01
  weight for this iteration     100.00

 eigenvalues of (default mixing * dielectric matrix)
  average eigenvalue GAMMA=   1.4197
  2.4334  1.1560  1.1560  0.9334

 Free energy of the ion-electron system (eV)
  ---------------------------------------------------
  alpha Z        PSCENC =       133.41790639
  Ewald energy   TEWEN  =     -3311.06114051
  -Hartree energ DENC   =     -1578.30459951
  -exchange      EXHF   =         0.00000000
  -V(xc)+E(xc)   XCENC  =      -904.23896613
  PAW double counting   =      6489.49054287    -5340.14648786
  entropy T*S    EENTRO =        -0.00000000
  eigenvalues    EBANDS =      -415.00655390
  atomic energy  EATOM  =      4827.44859523
  Solvation  Ediel_sol  =         0.00000000
  ---------------------------------------------------
  free energy    TOTEN  =       -98.40070341 eV

  energy without entropy =      -98.40070341  energy(sigma->0) =      -98.40070341


--------------------------------------------------------------------------------------------------------




--------------------------------------- Iteration      1(  10)  ---------------------------------------


    POTLOK:  cpu time    0.0160: real time    0.0161
    SETDIJ:  cpu time    0.2390: real time    0.2392
     EDDAV:  cpu time    1.1439: real time    1.1444
       DOS:  cpu time    0.0002: real time    0.0002
    CHARGE:  cpu time    0.0390: real time    0.0390
    MIXING:  cpu time    0.0008: real time    0.0008
    --------------------------------------------
      LOOP:  cpu time    1.4390: real time    1.4397

 eigenvalue-minimisations  :  1288
 total energy-change (2. order) :-0.4436592E-02  (-0.2161799E-02)
 number of electron     127.9999470 magnetization 
 augmentation part      -28.4889068 magnetization 

 Broyden mixing:
  rms(total) = 0.26133E-01    rms(broyden)= 0.26133E-01
  rms(prec ) = 0.32983E-01
  weight for this iteration     100.00

 eigenvalues of (default mixing * dielectric matrix)
  average eigenvalue GAMMA=   1.4398
  2.3956  0.9942  0.9942  1.4073  1.4073

 Free energy of the ion-electron system (eV)
  ---------------------------------------------------
  alpha Z        PSCENC =       133.41790639
  Ewald energy   TEWEN  =     -3311.06114051
  -Hartree energ DENC   =     -1579.05446997
  -exchange      EXHF   =         0.00000000
  -V(xc)+E(xc)   XCENC  =      -904.23564778
  PAW double counting   =      6476.30974934    -5326.89205019
  entropy T*S    EENTRO =        -0.00000000
  eigenvalues    EBANDS =      -414.33808253
  atomic energy  EATOM  =      4827.44859523
  Solvation  Ediel_sol  =         0.00000000
  ---------------------------------------------------
  free energy    TOTEN  =       -98.40514000 eV

  energy without entropy =      -98.40514000  energy(sigma->0) =      -98.40514000


--------------------------------------------------------------------------------------------------------




--------------------------------------- Iteration      1(  11)  ---------------------------------------


    POTLOK:  cpu time    0.0162: real time    0.0163
    SETDIJ:  cpu time    0.2418: real time    0.2432
     EDDAV:  cpu time    1.0135: real time    1.0177
       DOS:  cpu time    0.0002: real time    0.0002
    CHARGE:  cpu time    0.0350: real time    0.0350
    MIXING:  cpu time    0.0006: real time    0.0006
    --------------------------------------------
      LOOP:  cpu time    1.3074: real time    1.3130

 eigenvalue-minimisations  :  1232
 total energy-change (2. order) :-0.2787739E-02  (-0.3978529E-03)
 number of electron     127.9999470 magnetization 
 augmentation part      -28.4823422 magnetization 

 Broyden mixing:
  rms(total) = 0.12403E-01    rms(broyden)= 0.12403E-01
  rms(prec ) = 0.16805E-01
  weight for this iteration     100.00

 eigenvalues of (default mixing * dielectric matrix)
  average eigenvalue GAMMA=   1.5607
  2.5695  2.5695  0.9990  0.9990  1.1136  1.1136

 Free energy of the ion-electron system (eV)
  ---------------------------------------------------
  alpha Z        PSCENC =       133.41790639
  Ewald energy   TEWEN  =     -3311.06114051
  -Hartree energ DENC   =     -1580.12574026
  -exchange      EXHF   =         0.00000000
  -V(xc)+E(xc)   XCENC  =      -904.20947871
  PAW double counting   =      6454.48981488    -5305.01470810
  entropy T*S    EENTRO =        -0.00000000
  eigenvalues    EBANDS =      -413.35317667
  atomic energy  EATOM  =      4827.44859523
  Solvation  Ediel_sol  =         0.00000000
  ---------------------------------------------------
  free energy    TOTEN  =       -98.40792774 eV

  energy without entropy =      -98.40792774  energy(sigma->0) =      -98.40792774


--------------------------------------------------------------------------------------------------------




--------------------------------------- Iteration      1(  12)  ---------------------------------------


    POTLOK:  cpu time    0.0127: real time    0.0127
    SETDIJ:  cpu time    0.2380: real time    0.2380
     EDDAV:  cpu time    0.9754: real time    0.9808
       DOS:  cpu time    0.0003: real time    0.0003
    CHARGE:  cpu time    0.0381: real time    0.0381
    MIXING:  cpu time    0.0010: real time    0.0010
    --------------------------------------------
      LOOP:  cpu time    1.2654: real time    1.2709

 eigenvalue-minimisations  :  1176
 total energy-change (2. order) :-0.2191757E-02  (-0.3667688E-03)
 number of electron     127.9999470 magnetization 
 augmentation part      -28.4788386 magnetization 

 Broyden mixing:
  rms(total) = 0.54257E-02    rms(broyden)= 0.54255E-02
  rms(prec ) = 0.73354E-02
  weight for this iteration     100.00

 eigenvalues of (default mixing * dielectric matrix)
  average eigenvalue GAMMA=   1.5324
  2.7146  2.7146  1.0165  1.0787  1.0787  1.0618  1.0618

 Free energy of the ion-electron system (eV)
  ---------------------------------------------------
  alpha Z        PSCENC =       133.41790639
  Ewald energy   TEWEN  =     -3311.06114051
  -Hartree energ DENC   =     -1580.95245033
  -exchange      EXHF   =         0.00000000
  -V(xc)+E(xc)   XCENC  =      -904.19387544
  PAW double counting   =      6433.01362230    -5283.48842425
  entropy T*S    EENTRO =        -0.00000000
  eigenvalues    EBANDS =      -412.59435290
  atomic energy  EATOM  =      4827.44859523
  Solvation  Ediel_sol  =         0.00000000
  ---------------------------------------------------
  free energy    TOTEN  =       -98.41011950 eV

  energy without entropy =      -98.41011950  energy(sigma->0) =      -98.41011950


--------------------------------------------------------------------------------------------------------




--------------------------------------- Iteration      1(  13)  ---------------------------------------


    POTLOK:  cpu time    0.0140: real time    0.0141
    SETDIJ:  cpu time    0.2389: real time    0.2398
     EDDAV:  cpu time    1.0956: real time    1.1065
       DOS:  cpu time    0.0002: real time    0.0002
    CHARGE:  cpu time    0.0407: real time    0.0407
    MIXING:  cpu time    0.0012: real time    0.0012
    --------------------------------------------
      LOOP:  cpu time    1.3906: real time    1.4026

 eigenvalue-minimisations  :  1162
 total energy-change (2. order) :-0.3126592E-03  (-0.6157326E-04)
 number of electron     127.9999470 magnetization 
 augmentation part      -28.4767385 magnetization 

 Broyden mixing:
  rms(total) = 0.36303E-02    rms(broyden)= 0.36302E-02
  rms(prec ) = 0.42308E-02
  weight for this iteration     100.00

 eigenvalues of (default mixing * dielectric matrix)
  average eigenvalue GAMMA=   1.5745
  2.8372  2.8372  1.5803  1.1582  1.1582  0.9428  1.0410  1.0410

 Free energy of the ion-electron system (eV)
  ---------------------------------------------------
  alpha Z        PSCENC =       133.41790639
  Ewald energy   TEWEN  =     -3311.06114051
  -Hartree energ DENC   =     -1581.21738775
  -exchange      EXHF   =         0.00000000
  -V(xc)+E(xc)   XCENC  =      -904.18556132
  PAW double counting   =      6431.94685594    -5282.42044594
  entropy T*S    EENTRO =        -0.00000000
  eigenvalues    EBANDS =      -412.33925420
  atomic energy  EATOM  =      4827.44859523
  Solvation  Ediel_sol  =         0.00000000
  ---------------------------------------------------
  free energy    TOTEN  =       -98.41043216 eV

  energy without entropy =      -98.41043216  energy(sigma->0) =      -98.41043216


--------------------------------------------------------------------------------------------------------




--------------------------------------- Iteration      1(  14)  ---------------------------------------


    POTLOK:  cpu time    0.0175: real time    0.0177
    SETDIJ:  cpu time    0.2404: real time    0.2408
     EDDAV:  cpu time    0.9083: real time    0.9085
       DOS:  cpu time    0.0002: real time    0.0002
    CHARGE:  cpu time    0.0362: real time    0.0362
    MIXING:  cpu time    0.0010: real time    0.0010
    --------------------------------------------
      LOOP:  cpu time    1.2036: real time    1.2045

 eigenvalue-minimisations  :  1008
 total energy-change (2. order) :-0.1551336E-03  (-0.2423968E-04)
 number of electron     127.9999470 magnetization 
 augmentation part      -28.4764696 magnetization 

 Broyden mixing:
  rms(total) = 0.19920E-02    rms(broyden)= 0.19919E-02
  rms(prec ) = 0.23925E-02
  weight for this iteration     100.00

 eigenvalues of (default mixing * dielectric matrix)
  average eigenvalue GAMMA=   1.5737
  3.0077  3.0077  2.0719  1.0343  1.0343  1.1267  1.1267  1.0220  0.7319

 Free energy of the ion-electron system (eV)
  ---------------------------------------------------
  alpha Z        PSCENC =       133.41790639
  Ewald energy   TEWEN  =     -3311.06114051
  -Hartree energ DENC   =     -1581.32548840
  -exchange      EXHF   =         0.00000000
  -V(xc)+E(xc)   XCENC  =      -904.18068313
  PAW double counting   =      6430.88624697    -5281.36818192
  entropy T*S    EENTRO =        -0.00000000
  eigenvalues    EBANDS =      -412.22784193
  atomic energy  EATOM  =      4827.44859523
  Solvation  Ediel_sol  =         0.00000000
  ---------------------------------------------------
  free energy    TOTEN  =       -98.41058729 eV

  energy without entropy =      -98.41058729  energy(sigma->0) =      -98.41058729


--------------------------------------------------------------------------------------------------------




--------------------------------------- Iteration      1(  15)  ---------------------------------------


    POTLOK:  cpu time    0.0149: real time    0.0150
    SETDIJ:  cpu time    0.2430: real time    0.2441
     EDDAV:  cpu time    0.7357: real time    0.7406
       DOS:  cpu time    0.0002: real time    0.0002
    --------------------------------------------
      LOOP:  cpu time    0.9938: real time    0.9999

 eigenvalue-minimisations  :   910
 total energy-change (2. order) :-0.3503179E-04  (-0.3744278E-05)
 number of electron     127.9999470 magnetization 
 augmentation part      -28.4764696 magnetization 

 Free energy of the ion-electron system (eV)
  ---------------------------------------------------
  alpha Z        PSCENC =       133.41790639
  Ewald energy   TEWEN  =     -3311.06114051
  -Hartree energ DENC   =     -1581.38916934
  -exchange      EXHF   =         0.00000000
  -V(xc)+E(xc)   XCENC  =      -904.17704476
  PAW double counting   =      6430.94892650    -5281.43379017
  entropy T*S    EENTRO =        -0.00000000
  eigenvalues    EBANDS =      -412.16490568
  atomic energy  EATOM  =      4827.44859523
  Solvation  Ediel_sol  =         0.00000000
  ---------------------------------------------------
  free energy    TOTEN  =       -98.41062233 eV

  energy without entropy =      -98.41062233  energy(sigma->0) =      -98.41062233


--------------------------------------------------------------------------------------------------------




 average (electrostatic) potential at core
  the test charge radii are     0.9748  1.4024  1.0808
  (the norm of the test charge is              1.0000)
       1 -30.8445       2 -30.8445       3 -30.8791       4 -30.8791       5 -65.2257
       6 -65.2257       7 -65.1562       8 -65.1562       9 -65.1302      10 -65.1302
      11 -65.2032      12 -65.2032      13 -55.4846      14 -55.4846      15 -55.3725
      16 -55.3725      17 -55.4599      18 -55.4599      19 -55.5239      20 -55.5239
      21 -55.4883      22 -55.4883      23 -55.5463      24 -55.5463      25 -55.5704
      26 -55.5704
 
 
 
 E-fermi :   2.2176     XC(G=0):  -7.8615     alpha+bet : -7.2724


 k-point     1 :       0.0000    0.2500    0.2500
  band No.  band energies     occupation 
      1     -11.6572      2.00000
      2     -11.3982      2.00000
      3     -11.3354      2.00000
      4     -10.9818      2.00000
      5     -10.6890      2.00000
      6     -10.6537      2.00000
      7     -10.6237      2.00000
      8     -10.0633      2.00000
      9     -10.0307      2.00000
     10      -9.9858      2.00000
     11      -9.8716      2.00000
     12      -9.8397      2.00000
     13      -9.8092      2.00000
     14      -9.7874      2.00000
     15      -8.0966      2.00000
     16      -7.7766      2.00000
     17      -7.5675      2.00000
     18      -7.4773      2.00000
     19      -7.2847      2.00000
     20      -6.8931      2.00000
     21      -6.7343      2.00000
     22      -6.3550      2.00000
     23      -2.5900      2.00000
     24      -1.9914      2.00000
     25      -1.7351      2.00000
     26      -1.2213      2.00000
     27      -1.0294      2.00000
     28      -0.9164      2.00000
     29      -0.9156      2.00000
     30      -0.6252      2.00000
     31      -0.5391      2.00000
     32      -0.5215      2.00000
     33      -0.5185      2.00000
     34      -0.4395      2.00000
     35      -0.3312      2.00000
     36      -0.2188      2.00000
     37      -0.1915      2.00000
     38       0.0710      2.00000
     39       0.1207      2.00000
     40       0.1328      2.00000
     41       0.1492      2.00000
     42       0.1883      2.00000
     43       0.2392      2.00000
     44       0.3542      2.00000
     45       0.4059      2.00000
     46       0.4863      2.00000
     47       0.5985      2.00000
     48       0.6172      2.00000
     49       0.6872      2.00000
     50       0.7839      2.00000
     51       0.9537      2.00000
     52       1.0058      2.00000
     53       1.0284      2.00000
     54       1.0619      2.00000
     55       1.1011      2.00000
     56       1.1831      2.00000
     57       1.2615      2.00000
     58       1.2670      2.00000
     59       1.2816      2.00000
     60       1.2911      2.00000
     61       1.3098      2.00000
     62       1.5929      2.00000
     63       1.7100      2.00000
     64       1.9376      2.00000
     65       3.0435      0.00000
     66       3.1210      0.00000
     67       3.1650      0.00000
     68       3.3903      0.00000
     69       3.6928      0.00000
     70       3.7903      0.00000
     71       3.8825      0.00000
     72       3.9830      0.00000
     73       4.2883      0.00000
     74       4.3080      0.00000
     75       4.3703      0.00000
     76       4.3823      0.00000
     77       4.5101      0.00000
     78       4.5477      0.00000
     79       4.6134      0.00000
     80       4.8259      0.00000
     81       4.8652      0.00000
     82       4.9116      0.00000
     83       5.0353      0.00000
     84       5.0878      0.00000

 k-point     2 :       0.2000    0.2500    0.2500
  band No.  band energies     occupation 
      1     -11.4150      2.00000
      2     -11.1659      2.00000
      3     -11.1045      2.00000
      4     -10.7648      2.00000
      5     -10.4874      2.00000
      6     -10.4593      2.00000
      7     -10.4232      2.00000
      8      -9.9611      2.00000
      9      -9.9234      2.00000
     10      -9.8876      2.00000
     11      -9.7999      2.00000
     12      -9.7834      2.00000
     13      -9.7589      2.00000
     14      -9.7260      2.00000
     15      -8.2896      2.00000
     16      -7.9636      2.00000
     17      -7.8248      2.00000
     18      -7.6510      2.00000
     19      -7.4922      2.00000
     20      -7.1884      2.00000
     21      -7.0577      2.00000
     22      -6.7133      2.00000
     23      -2.3594      2.00000
     24      -1.8148      2.00000
     25      -1.7368      2.00000
     26      -1.6729      2.00000
     27      -1.6443      2.00000
     28      -1.5346      2.00000
     29      -1.4228      2.00000
     30      -1.2086      2.00000
     31      -1.0752      2.00000
     32      -1.0025      2.00000
     33      -0.8520      2.00000
     34      -0.7268      2.00000
     35      -0.6612      2.00000
     36      -0.6041      2.00000
     37      -0.5559      2.00000
     38      -0.3505      2.00000
     39      -0.2841      2.00000
     40      -0.2133      2.00000
     41      -0.1347      2.00000
     42      -0.0605      2.00000
     43      -0.0283      2.00000
     44       0.0192      2.00000
     45       0.0873      2.00000
     46       0.2933      2.00000
     47       0.3948      2.00000
     48       0.5785      2.00000
     49       0.6034      2.00000
     50       0.6607      2.00000
     51       0.7932      2.00000
     52       0.8579      2.00000
     53       1.0342      2.00000
     54       1.1003      2.00000
     55       1.1339      2.00000
     56       1.3052      2.00000
     57       1.3341      2.00000
     58       1.4160      2.00000
     59       1.4912      2.00000
     60       1.5872      2.00000
     61       1.6170      2.00000
     62       1.6309      2.00000
     63       1.7050      2.00000
     64       1.7915      2.00000
     65       3.2279      0.00000
     66       3.4555      0.00000
     67       3.6708      0.00000
     68       3.8829      0.00000
     69       3.9828      0.00000
     70       4.2050      0.00000
     71       4.2204      0.00000
     72       4.2822      0.00000
     73       4.3927      0.00000
     74       4.5182      0.00000
     75       4.6216      0.00000
     76       4.6317      0.00000
     77       4.7169      0.00000
     78       4.7553      0.00000
     79       5.0354      0.00000
     80       5.0559      0.00000
     81       5.1000      0.00000
     82       5.1675      0.00000
     83       5.2494      0.00000
     84       5.3162      0.00000

 k-point     3 :       0.4000    0.2500    0.2500
  band No.  band energies     occupation 
      1     -10.7553      2.00000
      2     -10.5547      2.00000
      3     -10.4965      2.00000
      4     -10.2455      2.00000
      5     -10.0783      2.00000
      6     -10.0276      2.00000
      7     -10.0148      2.00000
      8      -9.9875      2.00000
      9      -9.8959      2.00000
     10      -9.8716      2.00000
     11      -9.8081      2.00000
     12      -9.8046      2.00000
     13      -9.6903      2.00000
     14      -9.6091      2.00000
     15      -8.3475      2.00000
     16      -8.2848      2.00000
     17      -8.2798      2.00000
     18      -8.1083      2.00000
     19      -7.9627      2.00000
     20      -7.8051      2.00000
     21      -7.7275      2.00000
     22      -7.5527      2.00000
     23      -2.4429      2.00000
     24      -2.3426      2.00000
     25      -2.1393      2.00000
     26      -2.0251      2.00000
     27      -1.9439      2.00000
     28      -1.9150      2.00000
     29      -1.6525      2.00000
     30      -1.4398      2.00000
     31      -1.4143      2.00000
     32      -1.2709      2.00000
     33      -1.2125      2.00000
     34      -1.1597      2.00000
     35      -1.1020      2.00000
     36      -1.0051      2.00000
     37      -0.8850      2.00000
     38      -0.7597      2.00000
     39      -0.7405      2.00000
     40      -0.6432      2.00000
     41      -0.5960      2.00000
     42      -0.3970      2.00000
     43      -0.3636      2.00000
     44      -0.2290      2.00000
     45      -0.1726      2.00000
     46       0.0868      2.00000
     47       0.5115      2.00000
     48       0.5900      2.00000
     49       0.6886      2.00000
     50       0.7199      2.00000
     51       0.7540      2.00000
     52       0.7996      2.00000
     53       0.8677      2.00000
     54       0.9431      2.00000
     55       0.9808      2.00000
     56       1.0087      2.00000
     57       1.1069      2.00000
     58       1.1473      2.00000
     59       1.2470      2.00000
     60       1.3217      2.00000
     61       1.3543      2.00000
     62       1.4716      2.00000
     63       1.5720      2.00000
     64       1.6527      2.00000
     65       3.4542      0.00000
     66       3.8353      0.00000
     67       3.8744      0.00000
     68       4.1241      0.00000
     69       4.2211      0.00000
     70       4.2893      0.00000
     71       4.4459      0.00000
     72       4.5166      0.00000
     73       4.6510      0.00000
     74       4.7147      0.00000
     75       4.8268      0.00000
     76       4.8806      0.00000
     77       4.9698      0.00000
     78       5.0651      0.00000
     79       5.1907      0.00000
     80       5.2522      0.00000
     81       5.3934      0.00000
     82       5.4723      0.00000
     83       5.5950      0.00000
     84       5.6547      0.00000

 k-point     4 :       0.0000   -0.2500    0.2500
  band No.  band energies     occupation 
      1     -11.6226      2.00000
      2     -11.5340      2.00000
      3     -11.0988      2.00000
      4     -10.9967      2.00000
      5     -10.9780      2.00000
      6     -10.6623      2.00000
      7     -10.3488      2.00000
      8     -10.1516      2.00000
      9     -10.0350      2.00000
     10      -9.9977      2.00000
     11      -9.9030      2.00000
     12      -9.8754      2.00000
     13      -9.7703      2.00000
     14      -9.7534      2.00000
     15      -8.1014      2.00000
     16      -7.8032      2.00000
     17      -7.5651      2.00000
     18      -7.3735      2.00000
     19      -7.2669      2.00000
     20      -7.0879      2.00000
     21      -6.6014      2.00000
     22      -6.3851      2.00000
     23      -2.4890      2.00000
     24      -2.3045      2.00000
     25      -1.3517      2.00000
     26      -1.1495      2.00000
     27      -0.9999      2.00000
     28      -0.9674      2.00000
     29      -0.8966      2.00000
     30      -0.7757      2.00000
     31      -0.7296      2.00000
     32      -0.5962      2.00000
     33      -0.4568      2.00000
     34      -0.3569      2.00000
     35      -0.2512      2.00000
     36      -0.2179      2.00000
     37      -0.1818      2.00000
     38      -0.1662      2.00000
     39       0.0439      2.00000
     40       0.0907      2.00000
     41       0.1155      2.00000
     42       0.1804      2.00000
     43       0.3211      2.00000
     44       0.3575      2.00000
     45       0.4140      2.00000
     46       0.5387      2.00000
     47       0.5523      2.00000
     48       0.6602      2.00000
     49       0.7754      2.00000
     50       0.9271      2.00000
     51       1.0003      2.00000
     52       1.0138      2.00000
     53       1.0278      2.00000
     54       1.0940      2.00000
     55       1.1861      2.00000
     56       1.1978      2.00000
     57       1.2383      2.00000
     58       1.2590      2.00000
     59       1.2923      2.00000
     60       1.3032      2.00000
     61       1.3918      2.00000
     62       1.4703      2.00000
     63       1.6006      2.00000
     64       1.9523      2.00000
     65       2.8039      0.00000
     66       3.1234      0.00000
     67       3.1761      0.00000
     68       3.3436      0.00000
     69       3.5789      0.00000
     70       3.8348      0.00000
     71       3.9798      0.00000
     72       4.1862      0.00000
     73       4.2809      0.00000
     74       4.2823      0.00000
     75       4.4163      0.00000
     76       4.5060      0.00000
     77       4.5454      0.00000
     78       4.6135      0.00000
     79       4.6993      0.00000
     80       4.7065      0.00000
     81       4.8058      0.00000
     82       4.8655      0.00000
     83       4.9918      0.00000
     84       5.1292      0.00000

 k-point     5 :       0.2000   -0.2500    0.2500
  band No.  band energies     occupation 
      1     -11.3806      2.00000
      2     -11.2981      2.00000
      3     -10.8742      2.00000
      4     -10.7821      2.00000
      5     -10.7635      2.00000
      6     -10.4591      2.00000
      7     -10.1747      2.00000
      8     -10.0109      2.00000
      9      -9.9387      2.00000
     10      -9.9094      2.00000
     11      -9.8348      2.00000
     12      -9.8037      2.00000
     13      -9.7321      2.00000
     14      -9.6986      2.00000
     15      -8.2982      2.00000
     16      -8.0294      2.00000
     17      -7.6852      2.00000
     18      -7.5734      2.00000
     19      -7.5360      2.00000
     20      -7.4030      2.00000
     21      -6.8927      2.00000
     22      -6.7626      2.00000
     23      -2.2819      2.00000
     24      -2.0937      2.00000
     25      -1.7423      2.00000
     26      -1.6760      2.00000
     27      -1.5056      2.00000
     28      -1.4051      2.00000
     29      -1.3366      2.00000
     30      -1.2150      2.00000
     31      -1.0211      2.00000
     32      -0.9924      2.00000
     33      -0.8681      2.00000
     34      -0.8240      2.00000
     35      -0.6850      2.00000
     36      -0.6487      2.00000
     37      -0.5225      2.00000
     38      -0.4844      2.00000
     39      -0.3301      2.00000
     40      -0.2872      2.00000
     41      -0.2004      2.00000
     42      -0.0838      2.00000
     43       0.0082      2.00000
     44       0.0672      2.00000
     45       0.2736      2.00000
     46       0.3396      2.00000
     47       0.3638      2.00000
     48       0.6180      2.00000
     49       0.6873      2.00000
     50       0.7535      2.00000
     51       0.7819      2.00000
     52       0.8338      2.00000
     53       0.8906      2.00000
     54       1.0769      2.00000
     55       1.1252      2.00000
     56       1.2940      2.00000
     57       1.3302      2.00000
     58       1.4363      2.00000
     59       1.4612      2.00000
     60       1.5426      2.00000
     61       1.6421      2.00000
     62       1.6588      2.00000
     63       1.6947      2.00000
     64       1.7919      2.00000
     65       3.3494      0.00000
     66       3.5147      0.00000
     67       3.7757      0.00000
     68       3.8284      0.00000
     69       3.8833      0.00000
     70       4.0584      0.00000
     71       4.2022      0.00000
     72       4.2355      0.00000
     73       4.3424      0.00000
     74       4.4879      0.00000
     75       4.5712      0.00000
     76       4.6753      0.00000
     77       4.7425      0.00000
     78       4.8563      0.00000
     79       4.9110      0.00000
     80       4.9731      0.00000
     81       5.1764      0.00000
     82       5.2252      0.00000
     83       5.3611      0.00000
     84       5.4049      0.00000

 k-point     6 :       0.4000   -0.2500    0.2500
  band No.  band energies     occupation 
      1     -10.7244      2.00000
      2     -10.6624      2.00000
      3     -10.3124      2.00000
      4     -10.2637      2.00000
      5     -10.2407      2.00000
      6     -10.0555      2.00000
      7      -9.9857      2.00000
      8      -9.9237      2.00000
      9      -9.8855      2.00000
     10      -9.8529      2.00000
     11      -9.8189      2.00000
     12      -9.8102      2.00000
     13      -9.6904      2.00000
     14      -9.6092      2.00000
     15      -8.4231      2.00000
     16      -8.2870      2.00000
     17      -8.1885      2.00000
     18      -8.0686      2.00000
     19      -7.9502      2.00000
     20      -7.9387      2.00000
     21      -7.6098      2.00000
     22      -7.6065      2.00000
     23      -2.4378      2.00000
     24      -2.3282      2.00000
     25      -2.1547      2.00000
     26      -2.1166      2.00000
     27      -1.8812      2.00000
     28      -1.8015      2.00000
     29      -1.6595      2.00000
     30      -1.5123      2.00000
     31      -1.4720      2.00000
     32      -1.3968      2.00000
     33      -1.2472      2.00000
     34      -1.0369      2.00000
     35      -0.9606      2.00000
     36      -0.8925      2.00000
     37      -0.8842      2.00000
     38      -0.8263      2.00000
     39      -0.7874      2.00000
     40      -0.7049      2.00000
     41      -0.6156      2.00000
     42      -0.4480      2.00000
     43      -0.3227      2.00000
     44      -0.1896      2.00000
     45      -0.1166      2.00000
     46       0.0470      2.00000
     47       0.5485      2.00000
     48       0.6168      2.00000
     49       0.6494      2.00000
     50       0.7327      2.00000
     51       0.7851      2.00000
     52       0.8142      2.00000
     53       0.8721      2.00000
     54       0.9095      2.00000
     55       0.9514      2.00000
     56       0.9795      2.00000
     57       1.0442      2.00000
     58       1.0755      2.00000
     59       1.1894      2.00000
     60       1.2619      2.00000
     61       1.4320      2.00000
     62       1.5843      2.00000
     63       1.5928      2.00000
     64       1.7002      2.00000
     65       3.6340      0.00000
     66       3.7063      0.00000
     67       3.8657      0.00000
     68       3.9561      0.00000
     69       4.1170      0.00000
     70       4.3158      0.00000
     71       4.5053      0.00000
     72       4.5486      0.00000
     73       4.6160      0.00000
     74       4.6917      0.00000
     75       4.8749      0.00000
     76       4.9131      0.00000
     77       5.0116      0.00000
     78       5.0943      0.00000
     79       5.2081      0.00000
     80       5.3863      0.00000
     81       5.4595      0.00000
     82       5.4958      0.00000
     83       5.6129      0.00000
     84       5.6694      0.00000


--------------------------------------------------------------------------------------------------------


 soft charge-density along one line, spin component           1
         0         1         2         3         4         5         6         7         8         9
 total charge-density along one line
 
 pseudopotential strength for first ion, spin component:           1
  1.139   5.235   0.002  -0.003   0.000
  5.235  22.850   0.006  -0.011   0.000
  0.002   0.006  -0.528   0.001  -0.000
[...]
     18      -6.6803      2.00000
     19      -6.6417      2.00000
     20      -6.5051      2.00000
     21      -6.0869      2.00000
     22      -5.8166      2.00000
     23      -1.3821      2.00000
     24      -1.1972      2.00000
     25      -0.8246      2.00000
     26      -0.6650      2.00000
     27      -0.6010      2.00000
     28      -0.5098      2.00000
     29      -0.4458      2.00000
     30      -0.2815      2.00000
     31      -0.2096      2.00000
     32      -0.1186      2.00000
     33       0.0536      2.00000
     34       0.0999      2.00000
     35       0.1838      2.00000
     36       0.2575      2.00000
     37       0.4261      2.00000
     38       0.5392      2.00000
     39       0.5622      2.00000
     40       0.5795      2.00000
     41       0.7275      2.00000
     42       0.8053      2.00000
     43       0.8979      2.00000
     44       0.9521      2.00000
     45       1.0950      2.00000
     46       1.1806      2.00000
     47       1.2793      2.00000
     48       1.4122      2.00000
     49       1.5040      2.00000
     50       1.6226      2.00000
     51       1.7964      2.00000
     52       1.8918      2.00000
     53       1.9292      2.00000
     54       1.9602      2.00000
     55       2.0462      2.00000
     56       2.0790      2.00000
     57       2.1976      2.00000
     58       2.2860      2.00000
     59       2.4079      2.00000
     60       2.4612      2.00000
     61       2.5469      2.00000
     62       2.5816      2.00000
     63       2.7205      2.00000
     64       2.8095      2.00000
     65       4.4179      0.00000
     66       4.8020      0.00000
     67       4.9385      0.00000
     68       5.0536      0.00000
     69       5.1223      0.00000
     70       5.1931      0.00000
     71       5.3230      0.00000
     72       5.3345      0.00000
     73       5.4109      0.00000
     74       5.5617      0.00000
     75       5.6305      0.00000
     76       5.6699      0.00000
     77       5.8464      0.00000
     78       5.9227      0.00000
     79       6.0391      0.00000
     80       6.1693      0.00000
     81       6.2583      0.00000
     82       6.4009      0.00000
     83       6.5528      0.00000
     84       6.6648      0.00000

 k-point     6 :       0.4000   -0.2500    0.2500
  band No.  band energies     occupation 
      1      -9.7564      2.00000
      2      -9.7084      2.00000
      3      -9.3747      2.00000
      4      -9.3101      2.00000
      5      -9.2750      2.00000
      6      -9.0857      2.00000
      7      -9.0509      2.00000
      8      -8.9833      2.00000
      9      -8.9738      2.00000
     10      -8.9256      2.00000
     11      -8.8687      2.00000
     12      -8.8455      2.00000
     13      -8.7489      2.00000
     14      -8.6673      2.00000
     15      -7.5426      2.00000
     16      -7.2826      2.00000
     17      -7.2308      2.00000
     18      -7.2172      2.00000
     19      -7.0170      2.00000
     20      -7.0022      2.00000
     21      -6.7280      2.00000
     22      -6.6314      2.00000
     23      -1.5059      2.00000
     24      -1.4284      2.00000
     25      -1.3482      2.00000
     26      -1.2882      2.00000
     27      -1.0157      2.00000
     28      -0.9274      2.00000
     29      -0.8252      2.00000
     30      -0.6244      2.00000
     31      -0.6092      2.00000
     32      -0.5406      2.00000
     33      -0.3568      2.00000
     34      -0.1700      2.00000
     35      -0.1208      2.00000
     36      -0.0649      2.00000
     37      -0.0334      2.00000
     38       0.1148      2.00000
     39       0.1386      2.00000
     40       0.2426      2.00000
     41       0.2846      2.00000
     42       0.4378      2.00000
     43       0.5754      2.00000
     44       0.7142      2.00000
     45       0.8046      2.00000
     46       0.9592      2.00000
     47       1.1992      2.00000
     48       1.2246      2.00000
     49       1.3117      2.00000
     50       1.4487      2.00000
     51       1.5059      2.00000
     52       1.5693      2.00000
     53       1.6677      2.00000
     54       1.6905      2.00000
     55       1.8373      2.00000
     56       1.8914      2.00000
     57       2.0364      2.00000
     58       2.0490      2.00000
     59       2.1082      2.00000
     60       2.1555      2.00000
     61       2.3210      2.00000
     62       2.3794      2.00000
     63       2.4557      2.00000
     64       2.6756      2.00000
     65       4.5731      0.00000
     66       4.6676      0.00000
     67       4.8486      0.00000
     68       5.0546      0.00000
     69       5.0631      0.00000
     70       5.2842      0.00000
     71       5.5015      0.00000
     72       5.5497      0.00000
     73       5.6548      0.00000
     74       5.7507      0.00000
     75       5.8092      0.00000
     76       5.9298      0.00000
     77       6.0831      0.00000
     78       6.2000      0.00000
     79       6.2081      0.00000
     80       6.4092      0.00000
     81       6.5856      0.00000
     82       6.6269      0.00000
     83       6.7127      0.00000
     84       6.8959      0.00000


--------------------------------------------------------------------------------------------------------


 soft charge-density along one line, spin component           1
         0         1         2         3         4         5         6         7         8         9
 total charge-density along one line
 
 pseudopotential strength for first ion, spin component:           1
  1.166   5.254   0.000  -0.002   0.000
  5.254  22.594  -0.000  -0.005   0.000
  0.000  -0.000  -0.403   0.005  -0.000
 -0.002  -0.005   0.005  -0.384   0.000
  0.000   0.000  -0.000   0.000  -0.394
 total augmentation occupancy for first ion, spin component:           1
  0.740  -0.013  -0.016   0.038   0.000
 -0.013   0.000   0.000  -0.001   0.000
 -0.016   0.000   0.018   0.019   0.000
  0.038  -0.001   0.019   0.085   0.000
  0.000   0.000   0.000   0.000   0.053


------------------------ aborting loop because EDIFF is reached ----------------------------------------


 


 total charge     
 
# of ion       s       p       d       tot
------------------------------------------
    1        0.075   0.113   0.000   0.189
    2        0.075   0.113   0.000   0.189
    3        0.062   0.099   0.000   0.160
    4        0.062   0.099   0.000   0.160
    5        1.826   1.490   0.152   3.467
    6        1.826   1.490   0.152   3.467
    7        1.832   1.469   0.152   3.453
    8        1.832   1.469   0.152   3.453
    9        1.815   1.519   0.139   3.474
   10        1.815   1.519   0.139   3.474
   11        1.834   1.452   0.155   3.441
   12        1.834   1.452   0.155   3.441
   13        1.457   2.356   0.013   3.826
   14        1.457   2.356   0.013   3.826
   15        1.475   2.309   0.017   3.800
   16        1.475   2.309   0.017   3.800
   17        1.464   2.334   0.014   3.813
   18        1.464   2.334   0.014   3.813
   19        1.471   2.309   0.016   3.796
   20        1.471   2.309   0.016   3.796
   21        1.469   2.320   0.015   3.804
   22        1.469   2.320   0.015   3.804
   23        1.474   2.306   0.019   3.799
   24        1.474   2.306   0.019   3.799
   25        1.470   2.318   0.019   3.807
   26        1.470   2.318   0.019   3.807
--------------------------------------------------
tot         35.448  44.787   1.419  81.655
 
    CHARGE:  cpu time    0.0338: real time    0.0338
    FORLOC:  cpu time    0.0027: real time    0.0027
    FORNL :  cpu time    0.1656: real time    0.1656
    STRESS:  cpu time    0.4886: real time    0.4887
    FORCOR:  cpu time    0.0142: real time    0.0142
    FORHAR:  cpu time    0.0047: real time    0.0047
    MIXING:  cpu time    0.0004: real time    0.0004
    OFIELD:  cpu time    0.0000: real time    0.0000

  FORCE on cell =-STRESS in cart. coord.  units (eV):
  Direction    XX          YY          ZZ          XY          YZ          ZX
  --------------------------------------------------------------------------------------
  Alpha Z   160.87035   160.87035   160.87035
  Ewald   -1292.22625 -1539.17011 -1538.65962     0.00000  -136.38452    -0.00000
  Hartree   333.35289   161.13063   177.54941    -0.00000   -98.28195    -0.00000
  E(xc)    -496.95809  -496.46169  -496.46725    -0.00000    -0.09318     0.00000
  Local    -920.62190  -499.69396  -515.37345     0.00000   233.81436     0.00000
  n-local  1188.11748  1183.01816  1182.42227    -0.28373     0.16485     0.66957
  augment  -274.64181  -273.71852  -273.60279     0.00000    -0.12165     0.00000
  Kinetic  1302.15532  1304.31451  1303.20067     0.27800     1.18032     1.49436
  Fock        0.00000     0.00000     0.00000     0.00000     0.00000     0.00000
  -------------------------------------------------------------------------------------
  Total       0.04798     0.28938    -0.06041     0.00000     0.27824     0.00000
  in kB       0.10501     0.63328    -0.13219     0.00000     0.60889     0.00000
  external pressure =        0.20 kB  Pullay stress =        0.00 kB


 VOLUME and BASIS-vectors are now :
 -----------------------------------------------------------------------------
  energy-cutoff  :      300.00
  volume of cell :      732.13
      direct lattice vectors                 reciprocal lattice vectors
     4.145394651  0.000000000  0.000000000     0.241231556  0.000000000  0.000000000
     0.000000000 13.875193634 -1.007814144     0.000000000  0.072117802  0.000643433
     0.000000000 -0.113637880 12.736859502     0.000000000  0.005706378  0.078563202

  length of vectors
     4.145394651 13.911746394 12.737366428     0.241231556  0.072120672  0.078770168


 FORCES acting on ions
    electron-ion (+dipol)            ewald-force                    non-local-force                 convergence-correction
 -----------------------------------------------------------------------------------------------
   0.679E-13 -.261E+01 -.143E+01   0.110E-15 0.246E+01 0.188E+01   0.867E-18 0.189E+00 -.470E+00   -.191E-16 -.536E-03 0.183E-02
   0.687E-13 0.261E+01 0.143E+01   0.126E-14 -.246E+01 -.188E+01   -.867E-18 -.189E+00 0.470E+00   -.125E-15 0.536E-03 -.183E-02
   -.701E-12 0.390E+01 0.333E+01   -.202E-14 -.369E+01 -.298E+01   -.217E-18 -.189E+00 -.381E+00   -.692E-16 -.379E-03 0.772E-03
   -.702E-12 -.390E+01 -.333E+01   0.156E-14 0.369E+01 0.298E+01   0.217E-18 0.189E+00 0.381E+00   -.215E-16 0.379E-03 -.772E-03
   0.189E-11 0.196E+02 0.105E+02   -.388E-14 -.187E+02 -.845E+01   0.694E-17 -.893E+00 -.208E+01   0.110E-14 0.128E-02 0.537E-02
   0.190E-11 -.196E+02 -.105E+02   0.176E-14 0.187E+02 0.845E+01   -.694E-17 0.893E+00 0.208E+01   0.401E-15 -.128E-02 -.537E-02
   0.104E-11 0.439E+01 -.159E+02   0.826E-14 -.260E+01 0.157E+02   0.694E-17 -.176E+01 0.236E+00   -.139E-14 -.858E-02 -.121E-01
   0.103E-11 -.439E+01 0.159E+02   -.639E-14 0.260E+01 -.157E+02   -.694E-17 0.176E+01 -.236E+00   0.134E-14 0.858E-02 0.121E-01
   0.180E-11 0.341E+02 0.142E+02   -.404E-14 -.309E+02 -.126E+02   -.694E-17 -.317E+01 -.168E+01   0.234E-14 -.532E-02 0.429E-02
   0.181E-11 -.341E+02 -.142E+02   0.524E-14 0.309E+02 0.126E+02   0.694E-17 0.317E+01 0.168E+01   -.798E-15 0.532E-02 -.429E-02
   0.316E-12 0.110E+02 -.896E+01   0.704E-14 -.112E+02 0.798E+01   -.694E-17 0.173E+00 0.102E+01   -.469E-15 -.128E-03 -.719E-02
   0.313E-12 -.110E+02 0.896E+01   -.112E-13 0.112E+02 -.798E+01   0.694E-17 -.173E+00 -.102E+01   0.424E-15 0.128E-03 0.719E-02
   0.913E-13 0.299E+02 0.522E+02   -.740E-14 -.305E+02 -.536E+02   0.000E+00 0.596E+00 0.143E+01   0.766E-14 0.395E-02 -.139E-01
   0.115E-12 -.299E+02 -.522E+02   0.553E-14 0.305E+02 0.536E+02   0.000E+00 -.596E+00 -.143E+01   0.108E-14 -.395E-02 0.139E-01
   -.655E-13 0.526E+02 0.194E+02   0.635E-15 -.552E+02 -.189E+02   0.000E+00 0.260E+01 -.560E+00   0.570E-14 -.679E-03 0.570E-02
   -.388E-13 -.526E+02 -.194E+02   -.526E-14 0.552E+02 0.189E+02   0.000E+00 -.260E+01 0.560E+00   0.190E-14 0.679E-03 -.570E-02
   -.362E-12 -.198E+02 -.461E+02   -.787E-15 0.206E+02 0.478E+02   0.000E+00 -.785E+00 -.167E+01   0.168E-14 -.330E-03 -.728E-02
   -.391E-12 0.198E+02 0.461E+02   -.468E-14 -.206E+02 -.478E+02   0.000E+00 0.785E+00 0.167E+01   0.425E-14 0.330E-03 0.728E-02
   -.382E-12 0.670E+02 0.401E+02   -.882E-15 -.685E+02 -.416E+02   0.000E+00 0.146E+01 0.153E+01   0.488E-14 -.794E-02 0.640E-02
   -.409E-12 -.670E+02 -.401E+02   0.540E-15 0.685E+02 0.416E+02   0.000E+00 -.146E+01 -.153E+01   0.183E-14 0.794E-02 -.640E-02
   -.707E-12 -.366E+01 -.483E+02   -.404E-14 0.482E+01 0.501E+02   0.000E+00 -.112E+01 -.176E+01   0.113E-14 -.118E-02 0.249E-02
   -.686E-12 0.366E+01 0.483E+02   0.485E-14 -.482E+01 -.501E+02   0.000E+00 0.112E+01 0.176E+01   0.476E-14 0.118E-02 -.249E-02
   0.232E-11 0.655E+02 0.181E+02   -.152E-13 -.672E+02 -.189E+02   0.173E-17 0.167E+01 0.784E+00   0.721E-14 -.142E-02 -.118E-01
   0.230E-11 -.655E+02 -.181E+02   0.569E-14 0.672E+02 0.189E+02   -.173E-17 -.167E+01 -.784E+00   -.710E-15 0.142E-02 0.118E-01
   0.265E-11 0.191E+02 0.600E+01   -.367E-14 -.193E+02 -.634E+01   0.000E+00 0.253E+00 0.326E+00   0.359E-14 -.277E-02 -.635E-03
   0.268E-11 -.191E+02 -.600E+01   -.299E-14 0.193E+02 0.634E+01   0.000E+00 -.253E+00 -.326E+00   0.234E-14 0.277E-02 0.635E-03
 -----------------------------------------------------------------------------------------------
   0.159E-10 -.370E-09 -.318E-09   -.299E-13 0.142E-13 0.746E-13   0.000E+00 0.000E+00 0.222E-15   0.500E-13 0.132E-12 0.176E-13
 
 
 POSITION                                       TOTAL-FORCE (eV/Angst)
 -----------------------------------------------------------------------------------
      1.03635      7.81956      9.13447         0.000000      0.037983     -0.020683
      3.10905      5.94199      2.59457         0.000000     -0.037983      0.020683
      3.10905     12.23138      6.73503         0.000000      0.018010     -0.028435
      1.03635      1.53017      4.99401         0.000000     -0.018010      0.028435
      1.03635     13.10583      9.84519         0.000000     -0.001839     -0.023993
      3.10905      0.65572      1.88385         0.000000      0.001839      0.023993
      1.03635     11.48227      2.97756         0.000000      0.016793     -0.006868
      3.10905      2.27929      8.75148         0.000000     -0.016793      0.006868
      3.10905     10.12321     -0.73353         0.000000      0.010007     -0.042103
      1.03635      3.63834     12.46257         0.000000     -0.010007      0.042103
      3.10905      8.53535      5.07265         0.000000      0.011988      0.033184
      1.03635      5.22620      6.65640         0.000000     -0.011988     -0.033184
      1.03635      6.56979      4.08276         0.000000     -0.017277      0.008545
      3.10905      7.19177      7.64629         0.000000      0.017277     -0.008545
      1.03635      8.29156     -1.11307         0.000000      0.026441     -0.006496
      3.10905      5.58363      0.10525         0.000000     -0.026441      0.006496
      3.10905     -0.21506      4.60885         0.000000      0.024733     -0.007482
      1.03635      0.10142      8.12801         0.000000     -0.024733      0.007482
      3.10905     11.14799      9.27458         0.000000     -0.018681      0.008005
      1.03635      2.61357      2.45446         0.000000      0.018681     -0.008005
      1.03635     10.50134      5.74583         0.000000      0.038208     -0.024600
      3.10905      3.26021      5.98322         0.000000     -0.038208      0.024600
      3.10905      9.59256      2.27159         0.000000     -0.001678     -0.029274
      1.03635      4.16900      9.45745         0.000000      0.001678      0.029274
      1.03635     12.43979      0.11601         0.000000     -0.028280     -0.015867
      3.10905      1.32177     11.61304         0.000000      0.028280      0.015867
 -----------------------------------------------------------------------------------
    total drift:                                0.000000     -0.000000     -0.000000


--------------------------------------------------------------------------------------------------------



  FREE ENERGIE OF THE ION-ELECTRON SYSTEM (eV)
  ---------------------------------------------------
  free  energy   TOTEN  =      -102.85483593 eV

  energy  without entropy=     -102.85483593  energy(sigma->0) =     -102.85483593
 
 d Force = 0.2055208E-02[ 0.123E-02, 0.288E-02]  d Energy = 0.2339149E-02-0.284E-03
 d Force = 0.1138238E+01[ 0.113E+01, 0.114E+01]  d Ewald  =-0.9899473E+00 0.213E+01


--------------------------------------------------------------------------------------------------------


    POTLOK:  cpu time    0.2456: real time    0.2456


--------------------------------------------------------------------------------------------------------


 Conjugate gradient step on ions:
 trial-energy change:   -0.002339  1 .order   -0.002350   -0.003470   -0.001229
  (g-gl).g = 0.490E-03      g.g   = 0.580E-03  gl.gl    = 0.749E-03
 g(Force)  = 0.408E-03   g(Stress)= 0.172E-03 ortho     = 0.309E-04
 gamma     =   0.65380
 trial     =   5.78459
 opt step  =   8.95675  (harmonic =   8.95675) maximal distance =0.01053748
 next E    =  -102.855183   (d E  =  -0.00269)


--------------------------------------------------------------------------------------------------------


  
 reached required accuracy - stopping structural energy minimisation
     LOOP+:  cpu time    4.6798: real time    4.6799
    4ORBIT:  cpu time    0.0000: real time    0.0000
 


 total charge     
 
# of ion       s       p       d       tot
------------------------------------------
    1        0.075   0.113   0.000   0.189
    2        0.075   0.113   0.000   0.189
    3        0.062   0.099   0.000   0.160
    4        0.062   0.099   0.000   0.160
    5        1.826   1.490   0.152   3.467
    6        1.826   1.490   0.152   3.467
    7        1.832   1.469   0.152   3.453
    8        1.832   1.469   0.152   3.453
    9        1.815   1.519   0.139   3.474
   10        1.815   1.519   0.139   3.474
   11        1.834   1.452   0.155   3.441
   12        1.834   1.452   0.155   3.441
   13        1.457   2.356   0.013   3.826
   14        1.457   2.356   0.013   3.826
   15        1.475   2.309   0.017   3.800
   16        1.475   2.309   0.017   3.800
   17        1.464   2.334   0.014   3.813
   18        1.464   2.334   0.014   3.813
   19        1.471   2.309   0.016   3.796
   20        1.471   2.309   0.016   3.796
   21        1.469   2.320   0.015   3.804
   22        1.469   2.320   0.015   3.804
   23        1.474   2.306   0.019   3.799
   24        1.474   2.306   0.019   3.799
   25        1.470   2.318   0.019   3.807
   26        1.470   2.318   0.019   3.807
--------------------------------------------------
tot         35.448  44.787   1.419  81.655
 

 total amount of memory used by VASP MPI-rank0    46194. kBytes
=======================================================================

   base      :      30000. kBytes
   nonlr-proj:       3371. kBytes
   fftplans  :       1345. kBytes
   grid      :       5059. kBytes
   one-center:        210. kBytes
   wavefun   :       6209. kBytes
 
  
  
 General timing and accounting informations for this job:
 ========================================================
  
                  Total CPU time used (sec):      730.813
                            User time (sec):      718.388
                          System time (sec):       12.425
                         Elapsed time (sec):      732.112
  
                   Maximum memory used (kb):       91956.
                   Average memory used (kb):           0.
  
                          Minor page faults:       449147
                          Major page faults:            0
                 Voluntary context switches:         1328
