PROCAR new format
# of k-points:    6         # of bands:   84         # of ions:   26

 k-point     1 :    0.00000000 0.25000000 0.25000000     weight = 0.10000000

band     1 # energy  -10.71562498 # occ.  2.00000000
 
ion      s      p      d    tot
    1  0.000  0.000  0.000  0.000
    2  0.000  0.000  0.000  0.000
    3  0.000  0.000  0.000  0.000
    4  0.000  0.000  0.000  0.000
    5  0.036  0.000  0.000  0.036
    6  0.036  0.000  0.000  0.036
    7  0.047  0.000  0.000  0.048
    8  0.047  0.000  0.000  0.048
    9  0.022  0.000  0.000  0.022
   10  0.022  0.000  0.000  0.022
   11  0.050  0.000  0.000  0.050
   12  0.050  0.000  0.000  0.050
   13  0.028  0.000  0.000  0.029
   14  0.028  0.000  0.000  0.029
   15  0.008  0.000  0.000  0.008
   16  0.008  0.000  0.000  0.008
   17  0.019  0.000  0.000  0.019
   18  0.019  0.000  0.000  0.019
   19  0.018  0.000  0.000  0.019
   20  0.018  0.000  0.000  0.019
   21  0.034  0.001  0.000  0.035
   22  0.034  0.001  0.000  0.035
   23  0.049  0.000  0.000  0.050
   24  0.049  0.000  0.000  0.050
   25  0.045  0.000  0.000  0.045
   26  0.045  0.000  0.000  0.045
tot    0.711  0.006  0.000  0.717
 
band     2 # energy  -10.45327614 # occ.  2.00000000
 
ion      s      p      d    tot
    1  0.000  0.000  0.000  0.000
    2  0.000  0.000  0.000  0.000
    3  0.000  0.000  0.000  0.000
    4  0.000  0.000  0.000  0.000
    5  0.007  0.001  0.000  0.008
    6  0.007  0.001  0.000  0.008
    7  0.082  0.001  0.000  0.083
    8  0.082  0.001  0.000  0.083
    9  0.019  0.000  0.000  0.020
   10  0.019  0.000  0.000  0.020
   11  0.035  0.002  0.000  0.037
   12  0.035  0.002  0.000  0.037
   13  0.005  0.000  0.000  0.005
   14  0.005  0.000  0.000  0.005
   15  0.010  0.000  0.000  0.010
   16  0.010  0.000  0.000  0.010
   17  0.023  0.000  0.000  0.024
   18  0.023  0.000  0.000  0.024
   19  0.001  0.000  0.000  0.001
   20  0.001  0.000  0.000  0.001
   21  0.052  0.001  0.000  0.053
   22  0.052  0.001  0.000  0.053
   23  0.096  0.001  0.000  0.097
   24  0.096  0.001  0.000  0.097
   25  0.025  0.000  0.000  0.025
   26  0.025  0.000  0.000  0.025
tot    0.710  0.014  0.000  0.723
 
band     3 # energy  -10.43169163 # occ.  2.00000000
 
ion      s      p      d    tot
    1  0.000  0.000  0.000  0.000
    2  0.000  0.000  0.000  0.000
    3  0.000  0.000  0.000  0.000
    4  0.000  0.000  0.000  0.000
    5  0.050  0.000  0.000  0.051
    6  0.050  0.000  0.000  0.051
    7  0.002  0.002  0.000  0.004
    8  0.002  0.002  0.000  0.004
    9  0.020  0.000  0.000  0.020
   10  0.020  0.000  0.000  0.020
   11  0.075  0.000  0.000  0.075
   12  0.075  0.000  0.000  0.075
   13  0.065  0.001  0.000  0.065
   14  0.065  0.001  0.000  0.065
   15  0.009  0.000  0.000  0.009
   16  0.009  0.000  0.000  0.009
   17  0.008  0.000  0.000  0.008
   18  0.008  0.000  0.000  0.008
   19  0.035  0.001  0.000  0.035
   20  0.035  0.001  0.000  0.035
   21  0.036  0.001  0.000  0.036
   22  0.036  0.001  0.000  0.036
   23  0.005  0.000  0.000  0.006
   24  0.005  0.000  0.000  0.006
   25  0.050  0.000  0.000  0.050
   26  0.050  0.000  0.000  0.050
tot    0.711  0.011  0.000  0.722
 
band     4 # energy  -10.05400966 # occ.  2.00000000
 
ion      s      p      d    tot
    1  0.000  0.000  0.000  0.000
    2  0.000  0.000  0.000  0.000
    3  0.000  0.000  0.000  0.000
    4  0.000  0.000  0.000  0.000
    5  0.057  0.002  0.000  0.059
    6  0.057  0.002  0.000  0.059
    7  0.004  0.000  0.000  0.004
    8  0.004  0.000  0.000  0.004
    9  0.078  0.002  0.000  0.080
   10  0.078  0.002  0.000  0.080
   11  0.001  0.000  0.000  0.001
   12  0.001  0.000  0.000  0.001
   13  0.000  0.000  0.000  0.000
   14  0.000  0.000  0.000  0.000
   15  0.073  0.001  0.000  0.074
   16  0.073  0.001  0.000  0.074
   17  0.027  0.000  0.000  0.027
   18  0.027  0.000  0.000  0.027
   19  0.113  0.001  0.000  0.114
   20  0.113  0.001  0.000  0.114
   21  0.003  0.000  0.000  0.003
   22  0.003  0.000  0.000  0.003
   23  0.002  0.000  0.000  0.002
   24  0.002  0.000  0.000  0.002
   25  0.001  0.001  0.000  0.002
   26  0.001  0.001  0.000  0.002
tot    0.719  0.017  0.000  0.736
 
band     5 # energy   -9.78232094 # occ.  2.00000000
 
ion      s      p      d    tot
    1  0.000  0.000  0.000  0.000
    2  0.000  0.000  0.000  0.000
    3  0.000  0.000  0.000  0.000
    4  0.000  0.000  0.000  0.000
    5  0.040  0.001  0.000  0.042
    6  0.040  0.001  0.000  0.042
    7  0.003  0.003  0.000  0.006
    8  0.003  0.003  0.000  0.006
    9  0.027  0.001  0.000  0.028
   10  0.027  0.001  0.000  0.028
   11  0.046  0.002  0.000  0.048
   12  0.046  0.002  0.000  0.048
   13  0.008  0.000  0.000  0.008
   14  0.008  0.000  0.000  0.008
   15  0.044  0.000  0.000  0.045
   16  0.044  0.000  0.000  0.045
   17  0.029  0.000  0.000  0.030
   18  0.029  0.000  0.000  0.030
   19  0.021  0.001  0.000  0.021
   20  0.021  0.001  0.000  0.021
   21  0.087  0.001  0.000  0.088
   22  0.087  0.001  0.000  0.088
   23  0.003  0.001  0.000  0.003
   24  0.003  0.001  0.000  0.003
   25  0.048  0.000  0.000  0.048
   26  0.048  0.000  0.000  0.048
tot    0.714  0.020  0.002  0.737
 
band     6 # energy   -9.71153556 # occ.  2.00000000
 
ion      s      p      d    tot
    1  0.000  0.000  0.000  0.000
    2  0.000  0.000  0.000  0.000
    3  0.000  0.000  0.000  0.000
    4  0.000  0.000  0.000  0.000
    5  0.035  0.000  0.000  0.036
    6  0.035  0.000  0.000  0.036
    7  0.049  0.002  0.000  0.051
    8  0.049  0.002  0.000  0.051
    9  0.007  0.002  0.000  0.009
   10  0.007  0.002  0.000  0.009
   11  0.015  0.004  0.000  0.020
   12  0.015  0.004  0.000  0.020
   13  0.070  0.000  0.000  0.070
   14  0.070  0.000  0.000  0.070
   15  0.015  0.000  0.000  0.015
   16  0.015  0.000  0.000  0.015
   17  0.001  0.000  0.000  0.001
   18  0.001  0.000  0.000  0.001
   19  0.043  0.000  0.000  0.044
   20  0.043  0.000  0.000  0.044
   21  0.001  0.000  0.000  0.001
   22  0.001  0.000  0.000  0.001
   23  0.111  0.001  0.000  0.112
   24  0.111  0.001  0.000  0.112
   25  0.009  0.001  0.000  0.009
   26  0.009  0.001  0.000  0.009
tot    0.712  0.026  0.001  0.739
 
band     7 # energy   -9.67649420 # occ.  2.00000000
 
ion      s      p      d    tot
    1  0.000  0.000  0.000  0.001
    2  0.000  0.000  0.000  0.001
    3  0.000  0.000  0.000  0.000
    4  0.000  0.000  0.000  0.000
    5  0.010  0.001  0.000  0.011
    6  0.010  0.001  0.000  0.011
    7  0.022  0.001  0.000  0.023
    8  0.022  0.001  0.000  0.023
    9  0.087  0.004  0.000  0.092
   10  0.087  0.004  0.000  0.092
   11  0.007  0.001  0.000  0.008
   12  0.007  0.001  0.000  0.008
   13  0.012  0.000  0.000  0.012
   14  0.012  0.000  0.000  0.012
   15  0.142  0.002  0.000  0.144
   16  0.142  0.002  0.000  0.144
   17  0.046  0.000  0.000  0.046
   18  0.046  0.000  0.000  0.046
   19  0.002  0.000  0.000  0.002
   20  0.002  0.000  0.000  0.002
   21  0.018  0.000  0.000  0.018
   22  0.018  0.000  0.000  0.018
   23  0.001  0.000  0.000  0.002
   24  0.001  0.000  0.000  0.002
   25  0.015  0.000  0.000  0.015
   26  0.015  0.000  0.000  0.015
tot    0.723  0.022  0.001  0.747
 
band     8 # energy   -9.22254200 # occ.  2.00000000
 
ion      s      p      d    tot
    1  0.000  0.000  0.000  0.000
    2  0.000  0.000  0.000  0.000
    3  0.000  0.000  0.000  0.000
    4  0.000  0.000  0.000  0.000
    5  0.006  0.002  0.000  0.008
    6  0.006  0.002  0.000  0.008
    7  0.011  0.003  0.000  0.015
    8  0.011  0.003  0.000  0.015
    9  0.013  0.003  0.000  0.017
   10  0.013  0.003  0.000  0.017
   11  0.006  0.005  0.000  0.011
   12  0.006  0.005  0.000  0.011
   13  0.036  0.000  0.000  0.036
   14  0.036  0.000  0.000  0.036
   15  0.058  0.001  0.000  0.058
   16  0.058  0.001  0.000  0.058
   17  0.004  0.000  0.000  0.004
   18  0.004  0.000  0.000  0.004
   19  0.025  0.000  0.000  0.025
   20  0.025  0.000  0.000  0.025
   21  0.089  0.000  0.000  0.089
   22  0.089  0.000  0.000  0.089
   23  0.075  0.000  0.000  0.076
   24  0.075  0.000  0.000  0.076
   25  0.028  0.000  0.000  0.029
   26  0.028  0.000  0.000  0.029
tot    0.705  0.029  0.002  0.736
 
band     9 # energy   -9.16971926 # occ.  2.00000000
 
ion      s      p      d    tot
    1  0.000  0.000  0.000  0.000
    2  0.000  0.000  0.000  0.000
    3  0.000  0.000  0.000  0.000
    4  0.000  0.000  0.000  0.000
    5  0.010  0.005  0.000  0.015
    6  0.010  0.005  0.000  0.015
    7  0.012  0.002  0.000  0.015
    8  0.012  0.002  0.000  0.015
    9  0.006  0.004  0.000  0.010
   10  0.006  0.004  0.000  0.010
   11  0.010  0.002  0.000  0.012
   12  0.010  0.002  0.000  0.012
   13  0.037  0.000  0.000  0.037
   14  0.037  0.000  0.000  0.037
   15  0.055  0.000  0.000  0.055
   16  0.055  0.000  0.000  0.055
   17  0.046  0.000  0.000  0.046
   18  0.046  0.000  0.000  0.046
   19  0.079  0.000  0.000  0.080
   20  0.079  0.000  0.000  0.080
   21  0.037  0.000  0.000  0.037
   22  0.037  0.000  0.000  0.037
   23  0.015  0.000  0.000  0.015
   24  0.015  0.000  0.000  0.015
   25  0.044  0.000  0.000  0.044
   26  0.044  0.000  0.000  0.044
tot    0.703  0.030  0.002  0.734
 
band    10 # energy   -9.11869131 # occ.  2.00000000
 
ion      s      p      d    tot
    1  0.000  0.000  0.000  0.001
    2  0.000  0.000  0.000  0.001
    3  0.000  0.000  0.000  0.000
    4  0.000  0.000  0.000  0.000
    5  0.000  0.003  0.000  0.003
    6  0.000  0.003  0.000  0.003
    7  0.002  0.003  0.000  0.005
    8  0.002  0.003  0.000  0.005
    9  0.001  0.002  0.000  0.003
   10  0.001  0.002  0.000  0.003
   11  0.000  0.008  0.000  0.009
   12  0.000  0.008  0.000  0.009
   13  0.112  0.000  0.000  0.113
   14  0.112  0.000  0.000  0.113
   15  0.010  0.000  0.000  0.010
   16  0.010  0.000  0.000  0.010
   17  0.009  0.000  0.000  0.009
   18  0.009  0.000  0.000  0.009
   19  0.033  0.000  0.000  0.033
   20  0.033  0.000  0.000  0.033
   21  0.108  0.000  0.000  0.108
   22  0.108  0.000  0.000  0.108
   23  0.037  0.000  0.000  0.037
   24  0.037  0.000  0.000  0.037
   25  0.033  0.000  0.000  0.033
   26  0.033  0.000  0.000  0.033
tot    0.694  0.032  0.001  0.728
 
band    11 # energy   -9.01087591 # occ.  2.00000000
 
ion      s      p      d    tot
    1  0.000  0.000  0.000  0.000
    2  0.000  0.000  0.000  0.000
    3  0.000  0.000  0.000  0.001
    4  0.000  0.000  0.000  0.001
    5  0.001  0.006  0.000  0.007
    6  0.001  0.006  0.000  0.007
    7  0.004  0.000  0.001  0.005
    8  0.004  0.000  0.001  0.005
    9  0.000  0.001  0.000  0.001
   10  0.000  0.001  0.000  0.001
   11  0.001  0.004  0.000  0.005
   12  0.001  0.004  0.000  0.005
   13  0.066  0.000  0.000  0.066
   14  0.066  0.000  0.000  0.066
   15  0.000  0.000  0.000  0.000
   16  0.000  0.000  0.000  0.000
   17  0.070  0.000  0.000  0.070
   18  0.070  0.000  0.000  0.070
   19  0.029  0.000  0.000  0.030
   20  0.029  0.000  0.000  0.030
   21  0.080  0.000  0.000  0.080
   22  0.080  0.000  0.000  0.080
   23  0.013  0.000  0.000  0.013
   24  0.013  0.000  0.000  0.013
   25  0.087  0.000  0.000  0.087
   26  0.087  0.000  0.000  0.087
tot    0.704  0.024  0.003  0.731
 
band    12 # energy   -8.98065202 # occ.  2.00000000
 
ion      s      p      d    tot
    1  0.000  0.000  0.000  0.001
    2  0.000  0.000  0.000  0.001
    3  0.000  0.000  0.000  0.000
    4  0.000  0.000  0.000  0.000
    5  0.000  0.004  0.000  0.004
    6  0.000  0.004  0.000  0.004
    7  0.003  0.003  0.000  0.006
    8  0.003  0.003  0.000  0.006
    9  0.000  0.002  0.000  0.002
   10  0.000  0.002  0.000  0.002
   11  0.006  0.001  0.001  0.009
   12  0.006  0.001  0.001  0.009
   13  0.131  0.000  0.000  0.131
   14  0.131  0.000  0.000  0.131
   15  0.006  0.000  0.000  0.006
   16  0.006  0.000  0.000  0.006
   17  0.009  0.000  0.000  0.009
   18  0.009  0.000  0.000  0.009
   19  0.033  0.000  0.000  0.033
   20  0.033  0.000  0.000  0.033
   21  0.014  0.000  0.000  0.014
   22  0.014  0.000  0.000  0.014
   23  0.080  0.000  0.000  0.080
   24  0.080  0.000  0.000  0.080
   25  0.073  0.000  0.000  0.073
   26  0.073  0.000  0.000  0.073
tot    0.713  0.021  0.004  0.738
 
band    13 # energy   -8.90207346 # occ.  2.00000000
 
ion      s      p      d    tot
    1  0.000  0.000  0.000  0.000
    2  0.000  0.000  0.000  0.000
    3  0.000  0.000  0.000  0.001
    4  0.000  0.000  0.000  0.001
    5  0.002  0.003  0.001  0.006
    6  0.002  0.003  0.001  0.006
    7  0.001  0.004  0.000  0.005
    8  0.001  0.004  0.000  0.005
    9  0.003  0.003  0.001  0.006
   10  0.003  0.003  0.001  0.006
   11  0.001  0.001  0.000  0.002
   12  0.001  0.001  0.000  0.002
   13  0.007  0.000  0.000  0.007
   14  0.007  0.000  0.000  0.007
   15  0.042  0.000  0.000  0.042
   16  0.042  0.000  0.000  0.042
   17  0.118  0.000  0.000  0.118
   18  0.118  0.000  0.000  0.118
   19  0.064  0.000  0.000  0.064
   20  0.064  0.000  0.000  0.064
   21  0.002  0.000  0.000  0.003
   22  0.002  0.000  0.000  0.003
   23  0.034  0.000  0.000  0.034
   24  0.034  0.000  0.000  0.034
   25  0.080  0.000  0.000  0.080
   26  0.080  0.000  0.000  0.080
tot    0.708  0.025  0.004  0.736
 
band    14 # energy   -8.84436655 # occ.  2.00000000
 
ion      s      p      d    tot
    1  0.000  0.000  0.000  0.000
    2  0.000  0.000  0.000  0.000
    3  0.000  0.000  0.000  0.001
    4  0.000  0.000  0.000  0.001
    5  0.001  0.002  0.001  0.005
    6  0.001  0.002  0.001  0.005
    7  0.005  0.005  0.000  0.010
    8  0.005  0.005  0.000  0.010
    9  0.000  0.002  0.000  0.002
   10  0.000  0.002  0.000  0.002
   11  0.001  0.001  0.000  0.001
   12  0.001  0.001  0.000  0.001
   13  0.012  0.000  0.000  0.012
   14  0.012  0.000  0.000  0.012
   15  0.015  0.000  0.000  0.015
   16  0.015  0.000  0.000  0.015
   17  0.179  0.000  0.000  0.180
   18  0.179  0.000  0.000  0.180
   19  0.050  0.000  0.000  0.050
   20  0.050  0.000  0.000  0.050
   21  0.002  0.000  0.000  0.002
   22  0.002  0.000  0.000  0.002
   23  0.033  0.000  0.000  0.033
   24  0.033  0.000  0.000  0.033
   25  0.058  0.000  0.000  0.058
   26  0.058  0.000  0.000  0.058
tot    0.713  0.020  0.004  0.738
 
band    15 # energy   -7.21120590 # occ.  2.00000000
 
ion      s      p      d    tot
    1  0.000  0.000  0.000  0.000
    2  0.000  0.000  0.000  0.000
    3  0.000  0.000  0.000  0.000
    4  0.000  0.000  0.000  0.000
    5  0.019  0.001  0.000  0.020
    6  0.019  0.001  0.000  0.020
    7  0.093  0.001  0.000  0.093
    8  0.093  0.001  0.000  0.093
    9  0.002  0.000  0.000  0.002
   10  0.002  0.000  0.000  0.002
   11  0.214  0.000  0.000  0.214
   12  0.214  0.000  0.000  0.214
   13  0.013  0.004  0.000  0.017
   14  0.013  0.004  0.000  0.017
   15  0.002  0.000  0.000  0.003
   16  0.002  0.000  0.000  0.003
   17  0.013  0.001  0.000  0.014
   18  0.013  0.001  0.000  0.014
   19  0.008  0.000  0.000  0.008
   20  0.008  0.000  0.000  0.008
   21  0.039  0.003  0.000  0.043
   22  0.039  0.003  0.000  0.043
   23  0.007  0.002  0.000  0.009
   24  0.007  0.002  0.000  0.009
   25  0.000  0.000  0.000  0.000
   26  0.000  0.000  0.000  0.000
tot    0.821  0.025  0.004  0.850
 
band    16 # energy   -6.86592967 # occ.  2.00000000
 
ion      s      p      d    tot
    1  0.000  0.000  0.000  0.000
    2  0.000  0.000  0.000  0.000
    3  0.000  0.000  0.000  0.000
    4  0.000  0.000  0.000  0.000
    5  0.100  0.000  0.000  0.101
    6  0.100  0.000  0.000  0.101
    7  0.128  0.000  0.000  0.128
    8  0.128  0.000  0.000  0.128
    9  0.024  0.002  0.000  0.026
   10  0.024  0.002  0.000  0.026
   11  0.044  0.001  0.000  0.045
   12  0.044  0.001  0.000  0.045
   13  0.025  0.000  0.000  0.026
   14  0.025  0.000  0.000  0.026
   15  0.013  0.000  0.000  0.014
   16  0.013  0.000  0.000  0.014
   17  0.004  0.002  0.000  0.007
   18  0.004  0.002  0.000  0.007
   19  0.023  0.002  0.000  0.024
   20  0.023  0.002  0.000  0.024
   21  0.001  0.002  0.000  0.002
   22  0.001  0.002  0.000  0.002
   23  0.037  0.002  0.000  0.039
   24  0.037  0.002  0.000  0.039
   25  0.005  0.004  0.000  0.009
   26  0.005  0.004  0.000  0.009
tot    0.808  0.033  0.002  0.843
 
band    17 # energy   -6.63751787 # occ.  2.00000000
 
ion      s      p      d    tot
    1  0.000  0.000  0.000  0.000
    2  0.000  0.000  0.000  0.000
    3  0.000  0.000  0.000  0.000
    4  0.000  0.000  0.000  0.000
    5  0.173  0.000  0.000  0.173
    6  0.173  0.000  0.000  0.173
    7  0.036  0.001  0.000  0.036
    8  0.036  0.001  0.000  0.036
    9  0.037  0.000  0.001  0.038
   10  0.037  0.000  0.001  0.038
   11  0.049  0.000  0.000  0.050
   12  0.049  0.000  0.000  0.050
   13  0.003  0.001  0.000  0.004
   14  0.003  0.001  0.000  0.004
   15  0.019  0.001  0.000  0.020
   16  0.019  0.001  0.000  0.020
   17  0.009  0.002  0.000  0.010
   18  0.009  0.002  0.000  0.010
   19  0.041  0.003  0.000  0.044
   20  0.041  0.003  0.000  0.044
   21  0.022  0.001  0.000  0.023
   22  0.022  0.001  0.000  0.023
   23  0.012  0.001  0.000  0.013
   24  0.012  0.001  0.000  0.013
   25  0.014  0.002  0.000  0.016
   26  0.014  0.002  0.000  0.016
tot    0.828  0.022  0.004  0.854
 
band    18 # energy   -6.60008013 # occ.  2.00000000
 
ion      s      p      d    tot
    1  0.000  0.000  0.000  0.001
    2  0.000  0.000  0.000  0.001
    3  0.000  0.000  0.000  0.000
    4  0.000  0.000  0.000  0.000
    5  0.072  0.000  0.000  0.072
    6  0.072  0.000  0.000  0.072
    7  0.063  0.000  0.000  0.063
    8  0.063  0.000  0.000  0.063
    9  0.125  0.003  0.000  0.128
   10  0.125  0.003  0.000  0.128
   11  0.022  0.000  0.000  0.022
   12  0.022  0.000  0.000  0.022
   13  0.009  0.000  0.000  0.009
   14  0.009  0.000  0.000  0.009
   15  0.064  0.002  0.000  0.066
   16  0.064  0.002  0.000  0.066
   17  0.030  0.001  0.000  0.031
   18  0.030  0.001  0.000  0.031
   19  0.012  0.002  0.000  0.014
   20  0.012  0.002  0.000  0.014
   21  0.001  0.001  0.000  0.002
   22  0.001  0.001  0.000  0.002
   23  0.004  0.001  0.000  0.006
   24  0.004  0.001  0.000  0.006
   25  0.004  0.003  0.000  0.007
   26  0.004  0.003  0.000  0.007
tot    0.810  0.029  0.002  0.842
 
band    19 # energy   -6.42463422 # occ.  2.00000000
 
ion      s      p      d    tot
    1  0.000  0.000  0.000  0.000
    2  0.000  0.000  0.000  0.000
    3  0.000  0.000  0.000  0.001
    4  0.000  0.000  0.000  0.001
    5  0.053  0.002  0.000  0.054
    6  0.053  0.002  0.000  0.054
    7  0.073  0.000  0.000  0.073
    8  0.073  0.000  0.000  0.073
    9  0.114  0.003  0.000  0.117
   10  0.114  0.003  0.000  0.117
   11  0.017  0.000  0.000  0.017
   12  0.017  0.000  0.000  0.017
   13  0.001  0.000  0.000  0.001
   14  0.001  0.000  0.000  0.001
   15  0.055  0.002  0.000  0.057
   16  0.055  0.002  0.000  0.057
   17  0.025  0.001  0.000  0.026
   18  0.025  0.001  0.000  0.026
   19  0.033  0.001  0.000  0.034
   20  0.033  0.001  0.000  0.034
   21  0.013  0.001  0.000  0.014
   22  0.013  0.001  0.000  0.014
   23  0.011  0.003  0.000  0.014
   24  0.011  0.003  0.000  0.014
   25  0.000  0.005  0.000  0.005
   26  0.000  0.005  0.000  0.005
tot    0.792  0.037  0.001  0.830
 
band    20 # energy   -6.11547875 # occ.  2.00000000
 
ion      s      p      d    tot
    1  0.000  0.000  0.000  0.001
    2  0.000  0.000  0.000  0.001
    3  0.000  0.000  0.000  0.000
    4  0.000  0.000  0.000  0.000
    5  0.034  0.000  0.000  0.034
    6  0.034  0.000  0.000  0.034
    7  0.024  0.001  0.000  0.025
    8  0.024  0.001  0.000  0.025
    9  0.017  0.001  0.000  0.018
   10  0.017  0.001  0.000  0.018
   11  0.182  0.000  0.000  0.182
   12  0.182  0.000  0.000  0.182
   13  0.064  0.004  0.000  0.068
   14  0.064  0.004  0.000  0.068
   15  0.006  0.000  0.000  0.007
   16  0.006  0.000  0.000  0.007
   17  0.001  0.001  0.000  0.001
   18  0.001  0.001  0.000  0.001
   19  0.013  0.000  0.000  0.014
   20  0.013  0.000  0.000  0.014
   21  0.047  0.003  0.000  0.050
   22  0.047  0.003  0.000  0.050
   23  0.017  0.002  0.000  0.019
   24  0.017  0.002  0.000  0.019
   25  0.009  0.001  0.000  0.009
   26  0.009  0.001  0.000  0.009
tot    0.829  0.028  0.001  0.857
 
band    21 # energy   -5.89985337 # occ.  2.00000000
 
ion      s      p      d    tot
    1  0.000  0.000  0.000  0.000
    2  0.000  0.000  0.000  0.000
    3  0.000  0.000  0.000  0.000
    4  0.000  0.000  0.000  0.000
    5  0.009  0.001  0.000  0.011
    6  0.009  0.001  0.000  0.011
    7  0.105  0.000  0.000  0.105
    8  0.105  0.000  0.000  0.105
    9  0.128  0.001  0.000  0.129
   10  0.128  0.001  0.000  0.129
   11  0.025  0.001  0.000  0.026
   12  0.025  0.001  0.000  0.026
   13  0.000  0.001  0.000  0.001
   14  0.000  0.001  0.000  0.001
   15  0.044  0.002  0.000  0.046
   16  0.044  0.002  0.000  0.046
   17  0.018  0.001  0.000  0.020
   18  0.018  0.001  0.000  0.020
   19  0.001  0.002  0.000  0.002
   20  0.001  0.002  0.000  0.002
   21  0.016  0.001  0.000  0.017
   22  0.016  0.001  0.000  0.017
   23  0.048  0.001  0.000  0.050
   24  0.048  0.001  0.000  0.050
   25  0.025  0.001  0.000  0.027
   26  0.025  0.001  0.000  0.027
tot    0.841  0.026  0.001  0.868
 
band    22 # energy   -5.46759801 # occ.  2.00000000
 
ion      s      p      d    tot
    1  0.000  0.000  0.000  0.000
    2  0.000  0.000  0.000  0.000
    3  0.000  0.000  0.000  0.000
    4  0.000  0.000  0.000  0.000
    5  0.105  0.000  0.000  0.105
    6  0.105  0.000  0.000  0.105
    7  0.051  0.000  0.000  0.052
    8  0.051  0.000  0.000  0.052
    9  0.092  0.000  0.000  0.092
   10  0.092  0.000  0.000  0.092
   11  0.014  0.000  0.000  0.014
   12  0.014  0.000  0.000  0.014
   13  0.004  0.001  0.000  0.004
   14  0.004  0.001  0.000  0.004
   15  0.025  0.002  0.000  0.027
   16  0.025  0.002  0.000  0.027
   17  0.019  0.002  0.000  0.021
   18  0.019  0.002  0.000  0.021
   19  0.035  0.002  0.000  0.037
   20  0.035  0.002  0.000  0.037
   21  0.008  0.001  0.000  0.008
   22  0.008  0.001  0.000  0.008
   23  0.021  0.001  0.000  0.022
   24  0.021  0.001  0.000  0.022
   25  0.058  0.000  0.000  0.058
   26  0.058  0.000  0.000  0.058
tot    0.863  0.019  0.001  0.883
 
band    23 # energy   -1.71457288 # occ.  2.00000000
 
ion      s      p      d    tot
    1  0.000  0.000  0.000  0.000
    2  0.000  0.000  0.000  0.000
    3  0.000  0.001  0.000  0.001
    4  0.000  0.001  0.000  0.001
    5  0.000  0.037  0.000  0.037
    6  0.000  0.037  0.000  0.037
    7  0.000  0.040  0.000  0.040
    8  0.000  0.040  0.000  0.040
    9  0.000  0.021  0.000  0.021
   10  0.000  0.021  0.000  0.021
   11  0.000  0.031  0.000  0.031
   12  0.000  0.031  0.000  0.031
   13  0.001  0.013  0.000  0.014
   14  0.001  0.013  0.000  0.014
   15  0.000  0.001  0.000  0.001
   16  0.000  0.001  0.000  0.001
   17  0.002  0.015  0.000  0.017
   18  0.002  0.015  0.000  0.017
   19  0.000  0.012  0.000  0.013
   20  0.000  0.012  0.000  0.013
   21  0.001  0.015  0.000  0.017
   22  0.001  0.015  0.000  0.017
   23  0.000  0.028  0.000  0.028
   24  0.000  0.028  0.000  0.028
   25  0.000  0.038  0.000  0.038
   26  0.000  0.038  0.000  0.038
tot    0.010  0.503  0.002  0.516
 
band    24 # energy   -1.10407278 # occ.  2.00000000
 
ion      s      p      d    tot
    1  0.001  0.000  0.000  0.001
    2  0.001  0.000  0.000  0.001
    3  0.001  0.000  0.000  0.001
    4  0.001  0.000  0.000  0.001
    5  0.000  0.008  0.001  0.009
    6  0.000  0.008  0.001  0.009
    7  0.000  0.040  0.001  0.041
    8  0.000  0.040  0.001  0.041
    9  0.000  0.043  0.000  0.044
   10  0.000  0.043  0.000  0.044
   11  0.001  0.029  0.001  0.031
   12  0.001  0.029  0.001  0.031
   13  0.001  0.007  0.000  0.008
   14  0.001  0.007  0.000  0.008
   15  0.000  0.007  0.000  0.007
   16  0.000  0.007  0.000  0.007
   17  0.000  0.004  0.000  0.004
   18  0.000  0.004  0.000  0.004
   19  0.000  0.023  0.000  0.023
   20  0.000  0.023  0.000  0.023
   21  0.001  0.023  0.000  0.025
   22  0.001  0.023  0.000  0.025
   23  0.000  0.048  0.000  0.048
   24  0.000  0.048  0.000  0.048
   25  0.001  0.021  0.000  0.022
   26  0.001  0.021  0.000  0.022
tot    0.014  0.507  0.008  0.529
 
band    25 # energy   -0.83850083 # occ.  2.00000000
 
ion      s      p      d    tot
    1  0.001  0.001  0.000  0.002
    2  0.001  0.001  0.000  0.002
    3  0.000  0.000  0.000  0.001
    4  0.000  0.000  0.000  0.001
    5  0.000  0.038  0.000  0.038
    6  0.000  0.038  0.000  0.038
    7  0.001  0.004  0.002  0.007
    8  0.001  0.004  0.002  0.007
    9  0.002  0.005  0.000  0.007
   10  0.002  0.005  0.000  0.007
   11  0.000  0.073  0.001  0.074
   12  0.000  0.073  0.001  0.074
   13  0.001  0.055  0.000  0.057
   14  0.001  0.055  0.000  0.057
   15  0.000  0.001  0.000  0.001
   16  0.000  0.001  0.000  0.001
   17  0.001  0.018  0.000  0.019
   18  0.001  0.018  0.000  0.019
   19  0.000  0.005  0.000  0.005
   20  0.000  0.005  0.000  0.005
   21  0.000  0.004  0.000  0.005
   22  0.000  0.004  0.000  0.005
   23  0.003  0.025  0.000  0.028
   24  0.003  0.025  0.000  0.028
   25  0.001  0.026  0.000  0.027
   26  0.001  0.026  0.000  0.027
tot    0.021  0.510  0.009  0.541
 
band    26 # energy   -0.43421420 # occ.  2.00000000
 
ion      s      p      d    tot
    1  0.000  0.000  0.000  0.001
    2  0.000  0.000  0.000  0.001
    3  0.003  0.002  0.000  0.004
    4  0.003  0.002  0.000  0.004
    5  0.001  0.036  0.002  0.039
    6  0.001  0.036  0.002  0.039
    7  0.001  0.036  0.000  0.037
    8  0.001  0.036  0.000  0.037
    9  0.003  0.017  0.001  0.021
   10  0.003  0.017  0.001  0.021
   11  0.000  0.010  0.001  0.011
   12  0.000  0.010  0.001  0.011
   13  0.001  0.001  0.000  0.002
   14  0.001  0.001  0.000  0.002
   15  0.001  0.008  0.000  0.008
   16  0.001  0.008  0.000  0.008
   17  0.001  0.051  0.000  0.052
   18  0.001  0.051  0.000  0.052
   19  0.000  0.032  0.000  0.032
   20  0.000  0.032  0.000  0.032
   21  0.001  0.030  0.000  0.031
   22  0.001  0.030  0.000  0.031
   23  0.001  0.012  0.000  0.013
   24  0.001  0.012  0.000  0.013
   25  0.002  0.009  0.000  0.011
   26  0.002  0.009  0.000  0.011
tot    0.029  0.489  0.009  0.527
 
band    27 # energy   -0.17972066 # occ.  2.00000000
 
ion      s      p      d    tot
    1  0.001  0.001  0.000  0.002
    2  0.001  0.001  0.000  0.002
    3  0.001  0.001  0.000  0.002
    4  0.001  0.001  0.000  0.002
    5  0.000  0.005  0.001  0.006
    6  0.000  0.005  0.001  0.006
    7  0.000  0.014  0.001  0.016
    8  0.000  0.014  0.001  0.016
    9  0.000  0.026  0.000  0.026
   10  0.000  0.026  0.000  0.026
   11  0.000  0.048  0.000  0.049
   12  0.000  0.048  0.000  0.049
   13  0.001  0.044  0.000  0.046
   14  0.001  0.044  0.000  0.046
   15  0.000  0.013  0.000  0.013
   16  0.000  0.013  0.000  0.013
   17  0.001  0.014  0.000  0.015
   18  0.001  0.014  0.000  0.015
   19  0.000  0.025  0.000  0.025
   20  0.000  0.025  0.000  0.025
   21  0.001  0.043  0.000  0.044
   22  0.001  0.043  0.000  0.044
   23  0.000  0.017  0.000  0.017
   24  0.000  0.017  0.000  0.017
   25  0.000  0.001  0.000  0.001
   26  0.000  0.001  0.000  0.001
tot    0.016  0.502  0.007  0.525
 
band    28 # energy   -0.16194035 # occ.  2.00000000
 
ion      s      p      d    tot
    1  0.000  0.000  0.000  0.000
    2  0.000  0.000  0.000  0.000
    3  0.002  0.001  0.000  0.003
    4  0.002  0.001  0.000  0.003
    5  0.000  0.045  0.001  0.046
    6  0.000  0.045  0.001  0.046
    7  0.001  0.028  0.000  0.029
    8  0.001  0.028  0.000  0.029
    9  0.001  0.028  0.001  0.030
   10  0.001  0.028  0.001  0.030
   11  0.000  0.006  0.000  0.007
   12  0.000  0.006  0.000  0.007
   13  0.000  0.003  0.000  0.003
   14  0.000  0.003  0.000  0.003
   15  0.002  0.009  0.000  0.010
   16  0.002  0.009  0.000  0.010
   17  0.001  0.027  0.000  0.028
   18  0.001  0.027  0.000  0.028
   19  0.002  0.033  0.000  0.036
   20  0.002  0.033  0.000  0.036
   21  0.001  0.018  0.000  0.018
   22  0.001  0.018  0.000  0.018
   23  0.003  0.009  0.000  0.012
   24  0.003  0.009  0.000  0.012
   25  0.001  0.052  0.000  0.053
   26  0.001  0.052  0.000  0.053
tot    0.027  0.518  0.007  0.552
 
band    29 # energy    0.14339707 # occ.  2.00000000
 
ion      s      p      d    tot
    1  0.000  0.001  0.000  0.001
    2  0.000  0.001  0.000  0.001
    3  0.002  0.001  0.000  0.003
    4  0.002  0.001  0.000  0.003
    5  0.001  0.023  0.001  0.025
    6  0.001  0.023  0.001  0.025
    7  0.001  0.021  0.000  0.023
    8  0.001  0.021  0.000  0.023
    9  0.001  0.035  0.000  0.037
   10  0.001  0.035  0.000  0.037
   11  0.000  0.013  0.001  0.015
   12  0.000  0.013  0.001  0.015
   13  0.000  0.010  0.000  0.011
   14  0.000  0.010  0.000  0.011
   15  0.001  0.013  0.000  0.015
   16  0.001  0.013  0.000  0.015
   17  0.002  0.014  0.000  0.016
   18  0.002  0.014  0.000  0.016
   19  0.002  0.035  0.000  0.037
   20  0.002  0.035  0.000  0.037
   21  0.000  0.034  0.000  0.034
   22  0.000  0.034  0.000  0.034
   23  0.001  0.016  0.000  0.017
   24  0.001  0.016  0.000  0.017
   25  0.000  0.039  0.000  0.039
   26  0.000  0.039  0.000  0.039
tot    0.025  0.513  0.008  0.546
 
band    30 # energy    0.24061380 # occ.  2.00000000
 
ion      s      p      d    tot
    1  0.003  0.001  0.000  0.004
    2  0.003  0.001  0.000  0.004
    3  0.002  0.000  0.000  0.002
    4  0.002  0.000  0.000  0.002
    5  0.000  0.012  0.000  0.013
    6  0.000  0.012  0.000  0.013
    7  0.000  0.014  0.001  0.014
    8  0.000  0.014  0.001  0.014
    9  0.000  0.026  0.001  0.027
   10  0.000  0.026  0.001  0.027
   11  0.003  0.030  0.001  0.034
   12  0.003  0.030  0.001  0.034
   13  0.000  0.033  0.000  0.034
   14  0.000  0.033  0.000  0.034
   15  0.000  0.031  0.000  0.031
   16  0.000  0.031  0.000  0.031