<?xml version="1.0" encoding="ISO-8859-1"?>
<modeling>
 <generator>
  <i name="program" type="string">vasp </i>
  <i name="version" type="string">5.4.4.18Apr17-6-g9f103f2a35  </i>
  <i name="subversion" type="string">(build Oct 27 2022 13:04:57) complex            parallel </i>
  <i name="platform" type="string">LinuxIFC </i>
  <i name="date" type="string">2024 07 04 </i>
  <i name="time" type="string">02:33:44 </i>
 </generator>
 <incar>
  <i type="string" name="SYSTEM"> CIS</i>
  <i type="int" name="ISTART">     0</i>
  <i type="string" name="PREC">medium</i>
  <i type="int" name="ICHARG">     2</i>
  <i type="int" name="IBRION">     2</i>
  <i name="EDIFF">      0.00010000</i>
  <i name="EDIFFG">     -0.05000000</i>
  <i type="int" name="NSW">    99</i>
  <i type="int" name="ISIF">     3</i>
  <i name="ENCUT">    300.00000000</i>
  <i name="POTIM">      0.10000000</i>
  <i type="string" name="LREAL"> Auto</i>
  <i type="int" name="ISMEAR">     0</i>
  <i name="SIGMA">      0.05000000</i>
  <i type="int" name="LMAXMIX">     4</i>
  <i type="logical" name="LWAVE"> F  </i>
  <i type="logical" name="LCHARG"> F  </i>
  <i type="int" name="LORBIT">    10</i>
  <i type="logical" name="LASPH"> T  </i>
  <v type="int" name="KPOINT_BSE">    -1     0     0     0</v>
  <i type="logical" name="LASPH"> T  </i>
 </incar>
 <structure name="primitive_cell" >
  <crystal>
   <varray name="basis" >
    <v>       4.24401182       0.00000000       0.00000000 </v>
    <v>       0.00000000      13.41340877       0.04087212 </v>
    <v>       0.00000000       1.22959264      15.51089389 </v>
   </varray>
   <i name="volume">    882.77017871 </i>
   <varray name="rec_basis" >
    <v>       0.23562611       0.00000000       0.00000000 </v>
    <v>       0.00000000       0.07457028      -0.00591140 </v>
    <v>       0.00000000      -0.00019650       0.06448639 </v>
   </varray>
  </crystal>
  <varray name="positions" >
   <v>       0.25000000      -0.43150721      -0.18790996 </v>
   <v>       0.25000000      -0.40186188       0.03793755 </v>
   <v>       0.25000000       0.30839179      -0.24041933 </v>
   <v>      -0.25000000       0.40186188      -0.03793755 </v>
   <v>      -0.25000000      -0.20214494      -0.13713377 </v>
   <v>      -0.25000000      -0.45798711      -0.39320698 </v>
   <v>       0.25000000       0.26853392      -0.05056020 </v>
   <v>       0.25000000       0.39331667      -0.42829721 </v>
   <v>      -0.25000000      -0.17124691      -0.37714522 </v>
   <v>      -0.25000000      -0.26853392       0.05056020 </v>
   <v>       0.25000000      -0.05387657      -0.12022641 </v>
   <v>       0.25000000      -0.24454282       0.45156839 </v>
   <v>      -0.25000000       0.16844394      -0.27488852 </v>
   <v>       0.25000000       0.01433094      -0.29540055 </v>
   <v>      -0.25000000      -0.39331667       0.42829721 </v>
   <v>      -0.25000000       0.43150721       0.18790996 </v>
   <v>       0.25000000      -0.09642318       0.08303846 </v>
   <v>      -0.25000000       0.24454282      -0.45156839 </v>
   <v>      -0.25000000       0.09642318      -0.08303846 </v>
   <v>       0.25000000       0.20214494       0.13713377 </v>
   <v>       0.25000000       0.45798711       0.39320698 </v>
   <v>      -0.25000000      -0.30839179       0.24041933 </v>
   <v>       0.25000000      -0.16844394       0.27488852 </v>
   <v>      -0.25000000       0.05387657       0.12022641 </v>
   <v>       0.25000000       0.17124691       0.37714522 </v>
   <v>      -0.25000000      -0.01433094       0.29540055 </v>
  </varray>
 </structure>
 <varray name="primitive_index" >
  <v type="int" >        1 </v>
  <v type="int" >       15 </v>
  <v type="int" >       24 </v>
  <v type="int" >       16 </v>
  <v type="int" >       19 </v>
  <v type="int" >       14 </v>
  <v type="int" >       10 </v>
  <v type="int" >       12 </v>
  <v type="int" >        3 </v>
  <v type="int" >        9 </v>
  <v type="int" >        5 </v>
  <v type="int" >       21 </v>
  <v type="int" >        8 </v>
  <v type="int" >       18 </v>
  <v type="int" >       11 </v>
  <v type="int" >        2 </v>
  <v type="int" >       25 </v>
  <v type="int" >       22 </v>
  <v type="int" >       26 </v>
  <v type="int" >       20 </v>
  <v type="int" >       13 </v>
  <v type="int" >       23 </v>
  <v type="int" >        7 </v>
  <v type="int" >        6 </v>
  <v type="int" >        4 </v>
  <v type="int" >       17 </v>
 </varray>
 <kpoints>
  <generation param="Monkhorst-Pack">
   <v type="int" name="divisions">       5        2        2 </v>
   <v name="usershift">      0.00000000       0.00000000       0.00000000 </v>
   <v name="genvec1">      0.20000000       0.00000000       0.00000000 </v>
   <v name="genvec2">      0.00000000       0.50000000      -0.00000000 </v>
   <v name="genvec3">      0.00000000      -0.00000000       0.50000000 </v>
   <v name="shift">      0.00000000       0.50000000       0.50000000 </v>
  </generation>
  <varray name="kpointlist" >
   <v>       0.00000000       0.25000000       0.25000000 </v>
   <v>       0.20000000       0.25000000       0.25000000 </v>
   <v>       0.40000000       0.25000000       0.25000000 </v>
   <v>       0.00000000      -0.25000000       0.25000000 </v>
   <v>       0.20000000      -0.25000000       0.25000000 </v>
   <v>       0.40000000      -0.25000000       0.25000000 </v>
  </varray>
  <varray name="weights" >
   <v>       0.10000000 </v>
   <v>       0.20000000 </v>
   <v>       0.20000000 </v>
   <v>       0.10000000 </v>
   <v>       0.20000000 </v>
   <v>       0.20000000 </v>
  </varray>
 </kpoints>
 <parameters>
  <separator name="general" >
   <i type="string" name="SYSTEM">CIS</i>
   <i type="logical" name="LCOMPAT"> F  </i>
  </separator>
  <separator name="electronic" >
   <i type="string" name="PREC">medium</i>
   <i name="ENMAX">    300.00000000</i>
   <i name="ENAUG">    446.84200000</i>
   <i name="EDIFF">      0.00010000</i>
   <i type="int" name="IALGO">    38</i>
   <i type="int" name="IWAVPR">    11</i>
   <i type="int" name="NBANDS">    84</i>
   <i name="NELECT">    128.00000000</i>
   <i type="int" name="TURBO">     0</i>
   <i type="int" name="IRESTART">     0</i>
   <i type="int" name="NREBOOT">     0</i>
   <i type="int" name="NMIN">     0</i>
   <i name="EREF">      0.00000000</i>
   <separator name="electronic smearing" >
    <i type="int" name="ISMEAR">     0</i>
    <i name="SIGMA">      0.05000000</i>
    <i name="KSPACING">      0.50000000</i>
    <i type="logical" name="KGAMMA"> T  </i>
   </separator>
   <separator name="electronic projectors" >
    <i type="logical" name="LREAL"> T  </i>
    <v name="ROPT">     -0.00200000     -0.00200000     -0.00200000</v>
    <i type="int" name="LMAXPAW">  -100</i>
    <i type="int" name="LMAXMIX">     4</i>
    <i type="logical" name="NLSPLINE"> F  </i>
   </separator>
   <separator name="electronic startup" >
    <i type="int" name="ISTART">     0</i>
    <i type="int" name="ICHARG">     2</i>
    <i type="int" name="INIWAV">     1</i>
   </separator>
   <separator name="electronic spin" >
    <i type="int" name="ISPIN">     1</i>
    <i type="logical" name="LNONCOLLINEAR"> F  </i>
    <v name="MAGMOM">      1.00000000      1.00000000      1.00000000      1.00000000      1.00000000      1.00000000      1.00000000      1.00000000      1.00000000      1.00000000      1.00000000      1.00000000      1.00000000      1.00000000      1.00000000      1.00000000      1.00000000      1.00000000      1.00000000      1.00000000
      1.00000000      1.00000000      1.00000000      1.00000000      1.00000000      1.00000000</v>
    <i name="NUPDOWN">     -1.00000000</i>
    <i type="logical" name="LSORBIT"> F  </i>
    <v name="SAXIS">      0.00000000      0.00000000      1.00000000</v>
    <i type="logical" name="LSPIRAL"> F  </i>
    <v name="QSPIRAL">      0.00000000      0.00000000      0.00000000</v>
    <i type="logical" name="LZEROZ"> F  </i>
   </separator>
   <separator name="electronic exchange-correlation" >
    <i type="logical" name="LASPH"> T  </i>
    <i type="logical" name="LMETAGGA"> F  </i>
   </separator>
   <separator name="electronic convergence" >
    <i type="int" name="NELM">    60</i>
    <i type="int" name="NELMDL">    -5</i>
    <i type="int" name="NELMIN">     2</i>
    <i name="ENINI">    300.00000000</i>
    <separator name="electronic convergence detail" >
     <i type="logical" name="LDIAG"> T  </i>
     <i type="logical" name="LSUBROT"> F  </i>
     <i name="WEIMIN">      0.00100000</i>
     <i name="EBREAK">      0.00000030</i>
     <i name="DEPER">      0.30000000</i>
     <i type="int" name="NRMM">     4</i>
     <i name="TIME">      0.40000000</i>
    </separator>
   </separator>
   <separator name="electronic mixer" >
    <i name="AMIX">      0.40000000</i>
    <i name="BMIX">      1.00000000</i>
    <i name="AMIN">      0.10000000</i>
    <i name="AMIX_MAG">      1.60000000</i>
    <i name="BMIX_MAG">      1.00000000</i>
    <separator name="electronic mixer details" >
     <i type="int" name="IMIX">     4</i>
     <i type="logical" name="MIXFIRST"> F  </i>
     <i type="int" name="MAXMIX">   -45</i>
     <i name="WC">    100.00000000</i>
     <i type="int" name="INIMIX">     1</i>
     <i type="int" name="MIXPRE">     1</i>
     <i type="int" name="MREMOVE">     5</i>
    </separator>
   </separator>
   <separator name="electronic dipolcorrection" >
    <i type="logical" name="LDIPOL"> F  </i>
    <i type="logical" name="LMONO"> F  </i>
    <i type="int" name="IDIPOL">     0</i>
    <i name="EPSILON">      1.00000000</i>
    <v name="DIPOL">   -100.00000000   -100.00000000   -100.00000000</v>
    <i name="EFIELD">      0.00000000</i>
   </separator>
  </separator>
  <separator name="grids" >
   <i type="int" name="NGX">    18</i>
   <i type="int" name="NGY">    60</i>
   <i type="int" name="NGZ">    70</i>
   <i type="int" name="NGXF">    30</i>
   <i type="int" name="NGYF">    96</i>
   <i type="int" name="NGZF">   108</i>
   <i type="logical" name="ADDGRID"> F  </i>
  </separator>
  <separator name="ionic" >
   <i type="int" name="NSW">    99</i>
   <i type="int" name="IBRION">     2</i>
   <i type="int" name="MDALGO">     0</i>
   <i type="int" name="ISIF">     3</i>
   <i name="PSTRESS">      0.00000000</i>
   <i name="EDIFFG">     -0.05000000</i>
   <i type="int" name="NFREE">     1</i>
   <i name="POTIM">      0.10000000</i>
   <i name="SMASS">     -3.00000000</i>
   <i name="SCALEE">      1.00000000</i>
  </separator>
  <separator name="ionic md" >
   <i name="TEBEG">      0.00010000</i>
   <i name="TEEND">      0.00010000</i>
   <i type="int" name="NBLOCK">     1</i>
   <i type="int" name="KBLOCK">    99</i>
   <i type="int" name="NPACO">   256</i>
   <i name="APACO">     16.00000000</i>
  </separator>
  <separator name="symmetry" >
   <i type="int" name="ISYM">     2</i>
   <i name="SYMPREC">      0.00001000</i>
  </separator>
  <separator name="dos" >
   <i type="int" name="LORBIT">    10</i>
   <v name="RWIGS">     -1.00000000     -1.00000000     -1.00000000</v>
   <i type="int" name="NEDOS">   301</i>
   <i name="EMIN">     10.00000000</i>
   <i name="EMAX">    -10.00000000</i>
   <i name="EFERMI">      0.00000000</i>
  </separator>
  <separator name="writing" >
   <i type="int" name="NWRITE">     2</i>
   <i type="logical" name="LWAVE"> F  </i>
   <i type="logical" name="LDOWNSAMPLE"> F  </i>
   <i type="logical" name="LCHARG"> F  </i>
   <i type="logical" name="LPARD"> F  </i>
   <i type="logical" name="LVTOT"> F  </i>
   <i type="logical" name="LVHAR"> F  </i>
   <i type="logical" name="LELF"> F  </i>
   <i type="logical" name="LOPTICS"> F  </i>
   <v name="STM">      0.00000000      0.00000000      0.00000000      0.00000000      0.00000000      0.00000000      0.00000000</v>
  </separator>
  <separator name="performance" >
   <i type="int" name="NPAR">    14</i>
   <i type="int" name="NSIM">     4</i>
   <i type="int" name="NBLK">    -1</i>
   <i type="logical" name="LPLANE"> T  </i>
   <i type="logical" name="LSCALAPACK"> T  </i>
   <i type="logical" name="LSCAAWARE"> F  </i>
   <i type="logical" name="LSCALU"> F  </i>
   <i type="logical" name="LASYNC"> F  </i>
   <i type="logical" name="LORBITALREAL"> F  </i>
  </separator>
  <separator name="miscellaneous" >
   <i type="int" name="IDIOT">     3</i>
   <i type="int" name="ISPECIAL">     0</i>
   <i type="logical" name="LMUSIC"> F  </i>
   <v name="POMASS">      7.01000000    208.98000000     78.96000000</v>
   <v name="DARWINR">      0.00000000      0.00000000      0.00000000</v>
   <v name="DARWINV">      1.00000000      1.00000000      1.00000000</v>
   <i type="logical" name="LCORR"> T  </i>
  </separator>
  <i type="logical" name="GGA_COMPAT"> T  </i>
  <i type="logical" name="LBERRY"> F  </i>
  <i type="int" name="ICORELEVEL">     0</i>
  <i type="logical" name="LDAU"> F  </i>
  <i type="int" name="I_CONSTRAINED_M">     0</i>
  <separator name="electronic exchange-correlation" >
   <i type="string" name="GGA">--</i>
   <i type="int" name="VOSKOWN">     0</i>
   <i type="logical" name="LHFCALC"> F  </i>
   <i type="string" name="PRECFOCK"></i>
   <i type="logical" name="LSYMGRAD"> F  </i>
   <i type="logical" name="LHFONE"> F  </i>
   <i type="logical" name="LRHFCALC"> F  </i>
   <i type="logical" name="LTHOMAS"> F  </i>
   <i type="logical" name="LMODELHF"> F  </i>
   <i name="ENCUT4O">     -1.00000000</i>
   <i type="int" name="EXXOEP">     0</i>
   <i type="int" name="FOURORBIT">     0</i>
   <i name="AEXX">      0.00000000</i>
   <i name="HFALPHA">      0.00000000</i>
   <i name="MCALPHA">      0.00000000</i>
   <i name="ALDAX">      1.00000000</i>
   <i name="AGGAX">      1.00000000</i>
   <i name="ALDAC">      1.00000000</i>
   <i name="AGGAC">      1.00000000</i>
   <i type="int" name="NKREDX">     1</i>
   <i type="int" name="NKREDY">     1</i>
   <i type="int" name="NKREDZ">     1</i>
   <i type="logical" name="SHIFTRED"> F  </i>
   <i type="logical" name="ODDONLY"> F  </i>
   <i type="logical" name="EVENONLY"> F  </i>
   <i type="int" name="LMAXFOCK">     0</i>
   <i type="int" name="NMAXFOCKAE">     0</i>
   <i type="logical" name="LFOCKAEDFT"> F  </i>
   <i name="HFSCREEN">      0.00000000</i>
   <i name="HFSCREENC">      0.00000000</i>
   <i type="int" name="NBANDSGWLOW">     0</i>
  </separator>
  <separator name="vdW DFT" >
   <i type="logical" name="LUSE_VDW"> F  </i>
   <i name="Zab_VDW">     -0.84910000</i>
   <i name="PARAM1">      0.12340000</i>
   <i name="PARAM2">      1.00000000</i>
   <i name="PARAM3">      0.00000000</i>
  </separator>
  <separator name="model GW" >
   <i type="int" name="MODEL_GW">     0</i>
   <i name="MODEL_EPS0">     20.37161951</i>
   <i name="MODEL_ALPHA">      1.00000000</i>
  </separator>
  <separator name="linear response parameters" >
   <i type="logical" name="LEPSILON"> F  </i>
   <i type="logical" name="LRPA"> F  </i>
   <i type="logical" name="LNABLA"> F  </i>
   <i type="logical" name="LVEL"> F  </i>
   <i type="int" name="KINTER">     0</i>
   <i name="CSHIFT">      0.10000000</i>
   <i name="OMEGAMAX">     -1.00000000</i>
   <i name="DEG_THRESHOLD">      0.00200000</i>
   <i name="RTIME">     -0.10000000</i>
   <i name="WPLASMAI">      0.00000000</i>
   <v name="DFIELD">      0.00000000      0.00000000      0.00000000</v>
   <v name="WPLASMA">      0.00000000      0.00000000      0.00000000      0.00000000      0.00000000      0.00000000      0.00000000      0.00000000      0.00000000</v>
  </separator>
  <separator name="orbital magnetization" >
   <i type="logical" name="NUCIND"> F  </i>
   <v name="MAGPOS">      0.00000000      0.00000000      0.00000000</v>
   <i type="logical" name="LNICSALL"> T  </i>
   <i type="logical" name="ORBITALMAG"> F  </i>
   <i type="logical" name="LMAGBLOCH"> F  </i>
   <i type="logical" name="LCHIMAG"> F  </i>
   <i type="logical" name="LGAUGE"> T  </i>
   <i type="int" name="MAGATOM">     0</i>
   <v name="MAGDIPOL">      0.00000000      0.00000000      0.00000000</v>
   <v name="AVECCONST">      0.00000000      0.00000000      0.00000000</v>
  </separator>
  <separator name="response functions" >
   <i type="logical" name="LADDER"> F  </i>
   <i type="logical" name="LRPAFORCE"> F  </i>
   <i type="logical" name="LFXC"> F  </i>
   <i type="logical" name="LHARTREE"> T  </i>
   <i type="int" name="IBSE">     0</i>
   <v type="int" name="KPOINT">    -1     0     0     0</v>
   <i type="logical" name="LTCTE"> F  </i>
   <i type="logical" name="LTETE"> F  </i>
   <i type="logical" name="LTRIPLET"> F  </i>
   <i type="logical" name="LFXCEPS"> F  </i>
   <i type="logical" name="LFXHEG"> F  </i>
   <i type="int" name="NATURALO">     2</i>
   <i type="logical" name="L2ORDER"> F  </i>
   <i type="logical" name="LMP2LT"> F  </i>
   <i type="logical" name="LUSEW"> F  </i>
   <i name="ENCUTGW">     -2.00000000</i>
   <i name="ENCUTGWSOFT">     -2.00000000</i>
   <i name="ENCUTLF">     -1.00000000</i>
   <i type="int" name="LMAXMP2">    -1</i>
   <i name="SCISSOR">      0.00000000</i>
   <i type="int" name="NOMEGA">     0</i>
   <i type="int" name="NOMEGAR">     0</i>
   <i type="int" name="NBANDSGW">    -1</i>
   <i type="int" name="NBANDSO">    -1</i>
   <i type="int" name="NBANDSV">    -1</i>
   <i type="int" name="NELM">     1</i>
   <i type="int" name="NELMHF">     1</i>
   <i type="int" name="DIM">     3</i>
   <i type="int" name="ANTIRES">     0</i>
   <i name="OMEGAMAX">    -30.00000000</i>
   <i name="OMEGAMIN">    -30.00000000</i>
   <i name="OMEGATL">   -200.00000000</i>
   <i type="int" name="OMEGAGRID">   140</i>
   <i name="CSHIFT">     -0.10000000</i>
   <i type="logical" name="SELFENERGY"> F  </i>
   <i type="logical" name="LSPECTRAL"> F  </i>
   <i type="logical" name="LSPECTRALGW"> F  </i>
   <i type="logical" name="LSINGLES"> F  </i>
   <i type="logical" name="LFERMIGW"> F  </i>
   <i type="logical" name="ODDONLYGW"> F  </i>
   <i type="logical" name="EVENONLYGW"> F  </i>
   <i type="int" name="NKREDLFX">     1</i>
   <i type="int" name="NKREDLFY">     1</i>
   <i type="int" name="NKREDLFZ">     1</i>
   <i type="int" name="MAXMEM">  2800</i>
   <i type="int" name="TELESCOPE">     0</i>
   <i type="int" name="TAUPAR">     1</i>
   <i type="int" name="OMEGAPAR">    -1</i>
   <i name="LAMBDA">      1.00000000</i>
  </separator>
  <separator name="External order field" >
   <i name="OFIELD_KAPPA">      0.00000000</i>
   <v name="OFIELD_K">      0.00000000      0.00000000      0.00000000</v>
   <i name="OFIELD_Q6_NEAR">      0.00000000</i>
   <i name="OFIELD_Q6_FAR">      0.00000000</i>
   <i name="OFIELD_A">      0.00000000</i>
  </separator>
 </parameters>
 <atominfo>
  <atoms>      26 </atoms>
  <types>       3 </types>
  <array name="atoms" >
   <dimension dim="1">ion</dimension>
   <field type="string">element</field>
   <field type="int">atomtype</field>
   <set>
    <rc><c>Li</c><c>   1</c></rc>
    <rc><c>Li</c><c>   1</c></rc>
    <rc><c>Li</c><c>   1</c></rc>
    <rc><c>Li</c><c>   1</c></rc>
    <rc><c>Bi</c><c>   2</c></rc>
    <rc><c>Bi</c><c>   2</c></rc>
    <rc><c>Bi</c><c>   2</c></rc>
    <rc><c>Bi</c><c>   2</c></rc>
    <rc><c>Bi</c><c>   2</c></rc>
    <rc><c>Bi</c><c>   2</c></rc>
    <rc><c>Bi</c><c>   2</c></rc>
    <rc><c>Bi</c><c>   2</c></rc>
    <rc><c>Se</c><c>   3</c></rc>
    <rc><c>Se</c><c>   3</c></rc>
    <rc><c>Se</c><c>   3</c></rc>
    <rc><c>Se</c><c>   3</c></rc>
    <rc><c>Se</c><c>   3</c></rc>
    <rc><c>Se</c><c>   3</c></rc>
    <rc><c>Se</c><c>   3</c></rc>
    <rc><c>Se</c><c>   3</c></rc>
    <rc><c>Se</c><c>   3</c></rc>
    <rc><c>Se</c><c>   3</c></rc>
    <rc><c>Se</c><c>   3</c></rc>
    <rc><c>Se</c><c>   3</c></rc>
    <rc><c>Se</c><c>   3</c></rc>
    <rc><c>Se</c><c>   3</c></rc>
   </set>
  </array>
  <array name="atomtypes" >
   <dimension dim="1">type</dimension>
   <field type="int">atomspertype</field>
   <field type="string">element</field>
   <field>mass</field>
   <field>valence</field>
   <field type="string">pseudopotential</field>
   <set>
    <rc><c>   4</c><c>Li</c><c>      7.01000000</c><c>      1.00000000</c><c>  PAW_PBE Li 17Jan2003                  </c></rc>
    <rc><c>   8</c><c>Bi</c><c>    208.98000000</c><c>      5.00000000</c><c>  PAW_PBE Bi 08Apr2002                  </c></rc>
    <rc><c>  14</c><c>Se</c><c>     78.96000000</c><c>      6.00000000</c><c>  PAW_PBE Se 06Sep2000                  </c></rc>
   </set>
  </array>
 </atominfo>
 <structure name="initialpos" >
  <crystal>
   <varray name="basis" >
    <v>       4.24401182       0.00000000       0.00000000 </v>
    <v>       0.00000000      13.41340877       0.04087212 </v>
    <v>       0.00000000       1.22959264      15.51089389 </v>
   </varray>
   <i name="volume">    882.77017871 </i>
   <varray name="rec_basis" >
    <v>       0.23562611       0.00000000       0.00000000 </v>
    <v>       0.00000000       0.07457028      -0.00591140 </v>
    <v>       0.00000000      -0.00019650       0.06448639 </v>
   </varray>
  </crystal>
  <varray name="positions" >
   <v>       0.25000000       0.56849279       0.81209004 </v>
   <v>       0.75000000       0.43150721       0.18790996 </v>
   <v>       0.75000000       0.82875309       0.62285478 </v>
   <v>       0.25000000       0.17124691       0.37714522 </v>
   <v>       0.25000000       0.94612343       0.87977359 </v>
   <v>       0.75000000       0.05387657       0.12022641 </v>
   <v>       0.25000000       0.83155606       0.27488852 </v>
   <v>       0.75000000       0.16844394       0.72511148 </v>
   <v>       0.75000000       0.73146608       0.05056020 </v>
   <v>       0.25000000       0.26853392       0.94943980 </v>
   <v>       0.75000000       0.60668333       0.42829721 </v>
   <v>       0.25000000       0.39331667       0.57170279 </v>
   <v>       0.25000000       0.45798711       0.39320698 </v>
   <v>       0.75000000       0.54201289       0.60679302 </v>
   <v>       0.25000000       0.59813812       0.03793755 </v>
   <v>       0.75000000       0.40186188       0.96206245 </v>
   <v>       0.75000000       0.98566906       0.29540055 </v>
   <v>       0.25000000       0.01433094       0.70459945 </v>
   <v>       0.75000000       0.79785506       0.86286623 </v>
   <v>       0.25000000       0.20214494       0.13713377 </v>
   <v>       0.25000000       0.75545718       0.45156839 </v>
   <v>       0.75000000       0.24454282       0.54843161 </v>
   <v>       0.75000000       0.69160821       0.24041933 </v>
   <v>       0.25000000       0.30839179       0.75958067 </v>
   <v>       0.25000000       0.90357682       0.08303846 </v>
   <v>       0.75000000       0.09642318       0.91696154 </v>
  </varray>
 </structure>
 <calculation>
  <scstep>
   <time name="dav">    0.90    0.91</time>
   <time name="total">    1.29    1.29</time>
   <energy>
    <i name="alphaZ">    133.41790639 </i>
    <i name="ewald">  -3311.06114051 </i>
    <i name="hartreedc">  -1503.87128078 </i>
    <i name="XCdc">   -910.27527871 </i>
    <i name="pawpsdc">   4775.59959367 </i>
    <i name="pawaedc">  -3625.09483459 </i>
    <i name="eentropy">     -0.00196987 </i>
    <i name="bandstr">    156.76032409 </i>
    <i name="atom">   4827.44859523 </i>
    <i name="e_fr_energy">    542.92191493 </i>
    <i name="e_wo_entrp">    542.92388480 </i>
    <i name="e_0_energy">    542.92289986 </i>
   </energy>
  </scstep>
  <scstep>
   <time name="dav">    0.88    0.89</time>
   <time name="total">    0.88    0.89</time>
   <energy>
    <i name="e_fr_energy">    -36.48200630 </i>
    <i name="e_wo_entrp">    -36.48200630 </i>
    <i name="e_0_energy">    -36.48200630 </i>
   </energy>
  </scstep>
  <scstep>
   <time name="dav">    0.98    0.98</time>
   <time name="total">    0.98    0.98</time>
   <energy>
    <i name="e_fr_energy">   -101.33668074 </i>
    <i name="e_wo_entrp">   -101.33668074 </i>
    <i name="e_0_energy">   -101.33668074 </i>
   </energy>
  </scstep>
  <scstep>
   <time name="dav">    1.45    1.47</time>
   <time name="total">    1.45    1.47</time>
   <energy>
    <i name="e_fr_energy">   -103.51556614 </i>
    <i name="e_wo_entrp">   -103.51556614 </i>
    <i name="e_0_energy">   -103.51556614 </i>
   </energy>
  </scstep>
  <scstep>
   <time name="dav">    1.07    1.08</time>
   <time name="total">    1.12    1.13</time>
   <energy>
    <i name="e_fr_energy">   -103.54145125 </i>
    <i name="e_wo_entrp">   -103.54145125 </i>
    <i name="e_0_energy">   -103.54145125 </i>
   </energy>
  </scstep>
  <scstep>
   <time name="dav">    1.08    1.08</time>
   <time name="total">    1.39    1.39</time>
   <energy>
    <i name="e_fr_energy">    -98.59694661 </i>
    <i name="e_wo_entrp">    -98.59694661 </i>
    <i name="e_0_energy">    -98.59694661 </i>
   </energy>
  </scstep>
  <scstep>
   <time name="dav">    0.87    0.88</time>
   <time name="total">    1.17    1.17</time>
   <energy>
    <i name="e_fr_energy">    -98.42152218 </i>
    <i name="e_wo_entrp">    -98.42152218 </i>
    <i name="e_0_energy">    -98.42152218 </i>
   </energy>
  </scstep>
  <scstep>
   <time name="dav">    1.23    1.23</time>
   <time name="total">    1.51    1.52</time>
   <energy>
    <i name="e_fr_energy">    -98.39797588 </i>
    <i name="e_wo_entrp">    -98.39797588 </i>
    <i name="e_0_energy">    -98.39797588 </i>
   </energy>
  </scstep>
  <scstep>
   <time name="dav">    1.09    1.10</time>
   <time name="total">    1.39    1.40</time>
   <energy>
    <i name="e_fr_energy">    -98.40070341 </i>
    <i name="e_wo_entrp">    -98.40070341 </i>
    <i name="e_0_energy">    -98.40070341 </i>
   </energy>
  </scstep>
  <scstep>
   <time name="dav">    1.14    1.14</time>
   <time name="total">    1.44    1.44</time>
   <energy>
    <i name="e_fr_energy">    -98.40514000 </i>
    <i name="e_wo_entrp">    -98.40514000 </i>
    <i name="e_0_energy">    -98.40514000 </i>
   </energy>
  </scstep>
  <scstep>
   <time name="dav">    1.01    1.02</time>
   <time name="total">    1.31    1.31</time>
   <energy>
    <i name="e_fr_energy">    -98.40792774 </i>
    <i name="e_wo_entrp">    -98.40792774 </i>
    <i name="e_0_energy">    -98.40792774 </i>
   </energy>
  </scstep>
  <scstep>
   <time name="dav">    0.98    0.98</time>
   <time name="total">    1.27    1.27</time>
   <energy>
    <i name="e_fr_energy">    -98.41011950 </i>
    <i name="e_wo_entrp">    -98.41011950 </i>
    <i name="e_0_energy">    -98.41011950 </i>
   </energy>
  </scstep>
  <scstep>
   <time name="dav">    1.10    1.11</time>
   <time name="total">    1.39    1.40</time>
   <energy>
    <i name="e_fr_energy">    -98.41043216 </i>
    <i name="e_wo_entrp">    -98.41043216 </i>
    <i name="e_0_energy">    -98.41043216 </i>
   </energy>
  </scstep>
  <scstep>
   <time name="dav">    0.91    0.91</time>
   <time name="total">    1.20    1.20</time>
   <energy>
    <i name="e_fr_energy">    -98.41058729 </i>
    <i name="e_wo_entrp">    -98.41058729 </i>
    <i name="e_0_energy">    -98.41058729 </i>
   </energy>
  </scstep>
  <scstep>
   <time name="dav">    0.74    0.74</time>
   <time name="total">    0.99    1.00</time>
   <energy>
    <i name="alphaZ">    133.41790639 </i>
    <i name="ewald">  -3311.06114051 </i>
    <i name="hartreedc">  -1581.38916934 </i>
    <i name="XCdc">   -904.17704476 </i>
    <i name="pawpsdc">   6430.94892650 </i>
    <i name="pawaedc">  -5281.43379017 </i>
    <i name="eentropy">     -0.00000000 </i>
    <i name="bandstr">   -412.16490568 </i>
    <i name="atom">   4827.44859523 </i>
    <i name="e_fr_energy">    -98.41062233 </i>
    <i name="e_wo_entrp">    -98.41062233 </i>
    <i name="e_0_energy">    -98.41062233 </i>
   </energy>
  </scstep>
  <structure>
   <crystal>
    <varray name="basis" >
     <v>       4.24401182       0.00000000       0.00000000 </v>
     <v>       0.00000000      13.41340877       0.04087212 </v>
     <v>       0.00000000       1.22959264      15.51089389 </v>
    </varray>
    <i name="volume">    882.77017871 </i>
    <varray name="rec_basis" >
     <v>       0.23562611       0.00000000       0.00000000 </v>
     <v>       0.00000000       0.07457028      -0.00591140 </v>
     <v>       0.00000000      -0.00019650       0.06448639 </v>
    </varray>
   </crystal>
   <varray name="positions" >
    <v>       0.25000000       0.56849279       0.81209004 </v>
    <v>       0.75000000       0.43150721       0.18790996 </v>
    <v>       0.75000000       0.82875309       0.62285478 </v>
    <v>       0.25000000       0.17124691       0.37714522 </v>
    <v>       0.25000000       0.94612343       0.87977359 </v>
    <v>       0.75000000       0.05387657       0.12022641 </v>
    <v>       0.25000000       0.83155606       0.27488852 </v>
    <v>       0.75000000       0.16844394       0.72511148 </v>
    <v>       0.75000000       0.73146608       0.05056020 </v>
    <v>       0.25000000       0.26853392       0.94943980 </v>
    <v>       0.75000000       0.60668333       0.42829721 </v>
    <v>       0.25000000       0.39331667       0.57170279 </v>
    <v>       0.25000000       0.45798711       0.39320698 </v>
    <v>       0.75000000       0.54201289       0.60679302 </v>
    <v>       0.25000000       0.59813812       0.03793755 </v>
    <v>       0.75000000       0.40186188       0.96206245 </v>
    <v>       0.75000000       0.98566906       0.29540055 </v>
    <v>       0.25000000       0.01433094       0.70459945 </v>
    <v>       0.75000000       0.79785506       0.86286623 </v>
    <v>       0.25000000       0.20214494       0.13713377 </v>
    <v>       0.25000000       0.75545718       0.45156839 </v>
    <v>       0.75000000       0.24454282       0.54843161 </v>
    <v>       0.75000000       0.69160821       0.24041933 </v>
    <v>       0.25000000       0.30839179       0.75958067 </v>
    <v>       0.25000000       0.90357682       0.08303846 </v>
    <v>       0.75000000       0.09642318       0.91696154 </v>
   </varray>
  </structure>
  <varray name="forces" >
   <v>       0.00000000      -0.20746970       0.36381504 </v>
   <v>       0.00000000       0.20746970      -0.36381504 </v>
   <v>       0.00000000       0.13911261      -0.03849651 </v>
   <v>       0.00000000      -0.13911261       0.03849651 </v>
   <v>       0.00000000      -0.03252203      -0.01098500 </v>
   <v>       0.00000000       0.03252203       0.01098500 </v>
   <v>       0.00000000       0.11924986      -0.04556749 </v>
   <v>       0.00000000      -0.11924986       0.04556749 </v>
   <v>       0.00000000       0.10017679      -0.03609114 </v>
   <v>       0.00000000      -0.10017679       0.03609114 </v>
   <v>       0.00000000       0.02435512      -0.02513124 </v>
   <v>       0.00000000      -0.02435512       0.02513124 </v>
   <v>       0.00000000      -0.27628854      -0.39425377 </v>
   <v>       0.00000000       0.27628854       0.39425377 </v>
   <v>       0.00000000      -0.45668711      -0.22586021 </v>
   <v>       0.00000000       0.45668711       0.22586021 </v>
   <v>       0.00000000       0.55384073       0.39062639 </v>
   <v>       0.00000000      -0.55384073      -0.39062639 </v>
   <v>       0.00000000      -0.30588818      -0.31644549 </v>
   <v>       0.00000000       0.30588818       0.31644549 </v>
   <v>       0.00000000       0.23728034       0.63612258 </v>
   <v>       0.00000000      -0.23728034      -0.63612258 </v>
   <v>       0.00000000      -0.36111349      -0.11341992 </v>
   <v>       0.00000000       0.36111349       0.11341992 </v>
   <v>       0.00000000      -0.07144937      -0.04276437 </v>
   <v>       0.00000000       0.07144937       0.04276437 </v>
  </varray>
  <varray name="stress" >
   <v>      -4.37191065       0.00000000       0.00000000 </v>
   <v>       0.00000000      -9.45678221      -7.67841896 </v>
   <v>       0.00000000      -7.67841819     -13.25642634 </v>
  </varray>
  <energy>
   <i name="e_fr_energy">    -98.41062233 </i>
   <i name="e_wo_entrp">    -98.41062233 </i>
   <i name="e_0_energy">     -0.00000000 </i>
  </energy>
  <time name="totalsc">   20.11   20.21</time>
 </calculation>
 <calculation>
  <scstep>
   <time name="dav">    0.92    0.93</time>
   <time name="total">    1.22    1.23</time>
   <energy>
    <i name="alphaZ">    134.15995981 </i>
    <i name="ewald">  -3328.85556487 </i>
    <i name="hartreedc">  -1573.71420445 </i>
    <i name="XCdc">   -904.00187501 </i>
    <i name="pawpsdc">   6431.47388985 </i>
    <i name="pawaedc">  -5281.95848006 </i>
    <i name="eentropy">     -0.00000000 </i>
    <i name="bandstr">   -403.06047102 </i>
    <i name="atom">   4827.44859523 </i>
    <i name="e_fr_energy">    -98.50815052 </i>
    <i name="e_wo_entrp">    -98.50815052 </i>
    <i name="e_0_energy">    -98.50815052 </i>
   </energy>
  </scstep>
  <scstep>
   <time name="dav">    1.09    1.09</time>
   <time name="total">    1.38    1.39</time>
   <energy>
    <i name="e_fr_energy">    -98.49767628 </i>
    <i name="e_wo_entrp">    -98.49767628 </i>
    <i name="e_0_energy">    -98.49767628 </i>
   </energy>
  </scstep>
  <scstep>
   <time name="dav">    0.91    0.91</time>
   <time name="total">    1.20    1.20</time>
   <energy>
    <i name="e_fr_energy">    -98.49403139 </i>
    <i name="e_wo_entrp">    -98.49403139 </i>
    <i name="e_0_energy">    -98.49403139 </i>
   </energy>
  </scstep>
  <scstep>
   <time name="dav">    0.96    0.97</time>
   <time name="total">    1.26    1.27</time>
   <energy>
    <i name="e_fr_energy">    -98.49337872 </i>
    <i name="e_wo_entrp">    -98.49337872 </i>
    <i name="e_0_energy">    -98.49337872 </i>
   </energy>
  </scstep>
  <scstep>
   <time name="dav">    1.05    1.06</time>
   <time name="total">    1.31    1.31</time>
   <energy>
    <i name="alphaZ">    134.15995981 </i>
    <i name="ewald">  -3328.85556487 </i>
    <i name="hartreedc">  -1567.91372833 </i>
    <i name="XCdc">   -904.01638901 </i>
    <i name="pawpsdc">   6447.60933978 </i>
    <i name="pawaedc">  -5298.12858427 </i>
    <i name="eentropy">     -0.00000000 </i>
    <i name="bandstr">   -408.79693748 </i>
    <i name="atom">   4827.44859523 </i>
    <i name="e_fr_energy">    -98.49330914 </i>
    <i name="e_wo_entrp">    -98.49330914 </i>
    <i name="e_0_energy">    -98.49330914 </i>
   </energy>
  </scstep>
  <structure>
   <crystal>
    <varray name="basis" >
     <v>       4.24021803       0.00000000       0.00000000 </v>
     <v>       0.00000000      13.38740833       0.01970243 </v>
     <v>       0.00000000       1.20286315      15.46692097 </v>
    </varray>
    <i name="volume">    877.88748026 </i>
    <varray name="rec_basis" >
     <v>       0.23583693       0.00000000       0.00000000 </v>
     <v>       0.00000000       0.07470561      -0.00580986 </v>
     <v>       0.00000000      -0.00009516       0.06466151 </v>
    </varray>
   </crystal>
   <varray name="positions" >
    <v>       0.25000000       0.56832277       0.81231680 </v>
    <v>       0.75000000       0.43167723       0.18768320 </v>
    <v>       0.75000000       0.82885538       0.62283056 </v>
    <v>       0.25000000       0.17114462       0.37716944 </v>
    <v>       0.25000000       0.94610066       0.87976682 </v>
    <v>       0.75000000       0.05389934       0.12023318 </v>
    <v>       0.25000000       0.83164446       0.27485994 </v>
    <v>       0.75000000       0.16835554       0.72514006 </v>
    <v>       0.75000000       0.73154022       0.05053755 </v>
    <v>       0.25000000       0.26845978       0.94946245 </v>
    <v>       0.75000000       0.60670229       0.42828153 </v>
    <v>       0.25000000       0.39329771       0.57171847 </v>
    <v>       0.25000000       0.45781081       0.39296220 </v>
    <v>       0.75000000       0.54218919       0.60703780 </v>
    <v>       0.25000000       0.59782242       0.03779789 </v>
    <v>       0.75000000       0.40217758       0.96220211 </v>
    <v>       0.75000000       0.98604526       0.29564255 </v>
    <v>       0.25000000       0.01395474       0.70435745 </v>
    <v>       0.75000000       0.79765302       0.86266992 </v>
    <v>       0.25000000       0.20234698       0.13733008 </v>
    <v>       0.25000000       0.75559162       0.45196373 </v>
    <v>       0.75000000       0.24440838       0.54803627 </v>
    <v>       0.75000000       0.69135486       0.24034944 </v>
    <v>       0.25000000       0.30864514       0.75965056 </v>
    <v>       0.25000000       0.90352785       0.08301199 </v>
    <v>       0.75000000       0.09647215       0.91698801 </v>
   </varray>
  </structure>
  <varray name="forces" >
   <v>       0.00000000      -0.20348262       0.36464742 </v>
   <v>       0.00000000       0.20348262      -0.36464742 </v>
   <v>       0.00000000       0.13892540      -0.03950625 </v>
   <v>       0.00000000      -0.13892540       0.03950625 </v>
   <v>       0.00000000      -0.05533942      -0.00411373 </v>
   <v>       0.00000000       0.05533942       0.00411373 </v>
   <v>       0.00000000       0.11363811      -0.02565634 </v>
   <v>       0.00000000      -0.11363811       0.02565634 </v>
   <v>       0.00000000       0.09715178      -0.04748085 </v>
   <v>       0.00000000      -0.09715178       0.04748085 </v>
   <v>       0.00000000       0.02054675      -0.03218056 </v>
   <v>       0.00000000      -0.02054675       0.03218056 </v>
   <v>       0.00000000      -0.27982689      -0.41513864 </v>
   <v>       0.00000000       0.27982689       0.41513864 </v>
   <v>       0.00000000      -0.46259820      -0.25259423 </v>
   <v>       0.00000000       0.46259820       0.25259423 </v>
   <v>       0.00000000       0.58668373       0.45315726 </v>
   <v>       0.00000000      -0.58668373      -0.45315726 </v>
   <v>       0.00000000      -0.33791568      -0.35287450 </v>
   <v>       0.00000000       0.33791568       0.35287450 </v>
   <v>       0.00000000       0.24100435       0.66307805 </v>
   <v>       0.00000000      -0.24100435      -0.66307805 </v>
   <v>       0.00000000      -0.37581949      -0.13169028 </v>
   <v>       0.00000000       0.37581949       0.13169028 </v>
   <v>       0.00000000      -0.04088343      -0.00431512 </v>
   <v>       0.00000000       0.04088343       0.00431512 </v>
  </varray>
  <varray name="stress" >
   <v>      -3.47444844       0.00000000       0.00000000 </v>
   <v>       0.00000000      -8.60760062      -7.82201099 </v>
   <v>       0.00000000      -7.82200951     -11.95880884 </v>
  </varray>
  <energy>
   <i name="e_fr_energy">    -98.49330914 </i>
   <i name="e_wo_entrp">    -98.49330914 </i>
   <i name="e_0_energy">     -0.00000000 </i>
  </energy>
  <time name="totalsc">    7.74    7.77</time>
 </calculation>
 <calculation>
  <scstep>
   <time name="dav">    0.87    0.87</time>
   <time name="total">    1.15    1.16</time>
   <energy>
    <i name="alphaZ">    136.42490987 </i>
    <i name="ewald">  -3382.13219717 </i>
    <i name="hartreedc">  -1544.89953555 </i>
    <i name="XCdc">   -903.49678224 </i>
    <i name="pawpsdc">   6445.88957090 </i>
    <i name="pawaedc">  -5296.40922807 </i>
    <i name="eentropy">     -0.00000000 </i>
    <i name="bandstr">   -381.68149495 </i>
    <i name="atom">   4827.44859523 </i>
    <i name="e_fr_energy">    -98.85616198 </i>
    <i name="e_wo_entrp">    -98.85616198 </i>
    <i name="e_0_energy">    -98.85616198 </i>
   </energy>
  </scstep>
  <scstep>
   <time name="dav">    0.75    0.75</time>
   <time name="total">    1.03    1.03</time>
   <energy>
    <i name="e_fr_energy">    -98.75924164 </i>
    <i name="e_wo_entrp">    -98.75924164 </i>
    <i name="e_0_energy">    -98.75924164 </i>
   </energy>
  </scstep>
  <scstep>
   <time name="dav">    1.12    1.13</time>
   <time name="total">    1.41    1.42</time>
   <energy>
    <i name="e_fr_energy">    -98.72611703 </i>
    <i name="e_wo_entrp">    -98.72611703 </i>
    <i name="e_0_energy">    -98.72611703 </i>
   </energy>
  </scstep>
  <scstep>
   <time name="dav">    1.24    1.25</time>
   <time name="total">    1.54    1.55</time>
   <energy>
    <i name="e_fr_energy">    -98.72054033 </i>
    <i name="e_wo_entrp">    -98.72054033 </i>
    <i name="e_0_energy">    -98.72054033 </i>
   </energy>
  </scstep>
  <scstep>
   <time name="dav">    1.30    1.30</time>
   <time name="total">    1.59    1.59</time>
   <energy>
    <i name="e_fr_energy">    -98.71989480 </i>
    <i name="e_wo_entrp">    -98.71989480 </i>
    <i name="e_0_energy">    -98.71989480 </i>
   </energy>
  </scstep>
  <scstep>
   <time name="dav">    0.69    0.69</time>
   <time name="total">    0.94    0.94</time>
   <energy>
    <i name="alphaZ">    136.42490987 </i>
    <i name="ewald">  -3382.13219717 </i>
    <i name="hartreedc">  -1527.04029181 </i>
    <i name="XCdc">   -903.54198193 </i>
    <i name="pawpsdc">   6486.94472031 </i>
    <i name="pawaedc">  -5337.57117907 </i>
    <i name="eentropy">     -0.00000000 </i>
    <i name="bandstr">   -399.25248982 </i>
    <i name="atom">   4827.44859523 </i>
    <i name="e_fr_energy">    -98.71991439 </i>
    <i name="e_wo_entrp">    -98.71991439 </i>
    <i name="e_0_energy">    -98.71991439 </i>
   </energy>
  </scstep>
  <structure>
   <crystal>
    <varray name="basis" >
     <v>       4.22883668       0.00000000       0.00000000 </v>
     <v>       0.00000000      13.30940703      -0.04380666 </v>
     <v>       0.00000000       1.12267470      15.33500223 </v>
    </varray>
    <i name="volume">    863.31263974 </i>
    <varray name="rec_basis" >
     <v>       0.23647165       0.00000000       0.00000000 </v>
     <v>       0.00000000       0.07511673      -0.00549929 </v>
     <v>       0.00000000       0.00021458       0.06519458 </v>
    </varray>
   </crystal>
   <varray name="positions" >
    <v>       0.25000000       0.56781295       0.81299831 </v>
    <v>       0.75000000       0.43218705       0.18700169 </v>
    <v>       0.75000000       0.82916267       0.62275813 </v>
    <v>       0.25000000       0.17083733       0.37724187 </v>
    <v>       0.25000000       0.94603218       0.87974635 </v>
    <v>       0.75000000       0.05396782       0.12025365 </v>
    <v>       0.25000000       0.83190999       0.27477433 </v>
    <v>       0.75000000       0.16809001       0.72522567 </v>
    <v>       0.75000000       0.73176291       0.05046973 </v>
    <v>       0.25000000       0.26823709       0.94953027 </v>
    <v>       0.75000000       0.60675918       0.42823442 </v>
    <v>       0.25000000       0.39324082       0.57176558 </v>
    <v>       0.25000000       0.45727966       0.39222505 </v>
    <v>       0.75000000       0.54272034       0.60777495 </v>
    <v>       0.25000000       0.59687286       0.03737641 </v>
    <v>       0.75000000       0.40312714       0.96262359 </v>
    <v>       0.75000000       0.98717720       0.29637214 </v>
    <v>       0.25000000       0.01282280       0.70362786 </v>
    <v>       0.75000000       0.79704479       0.86207848 </v>
    <v>       0.25000000       0.20295521       0.13792152 </v>
    <v>       0.25000000       0.75599774       0.45315369 </v>
    <v>       0.75000000       0.24400226       0.54684631 </v>
    <v>       0.75000000       0.69059306       0.24013816 </v>
    <v>       0.25000000       0.30940694       0.75986184 </v>
    <v>       0.25000000       0.90338054       0.08293214 </v>
    <v>       0.75000000       0.09661946       0.91706786 </v>
   </varray>
  </structure>
  <varray name="forces" >
   <v>       0.00000000      -0.19108877       0.36513057 </v>
   <v>       0.00000000       0.19108877      -0.36513057 </v>
   <v>       0.00000000       0.13685716      -0.04296865 </v>
   <v>       0.00000000      -0.13685716       0.04296865 </v>
   <v>       0.00000000      -0.12569505      -0.00797153 </v>
   <v>       0.00000000       0.12569505       0.00797153 </v>
   <v>       0.00000000       0.16209479       0.07876220 </v>
   <v>       0.00000000      -0.16209479      -0.07876220 </v>
   <v>       0.00000000       0.04973390      -0.09930154 </v>
   <v>       0.00000000      -0.04973390       0.09930154 </v>
   <v>       0.00000000       0.01572655      -0.00483159 </v>
   <v>       0.00000000      -0.01572655       0.00483159 </v>
   <v>       0.00000000      -0.31615924      -0.47371392 </v>
   <v>       0.00000000       0.31615924       0.47371392 </v>
   <v>       0.00000000      -0.50124319      -0.25861164 </v>
   <v>       0.00000000       0.50124319       0.25861164 </v>
   <v>       0.00000000       0.59816422       0.48981244 </v>
   <v>       0.00000000      -0.59816422      -0.48981244 </v>
   <v>       0.00000000      -0.38395425      -0.42730863 </v>
   <v>       0.00000000       0.38395425       0.42730863 </v>
   <v>       0.00000000       0.33666559       0.68831353 </v>
   <v>       0.00000000      -0.33666559      -0.68831353 </v>
   <v>       0.00000000      -0.42753016      -0.13074200 </v>
   <v>       0.00000000       0.42753016       0.13074200 </v>
   <v>       0.00000000      -0.06050419      -0.05819875 </v>
   <v>       0.00000000       0.06050419       0.05819875 </v>
  </varray>
  <varray name="stress" >
   <v>       0.02260418       0.00000000       0.00000000 </v>
   <v>       0.00000000      -4.64526305      -7.15084276 </v>
   <v>       0.00000000      -7.15084256      -6.43147695 </v>
  </varray>
  <energy>
   <i name="e_fr_energy">    -98.71991439 </i>
   <i name="e_wo_entrp">    -98.71991439 </i>
   <i name="e_0_energy">     -0.00000000 </i>
  </energy>
  <time name="totalsc">    9.15    9.19</time>
 </calculation>
 <calculation>
  <scstep>
   <time name="dav">    1.09    1.09</time>
   <time name="total">    1.39    1.39</time>
   <energy>
    <i name="alphaZ">    141.13668028 </i>
    <i name="ewald">  -3488.33185231 </i>
    <i name="hartreedc">  -1482.58643825 </i>
    <i name="XCdc">   -902.48553856 </i>
    <i name="pawpsdc">   6482.30785684 </i>
    <i name="pawaedc">  -5332.93018348 </i>
    <i name="eentropy">     -0.00000000 </i>
    <i name="bandstr">   -344.17379778 </i>
    <i name="atom">   4827.44859523 </i>
    <i name="e_fr_energy">    -99.61467802 </i>
    <i name="e_wo_entrp">    -99.61467802 </i>
    <i name="e_0_energy">    -99.61467802 </i>
   </energy>
  </scstep>
  <scstep>
   <time name="dav">    0.99    1.00</time>
   <time name="total">    1.29    1.30</time>
   <energy>
    <i name="e_fr_energy">    -99.21250092 </i>
    <i name="e_wo_entrp">    -99.21250092 </i>
    <i name="e_0_energy">    -99.21250092 </i>
   </energy>
  </scstep>
  <scstep>
   <time name="dav">    1.06    1.06</time>
   <time name="total">    1.35    1.36</time>
   <energy>
    <i name="e_fr_energy">    -99.07855402 </i>
    <i name="e_wo_entrp">    -99.07855402 </i>
    <i name="e_0_energy">    -99.07855402 </i>
   </energy>
  </scstep>
  <scstep>
   <time name="dav">    0.97    0.97</time>
   <time name="total">    1.26    1.26</time>
   <energy>
    <i name="e_fr_energy">    -99.05797325 </i>
    <i name="e_wo_entrp">    -99.05797325 </i>
    <i name="e_0_energy">    -99.05797325 </i>
   </energy>
  </scstep>
  <scstep>
   <time name="dav">    1.27    1.28</time>
   <time name="total">    1.56    1.58</time>
   <energy>
    <i name="e_fr_energy">    -99.05526014 </i>
    <i name="e_wo_entrp">    -99.05526014 </i>
    <i name="e_0_energy">    -99.05526014 </i>
   </energy>
  </scstep>
  <scstep>
   <time name="dav">    1.26    1.26</time>
   <time name="total">    1.55    1.55</time>
   <energy>
    <i name="e_fr_energy">    -99.05526840 </i>
    <i name="e_wo_entrp">    -99.05526840 </i>
    <i name="e_0_energy">    -99.05526840 </i>
   </energy>
  </scstep>
  <scstep>
   <time name="dav">    0.78    0.78</time>
   <time name="total">    1.08    1.08</time>
   <energy>
    <i name="e_fr_energy">    -99.05543821 </i>
    <i name="e_wo_entrp">    -99.05543821 </i>
    <i name="e_0_energy">    -99.05543821 </i>
   </energy>
  </scstep>
  <scstep>
   <time name="dav">    0.79    0.79</time>
   <time name="total">    1.04    1.04</time>
   <energy>
    <i name="alphaZ">    141.13668028 </i>
    <i name="ewald">  -3488.33185231 </i>
    <i name="hartreedc">  -1446.76467873 </i>
    <i name="XCdc">   -902.57738329 </i>
    <i name="pawpsdc">   6569.67410375 </i>
    <i name="pawaedc">  -5420.51378000 </i>
    <i name="eentropy">     -0.00000000 </i>
    <i name="bandstr">   -379.12715804 </i>
    <i name="atom">   4827.44859523 </i>
    <i name="e_fr_energy">    -99.05547310 </i>
    <i name="e_wo_entrp">    -99.05547310 </i>
    <i name="e_0_energy">    -99.05547310 </i>
   </energy>
  </scstep>
  <structure>
   <crystal>
    <varray name="basis" >
     <v>       4.20607396       0.00000000       0.00000000 </v>
     <v>       0.00000000      13.15340442      -0.17082482 </v>
     <v>       0.00000000       0.96229778      15.07116474 </v>
    </varray>
    <i name="volume">    834.49142231 </i>
    <varray name="rec_basis" >
     <v>       0.23775141       0.00000000       0.00000000 </v>
     <v>       0.00000000       0.07596295      -0.00485025 </v>
     <v>       0.00000000       0.00086101       0.06629690 </v>
    </varray>
   </crystal>
   <varray name="positions" >
    <v>       0.25000000       0.56679493       0.81436884 </v>
    <v>       0.75000000       0.43320507       0.18563116 </v>
    <v>       0.75000000       0.82977987       0.62261456 </v>
    <v>       0.25000000       0.17022013       0.37738544 </v>
    <v>       0.25000000       0.94589425       0.87970448 </v>
    <v>       0.75000000       0.05410575       0.12029552 </v>
    <v>       0.25000000       0.83244306       0.27460383 </v>
    <v>       0.75000000       0.16755694       0.72539617 </v>
    <v>       0.75000000       0.73221002       0.05033476 </v>
    <v>       0.25000000       0.26778998       0.94966524 </v>
    <v>       0.75000000       0.60687309       0.42813988 </v>
    <v>       0.25000000       0.39312691       0.57186012 </v>
    <v>       0.25000000       0.45620371       0.39073363 </v>
    <v>       0.75000000       0.54379629       0.60926637 </v>
    <v>       0.25000000       0.59495882       0.03651830 </v>
    <v>       0.75000000       0.40504118       0.96348170 </v>
    <v>       0.75000000       0.98946127       0.29785332 </v>
    <v>       0.25000000       0.01053873       0.70214668 </v>
    <v>       0.75000000       0.79581535       0.86088035 </v>
    <v>       0.25000000       0.20418465       0.13911965 </v>
    <v>       0.25000000       0.75682706       0.45555749 </v>
    <v>       0.75000000       0.24317294       0.54444251 </v>
    <v>       0.75000000       0.68905883       0.23970560 </v>
    <v>       0.25000000       0.31094117       0.76029440 </v>
    <v>       0.25000000       0.90308345       0.08276986 </v>
    <v>       0.75000000       0.09691655       0.91723014 </v>
   </varray>
  </structure>
  <varray name="forces" >
   <v>       0.00000000      -0.16667147       0.36336326 </v>
   <v>       0.00000000       0.16667147      -0.36336326 </v>
   <v>       0.00000000       0.12904365      -0.04630000 </v>
   <v>       0.00000000      -0.12904365       0.04630000 </v>
   <v>       0.00000000      -0.23330808      -0.03034533 </v>
   <v>       0.00000000       0.23330808       0.03034533 </v>
   <v>       0.00000000       0.16899176       0.25727385 </v>
   <v>       0.00000000      -0.16899176      -0.25727385 </v>
   <v>       0.00000000      -0.11955301      -0.18541282 </v>
   <v>       0.00000000       0.11955301       0.18541282 </v>
   <v>       0.00000000      -0.04328021       0.01548927 </v>
   <v>       0.00000000       0.04328021      -0.01548927 </v>
   <v>       0.00000000      -0.35368312      -0.56983822 </v>
   <v>       0.00000000       0.35368312       0.56983822 </v>
   <v>       0.00000000      -0.49526897      -0.30422049 </v>
   <v>       0.00000000       0.49526897       0.30422049 </v>
   <v>       0.00000000       0.62136865       0.64643816 </v>
   <v>       0.00000000      -0.62136865      -0.64643816 </v>
   <v>       0.00000000      -0.38832764      -0.51973042 </v>
   <v>       0.00000000       0.38832764       0.51973042 </v>
   <v>       0.00000000       0.44659949       0.72499983 </v>
   <v>       0.00000000      -0.44659949      -0.72499983 </v>
   <v>       0.00000000      -0.48591995      -0.03360119 </v>
   <v>       0.00000000       0.48591995       0.03360119 </v>
   <v>       0.00000000      -0.06043183      -0.05734568 </v>
   <v>       0.00000000       0.06043183       0.05734568 </v>
  </varray>
  <varray name="stress" >
   <v>       8.32142998       0.00000000       0.00000000 </v>
   <v>       0.00000000       3.46142608      -6.14173268 </v>
   <v>       0.00000000      -6.14173234       4.84474971 </v>
  </varray>
  <energy>
   <i name="e_fr_energy">    -99.05547310 </i>
   <i name="e_wo_entrp">    -99.05547310 </i>
   <i name="e_0_energy">     -0.00000000 </i>
  </energy>
  <time name="totalsc">   12.07   12.12</time>
 </calculation>
 <calculation>
  <scstep>
   <time name="dav">    0.98    0.98</time>
   <time name="total">    1.28    1.28</time>
   <energy>
    <i name="alphaZ">    151.35502080 </i>
    <i name="ewald">  -3699.29780631 </i>
    <i name="hartreedc">  -1363.74869136 </i>
    <i name="XCdc">   -900.36545606 </i>
    <i name="pawpsdc">   6569.75078763 </i>
    <i name="pawaedc">  -5420.58564464 </i>
    <i name="eentropy">     -0.00000000 </i>
    <i name="bandstr">   -266.08733253 </i>
    <i name="atom">   4827.44859523 </i>
    <i name="e_fr_energy">   -101.53052723 </i>
    <i name="e_wo_entrp">   -101.53052723 </i>
    <i name="e_0_energy">   -101.53052723 </i>
   </energy>
  </scstep>
  <scstep>
   <time name="dav">    0.70    0.70</time>
   <time name="total">    1.00    1.00</time>
   <energy>
    <i name="e_fr_energy">    -99.80395947 </i>
    <i name="e_wo_entrp">    -99.80395947 </i>
    <i name="e_0_energy">    -99.80395947 </i>
   </energy>
  </scstep>
  <scstep>
   <time name="dav">    1.14    1.14</time>
   <time name="total">    1.44    1.44</time>
   <energy>
    <i name="e_fr_energy">    -99.26701992 </i>
    <i name="e_wo_entrp">    -99.26701992 </i>
    <i name="e_0_energy">    -99.26701992 </i>
   </energy>
  </scstep>
  <scstep>
   <time name="dav">    1.12    1.12</time>
   <time name="total">    1.42    1.42</time>
   <energy>
    <i name="e_fr_energy">    -99.19228480 </i>
    <i name="e_wo_entrp">    -99.19228480 </i>
    <i name="e_0_energy">    -99.19228480 </i>
   </energy>
  </scstep>
  <scstep>
   <time name="dav">    0.91    0.91</time>
   <time name="total">    1.19    1.20</time>
   <energy>
    <i name="e_fr_energy">    -99.17987365 </i>
    <i name="e_wo_entrp">    -99.17987365 </i>
    <i name="e_0_energy">    -99.17987365 </i>
   </energy>
  </scstep>
  <scstep>
   <time name="dav">    1.09    1.09</time>
   <time name="total">    1.38    1.38</time>
   <energy>
    <i name="e_fr_energy">    -99.17931730 </i>
    <i name="e_wo_entrp">    -99.17931730 </i>
    <i name="e_0_energy">    -99.17931730 </i>
   </energy>
  </scstep>
  <scstep>
   <time name="dav">    0.80    0.80</time>
   <time name="total">    1.10    1.10</time>
   <energy>
    <i name="e_fr_energy">    -99.17984796 </i>
    <i name="e_wo_entrp">    -99.17984796 </i>
    <i name="e_0_energy">    -99.17984796 </i>
   </energy>
  </scstep>
  <scstep>
   <time name="dav">    1.01    1.01</time>
   <time name="total">    1.31    1.31</time>
   <energy>
    <i name="e_fr_energy">    -99.17995760 </i>
    <i name="e_wo_entrp">    -99.17995760 </i>
    <i name="e_0_energy">    -99.17995760 </i>
   </energy>
  </scstep>
  <scstep>
   <time name="dav">    0.94    0.94</time>
   <time name="total">    1.19    1.19</time>
   <energy>
    <i name="alphaZ">    151.35502080 </i>
    <i name="ewald">  -3699.29780631 </i>
    <i name="hartreedc">  -1292.67159458 </i>
    <i name="XCdc">   -900.48437288 </i>
    <i name="pawpsdc">   6775.28056459 </i>
    <i name="pawaedc">  -5626.62374806 </i>
    <i name="eentropy">     -0.00000000 </i>
    <i name="bandstr">   -334.18667233 </i>
    <i name="atom">   4827.44859523 </i>
    <i name="e_fr_energy">    -99.18001355 </i>
    <i name="e_wo_entrp">    -99.18001355 </i>
    <i name="e_0_energy">    -99.18001355 </i>
   </energy>
  </scstep>
  <structure>
   <crystal>
    <varray name="basis" >
     <v>       4.16054854       0.00000000       0.00000000 </v>
     <v>       0.00000000      12.84139920      -0.42486114 </v>
     <v>       0.00000000       0.64154395      14.54348975 </v>
    </varray>
    <i name="volume">    778.15290466 </i>
    <varray name="rec_basis" >
     <v>       0.24035292       0.00000000       0.00000000 </v>
     <v>       0.00000000       0.07775965      -0.00343014 </v>
     <v>       0.00000000       0.00227160       0.06865908 </v>
    </varray>
   </crystal>
   <varray name="positions" >
    <v>       0.25000000       0.56476588       0.81714081 </v>
    <v>       0.75000000       0.43523412       0.18285919 </v>
    <v>       0.75000000       0.83102501       0.62233293 </v>
    <v>       0.25000000       0.16897499       0.37766707 </v>
    <v>       0.25000000       0.94561438       0.87961692 </v>
    <v>       0.75000000       0.05438562       0.12038308 </v>
    <v>       0.25000000       0.83351748       0.27426594 </v>
    <v>       0.75000000       0.16648252       0.72573406 </v>
    <v>       0.75000000       0.73311136       0.05006771 </v>
    <v>       0.25000000       0.26688864       0.94993229 </v>
    <v>       0.75000000       0.60710141       0.42794940 </v>
    <v>       0.25000000       0.39289859       0.57205060 </v>
    <v>       0.25000000       0.45399511       0.38767979 </v>
    <v>       0.75000000       0.54600489       0.61232021 </v>
    <v>       0.25000000       0.59106902       0.03473906 </v>
    <v>       0.75000000       0.40893098       0.96526094 </v>
    <v>       0.75000000       0.99411303       0.30090699 </v>
    <v>       0.25000000       0.00588697       0.69909301 </v>
    <v>       0.75000000       0.79330272       0.85842082 </v>
    <v>       0.25000000       0.20669728       0.14157918 </v>
    <v>       0.25000000       0.75855675       0.46046403 </v>
    <v>       0.75000000       0.24144325       0.53953597 </v>
    <v>       0.75000000       0.68594647       0.23879899 </v>
    <v>       0.25000000       0.31405353       0.76120101 </v>
    <v>       0.25000000       0.90247906       0.08243447 </v>
    <v>       0.75000000       0.09752094       0.91756553 </v>
   </varray>
  </structure>
  <varray name="forces" >
   <v>       0.00000000      -0.11712851       0.34899392 </v>
   <v>       0.00000000       0.11712851      -0.34899392 </v>
   <v>       0.00000000       0.10843884      -0.05241778 </v>
   <v>       0.00000000      -0.10843884       0.05241778 </v>
   <v>       0.00000000      -0.57352044      -0.12786024 </v>
   <v>       0.00000000       0.57352044       0.12786024 </v>
   <v>       0.00000000       0.18816599       0.69967943 </v>
   <v>       0.00000000      -0.18816599      -0.69967943 </v>
   <v>       0.00000000      -0.37569469      -0.45708569 </v>
   <v>       0.00000000       0.37569469       0.45708569 </v>
   <v>       0.00000000      -0.09618194       0.11726270 </v>
   <v>       0.00000000       0.09618194      -0.11726270 </v>
   <v>       0.00000000      -0.49027690      -0.94010010 </v>
   <v>       0.00000000       0.49027690       0.94010010 </v>
   <v>       0.00000000      -0.39298470      -0.48895981 </v>
   <v>       0.00000000       0.39298470       0.48895981 </v>
   <v>       0.00000000       0.58227956       0.96154716 </v>
   <v>       0.00000000      -0.58227956      -0.96154716 </v>
   <v>       0.00000000      -0.54411621      -0.82532971 </v>
   <v>       0.00000000       0.54411621       0.82532971 </v>
   <v>       0.00000000       0.73577251       0.77830414 </v>
   <v>       0.00000000      -0.73577251      -0.77830414 </v>
   <v>       0.00000000      -0.54143548       0.02883787 </v>
   <v>       0.00000000       0.54143548      -0.02883787 </v>
   <v>       0.00000000      -0.13715512      -0.07946305 </v>
   <v>       0.00000000       0.13715512       0.07946305 </v>
  </varray>
  <varray name="stress" >
   <v>      28.01499513       0.00000000       0.00000000 </v>
   <v>       0.00000000      25.55995145      -4.97797010 </v>
   <v>       0.00000000      -4.97796910      34.52032840 </v>
  </varray>
  <energy>
   <i name="e_fr_energy">    -99.18001355 </i>
   <i name="e_wo_entrp">    -99.18001355 </i>
   <i name="e_0_energy">     -0.00000000 </i>
  </energy>
  <time name="totalsc">   12.82   12.83</time>
 </calculation>
 <calculation>
  <scstep>
   <time name="dav">    0.76    0.76</time>
   <time name="total">    1.05    1.05</time>
   <energy>
    <i name="alphaZ">    148.33503850 </i>
    <i name="ewald">  -3638.62233542 </i>
    <i name="hartreedc">  -1315.99771140 </i>
    <i name="XCdc">   -901.14068225 </i>
    <i name="pawpsdc">   6776.40751824 </i>
    <i name="pawaedc">  -5627.74993551 </i>
    <i name="eentropy">     -0.00000000 </i>
    <i name="bandstr">   -368.08600105 </i>
    <i name="atom">   4827.44859523 </i>
    <i name="e_fr_energy">    -99.40551365 </i>
    <i name="e_wo_entrp">    -99.40551365 </i>
    <i name="e_0_energy">    -99.40551365 </i>
   </energy>
  </scstep>
  <scstep>
   <time name="dav">    1.22    1.23</time>
   <time name="total">    1.50    1.51</time>
   <energy>
    <i name="e_fr_energy">    -99.27848051 </i>
    <i name="e_wo_entrp">    -99.27848051 </i>
    <i name="e_0_energy">    -99.27848051 </i>
   </energy>
  </scstep>
  <scstep>
   <time name="dav">    1.13    1.13</time>
   <time name="total">    1.42    1.42</time>
   <energy>
    <i name="e_fr_energy">    -99.23028238 </i>
    <i name="e_wo_entrp">    -99.23028238 </i>
    <i name="e_0_energy">    -99.23028238 </i>
   </energy>
  </scstep>
  <scstep>
   <time name="dav">    1.06    1.06</time>
   <time name="total">    1.36    1.36</time>
   <energy>
    <i name="e_fr_energy">    -99.22068901 </i>
    <i name="e_wo_entrp">    -99.22068901 </i>
    <i name="e_0_energy">    -99.22068901 </i>
   </energy>
  </scstep>
  <scstep>
   <time name="dav">    1.12    1.12</time>
   <time name="total">    1.41    1.42</time>
   <energy>
    <i name="e_fr_energy">    -99.21976507 </i>
    <i name="e_wo_entrp">    -99.21976507 </i>
    <i name="e_0_energy">    -99.21976507 </i>
   </energy>
  </scstep>
  <scstep>
   <time name="dav">    0.98    1.00</time>
   <time name="total">    1.23    1.25</time>
   <energy>
    <i name="alphaZ">    148.33503850 </i>
    <i name="ewald">  -3638.62233542 </i>
    <i name="hartreedc">  -1336.16788696 </i>
    <i name="XCdc">   -901.11241524 </i>
    <i name="pawpsdc">   6708.42174640 </i>
    <i name="pawaedc">  -5559.60711867 </i>
    <i name="eentropy">     -0.00000000 </i>
    <i name="bandstr">   -347.91544189 </i>
    <i name="atom">   4827.44859523 </i>
    <i name="e_fr_energy">    -99.21981805 </i>
    <i name="e_wo_entrp">    -99.21981805 </i>
    <i name="e_0_energy">    -99.21981805 </i>
   </energy>
  </scstep>
  <structure>
   <crystal>
    <varray name="basis" >
     <v>       4.17349261       0.00000000       0.00000000 </v>
     <v>       0.00000000      12.93011046      -0.35263196 </v>
     <v>       0.00000000       0.73274267      14.69352158 </v>
    </varray>
    <i name="volume">    793.99547307 </i>
    <varray name="rec_basis" >
     <v>       0.23960747       0.00000000       0.00000000 </v>
     <v>       0.00000000       0.07723382      -0.00385153 </v>
     <v>       0.00000000       0.00185355       0.06796477 </v>
    </varray>
   </crystal>
   <varray name="positions" >
    <v>       0.25000000       0.56533806       0.81633401 </v>
    <v>       0.75000000       0.43466194       0.18366599 </v>
    <v>       0.75000000       0.83066455       0.62240954 </v>
    <v>       0.25000000       0.16933545       0.37759046 </v>
    <v>       0.25000000       0.94569639       0.87964418 </v>
    <v>       0.75000000       0.05430361       0.12035582 </v>
    <v>       0.25000000       0.83320707       0.27436002 </v>
    <v>       0.75000000       0.16679293       0.72563998 </v>
    <v>       0.75000000       0.73285085       0.05014179 </v>
    <v>       0.25000000       0.26714915       0.94985821 </v>
    <v>       0.75000000       0.60703623       0.42800438 </v>
    <v>       0.25000000       0.39296377       0.57199562 </v>
    <v>       0.25000000       0.45465785       0.38859156 </v>
    <v>       0.75000000       0.54534215       0.61140844 </v>
    <v>       0.25000000       0.59221256       0.03528372 </v>
    <v>       0.75000000       0.40778744       0.96471628 </v>
    <v>       0.75000000       0.99273939       0.29998266 </v>
    <v>       0.25000000       0.00726061       0.70001734 </v>
    <v>       0.75000000       0.79405001       0.85915894 </v>
    <v>       0.25000000       0.20594999       0.14084106 </v>
    <v>       0.25000000       0.75802118       0.45900848 </v>
    <v>       0.75000000       0.24197882       0.54099152 </v>
    <v>       0.75000000       0.68685806       0.23908235 </v>
    <v>       0.25000000       0.31314194       0.76091765 </v>
    <v>       0.25000000       0.90265713       0.08253647 </v>
    <v>       0.75000000       0.09734287       0.91746353 </v>
   </varray>
  </structure>
  <varray name="forces" >
   <v>       0.00000000      -0.13200036       0.35516999 </v>
   <v>       0.00000000       0.13200036      -0.35516999 </v>
   <v>       0.00000000       0.11437430      -0.05022253 </v>
   <v>       0.00000000      -0.11437430       0.05022253 </v>
   <v>       0.00000000      -0.46400773      -0.07627672 </v>
   <v>       0.00000000       0.46400773       0.07627672 </v>
   <v>       0.00000000       0.15843901       0.55694538 </v>
   <v>       0.00000000      -0.15843901      -0.55694538 </v>
   <v>       0.00000000      -0.28700437      -0.36092891 </v>
   <v>       0.00000000       0.28700437       0.36092891 </v>
   <v>       0.00000000      -0.08571039       0.08996735 </v>
   <v>       0.00000000       0.08571039      -0.08996735 </v>
   <v>       0.00000000      -0.45877056      -0.83029887 </v>
   <v>       0.00000000       0.45877056       0.83029887 </v>
   <v>       0.00000000      -0.41335659      -0.36818950 </v>
   <v>       0.00000000       0.41335659       0.36818950 </v>
   <v>       0.00000000       0.62972566       0.88193444 </v>
   <v>       0.00000000      -0.62972566      -0.88193444 </v>
   <v>       0.00000000      -0.50208786      -0.73196747 </v>
   <v>       0.00000000       0.50208786       0.73196747 </v>
   <v>       0.00000000       0.62016500       0.80476332 </v>
   <v>       0.00000000      -0.62016500      -0.80476332 </v>
   <v>       0.00000000      -0.52628047       0.03479951 </v>
   <v>       0.00000000       0.52628047      -0.03479951 </v>
   <v>       0.00000000      -0.14316495      -0.05817031 </v>
   <v>       0.00000000       0.14316495       0.05817031 </v>
  </varray>
  <varray name="stress" >
   <v>      22.14911075       0.00000000       0.00000000 </v>
   <v>       0.00000000      18.84200706      -5.33571493 </v>
   <v>       0.00000000      -5.33571405      25.85112711 </v>
  </varray>
  <energy>
   <i name="e_fr_energy">    -99.21981805 </i>
   <i name="e_wo_entrp">    -99.21981805 </i>
   <i name="e_0_energy">     -0.00000000 </i>
  </energy>
  <time name="totalsc">    9.61    9.66</time>
 </calculation>
 <calculation>
  <scstep>
   <time name="dav">    1.01    1.01</time>
   <time name="total">    1.30    1.30</time>
   <energy>
    <i name="alphaZ">    148.57157273 </i>
    <i name="ewald">  -3657.88214154 </i>
    <i name="hartreedc">  -1321.20626038 </i>
    <i name="XCdc">   -901.14115856 </i>
    <i name="pawpsdc">   6715.64936683 </i>
    <i name="pawaedc">  -5566.83645113 </i>
    <i name="eentropy">     -0.00000000 </i>
    <i name="bandstr">   -343.91689109 </i>
    <i name="atom">   4827.44859523 </i>
    <i name="e_fr_energy">    -99.31336791 </i>
    <i name="e_wo_entrp">    -99.31336791 </i>
    <i name="e_0_energy">    -99.31336791 </i>
   </energy>
  </scstep>
  <scstep>
   <time name="dav">    0.76    0.76</time>
   <time name="total">    1.05    1.05</time>
   <energy>
    <i name="e_fr_energy">    -99.31537565 </i>
    <i name="e_wo_entrp">    -99.31537565 </i>
    <i name="e_0_energy">    -99.31537565 </i>
   </energy>
  </scstep>
  <scstep>
   <time name="dav">    1.11    1.11</time>
   <time name="total">    1.39    1.40</time>
   <energy>
    <i name="e_fr_energy">    -99.31372395 </i>
    <i name="e_wo_entrp">    -99.31372395 </i>
    <i name="e_0_energy">    -99.31372395 </i>
   </energy>
  </scstep>
  <scstep>
   <time name="dav">    1.27    1.28</time>
   <time name="total">    1.56    1.57</time>
   <energy>
    <i name="e_fr_energy">    -99.31303805 </i>
    <i name="e_wo_entrp">    -99.31303805 </i>
    <i name="e_0_energy">    -99.31303805 </i>
   </energy>
  </scstep>
  <scstep>
   <time name="dav">    0.64    0.64</time>
   <time name="total">    0.89    0.90</time>
   <energy>
    <i name="alphaZ">    148.57157273 </i>
    <i name="ewald">  -3657.88214154 </i>
    <i name="hartreedc">  -1318.36727900 </i>
    <i name="XCdc">   -901.15299574 </i>
    <i name="pawpsdc">   6708.17424402 </i>
    <i name="pawaedc">  -5559.34119405 </i>
    <i name="eentropy">     -0.00000000 </i>
    <i name="bandstr">   -346.76384592 </i>
    <i name="atom">   4827.44859523 </i>
    <i name="e_fr_energy">    -99.31304427 </i>
    <i name="e_wo_entrp">    -99.31304427 </i>
    <i name="e_0_energy">    -99.31304427 </i>
   </energy>
  </scstep>
  <structure>
   <crystal>
    <varray name="basis" >
     <v>       4.17576134       0.00000000       0.00000000 </v>
     <v>       0.00000000      12.91961295      -0.38011458 </v>
     <v>       0.00000000       0.70036894      14.67342274 </v>
    </varray>
    <i name="volume">    792.73138799 </i>
    <varray name="rec_basis" >
     <v>       0.23947729       0.00000000       0.00000000 </v>
     <v>       0.00000000       0.07729316      -0.00368924 </v>
     <v>       0.00000000       0.00200228       0.06805486 </v>
    </varray>
   </crystal>
   <varray name="positions" >
    <v>       0.25000000       0.56510428       0.81668918 </v>
    <v>       0.75000000       0.43489572       0.18331082 </v>
    <v>       0.75000000       0.83081733       0.62237185 </v>
    <v>       0.25000000       0.16918267       0.37762815 </v>
    <v>       0.25000000       0.94553802       0.87961301 </v>
    <v>       0.75000000       0.05446198       0.12038699 </v>
    <v>       0.25000000       0.83334726       0.27446939 </v>
    <v>       0.75000000       0.16665274       0.72553061 </v>
    <v>       0.75000000       0.73286047       0.05002435 </v>
    <v>       0.25000000       0.26713953       0.94997565 </v>
    <v>       0.75000000       0.60703218       0.42800814 </v>
    <v>       0.25000000       0.39296782       0.57199186 </v>
    <v>       0.25000000       0.45432145       0.38808055 </v>
    <v>       0.75000000       0.54567855       0.61191945 </v>
    <v>       0.25000000       0.59172266       0.03501085 </v>
    <v>       0.75000000       0.40827734       0.96498915 </v>
    <v>       0.75000000       0.99335902       0.30051074 </v>
    <v>       0.25000000       0.00664098       0.69948926 </v>
    <v>       0.75000000       0.79367150       0.85872970 </v>
    <v>       0.25000000       0.20632850       0.14127030 </v>
    <v>       0.25000000       0.75836074       0.45969364 </v>
    <v>       0.75000000       0.24163926       0.54030636 </v>
    <v>       0.75000000       0.68640640       0.23899562 </v>
    <v>       0.25000000       0.31359360       0.76100438 </v>
    <v>       0.25000000       0.90255841       0.08248757 </v>
    <v>       0.75000000       0.09744159       0.91751243 </v>
   </varray>
  </structure>
  <varray name="forces" >
   <v>       0.00000000      -0.12796084       0.35311529 </v>
   <v>       0.00000000       0.12796084      -0.35311529 </v>
   <v>       0.00000000       0.11368352      -0.05243085 </v>
   <v>       0.00000000      -0.11368352       0.05243085 </v>
   <v>       0.00000000      -0.46804271      -0.11693346 </v>
   <v>       0.00000000       0.46804271       0.11693346 </v>
   <v>       0.00000000       0.13807707       0.59428820 </v>
   <v>       0.00000000      -0.13807707      -0.59428820 </v>
   <v>       0.00000000      -0.34851936      -0.39283792 </v>
   <v>       0.00000000       0.34851936       0.39283792 </v>
   <v>       0.00000000      -0.07564245       0.11493559 </v>
   <v>       0.00000000       0.07564245      -0.11493559 </v>
   <v>       0.00000000      -0.40949687      -0.82218066 </v>
   <v>       0.00000000       0.40949687       0.82218066 </v>
   <v>       0.00000000      -0.36905739      -0.40830903 </v>
   <v>       0.00000000       0.36905739       0.40830903 </v>
   <v>       0.00000000       0.59515171       0.82760757 </v>
   <v>       0.00000000      -0.59515171      -0.82760757 </v>
   <v>       0.00000000      -0.52498496      -0.75728054 </v>
   <v>       0.00000000       0.52498496       0.75728054 </v>
   <v>       0.00000000       0.61793263       0.71974554 </v>
   <v>       0.00000000      -0.61793263      -0.71974554 </v>
   <v>       0.00000000      -0.48765415       0.01721110 </v>
   <v>       0.00000000       0.48765415      -0.01721110 </v>
   <v>       0.00000000      -0.13597127      -0.05662455 </v>
   <v>       0.00000000       0.13597127       0.05662455 </v>
  </varray>
  <varray name="stress" >
   <v>      20.81355646       0.00000000       0.00000000 </v>
   <v>       0.00000000      17.71397797      -4.98538214 </v>
   <v>       0.00000000      -4.98538177      24.47409980 </v>
  </varray>
  <energy>
   <i name="e_fr_energy">    -99.31304427 </i>
   <i name="e_wo_entrp">    -99.31304427 </i>
   <i name="e_0_energy">     -0.00000000 </i>
  </energy>
  <time name="totalsc">    7.58    7.61</time>
 </calculation>
 <calculation>
  <scstep>
   <time name="dav">    0.62    0.62</time>
   <time name="total">    0.90    0.90</time>
   <energy>
    <i name="alphaZ">    149.29426180 </i>
    <i name="ewald">  -3714.13766813 </i>
    <i name="hartreedc">  -1274.45365529 </i>
    <i name="XCdc">   -901.25259659 </i>
    <i name="pawpsdc">   6707.19162327 </i>
    <i name="pawaedc">  -5558.35820514 </i>
    <i name="eentropy">     -0.00000000 </i>
    <i name="bandstr">   -335.30146427 </i>
    <i name="atom">   4827.44859523 </i>
    <i name="e_fr_energy">    -99.56910912 </i>
    <i name="e_wo_entrp">    -99.56910912 </i>
    <i name="e_0_energy">    -99.56910912 </i>
   </energy>
  </scstep>
  <scstep>
   <time name="dav">    0.95    0.96</time>
   <time name="total">    1.25    1.26</time>
   <energy>
    <i name="e_fr_energy">    -99.58490439 </i>
    <i name="e_wo_entrp">    -99.58490439 </i>
    <i name="e_0_energy">    -99.58490439 </i>
   </energy>
  </scstep>
  <scstep>
   <time name="dav">    1.27    1.27</time>
   <time name="total">    1.57    1.58</time>
   <energy>
    <i name="e_fr_energy">    -99.57003975 </i>
    <i name="e_wo_entrp">    -99.57003975 </i>
    <i name="e_0_energy">    -99.57003975 </i>
   </energy>
  </scstep>
  <scstep>
   <time name="dav">    1.17    1.17</time>
   <time name="total">    1.47    1.48</time>
   <energy>
    <i name="e_fr_energy">    -99.56409903 </i>
    <i name="e_wo_entrp">    -99.56409903 </i>
    <i name="e_0_energy">    -99.56409903 </i>
   </energy>
  </scstep>
  <scstep>
   <time name="dav">    0.71    0.72</time>
   <time name="total">    1.01    1.01</time>
   <energy>
    <i name="e_fr_energy">    -99.56420329 </i>
    <i name="e_wo_entrp">    -99.56420329 </i>
    <i name="e_0_energy">    -99.56420329 </i>
   </energy>
  </scstep>
  <scstep>
   <time name="dav">    1.11    1.12</time>
   <time name="total">    1.36    1.37</time>
   <energy>
    <i name="alphaZ">    149.29426180 </i>
    <i name="ewald">  -3714.13766813 </i>
    <i name="hartreedc">  -1265.66232262 </i>
    <i name="XCdc">   -901.31092758 </i>
    <i name="pawpsdc">   6683.20999296 </i>
    <i name="pawaedc">  -5534.30184235 </i>
    <i name="eentropy">     -0.00000000 </i>
    <i name="bandstr">   -344.10428277 </i>
    <i name="atom">   4827.44859523 </i>
    <i name="e_fr_energy">    -99.56419345 </i>
    <i name="e_wo_entrp">    -99.56419345 </i>
    <i name="e_0_energy">    -99.56419345 </i>
   </energy>
  </scstep>
  <structure>
   <crystal>
    <varray name="basis" >
     <v>       4.18256752       0.00000000       0.00000000 </v>
     <v>       0.00000000      12.88812044      -0.46256246 </v>
     <v>       0.00000000       0.60324774      14.61312621 </v>
    </varray>
    <i name="volume">    788.89401136 </i>
    <varray name="rec_basis" >
     <v>       0.23908759       0.00000000       0.00000000 </v>
     <v>       0.00000000       0.07747604      -0.00319831 </v>
     <v>       0.00000000       0.00245242       0.06833039 </v>
    </varray>
   </crystal>
   <varray name="positions" >
    <v>       0.25000000       0.56440506       0.81775488 </v>
    <v>       0.75000000       0.43559494       0.18224512 </v>
    <v>       0.75000000       0.83127572       0.62225950 </v>
    <v>       0.25000000       0.16872428       0.37774050 </v>
    <v>       0.25000000       0.94506235       0.87951845 </v>
    <v>       0.75000000       0.05493765       0.12048155 </v>
    <v>       0.25000000       0.83376892       0.27479878 </v>
    <v>       0.75000000       0.16623108       0.72520122 </v>
    <v>       0.75000000       0.73288847       0.04967159 </v>
    <v>       0.25000000       0.26711153       0.95032841 </v>
    <v>       0.75000000       0.60702006       0.42801944 </v>
    <v>       0.25000000       0.39297994       0.57198056 </v>
    <v>       0.25000000       0.45330782       0.38654341 </v>
    <v>       0.75000000       0.54669218       0.61345659 </v>
    <v>       0.25000000       0.59024994       0.03418831 </v>
    <v>       0.75000000       0.40975006       0.96581169 </v>
    <v>       0.75000000       0.99522309       0.30210078 </v>
    <v>       0.25000000       0.00477691       0.69789922 </v>
    <v>       0.75000000       0.79253205       0.85743799 </v>
    <v>       0.25000000       0.20746795       0.14256201 </v>
    <v>       0.25000000       0.75938512       0.46175399 </v>
    <v>       0.75000000       0.24061488       0.53824601 </v>
    <v>       0.75000000       0.68504983       0.23873250 </v>
    <v>       0.25000000       0.31495017       0.76126750 </v>
    <v>       0.25000000       0.90226169       0.08234008 </v>
    <v>       0.75000000       0.09773831       0.91765992 </v>
   </varray>
  </structure>
  <varray name="forces" >
   <v>       0.00000000      -0.11680427       0.34443699 </v>
   <v>       0.00000000       0.11680427      -0.34443699 </v>
   <v>       0.00000000       0.10974808      -0.05839575 </v>
   <v>       0.00000000      -0.10974808       0.05839575 </v>
   <v>       0.00000000      -0.47925019      -0.27048604 </v>
   <v>       0.00000000       0.47925019       0.27048604 </v>
   <v>       0.00000000       0.13710813       0.70167226 </v>
   <v>       0.00000000      -0.13710813      -0.70167226 </v>
   <v>       0.00000000      -0.45451867      -0.44212778 </v>
   <v>       0.00000000       0.45451867       0.44212778 </v>
   <v>       0.00000000      -0.09880028       0.20719298 </v>
   <v>       0.00000000       0.09880028      -0.20719298 </v>
   <v>       0.00000000      -0.34187463      -0.67007013 </v>
   <v>       0.00000000       0.34187463       0.67007013 </v>
[...]
        <r>  0.0004  0.0030  0.0000 </r>
        <r>  0.0004  0.0462  0.0011 </r>
        <r>  0.0004  0.0462  0.0011 </r>
        <r>  0.0002  0.0320  0.0005 </r>
        <r>  0.0002  0.0320  0.0005 </r>
        <r>  0.0000  0.0430  0.0035 </r>
        <r>  0.0000  0.0430  0.0035 </r>
        <r>  0.0002  0.0497  0.0011 </r>
        <r>  0.0002  0.0497  0.0011 </r>
        <r>  0.0035  0.0120  0.0014 </r>
        <r>  0.0035  0.0120  0.0014 </r>
        <r>  0.0032  0.0189  0.0012 </r>
        <r>  0.0032  0.0189  0.0012 </r>
        <r>  0.0041  0.0086  0.0004 </r>
        <r>  0.0041  0.0086  0.0004 </r>
        <r>  0.0043  0.0120  0.0008 </r>
        <r>  0.0043  0.0120  0.0008 </r>
        <r>  0.0066  0.0143  0.0011 </r>
        <r>  0.0066  0.0143  0.0011 </r>
        <r>  0.0005  0.0094  0.0007 </r>
        <r>  0.0005  0.0094  0.0007 </r>
        <r>  0.0019  0.0046  0.0030 </r>
        <r>  0.0019  0.0046  0.0030 </r>
       </set>
       <set comment="band 70">
        <r>  0.0012  0.0034  0.0000 </r>
        <r>  0.0012  0.0034  0.0000 </r>
        <r>  0.0021  0.0025  0.0000 </r>
        <r>  0.0021  0.0025  0.0000 </r>
        <r>  0.0006  0.0482  0.0010 </r>
        <r>  0.0006  0.0482  0.0010 </r>
        <r>  0.0002  0.0388  0.0006 </r>
        <r>  0.0002  0.0388  0.0006 </r>
        <r>  0.0008  0.0155  0.0023 </r>
        <r>  0.0008  0.0155  0.0023 </r>
        <r>  0.0001  0.0634  0.0003 </r>
        <r>  0.0001  0.0634  0.0003 </r>
        <r>  0.0035  0.0148  0.0020 </r>
        <r>  0.0035  0.0148  0.0020 </r>
        <r>  0.0000  0.0137  0.0009 </r>
        <r>  0.0000  0.0137  0.0009 </r>
        <r>  0.0047  0.0123  0.0005 </r>
        <r>  0.0047  0.0123  0.0005 </r>
        <r>  0.0024  0.0146  0.0014 </r>
        <r>  0.0024  0.0146  0.0014 </r>
        <r>  0.0018  0.0135  0.0030 </r>
        <r>  0.0018  0.0135  0.0030 </r>
        <r>  0.0014  0.0107  0.0007 </r>
        <r>  0.0014  0.0107  0.0007 </r>
        <r>  0.0021  0.0034  0.0023 </r>
        <r>  0.0021  0.0034  0.0023 </r>
       </set>
       <set comment="band 71">
        <r>  0.0002  0.0016  0.0000 </r>
        <r>  0.0002  0.0016  0.0000 </r>
        <r>  0.0025  0.0029  0.0000 </r>
        <r>  0.0025  0.0029  0.0000 </r>
        <r>  0.0003  0.0447  0.0016 </r>
        <r>  0.0003  0.0447  0.0016 </r>
        <r>  0.0005  0.0539  0.0018 </r>
        <r>  0.0005  0.0539  0.0018 </r>
        <r>  0.0001  0.0363  0.0018 </r>
        <r>  0.0001  0.0363  0.0018 </r>
        <r>  0.0001  0.0510  0.0007 </r>
        <r>  0.0001  0.0510  0.0007 </r>
        <r>  0.0010  0.0188  0.0015 </r>
        <r>  0.0010  0.0188  0.0015 </r>
        <r>  0.0018  0.0123  0.0008 </r>
        <r>  0.0018  0.0123  0.0008 </r>
        <r>  0.0012  0.0115  0.0029 </r>
        <r>  0.0012  0.0115  0.0029 </r>
        <r>  0.0001  0.0110  0.0006 </r>
        <r>  0.0001  0.0110  0.0006 </r>
        <r>  0.0046  0.0243  0.0013 </r>
        <r>  0.0046  0.0243  0.0013 </r>
        <r>  0.0004  0.0163  0.0015 </r>
        <r>  0.0004  0.0163  0.0015 </r>
        <r>  0.0004  0.0012  0.0032 </r>
        <r>  0.0004  0.0012  0.0032 </r>
       </set>
       <set comment="band 72">
        <r>  0.0030  0.0026  0.0000 </r>
        <r>  0.0030  0.0026  0.0000 </r>
        <r>  0.0033  0.0032  0.0000 </r>
        <r>  0.0033  0.0032  0.0000 </r>
        <r>  0.0001  0.0436  0.0012 </r>
        <r>  0.0001  0.0436  0.0012 </r>
        <r>  0.0006  0.0286  0.0007 </r>
        <r>  0.0006  0.0286  0.0007 </r>
        <r>  0.0011  0.0158  0.0010 </r>
        <r>  0.0011  0.0158  0.0010 </r>
        <r>  0.0001  0.0963  0.0006 </r>
        <r>  0.0001  0.0963  0.0006 </r>
        <r>  0.0012  0.0170  0.0033 </r>
        <r>  0.0012  0.0170  0.0033 </r>
        <r>  0.0006  0.0055  0.0005 </r>
        <r>  0.0006  0.0055  0.0005 </r>
        <r>  0.0022  0.0091  0.0011 </r>
        <r>  0.0022  0.0091  0.0011 </r>
        <r>  0.0010  0.0145  0.0013 </r>
        <r>  0.0010  0.0145  0.0013 </r>
        <r>  0.0011  0.0269  0.0036 </r>
        <r>  0.0011  0.0269  0.0036 </r>
        <r>  0.0005  0.0097  0.0013 </r>
        <r>  0.0005  0.0097  0.0013 </r>
        <r>  0.0007  0.0029  0.0020 </r>
        <r>  0.0007  0.0029  0.0020 </r>
       </set>
       <set comment="band 73">
        <r>  0.0028  0.0005  0.0000 </r>
        <r>  0.0028  0.0005  0.0000 </r>
        <r>  0.0004  0.0046  0.0000 </r>
        <r>  0.0004  0.0046  0.0000 </r>
        <r>  0.0009  0.0498  0.0013 </r>
        <r>  0.0009  0.0498  0.0013 </r>
        <r>  0.0007  0.0519  0.0007 </r>
        <r>  0.0007  0.0519  0.0007 </r>
        <r>  0.0000  0.0349  0.0048 </r>
        <r>  0.0000  0.0349  0.0048 </r>
        <r>  0.0002  0.0402  0.0002 </r>
        <r>  0.0002  0.0402  0.0002 </r>
        <r>  0.0009  0.0173  0.0015 </r>
        <r>  0.0009  0.0173  0.0015 </r>
        <r>  0.0021  0.0282  0.0004 </r>
        <r>  0.0021  0.0282  0.0004 </r>
        <r>  0.0014  0.0102  0.0020 </r>
        <r>  0.0014  0.0102  0.0020 </r>
        <r>  0.0007  0.0193  0.0008 </r>
        <r>  0.0007  0.0193  0.0008 </r>
        <r>  0.0025  0.0130  0.0018 </r>
        <r>  0.0025  0.0130  0.0018 </r>
        <r>  0.0012  0.0124  0.0010 </r>
        <r>  0.0012  0.0124  0.0010 </r>
        <r>  0.0010  0.0025  0.0038 </r>
        <r>  0.0010  0.0025  0.0038 </r>
       </set>
       <set comment="band 74">
        <r>  0.0009  0.0034  0.0000 </r>
        <r>  0.0009  0.0034  0.0000 </r>
        <r>  0.0003  0.0026  0.0000 </r>
        <r>  0.0003  0.0026  0.0000 </r>
        <r>  0.0022  0.0509  0.0009 </r>
        <r>  0.0022  0.0509  0.0009 </r>
        <r>  0.0002  0.0168  0.0003 </r>
        <r>  0.0002  0.0168  0.0003 </r>
        <r>  0.0033  0.0641  0.0015 </r>
        <r>  0.0033  0.0641  0.0015 </r>
        <r>  0.0003  0.0550  0.0009 </r>
        <r>  0.0003  0.0550  0.0009 </r>
        <r>  0.0029  0.0134  0.0017 </r>
        <r>  0.0029  0.0134  0.0017 </r>
        <r>  0.0011  0.0191  0.0019 </r>
        <r>  0.0011  0.0191  0.0019 </r>
        <r>  0.0001  0.0103  0.0003 </r>
        <r>  0.0001  0.0103  0.0003 </r>
        <r>  0.0012  0.0290  0.0022 </r>
        <r>  0.0012  0.0290  0.0022 </r>
        <r>  0.0003  0.0191  0.0021 </r>
        <r>  0.0003  0.0191  0.0021 </r>
        <r>  0.0010  0.0022  0.0007 </r>
        <r>  0.0010  0.0022  0.0007 </r>
        <r>  0.0007  0.0020  0.0034 </r>
        <r>  0.0007  0.0020  0.0034 </r>
       </set>
       <set comment="band 75">
        <r>  0.0010  0.0025  0.0000 </r>
        <r>  0.0010  0.0025  0.0000 </r>
        <r>  0.0016  0.0010  0.0000 </r>
        <r>  0.0016  0.0010  0.0000 </r>
        <r>  0.0006  0.0845  0.0020 </r>
        <r>  0.0006  0.0845  0.0020 </r>
        <r>  0.0003  0.0041  0.0002 </r>
        <r>  0.0003  0.0041  0.0002 </r>
        <r>  0.0047  0.0463  0.0048 </r>
        <r>  0.0047  0.0463  0.0048 </r>
        <r>  0.0001  0.0403  0.0001 </r>
        <r>  0.0001  0.0403  0.0001 </r>
        <r>  0.0010  0.0115  0.0016 </r>
        <r>  0.0010  0.0115  0.0016 </r>
        <r>  0.0002  0.0473  0.0014 </r>
        <r>  0.0002  0.0473  0.0014 </r>
        <r>  0.0003  0.0046  0.0007 </r>
        <r>  0.0003  0.0046  0.0007 </r>
        <r>  0.0007  0.0271  0.0025 </r>
        <r>  0.0007  0.0271  0.0025 </r>
        <r>  0.0007  0.0086  0.0015 </r>
        <r>  0.0007  0.0086  0.0015 </r>
        <r>  0.0003  0.0043  0.0004 </r>
        <r>  0.0003  0.0043  0.0004 </r>
        <r>  0.0015  0.0038  0.0049 </r>
        <r>  0.0015  0.0038  0.0049 </r>
       </set>
       <set comment="band 76">
        <r>  0.0005  0.0014  0.0000 </r>
        <r>  0.0005  0.0014  0.0000 </r>
        <r>  0.0032  0.0014  0.0000 </r>
        <r>  0.0032  0.0014  0.0000 </r>
        <r>  0.0016  0.0373  0.0009 </r>
        <r>  0.0016  0.0373  0.0009 </r>
        <r>  0.0004  0.0766  0.0005 </r>
        <r>  0.0004  0.0766  0.0005 </r>
        <r>  0.0024  0.0284  0.0023 </r>
        <r>  0.0024  0.0284  0.0023 </r>
        <r>  0.0002  0.0374  0.0006 </r>
        <r>  0.0002  0.0374  0.0006 </r>
        <r>  0.0007  0.0127  0.0013 </r>
        <r>  0.0007  0.0127  0.0013 </r>
        <r>  0.0002  0.0199  0.0008 </r>
        <r>  0.0002  0.0199  0.0008 </r>
        <r>  0.0013  0.0241  0.0021 </r>
        <r>  0.0013  0.0241  0.0021 </r>
        <r>  0.0003  0.0179  0.0013 </r>
        <r>  0.0003  0.0179  0.0013 </r>
        <r>  0.0001  0.0130  0.0014 </r>
        <r>  0.0001  0.0130  0.0014 </r>
        <r>  0.0017  0.0211  0.0023 </r>
        <r>  0.0017  0.0211  0.0023 </r>
        <r>  0.0002  0.0038  0.0032 </r>
        <r>  0.0002  0.0038  0.0032 </r>
       </set>
       <set comment="band 77">
        <r>  0.0024  0.0019  0.0000 </r>
        <r>  0.0024  0.0019  0.0000 </r>
        <r>  0.0013  0.0050  0.0000 </r>
        <r>  0.0013  0.0050  0.0000 </r>
        <r>  0.0000  0.0163  0.0004 </r>
        <r>  0.0000  0.0163  0.0004 </r>
        <r>  0.0001  0.0797  0.0007 </r>
        <r>  0.0001  0.0797  0.0007 </r>
        <r>  0.0001  0.0151  0.0007 </r>
        <r>  0.0001  0.0151  0.0007 </r>
        <r>  0.0006  0.0573  0.0010 </r>
        <r>  0.0006  0.0573  0.0010 </r>
        <r>  0.0013  0.0076  0.0025 </r>
        <r>  0.0013  0.0076  0.0025 </r>
        <r>  0.0004  0.0026  0.0002 </r>
        <r>  0.0004  0.0026  0.0002 </r>
        <r>  0.0045  0.0230  0.0014 </r>
        <r>  0.0045  0.0230  0.0014 </r>
        <r>  0.0013  0.0050  0.0008 </r>
        <r>  0.0013  0.0050  0.0008 </r>
        <r>  0.0001  0.0214  0.0027 </r>
        <r>  0.0001  0.0214  0.0027 </r>
        <r>  0.0017  0.0412  0.0036 </r>
        <r>  0.0017  0.0412  0.0036 </r>
        <r>  0.0000  0.0069  0.0005 </r>
        <r>  0.0000  0.0069  0.0005 </r>
       </set>
       <set comment="band 78">
        <r>  0.0005  0.0021  0.0000 </r>
        <r>  0.0005  0.0021  0.0000 </r>
        <r>  0.0016  0.0053  0.0000 </r>
        <r>  0.0016  0.0053  0.0000 </r>
        <r>  0.0003  0.0270  0.0005 </r>
        <r>  0.0003  0.0270  0.0005 </r>
        <r>  0.0009  0.1293  0.0009 </r>
        <r>  0.0009  0.1293  0.0009 </r>
        <r>  0.0007  0.0069  0.0006 </r>
        <r>  0.0007  0.0069  0.0006 </r>
        <r>  0.0000  0.0215  0.0003 </r>
        <r>  0.0000  0.0215  0.0003 </r>
        <r>  0.0018  0.0099  0.0007 </r>
        <r>  0.0018  0.0099  0.0007 </r>
        <r>  0.0016  0.0040  0.0005 </r>
        <r>  0.0016  0.0040  0.0005 </r>
        <r>  0.0001  0.0146  0.0047 </r>
        <r>  0.0001  0.0146  0.0047 </r>
        <r>  0.0011  0.0159  0.0007 </r>
        <r>  0.0011  0.0159  0.0007 </r>
        <r>  0.0006  0.0091  0.0011 </r>
        <r>  0.0006  0.0091  0.0011 </r>
        <r>  0.0012  0.0429  0.0041 </r>
        <r>  0.0012  0.0429  0.0041 </r>
        <r>  0.0003  0.0076  0.0006 </r>
        <r>  0.0003  0.0076  0.0006 </r>
       </set>
       <set comment="band 79">
        <r>  0.0031  0.0041  0.0000 </r>
        <r>  0.0031  0.0041  0.0000 </r>
        <r>  0.0033  0.0015  0.0000 </r>
        <r>  0.0033  0.0015  0.0000 </r>
        <r>  0.0001  0.0245  0.0007 </r>
        <r>  0.0001  0.0245  0.0007 </r>
        <r>  0.0002  0.0498  0.0004 </r>
        <r>  0.0002  0.0498  0.0004 </r>
        <r>  0.0000  0.0110  0.0018 </r>
        <r>  0.0000  0.0110  0.0018 </r>
        <r>  0.0001  0.0846  0.0011 </r>
        <r>  0.0001  0.0846  0.0011 </r>
        <r>  0.0030  0.0198  0.0037 </r>
        <r>  0.0030  0.0198  0.0037 </r>
        <r>  0.0003  0.0042  0.0007 </r>
        <r>  0.0003  0.0042  0.0007 </r>
        <r>  0.0012  0.0155  0.0009 </r>
        <r>  0.0012  0.0155  0.0009 </r>
        <r>  0.0007  0.0073  0.0011 </r>
        <r>  0.0007  0.0073  0.0011 </r>
        <r>  0.0016  0.0284  0.0022 </r>
        <r>  0.0016  0.0284  0.0022 </r>
        <r>  0.0013  0.0274  0.0028 </r>
        <r>  0.0013  0.0274  0.0028 </r>
        <r>  0.0000  0.0072  0.0009 </r>
        <r>  0.0000  0.0072  0.0009 </r>
       </set>
       <set comment="band 80">
        <r>  0.0012  0.0026  0.0000 </r>
        <r>  0.0012  0.0026  0.0000 </r>
        <r>  0.0012  0.0038  0.0000 </r>
        <r>  0.0012  0.0038  0.0000 </r>
        <r>  0.0002  0.0216  0.0005 </r>
        <r>  0.0002  0.0216  0.0005 </r>
        <r>  0.0005  0.0998  0.0014 </r>
        <r>  0.0005  0.0998  0.0014 </r>
        <r>  0.0006  0.0114  0.0010 </r>
        <r>  0.0006  0.0114  0.0010 </r>
        <r>  0.0003  0.0516  0.0012 </r>
        <r>  0.0003  0.0516  0.0012 </r>
        <r>  0.0004  0.0155  0.0023 </r>
        <r>  0.0004  0.0155  0.0023 </r>
        <r>  0.0011  0.0093  0.0001 </r>
        <r>  0.0011  0.0093  0.0001 </r>
        <r>  0.0003  0.0167  0.0037 </r>
        <r>  0.0003  0.0167  0.0037 </r>
        <r>  0.0009  0.0113  0.0005 </r>
        <r>  0.0009  0.0113  0.0005 </r>
        <r>  0.0005  0.0198  0.0019 </r>
        <r>  0.0005  0.0198  0.0019 </r>
        <r>  0.0001  0.0389  0.0035 </r>
        <r>  0.0001  0.0389  0.0035 </r>
        <r>  0.0002  0.0083  0.0007 </r>
        <r>  0.0002  0.0083  0.0007 </r>
       </set>
       <set comment="band 81">
        <r>  0.0000  0.0009  0.0000 </r>
        <r>  0.0000  0.0009  0.0000 </r>
        <r>  0.0001  0.0023  0.0000 </r>
        <r>  0.0001  0.0023  0.0000 </r>
        <r>  0.0000  0.0287  0.0006 </r>
        <r>  0.0000  0.0287  0.0006 </r>
        <r>  0.0004  0.0273  0.0009 </r>
        <r>  0.0004  0.0273  0.0009 </r>
        <r>  0.0005  0.0498  0.0027 </r>
        <r>  0.0005  0.0498  0.0027 </r>
        <r>  0.0002  0.0825  0.0007 </r>
        <r>  0.0002  0.0825  0.0007 </r>
        <r>  0.0013  0.0188  0.0026 </r>
        <r>  0.0013  0.0188  0.0026 </r>
        <r>  0.0003  0.0035  0.0013 </r>
        <r>  0.0003  0.0035  0.0013 </r>
        <r>  0.0006  0.0147  0.0018 </r>
        <r>  0.0006  0.0147  0.0018 </r>
        <r>  0.0017  0.0080  0.0019 </r>
        <r>  0.0017  0.0080  0.0019 </r>
        <r>  0.0012  0.0079  0.0011 </r>
        <r>  0.0012  0.0079  0.0011 </r>
        <r>  0.0003  0.0472  0.0014 </r>
        <r>  0.0003  0.0472  0.0014 </r>
        <r>  0.0001  0.0205  0.0003 </r>
        <r>  0.0001  0.0205  0.0003 </r>
       </set>
       <set comment="band 82">
        <r>  0.0002  0.0003  0.0000 </r>
        <r>  0.0002  0.0003  0.0000 </r>
        <r>  0.0001  0.0008  0.0000 </r>
        <r>  0.0001  0.0008  0.0000 </r>
        <r>  0.0003  0.0516  0.0012 </r>
        <r>  0.0003  0.0516  0.0012 </r>
        <r>  0.0004  0.0762  0.0013 </r>
        <r>  0.0004  0.0762  0.0013 </r>
        <r>  0.0001  0.0166  0.0010 </r>
        <r>  0.0001  0.0166  0.0010 </r>
        <r>  0.0001  0.0503  0.0004 </r>
        <r>  0.0001  0.0503  0.0004 </r>
        <r>  0.0002  0.0136  0.0018 </r>
        <r>  0.0002  0.0136  0.0018 </r>
        <r>  0.0003  0.0023  0.0005 </r>
        <r>  0.0003  0.0023  0.0005 </r>
        <r>  0.0006  0.0177  0.0024 </r>
        <r>  0.0006  0.0177  0.0024 </r>
        <r>  0.0001  0.0045  0.0014 </r>
        <r>  0.0001  0.0045  0.0014 </r>
        <r>  0.0000  0.0267  0.0027 </r>
        <r>  0.0000  0.0267  0.0027 </r>
        <r>  0.0009  0.0184  0.0014 </r>
        <r>  0.0009  0.0184  0.0014 </r>
        <r>  0.0003  0.0416  0.0004 </r>
        <r>  0.0003  0.0416  0.0004 </r>
       </set>
       <set comment="band 83">
        <r>  0.0001  0.0008  0.0000 </r>
        <r>  0.0001  0.0008  0.0000 </r>
        <r>  0.0002  0.0044  0.0000 </r>
        <r>  0.0002  0.0044  0.0000 </r>
        <r>  0.0007  0.0137  0.0020 </r>
        <r>  0.0007  0.0137  0.0020 </r>
        <r>  0.0000  0.0330  0.0011 </r>
        <r>  0.0000  0.0330  0.0011 </r>
        <r>  0.0007  0.0569  0.0035 </r>
        <r>  0.0007  0.0569  0.0035 </r>
        <r>  0.0005  0.0651  0.0003 </r>
        <r>  0.0005  0.0651  0.0003 </r>
        <r>  0.0009  0.0163  0.0025 </r>
        <r>  0.0009  0.0163  0.0025 </r>
        <r>  0.0013  0.0106  0.0023 </r>
        <r>  0.0013  0.0106  0.0023 </r>
        <r>  0.0006  0.0036  0.0018 </r>
        <r>  0.0006  0.0036  0.0018 </r>
        <r>  0.0027  0.0044  0.0017 </r>
        <r>  0.0027  0.0044  0.0017 </r>
        <r>  0.0022  0.0091  0.0014 </r>
        <r>  0.0022  0.0091  0.0014 </r>
        <r>  0.0003  0.0431  0.0012 </r>
        <r>  0.0003  0.0431  0.0012 </r>
        <r>  0.0002  0.0284  0.0004 </r>
        <r>  0.0002  0.0284  0.0004 </r>
       </set>
       <set comment="band 84">
        <r>  0.0017  0.0009  0.0000 </r>
        <r>  0.0017  0.0009  0.0000 </r>
        <r>  0.0022  0.0009  0.0000 </r>
        <r>  0.0022  0.0009  0.0000 </r>
        <r>  0.0003  0.0514  0.0007 </r>
        <r>  0.0003  0.0514  0.0007 </r>
        <r>  0.0005  0.0340  0.0005 </r>
        <r>  0.0005  0.0340  0.0005 </r>
        <r>  0.0007  0.0734  0.0006 </r>
        <r>  0.0007  0.0734  0.0006 </r>
        <r>  0.0001  0.0143  0.0011 </r>
        <r>  0.0001  0.0143  0.0011 </r>
        <r>  0.0007  0.0051  0.0011 </r>
        <r>  0.0007  0.0051  0.0011 </r>
        <r>  0.0052  0.0160  0.0026 </r>
        <r>  0.0052  0.0160  0.0026 </r>
        <r>  0.0012  0.0091  0.0012 </r>
        <r>  0.0012  0.0091  0.0012 </r>
        <r>  0.0008  0.0112  0.0028 </r>
        <r>  0.0008  0.0112  0.0028 </r>
        <r>  0.0003  0.0067  0.0007 </r>
        <r>  0.0003  0.0067  0.0007 </r>
        <r>  0.0001  0.0231  0.0015 </r>
        <r>  0.0001  0.0231  0.0015 </r>
        <r>  0.0000  0.0553  0.0009 </r>
        <r>  0.0000  0.0553  0.0009 </r>
       </set>
      </set>
     </set>
    </set>
   </array>
  </projected>
 </calculation>
 <structure name="finalpos" >
  <crystal>
   <varray name="basis" >
    <v>       4.14539465       0.00000000       0.00000000 </v>
    <v>       0.00000000      13.87519363      -1.00781414 </v>
    <v>       0.00000000      -0.11363788      12.73685950 </v>
   </varray>
   <i name="volume">    732.12588472 </i>
   <varray name="rec_basis" >
    <v>       0.24123156       0.00000000       0.00000000 </v>
    <v>       0.00000000       0.07211780       0.00064343 </v>
    <v>       0.00000000       0.00570638       0.07856320 </v>
   </varray>
  </crystal>
  <varray name="positions" >
   <v>       0.25000000       0.56980708       0.76225483 </v>
   <v>       0.75000000       0.43019292       0.23774517 </v>
   <v>       0.75000000       0.88643404       0.59892261 </v>
   <v>       0.25000000       0.11356596       0.40107739 </v>
   <v>       0.25000000       0.95149857       0.84825683 </v>
   <v>       0.75000000       0.04850143       0.15174317 </v>
   <v>       0.25000000       0.82999165       0.29944891 </v>
   <v>       0.75000000       0.17000835       0.70055109 </v>
   <v>       0.75000000       0.72959187       0.00013860 </v>
   <v>       0.25000000       0.27040813       0.99986140 </v>
   <v>       0.75000000       0.61881478       0.44722960 </v>
   <v>       0.25000000       0.38118522       0.55277040 </v>
   <v>       0.25000000       0.47642553       0.35824433 </v>
   <v>       0.75000000       0.52357447       0.64175567 </v>
   <v>       0.25000000       0.59725283      -0.04013121 </v>
   <v>       0.75000000       0.40274717       0.04013121 </v>
   <v>       0.75000000      -0.01254420       0.36085842 </v>
   <v>       0.25000000       0.01254420       0.63914158 </v>
   <v>       0.75000000       0.80993576       0.79225547 </v>
   <v>       0.25000000       0.19006424       0.20774453 </v>
   <v>       0.25000000       0.76103082       0.51133522 </v>
   <v>       0.75000000       0.23896918       0.48866478 </v>
   <v>       0.75000000       0.69325594       0.23320237 </v>
   <v>       0.25000000       0.30674406       0.76679763 </v>
   <v>       0.25000000       0.89720461       0.08010002 </v>
   <v>       0.75000000       0.10279539       0.91989998 </v>
  </varray>
 </structure>
</modeling>
