CIS                                     
           1
     4.244012    0.000000    0.000000
     0.000000   13.413409    0.040872
     0.000000    1.229593   15.510894
   Li   Bi   Se
   4   8  14
Direct configuration=     1
   0.25000000  0.56849279  0.81209004
   0.75000000  0.43150721  0.18790996
   0.75000000  0.82875309  0.62285478
   0.25000000  0.17124691  0.37714522
   0.25000000  0.94612343  0.87977359
   0.75000000  0.05387657  0.12022641
   0.25000000  0.83155606  0.27488852
   0.75000000  0.16844394  0.72511148
   0.75000000  0.73146608  0.05056020
   0.25000000  0.26853392  0.94943980
   0.75000000  0.60668333  0.42829721
   0.25000000  0.39331667  0.57170279
   0.25000000  0.45798711  0.39320698
   0.75000000  0.54201289  0.60679302
   0.25000000  0.59813812  0.03793755
   0.75000000  0.40186188  0.96206245
   0.75000000  0.98566906  0.29540055
   0.25000000  0.01433094  0.70459945
   0.75000000  0.79785506  0.86286623
   0.25000000  0.20214494  0.13713377
   0.25000000  0.75545718  0.45156839
   0.75000000  0.24454282  0.54843161
   0.75000000  0.69160821  0.24041933
   0.25000000  0.30839179  0.75958067
   0.25000000  0.90357682  0.08303846
   0.75000000  0.09642318  0.91696154
CIS                                     
           1
     4.240218    0.000000    0.000000
     0.000000   13.387408    0.019702
     0.000000    1.202863   15.466921
   Li   Bi   Se
   4   8  14
Direct configuration=     2
   0.25000000  0.56832277  0.81231680
   0.75000000  0.43167723  0.18768320
   0.75000000  0.82885538  0.62283056
   0.25000000  0.17114462  0.37716944
   0.25000000  0.94610066  0.87976682
   0.75000000  0.05389934  0.12023318
   0.25000000  0.83164446  0.27485994
   0.75000000  0.16835554  0.72514006
   0.75000000  0.73154022  0.05053755
   0.25000000  0.26845978  0.94946245
   0.75000000  0.60670229  0.42828153
   0.25000000  0.39329771  0.57171847
   0.25000000  0.45781081  0.39296220
   0.75000000  0.54218919  0.60703780
   0.25000000  0.59782242  0.03779789
   0.75000000  0.40217758  0.96220211
   0.75000000  0.98604526  0.29564255
   0.25000000  0.01395474  0.70435745
   0.75000000  0.79765302  0.86266992
   0.25000000  0.20234698  0.13733008
   0.25000000  0.75559162  0.45196373
   0.75000000  0.24440838  0.54803627
   0.75000000  0.69135486  0.24034944
   0.25000000  0.30864514  0.75965056
   0.25000000  0.90352785  0.08301199
   0.75000000  0.09647215  0.91698801
CIS                                     
           1
     4.228837    0.000000    0.000000
     0.000000   13.309407   -0.043807
     0.000000    1.122675   15.335002
   Li   Bi   Se
   4   8  14
Direct configuration=     3
   0.25000000  0.56781295  0.81299831
   0.75000000  0.43218705  0.18700169
   0.75000000  0.82916267  0.62275813
   0.25000000  0.17083733  0.37724187
   0.25000000  0.94603218  0.87974635
   0.75000000  0.05396782  0.12025365
   0.25000000  0.83190999  0.27477433
   0.75000000  0.16809001  0.72522567
   0.75000000  0.73176291  0.05046973
   0.25000000  0.26823709  0.94953027
   0.75000000  0.60675918  0.42823442
   0.25000000  0.39324082  0.57176558
   0.25000000  0.45727966  0.39222505
   0.75000000  0.54272034  0.60777495
   0.25000000  0.59687286  0.03737641
   0.75000000  0.40312714  0.96262359
   0.75000000  0.98717720  0.29637214
   0.25000000  0.01282280  0.70362786
   0.75000000  0.79704479  0.86207848
   0.25000000  0.20295521  0.13792152
   0.25000000  0.75599774  0.45315369
   0.75000000  0.24400226  0.54684631
   0.75000000  0.69059306  0.24013816
   0.25000000  0.30940694  0.75986184
   0.25000000  0.90338054  0.08293214
   0.75000000  0.09661946  0.91706786
CIS                                     
           1
     4.206074    0.000000    0.000000
     0.000000   13.153404   -0.170825
     0.000000    0.962298   15.071165
   Li   Bi   Se
   4   8  14
Direct configuration=     4
   0.25000000  0.56679493  0.81436884
   0.75000000  0.43320507  0.18563116
   0.75000000  0.82977987  0.62261456
   0.25000000  0.17022013  0.37738544
   0.25000000  0.94589425  0.87970448
   0.75000000  0.05410575  0.12029552
   0.25000000  0.83244306  0.27460383
   0.75000000  0.16755694  0.72539617
   0.75000000  0.73221002  0.05033476
   0.25000000  0.26778998  0.94966524
   0.75000000  0.60687309  0.42813988
   0.25000000  0.39312691  0.57186012
   0.25000000  0.45620371  0.39073363
   0.75000000  0.54379629  0.60926637
   0.25000000  0.59495882  0.03651830
   0.75000000  0.40504118  0.96348170
   0.75000000  0.98946127  0.29785332
   0.25000000  0.01053873  0.70214668
   0.75000000  0.79581535  0.86088035
   0.25000000  0.20418465  0.13911965
   0.25000000  0.75682706  0.45555749
   0.75000000  0.24317294  0.54444251
   0.75000000  0.68905883  0.23970560
   0.25000000  0.31094117  0.76029440
   0.25000000  0.90308345  0.08276986
   0.75000000  0.09691655  0.91723014
CIS                                     
           1
     4.160549    0.000000    0.000000
     0.000000   12.841399   -0.424861
     0.000000    0.641544   14.543490
   Li   Bi   Se
   4   8  14
Direct configuration=     5
   0.25000000  0.56476588  0.81714081
   0.75000000  0.43523412  0.18285919
   0.75000000  0.83102501  0.62233293
   0.25000000  0.16897499  0.37766707
   0.25000000  0.94561438  0.87961692
   0.75000000  0.05438562  0.12038308
   0.25000000  0.83351748  0.27426594
   0.75000000  0.16648252  0.72573406
   0.75000000  0.73311136  0.05006771
   0.25000000  0.26688864  0.94993229
   0.75000000  0.60710141  0.42794940
   0.25000000  0.39289859  0.57205060
   0.25000000  0.45399511  0.38767979
   0.75000000  0.54600489  0.61232021
   0.25000000  0.59106902  0.03473906
   0.75000000  0.40893098  0.96526094
   0.75000000  0.99411303  0.30090699
   0.25000000  0.00588697  0.69909301
   0.75000000  0.79330272  0.85842082
   0.25000000  0.20669728  0.14157918
   0.25000000  0.75855675  0.46046403
   0.75000000  0.24144325  0.53953597
   0.75000000  0.68594647  0.23879899
   0.25000000  0.31405353  0.76120101
   0.25000000  0.90247906  0.08243447
   0.75000000  0.09752094  0.91756553
CIS                                     
           1
     4.173493    0.000000    0.000000
     0.000000   12.930110   -0.352632
     0.000000    0.732743   14.693522
   Li   Bi   Se
   4   8  14
Direct configuration=     6
   0.25000000  0.56533806  0.81633401
   0.75000000  0.43466194  0.18366599
   0.75000000  0.83066455  0.62240954
   0.25000000  0.16933545  0.37759046
   0.25000000  0.94569639  0.87964418
   0.75000000  0.05430361  0.12035582
   0.25000000  0.83320707  0.27436002
   0.75000000  0.16679293  0.72563998
   0.75000000  0.73285085  0.05014179
   0.25000000  0.26714915  0.94985821
   0.75000000  0.60703623  0.42800438
   0.25000000  0.39296377  0.57199562
   0.25000000  0.45465785  0.38859156
   0.75000000  0.54534215  0.61140844
   0.25000000  0.59221256  0.03528372
   0.75000000  0.40778744  0.96471628
   0.75000000  0.99273939  0.29998266
   0.25000000  0.00726061  0.70001734
   0.75000000  0.79405001  0.85915894
   0.25000000  0.20594999  0.14084106
   0.25000000  0.75802118  0.45900848
   0.75000000  0.24197882  0.54099152
   0.75000000  0.68685806  0.23908235
   0.25000000  0.31314194  0.76091765
   0.25000000  0.90265713  0.08253647
   0.75000000  0.09734287  0.91746353
CIS                                     
           1
     4.175761    0.000000    0.000000
     0.000000   12.919613   -0.380115
     0.000000    0.700369   14.673423
   Li   Bi   Se
   4   8  14
Direct configuration=     7
   0.25000000  0.56510428  0.81668918
   0.75000000  0.43489572  0.18331082
   0.75000000  0.83081733  0.62237185
   0.25000000  0.16918267  0.37762815
   0.25000000  0.94553802  0.87961301
   0.75000000  0.05446198  0.12038699
   0.25000000  0.83334726  0.27446939
   0.75000000  0.16665274  0.72553061
   0.75000000  0.73286047  0.05002435
   0.25000000  0.26713953  0.94997565
   0.75000000  0.60703218  0.42800814
   0.25000000  0.39296782  0.57199186
   0.25000000  0.45432145  0.38808055
   0.75000000  0.54567855  0.61191945
   0.25000000  0.59172266  0.03501085
   0.75000000  0.40827734  0.96498915
   0.75000000  0.99335902  0.30051074
   0.25000000  0.00664098  0.69948926
   0.75000000  0.79367150  0.85872970
   0.25000000  0.20632850  0.14127030
   0.25000000  0.75836074  0.45969364
   0.75000000  0.24163926  0.54030636
   0.75000000  0.68640640  0.23899562
   0.25000000  0.31359360  0.76100438
   0.25000000  0.90255841  0.08248757
   0.75000000  0.09744159  0.91751243
CIS                                     
           1
     4.182568    0.000000    0.000000
     0.000000   12.888120   -0.462562
     0.000000    0.603248   14.613126
   Li   Bi   Se
   4   8  14
Direct configuration=     8
   0.25000000  0.56440506  0.81775488
   0.75000000  0.43559494  0.18224512
   0.75000000  0.83127572  0.62225950
   0.25000000  0.16872428  0.37774050
   0.25000000  0.94506235  0.87951845
   0.75000000  0.05493765  0.12048155
   0.25000000  0.83376892  0.27479878
   0.75000000  0.16623108  0.72520122
   0.75000000  0.73288847  0.04967159
   0.25000000  0.26711153  0.95032841
   0.75000000  0.60702006  0.42801944
   0.25000000  0.39297994  0.57198056
   0.25000000  0.45330782  0.38654341
   0.75000000  0.54669218  0.61345659
   0.25000000  0.59024994  0.03418831
   0.75000000  0.40975006  0.96581169
   0.75000000  0.99522309  0.30210078
   0.25000000  0.00477691  0.69789922
   0.75000000  0.79253205  0.85743799
   0.25000000  0.20746795  0.14256201
   0.25000000  0.75938512  0.46175399
   0.75000000  0.24061488  0.53824601
   0.75000000  0.68504983  0.23873250
   0.25000000  0.31495017  0.76126750
   0.25000000  0.90226169  0.08234008
   0.75000000  0.09773831  0.91765992
CIS                                     
           1
     4.196180    0.000000    0.000000
     0.000000   12.825135   -0.627458
     0.000000    0.409005   14.492533
   Li   Bi   Se
   4   8  14
Direct configuration=     9
   0.25000000  0.56301918  0.81988760
   0.75000000  0.43698082  0.18011240
   0.75000000  0.83219284  0.62203905
   0.25000000  0.16780716  0.37796095
   0.25000000  0.94410753  0.87932309
   0.75000000  0.05589247  0.12067691
   0.25000000  0.83461891  0.27546525
   0.75000000  0.16538109  0.72453475
   0.75000000  0.73293943  0.04896331
   0.25000000  0.26706057  0.95103669
   0.75000000  0.60699593  0.42804198
   0.25000000  0.39300407  0.57195802
   0.25000000  0.45125360  0.38344415
   0.75000000  0.54874640  0.61655585
   0.25000000  0.58728601  0.03251924
   0.75000000  0.41271399  0.96748076
   0.75000000  0.99898266  0.30531601
   0.25000000  0.00101734  0.69468399
   0.75000000  0.79022924  0.85483029
   0.25000000  0.20977076  0.14516971
   0.25000000  0.76146856  0.46590435
   0.75000000  0.23853144  0.53409565
   0.75000000  0.68232692  0.23818847
   0.25000000  0.31767308  0.76181153
   0.25000000  0.90166480  0.08204044
   0.75000000  0.09833520  0.91795956
CIS                                     
           1
     4.223405    0.000000    0.000000
     0.000000   12.699165   -0.957250
     0.000000    0.020521   14.251347
   Li   Bi   Se
   4   8  14
Direct configuration=    10
   0.25000000  0.56029823  0.82415919
   0.75000000  0.43970177  0.17584081
   0.75000000  0.83402885  0.62161542
   0.25000000  0.16597115  0.37838458
   0.25000000  0.94218343  0.87890675
   0.75000000  0.05781657  0.12109325
   0.25000000  0.83634643  0.27682981
   0.75000000  0.16365357  0.72317019
   0.75000000  0.73302076  0.04753522
   0.25000000  0.26697924  0.95246478
   0.75000000  0.60694813  0.42808692
   0.25000000  0.39305187  0.57191308
   0.25000000  0.44703441  0.37714250
   0.75000000  0.55296559  0.62285750
   0.25000000  0.58128164  0.02908255
   0.75000000  0.41871836  0.97091745
   0.75000000  0.00663150  0.31189114
   0.25000000 -0.00663150  0.68810886
   0.75000000  0.78552520  0.84951483
   0.25000000  0.21447480  0.15048517
   0.25000000  0.76577772  0.47432771
   0.75000000  0.23422228  0.52567229
   0.75000000  0.67684020  0.23702762
   0.25000000  0.32315980  0.76297238
   0.25000000  0.90045669  0.08142196
   0.75000000  0.09954331  0.91857804
CIS                                     
           1
     4.228801    0.000000    0.000000
     0.000000   12.709523   -0.954778
     0.000000    0.025736   14.283509
   Li   Bi   Se
   4   8  14
Direct configuration=    11
   0.25000000  0.56001846  0.82477821
   0.75000000  0.43998154  0.17522179
   0.75000000  0.83424618  0.62147977
   0.25000000  0.16575382  0.37852023
   0.25000000  0.94115551  0.87784644
   0.75000000  0.05884449  0.12215356
   0.25000000  0.83639359  0.27839296
   0.75000000  0.16360641  0.72160704
   0.75000000  0.73146949  0.04652515
   0.25000000  0.26853051  0.95347485
   0.75000000  0.60657577  0.42875973
   0.25000000  0.39342423  0.57124027
   0.25000000  0.44654580  0.37643771
   0.75000000  0.55345420  0.62356229
   0.25000000  0.58194281  0.02825415
   0.75000000  0.41805719  0.97174585
   0.75000000  0.00734029  0.31260054
   0.25000000 -0.00734029  0.68739946
   0.75000000  0.78484157  0.84864134
   0.25000000  0.21515843  0.15135866
   0.25000000  0.76662516  0.47491675
   0.75000000  0.23337484  0.52508325
   0.75000000  0.67652062  0.23707522
   0.25000000  0.32347938  0.76292478
   0.25000000  0.90057376  0.08163118
   0.75000000  0.09942624  0.91836882
CIS                                     
           1
     4.244990    0.000000    0.000000
     0.000000   12.740597   -0.947362
     0.000000    0.041381   14.379995
   Li   Bi   Se
   4   8  14
Direct configuration=    12
   0.25000000  0.55917909  0.82663125
   0.75000000  0.44082091  0.17336875
   0.75000000  0.83489779  0.62107360
   0.25000000  0.16510221  0.37892640
   0.25000000  0.93807555  0.87467346
   0.75000000  0.06192445  0.12532654
   0.25000000  0.83653305  0.28307171
   0.75000000  0.16346695  0.71692829
   0.75000000  0.72682069  0.04350289
   0.25000000  0.27317931  0.95649711
   0.75000000  0.60545877  0.43077382
   0.25000000  0.39454123  0.56922618
   0.25000000  0.44508202  0.37432848
   0.75000000  0.55491798  0.62567152
   0.25000000  0.58392571  0.02577415
   0.75000000  0.41607429  0.97422585
   0.75000000  0.00946408  0.31472340
   0.25000000 -0.00946408  0.68527660
   0.75000000  0.78279340  0.84602732
   0.25000000  0.21720660  0.15397268
   0.25000000  0.76916468  0.47667928
   0.75000000  0.23083532  0.52332072
   0.75000000  0.67556260  0.23721789
   0.25000000  0.32443740  0.76278211
   0.25000000  0.90092446  0.08225735
   0.75000000  0.09907554  0.91774265
CIS                                     
           1
     4.277369    0.000000    0.000000
     0.000000   12.802745   -0.932531
     0.000000    0.072671   14.572966
   Li   Bi   Se
   4   8  14
Direct configuration=    13
   0.25000000  0.55749997  0.83031329
   0.75000000  0.44250003  0.16968671
   0.75000000  0.83619882  0.62026590
   0.25000000  0.16380118  0.37973410
   0.25000000  0.93193830  0.86837475
   0.75000000  0.06806170  0.13162525
   0.25000000  0.83680003  0.29236549
   0.75000000  0.16319997  0.70763451
   0.75000000  0.71755304  0.03750570
   0.25000000  0.28244696  0.96249430
   0.75000000  0.60322535  0.43477615
   0.25000000  0.39677465  0.56522385
   0.25000000  0.44216668  0.37014064
   0.75000000  0.55783332  0.62985936
   0.25000000  0.58788782  0.02084515
   0.75000000  0.41211218  0.97915485
   0.75000000  0.01369619  0.31893744
   0.25000000 -0.01369619  0.68106256
   0.75000000  0.77871334  0.84083753
   0.25000000  0.22128666  0.15916247
   0.25000000  0.77422711  0.48017698
   0.75000000  0.22577289  0.51982302
   0.75000000  0.67365088  0.23750260
   0.25000000  0.32634912  0.76249740
   0.25000000  0.90162263  0.08350070
   0.75000000  0.09837737  0.91649930
CIS                                     
           1
     4.256034    0.000000    0.000000
     0.000000   12.761795   -0.942303
     0.000000    0.052054   14.445815
   Li   Bi   Se
   4   8  14
Direct configuration=    14
   0.25000000  0.55860674  0.82791818
   0.75000000  0.44139326  0.17208182
   0.75000000  0.83534446  0.62079211
   0.25000000  0.16465554  0.37920789
   0.25000000  0.93595276  0.87246407
   0.75000000  0.06404724  0.12753593
   0.25000000  0.83663947  0.28632398
   0.75000000  0.16336053  0.71367602
   0.75000000  0.72362063  0.04139627
   0.25000000  0.27637937  0.95860373
   0.75000000  0.60469608  0.43217234
   0.25000000  0.39530392  0.56782766
   0.25000000  0.44407178  0.37286054
   0.75000000  0.55592822  0.62713946
   0.25000000  0.58528211  0.02405289
   0.75000000  0.41471789  0.97594711
   0.75000000  0.01092771  0.31620167
   0.25000000 -0.01092771  0.68379833
   0.75000000  0.78138060  0.84420776
   0.25000000  0.21861940  0.15579224
   0.25000000  0.77091305  0.47790761
   0.75000000  0.22908695  0.52209239
   0.75000000  0.67490487  0.23731584
   0.25000000  0.32509513  0.76268416
   0.25000000  0.90116677  0.08269303
   0.75000000  0.09883323  0.91730697
CIS                                     
           1
     4.225944    0.000000    0.000000
     0.000000   12.671618   -0.897880
     0.000000    0.093273   14.328019
   Li   Bi   Se
   4   8  14
Direct configuration=    15
   0.25000000  0.55807336  0.82921332
   0.75000000  0.44192664  0.17078668
   0.75000000  0.83591015  0.62045354
   0.25000000  0.16408985  0.37954646
   0.25000000  0.93473327  0.87072178
   0.75000000  0.06526673  0.12927822
   0.25000000  0.83637637  0.28906361
   0.75000000  0.16362363  0.71093639
   0.75000000  0.72274070  0.03978066
   0.25000000  0.27725930  0.96021934
   0.75000000  0.60398484  0.43360032
   0.25000000  0.39601516  0.56639968
   0.25000000  0.44436965  0.37267114
   0.75000000  0.55563035  0.62732886
   0.25000000  0.58569622  0.02152019
   0.75000000  0.41430378  0.97847981
   0.75000000  0.01194397  0.31731313
   0.25000000 -0.01194397  0.68268687
   0.75000000  0.77945332  0.84240305
   0.25000000  0.22054668  0.15759695
   0.25000000  0.77187873  0.47833865
   0.75000000  0.22812127  0.52166135
   0.75000000  0.67551815  0.23789939
   0.25000000  0.32448185  0.76210061
   0.25000000  0.90154538  0.08350642
   0.75000000  0.09845462  0.91649358
CIS                                     
           1
     4.205023    0.000000    0.000000
     0.000000   12.608920   -0.866994
     0.000000    0.121932   14.246118
   Li   Bi   Se
   4   8  14
Direct configuration=    16
   0.25000000  0.55769690  0.83012199
   0.75000000  0.44230310  0.16987801
   0.75000000  0.83630705  0.62021522
   0.25000000  0.16369295  0.37978478
   0.25000000  0.93388336  0.86950297
   0.75000000  0.06611664  0.13049703
   0.25000000  0.83618582  0.29098414
   0.75000000  0.16381418  0.70901586
   0.75000000  0.72212827  0.03865000
   0.25000000  0.27787173  0.96135000
   0.75000000  0.60348352  0.43460242
   0.25000000  0.39651648  0.56539758
   0.25000000  0.44457866  0.37253786
   0.75000000  0.55542134  0.62746214
   0.25000000  0.58599202  0.01974442
   0.75000000  0.41400798  0.98025558
   0.75000000  0.01265303  0.31809021
   0.25000000 -0.01265303  0.68190979
   0.75000000  0.77810794  0.84114180
   0.25000000  0.22189206  0.15885820
   0.25000000  0.77255392  0.47863896
   0.75000000  0.22744608  0.52136104
   0.75000000  0.67594625  0.23830723
   0.25000000  0.32405375  0.76169277
   0.25000000  0.90180862  0.08407578
   0.75000000  0.09819138  0.91592422
CIS                                     
           1
     4.199211    0.000000    0.000000
     0.000000   12.593761   -0.857593
     0.000000    0.130547   14.219077
   Li   Bi   Se
   4   8  14
Direct configuration=    17
   0.25000000  0.55724596  0.83124339
   0.75000000  0.44275404  0.16875661
   0.75000000  0.83704042  0.61990097
   0.25000000  0.16295958  0.38009903
   0.25000000  0.93385423  0.86893941
   0.75000000  0.06614577  0.13106059
   0.25000000  0.83610846  0.29242167
   0.75000000  0.16389154  0.70757833
   0.75000000  0.72482478  0.03777209
   0.25000000  0.27517522  0.96222791
   0.75000000  0.60346167  0.43523199
   0.25000000  0.39653833  0.56476801
   0.25000000  0.44555666  0.37244588
   0.75000000  0.55444334  0.62755412
   0.25000000  0.58459686  0.01693362
   0.75000000  0.41540314  0.98306638
   0.75000000  0.01324583  0.31997317
   0.25000000 -0.01324583  0.68002683
   0.75000000  0.77514782  0.83896680
   0.25000000  0.22485218  0.16103320
   0.25000000  0.77254045  0.47959224
   0.75000000  0.22745955  0.52040776
   0.75000000  0.67669363  0.23915894
   0.25000000  0.32330637  0.76084106
   0.25000000  0.90249104  0.08502794
   0.75000000  0.09750896  0.91497206
CIS                                     
           1
     4.193061    0.000000    0.000000
     0.000000   12.577718   -0.847645
     0.000000    0.139664   14.190460
   Li   Bi   Se
   4   8  14
Direct configuration=    18
   0.25000000  0.55676735  0.83243260
   0.75000000  0.44323265  0.16756740
   0.75000000  0.83781767  0.61956733
   0.25000000  0.16218233  0.38043267
   0.25000000  0.93382379  0.86834194
   0.75000000  0.06617621  0.13165806
   0.25000000  0.83602542  0.29394581
   0.75000000  0.16397458  0.70605419
   0.75000000  0.72768247  0.03683965
   0.25000000  0.27231753  0.96316035
   0.75000000  0.60343804  0.43589947
   0.25000000  0.39656196  0.56410053
   0.25000000  0.44659296  0.37234776
   0.75000000  0.55340704  0.62765224
   0.25000000  0.58312074  0.01395443
   0.75000000  0.41687926  0.98604557
   0.75000000  0.01387253  0.32196916
   0.25000000 -0.01387253  0.67803084
   0.75000000  0.77201311  0.83666267
   0.25000000  0.22798689  0.16333733
   0.25000000  0.77252546  0.48060294
   0.75000000  0.22747454  0.51939706
   0.75000000  0.67748487  0.24006147
   0.25000000  0.32251513  0.75993853
   0.25000000  0.90321338  0.08603701
   0.75000000  0.09678662  0.91396299
CIS                                     
           1
     4.180760    0.000000    0.000000
     0.000000   12.545633   -0.827749
     0.000000    0.157899   14.133227
   Li   Bi   Se
   4   8  14
Direct configuration=    19
   0.25000000  0.55580712  0.83481630
   0.75000000  0.44419288  0.16518370
   0.75000000  0.83937468  0.61889778
   0.25000000  0.16062532  0.38110222
   0.25000000  0.93376373  0.86714468
   0.75000000  0.06623627  0.13285532
   0.25000000  0.83585685  0.29700021
   0.75000000  0.16414315  0.70299979
   0.75000000  0.73340656  0.03496751
   0.25000000  0.26659344  0.96503249
   0.75000000  0.60338974  0.43723711
   0.25000000  0.39661026  0.56276289
   0.25000000  0.44866835  0.37214983
   0.75000000  0.55133165  0.62785017
   0.25000000  0.58016917  0.00798614
   0.75000000  0.41983083  0.99201386
   0.75000000  0.01512454  0.32596821
   0.25000000 -0.01512454  0.67403179
   0.75000000  0.76573908  0.83204924
   0.25000000  0.23426092  0.16795076
   0.25000000  0.77249393  0.48262833
   0.75000000  0.22750607  0.51737167
   0.75000000  0.67906802  0.24186910
   0.25000000  0.32093198  0.75813090
   0.25000000  0.90465840  0.08805823
   0.75000000  0.09534160  0.91194177
CIS                                     
           1
     4.189919    0.000000    0.000000
     0.000000   12.569525   -0.842564
     0.000000    0.144321   14.175845
   Li   Bi   Se
   4   8  14
Direct configuration=    20
   0.25000000  0.55652665  0.83303338
   0.75000000  0.44347335  0.16696662
   0.75000000  0.83821154  0.61939979
   0.25000000  0.16178846  0.38060021
   0.25000000  0.93380723  0.86803968
   0.75000000  0.06619277  0.13196032
   0.25000000  0.83598611  0.29471663
   0.75000000  0.16401389  0.70528337
   0.75000000  0.72913113  0.03637245
   0.25000000  0.27086887  0.96362755
   0.75000000  0.60342730  0.43623707
   0.25000000  0.39657270  0.56376293
   0.25000000  0.44711874  0.37229974
   0.75000000  0.55288126  0.62770026
   0.25000000  0.58236599  0.01244518
   0.75000000  0.41763401  0.98755482
   0.75000000  0.01419432  0.32297974
   0.25000000 -0.01419432  0.67702026
   0.75000000  0.77041780  0.83549230
   0.25000000  0.22958220  0.16450770
   0.25000000  0.77251974  0.48111415
   0.75000000  0.22748026  0.51888585
   0.75000000  0.67788814  0.24051922
   0.25000000  0.32211186  0.75948078
   0.25000000  0.90358188  0.08654854
   0.75000000  0.09641812  0.91345146
CIS                                     
           1
     4.190633    0.000000    0.000000
     0.000000   12.599520   -0.890490
     0.000000    0.095786   14.252990
   Li   Bi   Se
   4   8  14
Direct configuration=    21
   0.25000000  0.55617126  0.83337377
   0.75000000  0.44382874  0.16662623
   0.75000000  0.83916862  0.61913769
   0.25000000  0.16083138  0.38086231
   0.25000000  0.93309234  0.86693165
   0.75000000  0.06690766  0.13306835
   0.25000000  0.83620736  0.29502303
   0.75000000  0.16379264  0.70497697
   0.75000000  0.73013416  0.03550112
   0.25000000  0.26986584  0.96449888
   0.75000000  0.60412367  0.43561408
   0.25000000  0.39587633  0.56438592
   0.25000000  0.44856537  0.37175360
   0.75000000  0.55143463  0.62824640
   0.25000000  0.58413453  0.01109017
   0.75000000  0.41586547  0.98890983
   0.75000000  0.01458159  0.32425863
   0.25000000 -0.01458159  0.67574137
   0.75000000  0.76852182  0.83351382
   0.25000000  0.23147818  0.16648618
   0.25000000  0.77192523  0.48294793
   0.75000000  0.22807477  0.51705207
   0.75000000  0.67886638  0.24081293
   0.25000000  0.32113362  0.75918707
   0.25000000  0.90442150  0.08706055
   0.75000000  0.09557850  0.91293945
CIS                                     
           1
     4.191526    0.000000    0.000000
     0.000000   12.637048   -0.950453
     0.000000    0.035061   14.349510
   Li   Bi   Se
   4   8  14
Direct configuration=    22
   0.25000000  0.55572933  0.83379601
   0.75000000  0.44427067  0.16620399
   0.75000000  0.84036190  0.61881530
   0.25000000  0.15963810  0.38118470
   0.25000000  0.93219466  0.86554962
   0.75000000  0.06780534  0.13445038
   0.25000000  0.83648501  0.29540530
   0.75000000  0.16351499  0.70459470
   0.75000000  0.73138183  0.03442061
   0.25000000  0.26861817  0.96557939
   0.75000000  0.60498981  0.43484146
   0.25000000  0.39501019  0.56515854
   0.25000000  0.45036831  0.37107964
   0.75000000  0.54963169  0.62892036
   0.25000000  0.58633532  0.00941071
   0.75000000  0.41366468  0.99058929
   0.75000000  0.01507119  0.32585200
   0.25000000 -0.01507119  0.67414800
   0.75000000  0.76614572  0.83104361
   0.25000000  0.23385428  0.16895639
   0.25000000  0.77119213  0.48522802
   0.75000000  0.22880787  0.51477198
   0.75000000  0.68008880  0.24118243
   0.25000000  0.31991120  0.75881757
   0.25000000  0.90547197  0.08770122
   0.75000000  0.09452803  0.91229878
CIS                                     
           1
     4.190995    0.000000    0.000000
     0.000000   12.614751   -0.914826
     0.000000    0.071140   14.292163
   Li   Bi   Se
   4   8  14
Direct configuration=    23
   0.25000000  0.55598990  0.83354779
   0.75000000  0.44401010  0.16645221
   0.75000000  0.83965595  0.61900280
   0.25000000  0.16034405  0.38099720
   0.25000000  0.93273038  0.86636761
   0.75000000  0.06726962  0.13363239
   0.25000000  0.83631944  0.29517897
   0.75000000  0.16368056  0.70482103
   0.75000000  0.73064584  0.03505552
   0.25000000  0.26935416  0.96494448
   0.75000000  0.60447894  0.43529552
   0.25000000  0.39552106  0.56470448
   0.25000000  0.44930223  0.37147324
   0.75000000  0.55069777  0.62852676
   0.25000000  0.58503644  0.01039695
   0.75000000  0.41496356  0.98960305
   0.75000000  0.01477660  0.32491022
   0.25000000 -0.01477660  0.67508978
   0.75000000  0.76756034  0.83250749
   0.25000000  0.23243966  0.16749251
   0.25000000  0.77161987  0.48388373
   0.75000000  0.22838013  0.51611627
   0.75000000  0.67936362  0.24096141
   0.25000000  0.32063638  0.75903859
   0.25000000  0.90484786  0.08732053
   0.75000000  0.09515214  0.91267947
CIS                                     
           1
     4.187591    0.000000    0.000000
     0.000000   12.631844   -0.935476
     0.000000    0.042265   14.215277
   Li   Bi   Se
   4   8  14
Direct configuration=    24
   0.25000000  0.55571604  0.83337539
   0.75000000  0.44428396  0.16662461
   0.75000000  0.84071482  0.61866827
   0.25000000  0.15928518  0.38133173
   0.25000000  0.93146623  0.86452182
   0.75000000  0.06853377  0.13547818
   0.25000000  0.83658401  0.29565681
   0.75000000  0.16341599  0.70434319
   0.75000000  0.73107099  0.03395841
   0.25000000  0.26892901  0.96604159
   0.75000000  0.60497700  0.43489589
   0.25000000  0.39502300  0.56510411
   0.25000000  0.45069510  0.37134317
   0.75000000  0.54930490  0.62865683
   0.25000000  0.58752146  0.00962667
   0.75000000  0.41247854  0.99037333
   0.75000000  0.01519491  0.32543922
   0.25000000 -0.01519491  0.67456078
   0.75000000  0.76623369  0.83135894
   0.25000000  0.23376631  0.16864106
   0.25000000  0.77135936  0.48529068
   0.75000000  0.22864064  0.51470932
   0.75000000  0.68057481  0.24067335
   0.25000000  0.31942519  0.75932665
   0.25000000  0.90599944  0.08768331
   0.75000000  0.09400056  0.91231669
CIS                                     
           1
     4.182843    0.000000    0.000000
     0.000000   12.655686   -0.964278
     0.000000    0.001991   14.108036
   Li   Bi   Se
   4   8  14
Direct configuration=    25
   0.25000000  0.55533403  0.83313306
   0.75000000  0.44466597  0.16686694
   0.75000000  0.84218867  0.61820108
   0.25000000  0.15781133  0.38179892
   0.25000000  0.92969954  0.86193060
   0.75000000  0.07030046  0.13806940
   0.25000000  0.83695403  0.29632751
   0.75000000  0.16304597  0.70367249
   0.75000000  0.73165972  0.03242046
   0.25000000  0.26834028  0.96757954
   0.75000000  0.60566948  0.43433633
   0.25000000  0.39433052  0.56566367
   0.25000000  0.45263483  0.37116339
   0.75000000  0.54736517  0.62883661
   0.25000000  0.59098043  0.00855103
   0.75000000  0.40901957  0.99144897
   0.75000000  0.01577925  0.32618196