  16  16   1   0
  0.2284506E+02  0.6520432E-09  0.6930471E-09  0.8088598E-09  0.1000000E-15
  1.000000000000000E-004
  CAR 
 CIS                                     
      8.50427886    -12.33985643  301      1.34996367      1.00000000
    -12.340  0.0000E+00  0.0000E+00
    -12.270  0.0000E+00  0.0000E+00
    -12.201  0.0000E+00  0.0000E+00
    -12.131  0.0000E+00  0.0000E+00
    -12.062  0.0000E+00  0.0000E+00
    -11.992  0.0000E+00  0.0000E+00
    -11.923  0.0000E+00  0.0000E+00
    -11.853  0.0000E+00  0.0000E+00
    -11.784  0.0000E+00  0.0000E+00
    -11.715  0.0000E+00  0.0000E+00
    -11.645  0.4804E-14  0.3338E-15
    -11.576  0.1188E-08  0.8257E-10
    -11.506  0.7003E-05  0.4867E-06
    -11.437  0.1130E-02  0.7898E-04
    -11.367  0.7237E-02  0.5818E-03
    -11.298  0.9540E-02  0.1245E-02
    -11.228  0.2546E-01  0.3013E-02
    -11.159  0.4010E-01  0.5800E-02
    -11.089  0.6135E-01  0.1006E-01
    -11.020  0.4791E-01  0.1339E-01
    -10.950  0.9187E-01  0.1977E-01
    -10.881  0.9763E-01  0.2656E-01
    -10.811  0.5668E-01  0.3050E-01
    -10.742  0.7775E-01  0.3590E-01
    -10.672  0.2561E-01  0.3768E-01
    -10.603  0.6646E-01  0.4229E-01
    -10.533  0.3225E-01  0.4454E-01
    -10.464  0.7416E-01  0.4969E-01
    -10.394  0.9872E-01  0.5655E-01
    -10.325  0.9289E-01  0.6300E-01
    -10.255  0.1020E+00  0.7009E-01
    -10.186  0.7743E-01  0.7547E-01
    -10.116  0.3413E-01  0.7784E-01
    -10.047  0.1455E+00  0.8794E-01
     -9.978  0.3241E+00  0.1105E+00
     -9.908  0.4418E+00  0.1412E+00
     -9.839  0.2596E+00  0.1592E+00
     -9.769  0.3446E-01  0.1616E+00
     -9.700  0.4057E-03  0.1616E+00
     -9.630  0.1999E-06  0.1616E+00
     -9.561  0.3002E-11  0.1616E+00
     -9.491  0.1196E-17  0.1616E+00
     -9.422  0.0000E+00  0.1616E+00
     -9.352  0.0000E+00  0.1616E+00
     -9.283  0.0000E+00  0.1616E+00
     -9.213  0.0000E+00  0.1616E+00
     -9.144  0.0000E+00  0.1616E+00
     -9.074  0.0000E+00  0.1616E+00
     -9.005  0.0000E+00  0.1616E+00
     -8.935  0.0000E+00  0.1616E+00
     -8.866  0.0000E+00  0.1616E+00
     -8.796  0.0000E+00  0.1616E+00
     -8.727  0.0000E+00  0.1616E+00
     -8.657  0.0000E+00  0.1616E+00
     -8.588  0.0000E+00  0.1616E+00
     -8.518  0.0000E+00  0.1616E+00
     -8.449  0.0000E+00  0.1616E+00
     -8.379  0.0000E+00  0.1616E+00
     -8.310  0.0000E+00  0.1616E+00
     -8.241  0.0000E+00  0.1616E+00
     -8.171  0.0000E+00  0.1616E+00
     -8.102  0.0000E+00  0.1616E+00
     -8.032  0.0000E+00  0.1616E+00
     -7.963  0.0000E+00  0.1616E+00
     -7.893  0.0000E+00  0.1616E+00
     -7.824  0.0000E+00  0.1616E+00
     -7.754  0.0000E+00  0.1616E+00
     -7.685  0.0000E+00  0.1616E+00
     -7.615  0.0000E+00  0.1616E+00
     -7.546  0.0000E+00  0.1616E+00
     -7.476  0.0000E+00  0.1616E+00
     -7.407  0.0000E+00  0.1616E+00
     -7.337  0.0000E+00  0.1616E+00
     -7.268  0.0000E+00  0.1616E+00
     -7.198  0.0000E+00  0.1616E+00
     -7.129  0.0000E+00  0.1616E+00
     -7.059  0.0000E+00  0.1616E+00
     -6.990  0.0000E+00  0.1616E+00
     -6.920  0.0000E+00  0.1616E+00
     -6.851  0.0000E+00  0.1616E+00
     -6.781  0.0000E+00  0.1616E+00
     -6.712  0.0000E+00  0.1616E+00
     -6.642  0.0000E+00  0.1616E+00
     -6.573  0.0000E+00  0.1616E+00
     -6.503  0.0000E+00  0.1616E+00
     -6.434  0.0000E+00  0.1616E+00
     -6.365  0.0000E+00  0.1616E+00
     -6.295  0.0000E+00  0.1616E+00
     -6.226  0.0000E+00  0.1616E+00
     -6.156  0.0000E+00  0.1616E+00
     -6.087  0.0000E+00  0.1616E+00
     -6.017  0.0000E+00  0.1616E+00
     -5.948  0.0000E+00  0.1616E+00
     -5.878  0.0000E+00  0.1616E+00
     -5.809  0.0000E+00  0.1616E+00
     -5.739  0.0000E+00  0.1616E+00
     -5.670  0.0000E+00  0.1616E+00
     -5.600  0.0000E+00  0.1616E+00
     -5.531  0.0000E+00  0.1616E+00
     -5.461  0.0000E+00  0.1616E+00
     -5.392  0.0000E+00  0.1616E+00
     -5.322  0.2391E-14  0.1616E+00
     -5.253  0.7101E-09  0.1616E+00
     -5.183  0.5005E-05  0.1616E+00
     -5.114  0.9554E-03  0.1617E+00
     -5.044  0.6935E-02  0.1622E+00
     -4.975  0.4973E-02  0.1625E+00
     -4.905  0.2013E-01  0.1639E+00
     -4.836  0.2746E-01  0.1658E+00
     -4.766  0.4516E-01  0.1690E+00
     -4.697  0.2211E-01  0.1705E+00
     -4.628  0.5070E-01  0.1740E+00
     -4.558  0.4473E-01  0.1771E+00
     -4.489  0.1040E+00  0.1843E+00
     -4.419  0.6616E-01  0.1889E+00
     -4.350  0.3627E-01  0.1915E+00
     -4.280  0.7566E-01  0.1967E+00
     -4.211  0.2579E-01  0.1985E+00
     -4.141  0.8849E-02  0.1991E+00
     -4.072  0.4130E-01  0.2020E+00
     -4.002  0.4122E-01  0.2049E+00
     -3.933  0.2191E-02  0.2050E+00
     -3.863  0.1996E-02  0.2052E+00
     -3.794  0.1329E-01  0.2061E+00
     -3.724  0.3255E-01  0.2083E+00
     -3.655  0.5977E-01  0.2125E+00
     -3.585  0.2805E-01  0.2144E+00
     -3.516  0.7080E-01  0.2194E+00
     -3.446  0.9219E-01  0.2258E+00
     -3.377  0.3605E-01  0.2283E+00
     -3.307  0.2824E-01  0.2302E+00
     -3.238  0.1510E-01  0.2313E+00
     -3.168  0.3138E-01  0.2335E+00
     -3.099  0.5874E-01  0.2375E+00
     -3.029  0.3551E-01  0.2400E+00
     -2.960  0.3815E-02  0.2403E+00
     -2.891  0.1306E-01  0.2412E+00
     -2.821  0.6942E-02  0.2417E+00
     -2.752  0.1745E-03  0.2417E+00
     -2.682  0.2435E-05  0.2417E+00
     -2.613  0.6405E-03  0.2417E+00
     -2.543  0.6446E-02  0.2422E+00
     -2.474  0.3585E-02  0.2424E+00
     -2.404  0.9497E-04  0.2424E+00
     -2.335  0.1014E-03  0.2424E+00
     -2.265  0.7999E-02  0.2430E+00
     -2.196  0.4936E-01  0.2464E+00
     -2.126  0.4862E-01  0.2498E+00
     -2.057  0.3075E-01  0.2519E+00
     -1.987  0.6422E-01  0.2564E+00
     -1.918  0.8344E-01  0.2622E+00
     -1.848  0.8718E-01  0.2682E+00
     -1.779  0.1494E+00  0.2786E+00
     -1.709  0.1196E+00  0.2869E+00
     -1.640  0.1016E+00  0.2940E+00
     -1.570  0.8447E-01  0.2999E+00
     -1.501  0.1183E+00  0.3081E+00
     -1.431  0.9030E-01  0.3144E+00
     -1.362  0.9262E-01  0.3208E+00
     -1.292  0.1364E+00  0.3303E+00
     -1.223  0.1538E+00  0.3410E+00
     -1.154  0.1466E+00  0.3511E+00
     -1.084  0.5960E-01  0.3553E+00
     -1.015  0.8395E-01  0.3611E+00
     -0.945  0.5060E-01  0.3646E+00
     -0.876  0.1092E+00  0.3722E+00
     -0.806  0.1473E+00  0.3825E+00
     -0.737  0.3083E-01  0.3846E+00
     -0.667  0.1411E+00  0.3944E+00
     -0.598  0.2095E+00  0.4090E+00
     -0.528  0.1732E+00  0.4210E+00
     -0.459  0.1077E+00  0.4285E+00
     -0.389  0.9647E-01  0.4352E+00
     -0.320  0.1178E+00  0.4434E+00
     -0.250  0.2001E+00  0.4573E+00
     -0.181  0.1577E+00  0.4682E+00
     -0.111  0.1680E+00  0.4799E+00
     -0.042  0.1602E+00  0.4910E+00
      0.028  0.1274E+00  0.4999E+00
      0.097  0.1485E+00  0.5102E+00
      0.167  0.1334E+00  0.5195E+00
      0.236  0.7262E-01  0.5245E+00
      0.306  0.1508E+00  0.5350E+00
      0.375  0.2122E+00  0.5497E+00
      0.445  0.1809E+00  0.5623E+00
      0.514  0.1759E+00  0.5745E+00
      0.584  0.1811E+00  0.5871E+00
      0.653  0.2509E+00  0.6045E+00
      0.722  0.2465E+00  0.6217E+00
      0.792  0.1574E+00  0.6326E+00
      0.861  0.8359E-01  0.6384E+00
      0.931  0.5879E-01  0.6425E+00
      1.000  0.3651E-01  0.6450E+00
      1.070  0.1262E-01  0.6459E+00
      1.139  0.7322E-02  0.6464E+00
      1.209  0.6557E-03  0.6465E+00
      1.278  0.2379E-05  0.6465E+00
      1.348  0.2303E-09  0.6465E+00
      1.417  0.5261E-15  0.6465E+00
      1.487  0.0000E+00  0.6465E+00
      1.556  0.0000E+00  0.6465E+00
      1.626  0.0000E+00  0.6465E+00
      1.695  0.0000E+00  0.6465E+00
      1.765  0.0000E+00  0.6465E+00
      1.834  0.0000E+00  0.6465E+00
      1.904  0.0000E+00  0.6465E+00
      1.973  0.0000E+00  0.6465E+00
      2.043  0.0000E+00  0.6465E+00
      2.112  0.0000E+00  0.6465E+00
      2.182  0.0000E+00  0.6465E+00
      2.251  0.0000E+00  0.6465E+00
      2.321  0.0000E+00  0.6465E+00
      2.390  0.0000E+00  0.6465E+00
      2.459  0.0000E+00  0.6465E+00
      2.529  0.0000E+00  0.6465E+00
      2.598  0.0000E+00  0.6465E+00
      2.668  0.0000E+00  0.6465E+00
      2.737  0.0000E+00  0.6465E+00
      2.807  0.0000E+00  0.6465E+00
      2.876  0.0000E+00  0.6465E+00
      2.946  0.0000E+00  0.6465E+00
      3.015  0.0000E+00  0.6465E+00
      3.085  0.0000E+00  0.6465E+00
      3.154  0.0000E+00  0.6465E+00
      3.224  0.0000E+00  0.6465E+00
      3.293  0.0000E+00  0.6465E+00
      3.363  0.0000E+00  0.6465E+00
      3.432  0.0000E+00  0.6465E+00
      3.502  0.0000E+00  0.6465E+00
      3.571  0.0000E+00  0.6465E+00
      3.641  0.0000E+00  0.6465E+00
      3.710  0.0000E+00  0.6465E+00
      3.780  0.1522E-12  0.6465E+00
      3.849  0.1470E-07  0.6465E+00
      3.919  0.3462E-04  0.6465E+00
      3.988  0.2375E-02  0.6466E+00
      4.058  0.7132E-02  0.6471E+00
      4.127  0.1220E-02  0.6472E+00
      4.196  0.8190E-05  0.6472E+00
      4.266  0.1879E-04  0.6472E+00
      4.335  0.3638E-02  0.6475E+00
      4.405  0.3951E-01  0.6502E+00
      4.474  0.5875E-01  0.6543E+00
      4.544  0.7953E-01  0.6598E+00
      4.613  0.1362E+00  0.6693E+00
      4.683  0.1033E+00  0.6765E+00
      4.752  0.8871E-01  0.6826E+00
      4.822  0.1083E+00  0.6901E+00
      4.891  0.7735E-01  0.6955E+00
      4.961  0.6219E-01  0.6998E+00
      5.030  0.1036E+00  0.7070E+00
      5.100  0.3990E-01  0.7098E+00
      5.169  0.8197E-01  0.7155E+00
      5.239  0.4696E-01  0.7188E+00
      5.308  0.3711E-01  0.7213E+00
      5.378  0.3442E-01  0.7237E+00
      5.447  0.1044E-01  0.7245E+00
      5.517  0.1504E-01  0.7255E+00
      5.586  0.1472E-01  0.7265E+00
      5.656  0.1015E-01  0.7272E+00
      5.725  0.5066E-03  0.7273E+00
      5.795  0.5007E-05  0.7273E+00
      5.864  0.1226E-02  0.7274E+00
      5.934  0.1500E-01  0.7284E+00
      6.003  0.3957E-01  0.7311E+00
      6.072  0.1140E+00  0.7391E+00
      6.142  0.9941E-01  0.7460E+00
      6.211  0.6473E-01  0.7505E+00
      6.281  0.1121E+00  0.7583E+00
      6.350  0.1532E+00  0.7689E+00
      6.420  0.1174E+00  0.7771E+00
      6.489  0.4599E-01  0.7803E+00
      6.559  0.2512E-01  0.7820E+00
      6.628  0.7864E-01  0.7875E+00
      6.698  0.1777E+00  0.7998E+00
      6.767  0.9930E-01  0.8067E+00
      6.837  0.4923E-01  0.8101E+00
      6.906  0.5318E-01  0.8138E+00
      6.976  0.1369E+00  0.8233E+00
      7.045  0.1609E+00  0.8345E+00
      7.115  0.6753E-01  0.8392E+00
      7.184  0.1691E-01  0.8404E+00
      7.254  0.5598E-01  0.8443E+00
      7.323  0.1724E-01  0.8455E+00
      7.393  0.2848E-03  0.8455E+00
      7.462  0.1045E-02  0.8456E+00
      7.532  0.1692E-01  0.8467E+00
      7.601  0.2252E-01  0.8483E+00
      7.671  0.2569E-02  0.8485E+00
      7.740  0.1440E-04  0.8485E+00
      7.809  0.2390E-08  0.8485E+00
      7.879  0.9617E-14  0.8485E+00
      7.948  0.0000E+00  0.8485E+00
      8.018  0.0000E+00  0.8485E+00
      8.087  0.0000E+00  0.8485E+00
      8.157  0.0000E+00  0.8485E+00
      8.226  0.0000E+00  0.8485E+00
      8.296  0.0000E+00  0.8485E+00
      8.365  0.0000E+00  0.8485E+00
      8.435  0.0000E+00  0.8485E+00
      8.504  0.0000E+00  0.8485E+00
      8.50427886    -12.33985643  301      1.34996367      1.00000000
    -12.340  0.0000E+00  0.0000E+00  0.0000E+00
    -12.270  0.0000E+00  0.0000E+00  0.0000E+00
    -12.201  0.0000E+00  0.0000E+00  0.0000E+00
    -12.131  0.0000E+00  0.0000E+00  0.0000E+00
    -12.062  0.0000E+00  0.0000E+00  0.0000E+00
    -11.992  0.0000E+00  0.0000E+00  0.0000E+00
    -11.923  0.0000E+00  0.0000E+00  0.0000E+00
    -11.853  0.0000E+00  0.0000E+00  0.0000E+00
    -11.784  0.0000E+00  0.0000E+00  0.0000E+00
    -11.715  0.0000E+00  0.0000E+00  0.0000E+00
    -11.645  0.6415E-15  0.2335E-17  0.0000E+00
    -11.576  0.1587E-09  0.5777E-12  0.0000E+00
    -11.506  0.9351E-06  0.3404E-08  0.0000E+00
    -11.437  0.1508E-03  0.5511E-06  0.0000E+00
    -11.367  0.9620E-03  0.6219E-05  0.0000E+00
    -11.298  0.1086E-02  0.1227E-03  0.0000E+00
    -11.228  0.2682E-02  0.4622E-03  0.0000E+00
    -11.159  0.3886E-02  0.1006E-02  0.0000E+00
    -11.089  0.4910E-02  0.2313E-02  0.0000E+00
    -11.020  0.3470E-02  0.1904E-02  0.0000E+00
    -10.950  0.4398E-02  0.5022E-02  0.0000E+00
    -10.881  0.2760E-02  0.6042E-02  0.0000E+00
    -10.811  0.8626E-03  0.3502E-02  0.0000E+00
    -10.742  0.7313E-03  0.4625E-02  0.0000E+00
    -10.672  0.3605E-03  0.1682E-02  0.0000E+00
    -10.603  0.1026E-02  0.4635E-02  0.0000E+00
    -10.533  0.4402E-03  0.2457E-02  0.0000E+00
    -10.464  0.1749E-02  0.7259E-02  0.0000E+00
    -10.394  0.5834E-02  0.7562E-02  0.0000E+00
    -10.325  0.4315E-02  0.4788E-02  0.0000E+00
    -10.255  0.1349E-02  0.5658E-02  0.0000E+00
    -10.186  0.2492E-02  0.4553E-02  0.0000E+00
    -10.116  0.2663E-02  0.2055E-02  0.0000E+00
    -10.047  0.1437E-01  0.9642E-02  0.0000E+00
     -9.978  0.2253E-01  0.2220E-01  0.0000E+00
     -9.908  0.1837E-01  0.3464E-01  0.0000E+00
     -9.839  0.4631E-02  0.2372E-01  0.0000E+00
     -9.769  0.2509E-03  0.3366E-02  0.0000E+00
     -9.700  0.2040E-05  0.4012E-04  0.0000E+00
     -9.630  0.7824E-09  0.1983E-07  0.0000E+00
     -9.561  0.8443E-14  0.2989E-12  0.0000E+00
     -9.491  0.4900E-21  0.1201E-18  0.0000E+00
     -9.422  0.0000E+00  0.0000E+00  0.0000E+00
     -9.352  0.0000E+00  0.0000E+00  0.0000E+00
     -9.283  0.0000E+00  0.0000E+00  0.0000E+00
     -9.213  0.0000E+00  0.0000E+00  0.0000E+00
     -9.144  0.0000E+00  0.0000E+00  0.0000E+00
     -9.074  0.0000E+00  0.0000E+00  0.0000E+00
     -9.005  0.0000E+00  0.0000E+00  0.0000E+00
     -8.935  0.0000E+00  0.0000E+00  0.0000E+00
     -8.866  0.0000E+00  0.0000E+00  0.0000E+00
     -8.796  0.0000E+00  0.0000E+00  0.0000E+00
     -8.727  0.0000E+00  0.0000E+00  0.0000E+00
     -8.657  0.0000E+00  0.0000E+00  0.0000E+00
     -8.588  0.0000E+00  0.0000E+00  0.0000E+00
     -8.518  0.0000E+00  0.0000E+00  0.0000E+00
     -8.449  0.0000E+00  0.0000E+00  0.0000E+00
     -8.379  0.0000E+00  0.0000E+00  0.0000E+00
     -8.310  0.0000E+00  0.0000E+00  0.0000E+00
     -8.241  0.0000E+00  0.0000E+00  0.0000E+00
     -8.171  0.0000E+00  0.0000E+00  0.0000E+00
     -8.102  0.0000E+00  0.0000E+00  0.0000E+00
     -8.032  0.0000E+00  0.0000E+00  0.0000E+00
     -7.963  0.0000E+00  0.0000E+00  0.0000E+00
     -7.893  0.0000E+00  0.0000E+00  0.0000E+00
     -7.824  0.0000E+00  0.0000E+00  0.0000E+00
     -7.754  0.0000E+00  0.0000E+00  0.0000E+00
     -7.685  0.0000E+00  0.0000E+00  0.0000E+00
     -7.615  0.0000E+00  0.0000E+00  0.0000E+00
     -7.546  0.0000E+00  0.0000E+00  0.0000E+00
     -7.476  0.0000E+00  0.0000E+00  0.0000E+00
     -7.407  0.0000E+00  0.0000E+00  0.0000E+00
     -7.337  0.0000E+00  0.0000E+00  0.0000E+00
     -7.268  0.0000E+00  0.0000E+00  0.0000E+00
     -7.198  0.0000E+00  0.0000E+00  0.0000E+00
     -7.129  0.0000E+00  0.0000E+00  0.0000E+00
     -7.059  0.0000E+00  0.0000E+00  0.0000E+00
     -6.990  0.0000E+00  0.0000E+00  0.0000E+00
     -6.920  0.0000E+00  0.0000E+00  0.0000E+00
     -6.851  0.0000E+00  0.0000E+00  0.0000E+00
     -6.781  0.0000E+00  0.0000E+00  0.0000E+00
     -6.712  0.0000E+00  0.0000E+00  0.0000E+00
     -6.642  0.0000E+00  0.0000E+00  0.0000E+00
     -6.573  0.0000E+00  0.0000E+00  0.0000E+00
     -6.503  0.0000E+00  0.0000E+00  0.0000E+00
     -6.434  0.0000E+00  0.0000E+00  0.0000E+00
     -6.365  0.0000E+00  0.0000E+00  0.0000E+00
     -6.295  0.0000E+00  0.0000E+00  0.0000E+00
     -6.226  0.0000E+00  0.0000E+00  0.0000E+00
     -6.156  0.0000E+00  0.0000E+00  0.0000E+00
     -6.087  0.0000E+00  0.0000E+00  0.0000E+00
     -6.017  0.0000E+00  0.0000E+00  0.0000E+00
     -5.948  0.0000E+00  0.0000E+00  0.0000E+00
     -5.878  0.0000E+00  0.0000E+00  0.0000E+00
     -5.809  0.0000E+00  0.0000E+00  0.0000E+00
     -5.739  0.0000E+00  0.0000E+00  0.0000E+00
     -5.670  0.0000E+00  0.0000E+00  0.0000E+00
     -5.600  0.0000E+00  0.0000E+00  0.0000E+00
     -5.531  0.0000E+00  0.0000E+00  0.0000E+00
     -5.461  0.0000E+00  0.0000E+00  0.0000E+00
     -5.392  0.0000E+00  0.0000E+00  0.0000E+00
     -5.322  0.6509E-20  0.2438E-16  0.0000E+00
     -5.253  0.1933E-14  0.7242E-11  0.0000E+00
     -5.183  0.1363E-10  0.5104E-07  0.0000E+00
     -5.114  0.2601E-08  0.9744E-05  0.0000E+00
     -5.044  0.1979E-07  0.7129E-04  0.0000E+00
     -4.975  0.2181E-06  0.1522E-03  0.0000E+00
     -4.905  0.4214E-05  0.9431E-03  0.0000E+00
     -4.836  0.1190E-03  0.9534E-03  0.0000E+00
     -4.766  0.5908E-03  0.2084E-02  0.0000E+00
     -4.697  0.2051E-03  0.7790E-03  0.0000E+00
     -4.628  0.2845E-03  0.2362E-02  0.0000E+00
     -4.558  0.5061E-03  0.3150E-02  0.0000E+00
     -4.489  0.1649E-02  0.6638E-02  0.0000E+00
     -4.419  0.2477E-02  0.4773E-02  0.0000E+00
     -4.350  0.8546E-03  0.3410E-02  0.0000E+00
     -4.280  0.1350E-02  0.6412E-02  0.0000E+00
     -4.211  0.5275E-03  0.2363E-02  0.0000E+00
     -4.141  0.2426E-03  0.1255E-02  0.0000E+00
     -4.072  0.1519E-02  0.3038E-02  0.0000E+00
     -4.002  0.1525E-02  0.2970E-02  0.0000E+00
     -3.933  0.8033E-04  0.1579E-03  0.0000E+00
     -3.863  0.3344E-05  0.1675E-03  0.0000E+00
     -3.794  0.8662E-04  0.1404E-02  0.0000E+00
     -3.724  0.4294E-03  0.2937E-02  0.0000E+00
     -3.655  0.8910E-03  0.3290E-02  0.0000E+00
     -3.585  0.2655E-02  0.2347E-02  0.0000E+00
     -3.516  0.9040E-02  0.8616E-02  0.0000E+00
     -3.446  0.7475E-02  0.1234E-01  0.0000E+00
     -3.377  0.2540E-02  0.3820E-02  0.0000E+00
     -3.307  0.3248E-03  0.1535E-02  0.0000E+00
     -3.238  0.3603E-03  0.7686E-03  0.0000E+00
     -3.168  0.6588E-02  0.1455E-02  0.0000E+00
     -3.099  0.1409E-01  0.3941E-02  0.0000E+00
     -3.029  0.8832E-02  0.3519E-02  0.0000E+00
     -2.960  0.1023E-02  0.3263E-03  0.0000E+00
     -2.891  0.4246E-02  0.5739E-03  0.0000E+00
     -2.821  0.2257E-02  0.3048E-03  0.0000E+00
     -2.752  0.5675E-04  0.7663E-05  0.0000E+00
     -2.682  0.1481E-05  0.3089E-07  0.0000E+00
     -2.613  0.4000E-03  0.6956E-05  0.0000E+00
     -2.543  0.4025E-02  0.7001E-04  0.0000E+00
     -2.474  0.2238E-02  0.3893E-04  0.0000E+00
     -2.404  0.5927E-04  0.1044E-05  0.0000E+00
     -2.335  0.3869E-05  0.2761E-04  0.0000E+00
     -2.265  0.1969E-03  0.2379E-02  0.0000E+00
     -2.196  0.7400E-03  0.1525E-01  0.0000E+00
     -2.126  0.1625E-02  0.1386E-01  0.0000E+00
     -2.057  0.4119E-02  0.6299E-02  0.0000E+00
     -1.987  0.6219E-02  0.1202E-01  0.0000E+00
     -1.918  0.4579E-02  0.1666E-01  0.0000E+00
     -1.848  0.9259E-02  0.1364E-01  0.0000E+00
     -1.779  0.1999E-01  0.2607E-01  0.0000E+00
     -1.709  0.3493E-01  0.2307E-01  0.0000E+00
     -1.640  0.4928E-01  0.1550E-01  0.0000E+00
     -1.570  0.2162E-01  0.1507E-01  0.0000E+00
     -1.501  0.8453E-02  0.1793E-01  0.0000E+00
     -1.431  0.1369E-01  0.1331E-01  0.0000E+00
     -1.362  0.8579E-02  0.2777E-01  0.0000E+00
     -1.292  0.1855E-01  0.2645E-01  0.0000E+00
     -1.223  0.3838E-01  0.3046E-01  0.0000E+00
     -1.154  0.2784E-01  0.3753E-01  0.0000E+00
     -1.084  0.1080E-01  0.1479E-01  0.0000E+00
     -1.015  0.1745E-01  0.2265E-01  0.0000E+00
     -0.945  0.9268E-02  0.1344E-01  0.0000E+00
     -0.876  0.2500E-01  0.1851E-01  0.0000E+00
     -0.806  0.3003E-01  0.2896E-01  0.0000E+00
     -0.737  0.7409E-02  0.7450E-02  0.0000E+00
     -0.667  0.5257E-01  0.2360E-01  0.0000E+00
     -0.598  0.6577E-01  0.4666E-01  0.0000E+00
     -0.528  0.4960E-01  0.3946E-01  0.0000E+00
     -0.459  0.3367E-01  0.2608E-01  0.0000E+00
     -0.389  0.4225E-01  0.1807E-01  0.0000E+00
     -0.320  0.5092E-01  0.4247E-01  0.0000E+00
     -0.250  0.8061E-01  0.5328E-01  0.0000E+00
     -0.181  0.6020E-01  0.2741E-01  0.0000E+00
     -0.111  0.3873E-01  0.5181E-01  0.0000E+00
     -0.042  0.2723E-01  0.6014E-01  0.0000E+00
      0.028  0.1151E-01  0.6368E-01  0.0000E+00
      0.097  0.8499E-02  0.9133E-01  0.0000E+00
      0.167  0.1315E-01  0.7388E-01  0.0000E+00
      0.236  0.1520E-01  0.3212E-01  0.0000E+00
      0.306  0.2757E-01  0.8081E-01  0.0000E+00
      0.375  0.4694E-01  0.1062E+00  0.0000E+00
      0.445  0.4461E-01  0.9755E-01  0.0000E+00
      0.514  0.2061E-01  0.1188E+00  0.0000E+00
      0.584  0.1160E-01  0.1326E+00  0.0000E+00
      0.653  0.9739E-02  0.1576E+00  0.0000E+00
      0.722  0.9919E-02  0.1269E+00  0.0000E+00
      0.792  0.3320E-02  0.8465E-01  0.0000E+00
      0.861  0.1000E-02  0.3791E-01  0.0000E+00
      0.931  0.2406E-03  0.1981E-01  0.0000E+00
      1.000  0.5550E-04  0.1118E-01  0.0000E+00
      1.070  0.1191E-04  0.3122E-02  0.0000E+00
      1.139  0.1500E-04  0.1530E-02  0.0000E+00
      1.209  0.1488E-05  0.1336E-03  0.0000E+00
      1.278  0.5427E-08  0.4841E-06  0.0000E+00
      1.348  0.5255E-12  0.4687E-10  0.0000E+00
      1.417  0.1200E-17  0.1070E-15  0.0000E+00
      1.487  0.0000E+00  0.0000E+00  0.0000E+00
      1.556  0.0000E+00  0.0000E+00  0.0000E+00
      1.626  0.0000E+00  0.0000E+00  0.0000E+00
      1.695  0.0000E+00  0.0000E+00  0.0000E+00
      1.765  0.0000E+00  0.0000E+00  0.0000E+00
      1.834  0.0000E+00  0.0000E+00  0.0000E+00
      1.904  0.0000E+00  0.0000E+00  0.0000E+00
      1.973  0.0000E+00  0.0000E+00  0.0000E+00
      2.043  0.0000E+00  0.0000E+00  0.0000E+00
      2.112  0.0000E+00  0.0000E+00  0.0000E+00
      2.182  0.0000E+00  0.0000E+00  0.0000E+00
      2.251  0.0000E+00  0.0000E+00  0.0000E+00
      2.321  0.0000E+00  0.0000E+00  0.0000E+00
      2.390  0.0000E+00  0.0000E+00  0.0000E+00
      2.459  0.0000E+00  0.0000E+00  0.0000E+00
      2.529  0.0000E+00  0.0000E+00  0.0000E+00
      2.598  0.0000E+00  0.0000E+00  0.0000E+00
      2.668  0.0000E+00  0.0000E+00  0.0000E+00
      2.737  0.0000E+00  0.0000E+00  0.0000E+00
      2.807  0.0000E+00  0.0000E+00  0.0000E+00
      2.876  0.0000E+00  0.0000E+00  0.0000E+00
      2.946  0.0000E+00  0.0000E+00  0.0000E+00
      3.015  0.0000E+00  0.0000E+00  0.0000E+00
      3.085  0.0000E+00  0.0000E+00  0.0000E+00
      3.154  0.0000E+00  0.0000E+00  0.0000E+00
      3.224  0.0000E+00  0.0000E+00  0.0000E+00
      3.293  0.0000E+00  0.0000E+00  0.0000E+00
      3.363  0.0000E+00  0.0000E+00  0.0000E+00
      3.432  0.0000E+00  0.0000E+00  0.0000E+00
      3.502  0.0000E+00  0.0000E+00  0.0000E+00
      3.571  0.0000E+00  0.0000E+00  0.0000E+00
      3.641  0.0000E+00  0.0000E+00  0.0000E+00
      3.710  0.0000E+00  0.0000E+00  0.0000E+00
      3.780  0.1081E-12  0.2142E-14  0.0000E+00
      3.849  0.1044E-07  0.2069E-09  0.0000E+00
      3.919  0.2459E-04  0.4872E-06  0.0000E+00
      3.988  0.1687E-02  0.3342E-04  0.0000E+00
      4.058  0.5066E-02  0.1004E-03  0.0000E+00
      4.127  0.8662E-03  0.1716E-04  0.0000E+00
      4.196  0.5815E-05  0.1158E-06  0.0000E+00
      4.266  0.1589E-05  0.3712E-05  0.0000E+00
      4.335  0.2391E-03  0.8379E-03  0.0000E+00
      4.405  0.1832E-02  0.1126E-01  0.0000E+00
      4.474  0.4939E-02  0.2005E-01  0.0000E+00
      4.544  0.6304E-02  0.2553E-01  0.0000E+00
      4.613  0.7168E-02  0.4075E-01  0.0000E+00
      4.683  0.4368E-02  0.2724E-01  0.0000E+00
      4.752  0.1238E-02  0.1677E-01  0.0000E+00
      4.822  0.3000E-02  0.2567E-01  0.0000E+00
      4.891  0.3246E-02  0.1815E-01  0.0000E+00
      4.961  0.1441E-02  0.1252E-01  0.0000E+00
      5.030  0.4117E-02  0.2427E-01  0.0000E+00
      5.100  0.5632E-02  0.1218E-01  0.0000E+00
      5.169  0.9037E-02  0.2925E-01  0.0000E+00
      5.239  0.4201E-02  0.1226E-01  0.0000E+00
      5.308  0.1257E-02  0.5169E-02  0.0000E+00
      5.378  0.1522E-02  0.8334E-02  0.0000E+00
      5.447  0.5557E-03  0.2598E-02  0.0000E+00
      5.517  0.1083E-02  0.2896E-02  0.0000E+00
      5.586  0.1861E-02  0.1615E-02  0.0000E+00
      5.656  0.1521E-02  0.7504E-03  0.0000E+00
      5.725  0.7617E-04  0.3712E-04  0.0000E+00
      5.795  0.2257E-06  0.2422E-05  0.0000E+00
      5.864  0.3211E-04  0.6919E-03  0.0000E+00
      5.934  0.9668E-03  0.7964E-02  0.0000E+00
      6.003  0.8543E-02  0.2022E-01  0.0000E+00
      6.072  0.1650E-01  0.6963E-01  0.0000E+00
      6.142  0.5100E-02  0.5051E-01  0.0000E+00
      6.211  0.2378E-02  0.2076E-01  0.0000E+00
      6.281  0.1017E-01  0.3742E-01  0.0000E+00
      6.350  0.3729E-01  0.6585E-01  0.0000E+00
      6.420  0.4079E-01  0.4954E-01  0.0000E+00
      6.489  0.1234E-01  0.1372E-01  0.0000E+00
      6.559  0.2329E-02  0.7535E-02  0.0000E+00
      6.628  0.1074E-01  0.2734E-01  0.0000E+00
      6.698  0.3473E-01  0.7390E-01  0.0000E+00
      6.767  0.2116E-01  0.5345E-01  0.0000E+00
      6.837  0.9086E-02  0.3036E-01  0.0000E+00
      6.906  0.1158E-01  0.2834E-01  0.0000E+00
      6.976  0.2381E-01  0.7188E-01  0.0000E+00
      7.045  0.3319E-01  0.7277E-01  0.0000E+00
      7.115  0.2606E-01  0.3218E-01  0.0000E+00
      7.184  0.4208E-02  0.1814E-01  0.0000E+00
      7.254  0.8525E-02  0.7939E-01  0.0000E+00
      7.323  0.2671E-02  0.2689E-01  0.0000E+00
      7.393  0.4460E-04  0.4763E-03  0.0000E+00
      7.462  0.1235E-03  0.1586E-02  0.0000E+00
      7.532  0.2050E-02  0.2169E-01  0.0000E+00
      7.601  0.2536E-02  0.2405E-01  0.0000E+00
      7.671  0.2601E-03  0.2457E-02  0.0000E+00
      7.740  0.1376E-05  0.1339E-04  0.0000E+00
      7.809  0.2247E-09  0.2216E-08  0.0000E+00
      7.879  0.9005E-15  0.8914E-14  0.0000E+00
      7.948  0.0000E+00  0.0000E+00  0.0000E+00
      8.018  0.0000E+00  0.0000E+00  0.0000E+00
      8.087  0.0000E+00  0.0000E+00  0.0000E+00
      8.157  0.0000E+00  0.0000E+00  0.0000E+00
      8.226  0.0000E+00  0.0000E+00  0.0000E+00
      8.296  0.0000E+00  0.0000E+00  0.0000E+00
      8.365  0.0000E+00  0.0000E+00  0.0000E+00
      8.435  0.0000E+00  0.0000E+00  0.0000E+00
      8.504  0.0000E+00  0.0000E+00  0.0000E+00
      8.50427886    -12.33985643  301      1.34996367      1.00000000
    -12.340  0.0000E+00  0.0000E+00  0.0000E+00
    -12.270  0.0000E+00  0.0000E+00  0.0000E+00
    -12.201  0.0000E+00  0.0000E+00  0.0000E+00
    -12.131  0.0000E+00  0.0000E+00  0.0000E+00
    -12.062  0.0000E+00  0.0000E+00  0.0000E+00
    -11.992  0.0000E+00  0.0000E+00  0.0000E+00
    -11.923  0.0000E+00  0.0000E+00  0.0000E+00
    -11.853  0.0000E+00  0.0000E+00  0.0000E+00
    -11.784  0.0000E+00  0.0000E+00  0.0000E+00
    -11.715  0.0000E+00  0.0000E+00  0.0000E+00
    -11.645  0.6415E-15  0.2335E-17  0.0000E+00
    -11.576  0.1587E-09  0.5777E-12  0.0000E+00
    -11.506  0.9351E-06  0.3404E-08  0.0000E+00
    -11.437  0.1508E-03  0.5511E-06  0.0000E+00
    -11.367  0.9620E-03  0.6219E-05  0.0000E+00
    -11.298  0.1086E-02  0.1227E-03  0.0000E+00
    -11.228  0.2682E-02  0.4622E-03  0.0000E+00
    -11.159  0.3892E-02  0.1001E-02  0.0000E+00
    -11.089  0.4962E-02  0.2264E-02  0.0000E+00
    -11.020  0.3517E-02  0.1848E-02  0.0000E+00
    -10.950  0.4484E-02  0.4868E-02  0.0000E+00
    -10.881  0.2750E-02  0.5968E-02  0.0000E+00
    -10.811  0.8074E-03  0.3489E-02  0.0000E+00
    -10.742  0.6807E-03  0.4547E-02  0.0000E+00
    -10.672  0.3404E-03  0.1678E-02  0.0000E+00
    -10.603  0.9451E-03  0.4755E-02  0.0000E+00
    -10.533  0.3809E-03  0.2581E-02  0.0000E+00
    -10.464  0.1510E-02  0.7796E-02  0.0000E+00
    -10.394  0.5730E-02  0.7868E-02  0.0000E+00
    -10.325  0.4409E-02  0.4940E-02  0.0000E+00
    -10.255  0.1475E-02  0.5433E-02  0.0000E+00
    -10.186  0.2531E-02  0.4435E-02  0.0000E+00
    -10.116  0.2868E-02  0.1860E-02  0.0000E+00
    -10.047  0.1598E-01  0.7171E-02  0.0000E+00
     -9.978  0.2235E-01  0.2184E-01  0.0000E+00
     -9.908  0.1710E-01  0.3739E-01  0.0000E+00
     -9.839  0.4312E-02  0.2379E-01  0.0000E+00
     -9.769  0.2499E-03  0.3355E-02  0.0000E+00
     -9.700  0.2055E-05  0.4009E-04  0.0000E+00
     -9.630  0.7840E-09  0.1983E-07  0.0000E+00
     -9.561  0.8446E-14  0.2989E-12  0.0000E+00
     -9.491  0.4900E-21  0.1201E-18  0.0000E+00
     -9.422  0.0000E+00  0.0000E+00  0.0000E+00
     -9.352  0.0000E+00  0.0000E+00  0.0000E+00
     -9.283  0.0000E+00  0.0000E+00  0.0000E+00
     -9.213  0.0000E+00  0.0000E+00  0.0000E+00
     -9.144  0.0000E+00  0.0000E+00  0.0000E+00
     -9.074  0.0000E+00  0.0000E+00  0.0000E+00
     -9.005  0.0000E+00  0.0000E+00  0.0000E+00
     -8.935  0.0000E+00  0.0000E+00  0.0000E+00
     -8.866  0.0000E+00  0.0000E+00  0.0000E+00
     -8.796  0.0000E+00  0.0000E+00  0.0000E+00
     -8.727  0.0000E+00  0.0000E+00  0.0000E+00
     -8.657  0.0000E+00  0.0000E+00  0.0000E+00
     -8.588  0.0000E+00  0.0000E+00  0.0000E+00
     -8.518  0.0000E+00  0.0000E+00  0.0000E+00
     -8.449  0.0000E+00  0.0000E+00  0.0000E+00
     -8.379  0.0000E+00  0.0000E+00  0.0000E+00
     -8.310  0.0000E+00  0.0000E+00  0.0000E+00
     -8.241  0.0000E+00  0.0000E+00  0.0000E+00
     -8.171  0.0000E+00  0.0000E+00  0.0000E+00
     -8.102  0.0000E+00  0.0000E+00  0.0000E+00
     -8.032  0.0000E+00  0.0000E+00  0.0000E+00
     -7.963  0.0000E+00  0.0000E+00  0.0000E+00
     -7.893  0.0000E+00  0.0000E+00  0.0000E+00
     -7.824  0.0000E+00  0.0000E+00  0.0000E+00
     -7.754  0.0000E+00  0.0000E+00  0.0000E+00
     -7.685  0.0000E+00  0.0000E+00  0.0000E+00
     -7.615  0.0000E+00  0.0000E+00  0.0000E+00
     -7.546  0.0000E+00  0.0000E+00  0.0000E+00
     -7.476  0.0000E+00  0.0000E+00  0.0000E+00
     -7.407  0.0000E+00  0.0000E+00  0.0000E+00
     -7.337  0.0000E+00  0.0000E+00  0.0000E+00
     -7.268  0.0000E+00  0.0000E+00  0.0000E+00
     -7.198  0.0000E+00  0.0000E+00  0.0000E+00
     -7.129  0.0000E+00  0.0000E+00  0.0000E+00
     -7.059  0.0000E+00  0.0000E+00  0.0000E+00
     -6.990  0.0000E+00  0.0000E+00  0.0000E+00
     -6.920  0.0000E+00  0.0000E+00  0.0000E+00
     -6.851  0.0000E+00  0.0000E+00  0.0000E+00
     -6.781  0.0000E+00  0.0000E+00  0.0000E+00
     -6.712  0.0000E+00  0.0000E+00  0.0000E+00
     -6.642  0.0000E+00  0.0000E+00  0.0000E+00
     -6.573  0.0000E+00  0.0000E+00  0.0000E+00
     -6.503  0.0000E+00  0.0000E+00  0.0000E+00
     -6.434  0.0000E+00  0.0000E+00  0.0000E+00
     -6.365  0.0000E+00  0.0000E+00  0.0000E+00
     -6.295  0.0000E+00  0.0000E+00  0.0000E+00
     -6.226  0.0000E+00  0.0000E+00  0.0000E+00
     -6.156  0.0000E+00  0.0000E+00  0.0000E+00