       N       E                     dE             d eps       ncg     rms          rms(c)
DAV:   1     0.229199472201E+03    0.22920E+03   -0.18493E+04   672   0.803E+02
DAV:   2    -0.498574953811E+02   -0.27906E+03   -0.27364E+03   924   0.166E+02
DAV:   3    -0.705211280108E+02   -0.20664E+02   -0.20597E+02   896   0.514E+01
DAV:   4    -0.708161624537E+02   -0.29503E+00   -0.29487E+00   882   0.766E+00
DAV:   5    -0.708231851925E+02   -0.70227E-02   -0.70223E-02   896   0.111E+00    0.120E+01
DAV:   6    -0.673519792191E+02    0.34712E+01   -0.72774E+00   840   0.831E+00    0.970E+00
DAV:   7    -0.671829361056E+02    0.16904E+00   -0.17721E+00   882   0.411E+00    0.498E+00
DAV:   8    -0.671833866455E+02   -0.45054E-03   -0.16759E-01   826   0.149E+00    0.759E-01
DAV:   9    -0.671875500408E+02   -0.41634E-02   -0.35619E-02   882   0.738E-01    0.275E-01
DAV:  10    -0.671911705221E+02   -0.36205E-02   -0.48108E-03   854   0.288E-01    0.120E-01
DAV:  11    -0.671922009503E+02   -0.10304E-02   -0.17363E-03   882   0.172E-01    0.400E-02
DAV:  12    -0.671922422108E+02   -0.41261E-04   -0.80373E-05   630   0.341E-02
   1 F= -.67192242E+02 E0= -.67192242E+02  d E =-.671922E+02
       N       E                     dE             d eps       ncg     rms          rms(c)
DAV:   1    -0.678029430122E+02   -0.61074E+00   -0.43316E+00   672   0.760E+00    0.299E+00
DAV:   2    -0.676829377150E+02    0.12001E+00   -0.38843E-01   784   0.227E+00    0.949E-01
DAV:   3    -0.676674538690E+02    0.15484E-01   -0.68011E-02   840   0.788E-01    0.435E-01
DAV:   4    -0.676656679931E+02    0.17859E-02   -0.16794E-03   882   0.171E-01    0.301E-01
DAV:   5    -0.676649445315E+02    0.72346E-03   -0.13050E-03   868   0.123E-01    0.156E-01
DAV:   6    -0.676649557595E+02   -0.11228E-04   -0.62705E-05   616   0.336E-02
   2 F= -.67664956E+02 E0= -.67664956E+02  d E =-.472714E+00
       N       E                     dE             d eps       ncg     rms          rms(c)
DAV:   1    -0.698000374049E+02   -0.21351E+01   -0.39964E+01   672   0.236E+01    0.102E+01
DAV:   2    -0.687154021436E+02    0.10846E+01   -0.34826E+00   826   0.689E+00    0.324E+00
DAV:   3    -0.685622406784E+02    0.15316E+00   -0.65391E-01   826   0.247E+00    0.162E+00
DAV:   4    -0.685485875165E+02    0.13653E-01   -0.15989E-02   882   0.529E-01    0.117E+00
DAV:   5    -0.685393586610E+02    0.92289E-02   -0.20117E-02   798   0.493E-01    0.377E-01
DAV:   6    -0.685394810449E+02   -0.12238E-03   -0.73263E-04   882   0.110E-01    0.148E-01
DAV:   7    -0.685394812588E+02   -0.21391E-06   -0.27959E-04   658   0.603E-02
   3 F= -.68539481E+02 E0= -.68539481E+02  d E =-.134724E+01
       N       E                     dE             d eps       ncg     rms          rms(c)
DAV:   1    -0.688248427188E+02   -0.28536E+00   -0.68435E+00   728   0.979E+00    0.401E+00
DAV:   2    -0.686374887453E+02    0.18735E+00   -0.59244E-01   826   0.287E+00    0.138E+00
DAV:   3    -0.686091017295E+02    0.28387E-01   -0.11382E-01   826   0.103E+00    0.573E-01
DAV:   4    -0.686067367273E+02    0.23650E-02   -0.27306E-03   896   0.219E-01    0.415E-01
DAV:   5    -0.686055106418E+02    0.12261E-02   -0.21282E-03   784   0.163E-01    0.179E-01
DAV:   6    -0.686055266089E+02   -0.15967E-04   -0.79286E-05   658   0.389E-02
   4 F= -.68605527E+02 E0= -.68605527E+02  d E =-.141328E+01
       N       E                     dE             d eps       ncg     rms          rms(c)
DAV:   1    -0.686114407372E+02   -0.59301E-02   -0.11773E-01   742   0.127E+00    0.498E-01
DAV:   2    -0.686082623773E+02    0.31784E-02   -0.10081E-02   812   0.374E-01    0.185E-01
DAV:   3    -0.686077627854E+02    0.49959E-03   -0.19432E-03   826   0.135E-01    0.682E-02
DAV:   4    -0.686077026130E+02    0.60172E-04   -0.39913E-05   392   0.285E-02
   5 F= -.68607703E+02 E0= -.68607703E+02  d E =-.141546E+01
       N       E                     dE             d eps       ncg     rms          rms(c)
DAV:   1    -0.686079641391E+02   -0.20135E-03   -0.68471E-03   700   0.309E-01    0.112E-01
DAV:   2    -0.686077488612E+02    0.21528E-03   -0.64730E-04   868   0.947E-02    0.341E-02
DAV:   3    -0.686077123325E+02    0.36529E-04   -0.11081E-04   406   0.337E-02
   6 F= -.68607712E+02 E0= -.68607712E+02  d E =-.141547E+01
       N       E                     dE             d eps       ncg     rms          rms(c)
DAV:   1    -0.686365131944E+02   -0.28764E-01   -0.57602E-01   672   0.263E+00    0.649E-01
DAV:   2    -0.686367345310E+02   -0.22134E-03   -0.35197E-02   896   0.737E-01    0.299E-01
DAV:   3    -0.686361875775E+02    0.54695E-03   -0.91321E-04   854   0.126E-01    0.205E-01
DAV:   4    -0.686358922019E+02    0.29538E-03   -0.89998E-04   882   0.104E-01    0.742E-02
DAV:   5    -0.686358878926E+02    0.43093E-05   -0.94246E-05   476   0.410E-02
   7 F= -.68635888E+02 E0= -.68635888E+02  d E =-.281756E-01
       N       E                     dE             d eps       ncg     rms          rms(c)
DAV:   1    -0.687005308443E+02   -0.64639E-01   -0.51763E+00   672   0.789E+00    0.207E+00
DAV:   2    -0.687033255864E+02   -0.27947E-02   -0.31441E-01   896   0.221E+00    0.971E-01
DAV:   3    -0.686985304780E+02    0.47951E-02   -0.81304E-03   868   0.375E-01    0.677E-01
DAV:   4    -0.686958773076E+02    0.26532E-02   -0.84035E-03   882   0.315E-01    0.229E-01
DAV:   5    -0.686958878998E+02   -0.10592E-04   -0.94304E-04   896   0.123E-01
   8 F= -.68695888E+02 E0= -.68695888E+02  d E =-.881756E-01
       N       E                     dE             d eps       ncg     rms          rms(c)
DAV:   1    -0.687380088885E+02   -0.42132E-01   -0.20595E+01   672   0.157E+01    0.465E+00
DAV:   2    -0.687527264258E+02   -0.14718E-01   -0.12501E+00   896   0.444E+00    0.213E+00
DAV:   3    -0.687333895334E+02    0.19337E-01   -0.33442E-02   868   0.756E-01    0.151E+00
DAV:   4    -0.687224650660E+02    0.10924E-01   -0.34180E-02   896   0.626E-01    0.493E-01
DAV:   5    -0.687224820994E+02   -0.17033E-04   -0.36622E-03   882   0.240E-01    0.137E-01
DAV:   6    -0.687223701499E+02    0.11195E-03   -0.47957E-04   896   0.789E-02    0.133E-01
DAV:   7    -0.687223691094E+02    0.10405E-05   -0.40210E-05   616   0.269E-02
   9 F= -.68722369E+02 E0= -.68722369E+02  d E =-.114657E+00
       N       E                     dE             d eps       ncg     rms          rms(c)
DAV:   1    -0.687282647414E+02   -0.58946E-02   -0.11618E+00   672   0.373E+00    0.853E-01
DAV:   2    -0.687285363728E+02   -0.27163E-03   -0.71260E-02   896   0.104E+00    0.413E-01
DAV:   3    -0.687274648653E+02    0.10715E-02   -0.18847E-03   868   0.179E-01    0.280E-01
DAV:   4    -0.687269347852E+02    0.53008E-03   -0.17151E-03   882   0.144E-01    0.107E-01
DAV:   5    -0.687269464401E+02   -0.11655E-04   -0.19829E-04   714   0.575E-02
  10 F= -.68726946E+02 E0= -.68726946E+02  d E =-.119234E+00
       N       E                     dE             d eps       ncg     rms          rms(c)
DAV:   1    -0.687532263148E+02   -0.26292E-01   -0.16609E+00   672   0.462E+00    0.127E+00
DAV:   2    -0.687490073369E+02    0.42190E-02   -0.11937E-01   896   0.141E+00    0.575E-01
DAV:   3    -0.687459443332E+02    0.30630E-02   -0.51770E-03   840   0.277E-01    0.367E-01
DAV:   4    -0.687445268727E+02    0.14175E-02   -0.32587E-03   896   0.208E-01    0.123E-01
DAV:   5    -0.687444827057E+02    0.44167E-04   -0.43325E-04   826   0.833E-02
  11 F= -.68744483E+02 E0= -.68744483E+02  d E =-.175363E-01
       N       E                     dE             d eps       ncg     rms          rms(c)
DAV:   1    -0.687451546748E+02   -0.62780E-03   -0.95935E-02   672   0.111E+00    0.324E-01
DAV:   2    -0.687449273085E+02    0.22737E-03   -0.69364E-03   896   0.338E-01    0.113E-01
DAV:   3    -0.687447377355E+02    0.18957E-03   -0.28711E-04   630   0.682E-02    0.701E-02
DAV:   4    -0.687446579110E+02    0.79824E-04   -0.27733E-04   686   0.622E-02
  12 F= -.68744658E+02 E0= -.68744658E+02  d E =-.177115E-01
       N       E                     dE             d eps       ncg     rms          rms(c)
DAV:   1    -0.687447435647E+02   -0.58293E-05   -0.60890E-03   672   0.279E-01    0.753E-02
DAV:   2    -0.687447329482E+02    0.10616E-04   -0.45661E-04   784   0.872E-02
  13 F= -.68744733E+02 E0= -.68744733E+02  d E =-.177865E-01
       N       E                     dE             d eps       ncg     rms          rms(c)
DAV:   1    -0.687510051683E+02   -0.62616E-02   -0.18258E-01   672   0.156E+00    0.271E-01
DAV:   2    -0.687514291842E+02   -0.42402E-03   -0.10370E-02   896   0.414E-01    0.141E-01
DAV:   3    -0.687512866996E+02    0.14248E-03   -0.18642E-04   616   0.663E-02    0.102E-01
DAV:   4    -0.687511849814E+02    0.10172E-03   -0.40673E-04   868   0.788E-02    0.327E-02
DAV:   5    -0.687511892033E+02   -0.42219E-05   -0.57720E-05   504   0.331E-02
  14 F= -.68751189E+02 E0= -.68751189E+02  d E =-.645626E-02
       N       E                     dE             d eps       ncg     rms          rms(c)
DAV:   1    -0.687588998706E+02   -0.77149E-02   -0.13192E+00   672   0.419E+00    0.716E-01
DAV:   2    -0.687620999258E+02   -0.32001E-02   -0.74943E-02   896   0.111E+00    0.378E-01
DAV:   3    -0.687611099686E+02    0.98996E-03   -0.14964E-03   840   0.177E-01    0.281E-01
DAV:   4    -0.687603550151E+02    0.75495E-03   -0.23061E-03   896   0.188E-01    0.904E-02
DAV:   5    -0.687603843212E+02   -0.29306E-04   -0.39563E-04   798   0.812E-02
  15 F= -.68760384E+02 E0= -.68760384E+02  d E =-.156514E-01
       N       E                     dE             d eps       ncg     rms          rms(c)
DAV:   1    -0.687603857616E+02   -0.30746E-04   -0.10045E-01   672   0.116E+00    0.210E-01
DAV:   2    -0.687606471567E+02   -0.26140E-03   -0.59646E-03   896   0.311E-01    0.100E-01
DAV:   3    -0.687605731057E+02    0.74051E-04   -0.10282E-04   616   0.496E-02
  16 F= -.68760573E+02 E0= -.68760573E+02  d E =-.158402E-01
       N       E                     dE             d eps       ncg     rms          rms(c)
DAV:   1    -0.687608648201E+02   -0.21766E-03   -0.44907E-01   686   0.245E+00    0.585E-01
DAV:   2    -0.687616790378E+02   -0.81422E-03   -0.28027E-02   896   0.687E-01    0.191E-01
DAV:   3    -0.687609754565E+02    0.70358E-03   -0.90590E-04   882   0.136E-01    0.134E-01
DAV:   4    -0.687606255499E+02    0.34991E-03   -0.96292E-04   896   0.123E-01    0.418E-02
DAV:   5    -0.687606333369E+02   -0.77870E-05   -0.16444E-04   602   0.539E-02
  17 F= -.68760633E+02 E0= -.68760633E+02  d E =-.602313E-04
       N       E                     dE             d eps       ncg     rms          rms(c)
DAV:   1    -0.687615898548E+02   -0.96430E-03   -0.13245E-01   686   0.133E+00    0.304E-01
DAV:   2    -0.687618479602E+02   -0.25811E-03   -0.83317E-03   896   0.377E-01    0.116E-01
DAV:   3    -0.687616440091E+02    0.20395E-03   -0.23068E-04   714   0.725E-02    0.799E-02
DAV:   4    -0.687615308282E+02    0.11318E-03   -0.41900E-04   812   0.808E-02    0.277E-02
DAV:   5    -0.687615333735E+02   -0.25454E-05   -0.65816E-05   420   0.353E-02
  18 F= -.68761533E+02 E0= -.68761533E+02  d E =-.960268E-03
