 vasp.5.4.4.18Apr17-6-g9f103f2a35 (build Oct 27 2022 13:04:57) complex          
  
 executed on             LinuxIFC date 2024.07.04  07:08:29
 running on   14 total cores
 distrk:  each k-point on   14 cores,    1 groups
 distr:  one band on NCORES_PER_BAND=   1 cores,   14 groups


--------------------------------------------------------------------------------------------------------


 INCAR:
 POTCAR:    PAW_PBE Li 17Jan2003                  
 POTCAR:    PAW_PBE Ga 08Apr2002                  
 POTCAR:    PAW_PBE S 06Sep2000                   

 ----------------------------------------------------------------------------- 
|                                                                             |
|           W    W    AA    RRRRR   N    N  II  N    N   GGGG   !!!           |
|           W    W   A  A   R    R  NN   N  II  NN   N  G    G  !!!           |
|           W    W  A    A  R    R  N N  N  II  N N  N  G       !!!           |
|           W WW W  AAAAAA  RRRRR   N  N N  II  N  N N  G  GGG   !            |
|           WW  WW  A    A  R   R   N   NN  II  N   NN  G    G                |
|           W    W  A    A  R    R  N    N  II  N    N   GGGG   !!!           |
|                                                                             |
|      For optimal performance we recommend to set                            |
|        NCORE= 4 - approx SQRT( number of cores)                             |
|      NCORE specifies how many cores store one orbital (NPAR=cpu/NCORE).     |
|      This setting can  greatly improve the performance of VASP for DFT.     |
|      The default,   NCORE=1            might be grossly inefficient         |
|      on modern multi-core architectures or massively parallel machines.     |
|      Do your own testing !!!!                                               |
|      Unfortunately you need to use the default for GW and RPA calculations. |
|      (for HF NCORE is supported but not extensively tested yet)             |
|                                                                             |
 ----------------------------------------------------------------------------- 

 POTCAR:    PAW_PBE Li 17Jan2003                  
   VRHFIN =Li: s1p0                                                             
   LEXCH  = PE                                                                  
   EATOM  =     5.3001 eV,    0.3895 Ry                                         
                                                                                
   TITEL  = PAW_PBE Li 17Jan2003                                                
   LULTRA =        F    use ultrasoft PP ?                                      
   IUNSCR =        1    unscreen: 0-lin 1-nonlin 2-no                           
   RPACOR =    1.500    partial core radius                                     
   POMASS =    7.010; ZVAL   =    1.000    mass and valenz                      
   RCORE  =    2.050    outmost cutoff radius                                   
   RWIGS  =    2.600; RWIGS  =    1.376    wigner-seitz radius (au A)           
   ENMAX  =  140.000; ENMIN  =  100.000 eV                                      
   ICORE  =        2    local potential                                         
   LCOR   =        T    correct aug charges                                     
   LPAW   =        T    paw PP                                                  
   EAUG   =  331.638                                                            
   DEXC   =    0.000                                                            
   RMAX   =    2.098    core radius for proj-oper                               
   RAUG   =    1.300    factor for augmentation sphere                          
   RDEP   =    2.094    radius for radial grids                                 
   RDEPT  =    1.810    core radius for aug-charge                              
                                                                                
   Atomic configuration                                                         
    4 entries                                                                   
     n  l   j            E        occ.                                          
     1  0  0.50       -51.8549   2.0000                                         
     2  0  0.50        -2.8742   1.0000                                         
     2  1  0.50        -1.3606   0.0000                                         
     3  2  1.50        -1.3606   0.0000                                         
   Description                                                                  
     l       E           TYP  RCUT    TYP  RCUT                                 
     0     -2.8742052     23  2.050                                             
     0     27.2116520     23  2.050                                             
     1     -1.3605826     23  2.050                                             
     2     -1.3605826     23  2.050                                             
  local pseudopotential read in
  partial core-charges read in
  partial kinetic energy density read in
  atomic valenz-charges read in
  non local Contribution for L=           0  read in
    real space projection operators read in
  non local Contribution for L=           0  read in
    real space projection operators read in
  non local Contribution for L=           1  read in
    real space projection operators read in
    PAW grid and wavefunctions read in
 
   number of l-projection  operators is LMAX  =           3
   number of lm-projection operators is LMMAX =           5
 
 POTCAR:    PAW_PBE Ga 08Apr2002                  
   VRHFIN =Ga: s2p1                                                             
   LEXCH  = PE                                                                  
   EATOM  =    58.8688 eV,    4.3267 Ry                                         
                                                                                
   TITEL  = PAW_PBE Ga 08Apr2002                                                
   LULTRA =        F    use ultrasoft PP ?                                      
   IUNSCR =        1    unscreen: 0-lin 1-nonlin 2-no                           
   RPACOR =    2.170    partial core radius                                     
   POMASS =   69.723; ZVAL   =    3.000    mass and valenz                      
   RCORE  =    2.600    outmost cutoff radius                                   
   RWIGS  =    2.650; RWIGS  =    1.402    wigner-seitz radius (au A)           
   ENMAX  =  134.678; ENMIN  =  101.009 eV                                      
   ICORE  =        3    local potential                                         
   LCOR   =        T    correct aug charges                                     
   LPAW   =        T    paw PP                                                  
   EAUG   =  320.264                                                            
   DEXC   =    0.000                                                            
   RMAX   =    2.658    core radius for proj-oper                               
   RAUG   =    1.300    factor for augmentation sphere                          
   RDEP   =    2.684    radius for radial grids                                 
   RDEPT  =    2.308    core radius for aug-charge                              
                                                                                
   Atomic configuration                                                         
   10 entries                                                                   
     n  l   j            E        occ.                                          
     1  0  0.50    -10228.7830   2.0000                                         
     2  0  0.50     -1262.1604   2.0000                                         
     2  1  1.50     -1098.6333   6.0000                                         
     3  0  0.50      -148.1110   2.0000                                         
     3  1  1.50       -98.8436   6.0000                                         
     3  2  2.50       -19.1549  10.0000                                         
     4  0  0.50        -8.9483   2.0000                                         
     4  1  0.50        -2.5791   1.0000                                         
     4  2  1.50         5.4423   0.0000                                         
     4  3  2.50        -2.7416   0.0000                                         
   Description                                                                  
     l       E           TYP  RCUT    TYP  RCUT                                 
     0     -8.9483097     23  2.600                                             
     0     -5.8232215     23  2.600                                             
     1     -2.5790793     23  2.600                                             
     1      5.2230115     23  2.600                                             
     2      1.3605826     23  2.600                                             
     3     -1.3605826      7  2.600                                             
  local pseudopotential read in
  partial core-charges read in
  partial kinetic energy density read in
  atomic valenz-charges read in
  non local Contribution for L=           0  read in
    real space projection operators read in
  non local Contribution for L=           0  read in
    real space projection operators read in
  non local Contribution for L=           1  read in
    real space projection operators read in
  non local Contribution for L=           1  read in
    real space projection operators read in
  non local Contribution for L=           2  read in
    real space projection operators read in
    PAW grid and wavefunctions read in
 
   number of l-projection  operators is LMAX  =           5
   number of lm-projection operators is LMMAX =          13
 
 POTCAR:    PAW_PBE S 06Sep2000                   
   VRHFIN =S : s2p4                                                             
   LEXCH  = PE                                                                  
   EATOM  =   276.8230 eV,   20.3459 Ry                                         
                                                                                
   TITEL  = PAW_PBE S 06Sep2000                                                 
   LULTRA =        F    use ultrasoft PP ?                                      
   IUNSCR =        1    unscreen: 0-lin 1-nonlin 2-no                           
   RPACOR =    1.500    partial core radius                                     
   POMASS =   32.066; ZVAL   =    6.000    mass and valenz                      
   RCORE  =    1.900    outmost cutoff radius                                   
   RWIGS  =    2.200; RWIGS  =    1.164    wigner-seitz radius (au A)           
   ENMAX  =  258.689; ENMIN  =  194.016 eV                                      
   ICORE  =        2    local potential                                         
   LCOR   =        T    correct aug charges                                     
   LPAW   =        T    paw PP                                                  
   EAUG   =  335.092                                                            
   DEXC   =    0.000                                                            
   RMAX   =    1.942    core radius for proj-oper                               
   RAUG   =    1.300    factor for augmentation sphere                          
   RDEP   =    1.954    radius for radial grids                                 
   RDEPT  =    1.744    core radius for aug-charge                              
                                                                                
   Atomic configuration                                                         
    6 entries                                                                   
     n  l   j            E        occ.                                          
     1  0  0.50     -2405.8406   2.0000                                         
     2  0  0.50      -211.7007   2.0000                                         
     2  1  1.50      -156.4958   6.0000                                         
     3  0  0.50       -17.2562   2.0000                                         
     3  1  0.50        -7.0085   4.0000                                         
     3  2  1.50        -6.8029   0.0000                                         
   Description                                                                  
     l       E           TYP  RCUT    TYP  RCUT                                 
     0    -17.2561641     23  1.900                                             
     0    -15.8743224     23  1.900                                             
     1     -7.0085400     23  1.900                                             
     1     -2.7779785     23  1.900                                             
     2     -6.8029130     23  1.900                                             
  local pseudopotential read in
  partial core-charges read in
  partial kinetic energy density read in
  atomic valenz-charges read in
  non local Contribution for L=           0  read in
    real space projection operators read in
  non local Contribution for L=           0  read in
    real space projection operators read in
  non local Contribution for L=           1  read in
    real space projection operators read in
  non local Contribution for L=           1  read in
    real space projection operators read in
    PAW grid and wavefunctions read in
 
   number of l-projection  operators is LMAX  =           4
   number of lm-projection operators is LMMAX =           8
 
 Optimization of the real space projectors (new method)

 maximal supplied QI-value         = 18.33
 optimisation between [QCUT,QGAM] = [  8.80, 17.60] = [ 21.68, 86.71] Ry 
 Optimized for a Real-space Cutoff    1.15 Angstroem

   l    n(q)    QCUT    max X(q) W(low)/X(q) W(high)/X(q)  e(spline) 
   0      6     8.799    33.825    0.11E-02    0.11E-02    0.82E-07
   0      6     8.799     8.944    0.75E-03    0.85E-03    0.59E-07
   1      5     8.799     4.214    0.92E-03    0.27E-03    0.41E-07
 Optimization of the real space projectors (new method)

 maximal supplied QI-value         = 14.36
 optimisation between [QCUT,QGAM] = [  8.76, 17.67] = [ 21.49, 87.39] Ry 
 Optimized for a Real-space Cutoff    1.42 Angstroem

   l    n(q)    QCUT    max X(q) W(low)/X(q) W(high)/X(q)  e(spline) 
   0      7     8.761    81.156    0.11E-03    0.37E-03    0.87E-07
   0      7     8.761    65.205    0.12E-03    0.37E-03    0.87E-07
   1      7     8.761    44.874    0.85E-03    0.88E-03    0.78E-07
   1      7     8.761    25.010    0.87E-03    0.93E-03    0.76E-07
   2      6     8.761     5.217    0.35E-03    0.49E-03    0.48E-07
 Optimization of the real space projectors (new method)

 maximal supplied QI-value         = 19.84
 optimisation between [QCUT,QGAM] = [  8.73, 17.66] = [ 21.34, 87.33] Ry 
 Optimized for a Real-space Cutoff    1.22 Angstroem

   l    n(q)    QCUT    max X(q) W(low)/X(q) W(high)/X(q)  e(spline) 
   0      6     8.731   187.594    0.15E-02    0.56E-03    0.90E-07
   0      6     8.731   164.243    0.15E-02    0.56E-03    0.89E-07
   1      6     8.731    67.533    0.37E-03    0.20E-02    0.11E-06
   1      6     8.731    50.729    0.36E-03    0.19E-02    0.10E-06
  PAW_PBE Li 17Jan2003                  :
 energy of atom  1       EATOM=   -5.3001
 kinetic energy error for atom=    0.0000 (will be added to EATOM!!)
  PAW_PBE Ga 08Apr2002                  :
 energy of atom  2       EATOM=  -58.8688
 kinetic energy error for atom=    0.0002 (will be added to EATOM!!)
  PAW_PBE S 06Sep2000                   :
 energy of atom  3       EATOM= -276.8230
 kinetic energy error for atom=    0.0077 (will be added to EATOM!!)
 
 
 POSCAR: Li4 Ga4 S8                              
  positions in direct lattice
  No initial velocities read in
 exchange correlation table for  LEXCH =        8
   RHO(1)=    0.500       N(1)  =     2000
   RHO(2)=  100.500       N(2)  =     4000
 


--------------------------------------------------------------------------------------------------------


 ion  position               nearest neighbor table
   1  0.567  0.585  0.122-  13 2.44  12 2.44  16 2.44  11 2.45
   2  0.067  0.415  0.878-  14 2.44  11 2.44  15 2.44  12 2.45
   3  0.067  0.915  0.622-  15 2.44  10 2.44  14 2.44   9 2.45
   4  0.567  0.085  0.378-  16 2.44   9 2.44  13 2.44  10 2.45
   5  0.064  0.919  0.126-  14 2.47  12 2.47   9 2.47  13 2.48
   6  0.564  0.081  0.874-  13 2.47  11 2.47  10 2.47  14 2.48
   7  0.564  0.581  0.626-  16 2.47  10 2.47  11 2.47  15 2.48
   8  0.064  0.419  0.374-  15 2.47   9 2.47  12 2.47  16 2.48
   9  0.192  0.083  0.377-   4 2.44   3 2.45   8 2.47   5 2.47
  10  0.692  0.917  0.623-   3 2.44   4 2.45   7 2.47   6 2.47
  11  0.692  0.417  0.877-   2 2.44   1 2.45   6 2.47   7 2.47
  12  0.192  0.583  0.123-   1 2.44   2 2.45   5 2.47   8 2.47
  13  0.684  0.919  0.128-   1 2.44   4 2.44   6 2.47   5 2.48
  14  0.184  0.081  0.872-   2 2.44   3 2.44   5 2.47   6 2.48
  15  0.184  0.581  0.628-   3 2.44   2 2.44   8 2.47   7 2.48
  16  0.684  0.419  0.372-   4 2.44   1 2.44   7 2.47   8 2.48
 
  LATTYP: Found a simple orthorhombic cell.
 ALAT       =     6.5204319300
 B/A-ratio  =     1.0628852129
 C/A-ratio  =     1.2405003590
  
  Lattice vectors:
  
 A1 = (   6.5204319300,   0.0000000000,   0.0000000000)
 A2 = (   0.0000000000,   6.9304706800,   0.0000000000)
 A3 = (   0.0000000000,   0.0000000000,   8.0885981500)


Analysis of symmetry for initial positions (statically):
=====================================================================
 Subroutine PRICEL returns:
 Original cell was already a primitive cell.
 

 Routine SETGRP: Setting up the symmetry group for a 
 simple orthorhombic supercell.


 Subroutine GETGRP returns: Found  4 space group operations
 (whereof  1 operations were pure point group operations)
 out of a pool of  8 trial point group operations.


The static configuration has the point symmetry C_1 .
 The point group associated with its full space group is C_2v.


Analysis of symmetry for dynamics (positions and initial velocities):
=====================================================================
 Subroutine PRICEL returns:
 Original cell was already a primitive cell.
 

 Routine SETGRP: Setting up the symmetry group for a 
 simple orthorhombic supercell.


 Subroutine GETGRP returns: Found  4 space group operations
 (whereof  1 operations were pure point group operations)
 out of a pool of  8 trial point group operations.


The dynamic configuration has the point symmetry C_1 .
 The point group associated with its full space group is C_2v.


 Subroutine INISYM returns: Found  4 space group operations
 (whereof  1 operations are pure point group operations),
 and found     1 'primitive' translations

 
 
 KPOINTS: pymatgen with grid density = 807 / numbe

Automatic generation of k-mesh.
Space group operators:
 irot       det(A)        alpha          n_x          n_y          n_z        tau_x        tau_y        tau_z
    1     1.000000     0.000001     1.000000     0.000000     0.000000     0.000000     0.000000     0.000000
    2    -1.000000   180.000000     0.000000     0.000000     1.000000     0.000000     0.500000     0.500000
    3    -1.000000   180.000000     0.000000     1.000000     0.000000     0.500000     0.500000     0.500000
    4     1.000000   180.000000     1.000000     0.000000     0.000000     0.500000     0.000000     0.000000
 
 Subroutine IBZKPT returns following result:
 ===========================================
 
 Found      8 irreducible k-points:
 
 Following reciprocal coordinates:
            Coordinates               Weight
  0.000000  0.000000  0.000000      1.000000
  0.333333  0.000000  0.000000      2.000000
  0.000000  0.333333  0.000000      2.000000
  0.333333  0.333333  0.000000      4.000000
  0.000000  0.000000  0.333333      2.000000
  0.333333  0.000000  0.333333      4.000000
  0.000000  0.333333  0.333333      4.000000
  0.333333  0.333333  0.333333      8.000000
 
 Following cartesian coordinates:
            Coordinates               Weight
  0.000000  0.000000  0.000000      1.000000
  0.051121  0.000000  0.000000      2.000000
  0.000000  0.048097  0.000000      2.000000
  0.051121  0.048097  0.000000      4.000000
  0.000000  0.000000  0.041210      2.000000
  0.051121  0.000000  0.041210      4.000000
  0.000000  0.048097  0.041210      4.000000
  0.051121  0.048097  0.041210      8.000000
 


--------------------------------------------------------------------------------------------------------




 Dimension of arrays:
   k-points           NKPTS =      8   k-points in BZ     NKDIM =      8   number of bands    NBANDS=     42
   number of dos      NEDOS =    301   number of ions     NIONS =     16
   non local maximal  LDIM  =      5   non local SUM 2l+1 LMDIM =     13
   total plane-waves  NPLWV =  30240
   max r-space proj   IRMAX =   1034   max aug-charges    IRDMAX=   2181
   dimension x,y,z NGX =    28 NGY =   30 NGZ =   36
   dimension x,y,z NGXF=    40 NGYF=   42 NGZF=   48
   support grid    NGXF=    40 NGYF=   42 NGZF=   48
   ions per type =               4   4   8
   NGX,Y,Z   is equivalent  to a cutoff of   7.14,  7.20,  7.40 a.u.
   NGXF,Y,Z  is equivalent  to a cutoff of  10.20, 10.07,  9.87 a.u.

 SYSTEM =  CIS                                     
 POSCAR =  Li4 Ga4 S8                              

 Startparameter for this run:
   NWRITE =      2    write-flag & timer
   PREC   = medium    normal or accurate (medium, high low for compatibility)
   ISTART =      0    job   : 0-new  1-cont  2-samecut
   ICHARG =      2    charge: 1-file 2-atom 10-const
   ISPIN  =      1    spin polarized calculation?
   LNONCOLLINEAR =      F non collinear calculations
   LSORBIT =      F    spin-orbit coupling
   INIWAV =      1    electr: 0-lowe 1-rand  2-diag
   LASPH  =      T    aspherical Exc in radial PAW
   METAGGA=      F    non-selfconsistent MetaGGA calc.

 Electronic Relaxation 1
   ENCUT  =  300.0 eV  22.05 Ry    4.70 a.u.   9.21  9.79 11.42*2*pi/ulx,y,z
   ENINI  =  300.0     initial cutoff
   ENAUG  =  335.1 eV  augmentation charge cutoff
   NELM   =     60;   NELMIN=  2; NELMDL= -5     # of ELM steps 
   EDIFF  = 0.1E-03   stopping-criterion for ELM
   LREAL  =      T    real-space projection
   NLSPLINE    = F    spline interpolate recip. space projectors
   LCOMPAT=      F    compatible to vasp.4.4
   GGA_COMPAT  = T    GGA compatible to vasp.4.4-vasp.4.6
   LMAXPAW     = -100 max onsite density
   LMAXMIX     =    4 max onsite mixed and CHGCAR
   VOSKOWN=      0    Vosko Wilk Nusair interpolation
   ROPT   =   -0.00200  -0.00200  -0.00200
 Ionic relaxation
   EDIFFG = -.5E-01   stopping-criterion for IOM
   NSW    =     99    number of steps for IOM
   NBLOCK =      1;   KBLOCK =     99    inner block; outer block 
   IBRION =      2    ionic relax: 0-MD 1-quasi-New 2-CG
   NFREE  =      1    steps in history (QN), initial steepest desc. (CG)
   ISIF   =      3    stress and relaxation
   IWAVPR =     11    prediction:  0-non 1-charg 2-wave 3-comb
   ISYM   =      2    0-nonsym 1-usesym 2-fastsym
   LCORR  =      T    Harris-Foulkes like correction to forces

   POTIM  = 0.1000    time-step for ionic-motion
   TEIN   =    0.0    initial temperature
   TEBEG  =    0.0;   TEEND  =   0.0 temperature during run
   SMASS  =  -3.00    Nose mass-parameter (am)
   estimated Nose-frequenzy (Omega)   =  0.10E-29 period in steps =****** mass=  -0.972E-27a.u.
   SCALEE = 1.0000    scale energy and forces
   NPACO  =    256;   APACO  = 16.0  distance and # of slots for P.C.
   PSTRESS=    0.0 pullay stress

  Mass of Ions in am
   POMASS =   7.01 69.72 32.07
  Ionic Valenz
   ZVAL   =   1.00  3.00  6.00
  Atomic Wigner-Seitz radii
   RWIGS  =  -1.00 -1.00 -1.00
  virtual crystal weights 
   VCA    =   1.00  1.00  1.00
   NELECT =      64.0000    total number of electrons
   NUPDOWN=      -1.0000    fix difference up-down

 DOS related values:
   EMIN   =  10.00;   EMAX   =-10.00  energy-range for DOS
   EFERMI =   0.00
   ISMEAR =     0;   SIGMA  =   0.05  broadening in eV -4-tet -1-fermi 0-gaus

 Electronic relaxation 2 (details)
   IALGO  =     38    algorithm
   LDIAG  =      T    sub-space diagonalisation (order eigenvalues)
   LSUBROT=      F    optimize rotation matrix (better conditioning)
   TURBO    =      0    0=normal 1=particle mesh
   IRESTART =      0    0=no restart 2=restart with 2 vectors
   NREBOOT  =      0    no. of reboots
   NMIN     =      0    reboot dimension
   EREF     =   0.00    reference energy to select bands
   IMIX   =      4    mixing-type and parameters
     AMIX     =   0.40;   BMIX     =  1.00
     AMIX_MAG =   1.60;   BMIX_MAG =  1.00
     AMIN     =   0.10
     WC   =   100.;   INIMIX=   1;  MIXPRE=   1;  MAXMIX= -45

 Intra band minimization:
   WEIMIN = 0.0010     energy-eigenvalue tresh-hold
   EBREAK =  0.60E-06  absolut break condition
   DEPER  =   0.30     relativ break condition  

   TIME   =   0.40     timestep for ELM

  volume/ion in A,a.u.               =      22.85       154.17
  Fermi-wavevector in a.u.,A,eV,Ry     =   0.915863  1.730731 11.412645  0.838806
  Thomas-Fermi vector in A             =   2.040653
 
 Write flags
   LWAVE        =      F    write WAVECAR
   LDOWNSAMPLE  =      F    k-point downsampling of WAVECAR
   LCHARG       =      F    write CHGCAR
   LVTOT        =      F    write LOCPOT, total local potential
   LVHAR        =      F    write LOCPOT, Hartree potential only
   LELF         =      F    write electronic localiz. function (ELF)
   LORBIT       =     10    0 simple, 1 ext, 2 COOP (PROOUT), +10 PAW based schemes


 Dipole corrections
   LMONO  =      F    monopole corrections only (constant potential shift)
   LDIPOL =      F    correct potential (dipole corrections)
   IDIPOL =      0    1-x, 2-y, 3-z, 4-all directions 
   EPSILON=  1.0000000 bulk dielectric constant

 Exchange correlation treatment:
   GGA     =    --    GGA type
   LEXCH   =     8    internal setting for exchange type
   VOSKOWN=      0    Vosko Wilk Nusair interpolation
   LHFCALC =     F    Hartree Fock is set to
   LHFONE  =     F    Hartree Fock one center treatment
   AEXX    =    0.0000 exact exchange contribution

 Linear response parameters
   LEPSILON=     F    determine dielectric tensor
   LRPA    =     F    only Hartree local field effects (RPA)
   LNABLA  =     F    use nabla operator in PAW spheres
   LVEL    =     F    velocity operator in full k-point grid
   LINTERFAST=   F  fast interpolation
   KINTER  =     0    interpolate to denser k-point grid
   CSHIFT  =0.1000    complex shift for real part using Kramers Kronig
   OMEGAMAX=  -1.0    maximum frequency
   DEG_THRESHOLD= 0.2000000E-02 threshold for treating states as degnerate
   RTIME   =   -0.100 relaxation time in fs
  (WPLASMAI=    0.000 imaginary part of plasma frequency in eV, 0.658/RTIME)
   DFIELD  = 0.0000000 0.0000000 0.0000000 field for delta impulse in time
 
 Orbital magnetization related:
   ORBITALMAG=     F  switch on orbital magnetization
   LCHIMAG   =     F  perturbation theory with respect to B field
   DQ        =  0.001000  dq finite difference perturbation B field
   LLRAUG    =     F  two centre corrections for induced B field



--------------------------------------------------------------------------------------------------------


 conjugate gradient relaxation of ions
 charge density and potential will be updated during run
 non-spin polarized calculation
 Variant of blocked Davidson
 Davidson routine will perform the subspace rotation
 perform sub-space diagonalisation
    after iterative eigenvector-optimisation
 modified Broyden-mixing scheme, WC =      100.0
 initial mixing is a Kerker type mixing with AMIX =  0.4000 and BMIX =      1.0000
 Hartree-type preconditioning will be used
 using additional bands           10
 real space projection scheme for non local part
 use partial core corrections
 calculate Harris-corrections to forces 
   (improved forces if not selfconsistent)
 use gradient corrections 
 use of overlap-Matrix (Vanderbilt PP)
 Gauss-broadening in eV      SIGMA  =   0.05


--------------------------------------------------------------------------------------------------------


  energy-cutoff  :      300.00
  volume of cell :      365.52
      direct lattice vectors                 reciprocal lattice vectors
     6.520431930  0.000000000  0.000000000     0.153364073  0.000000000  0.000000000
     0.000000000  6.930470680  0.000000000     0.000000000  0.144290344  0.000000000
     0.000000000  0.000000000  8.088598150     0.000000000  0.000000000  0.123630817

  length of vectors
     6.520431930  6.930470680  8.088598150     0.153364073  0.144290344  0.123630817


 
 k-points in units of 2pi/SCALE and weight: pymatgen with grid density = 807 / numbe
   0.00000000  0.00000000  0.00000000       0.037
   0.05112136  0.00000000  0.00000000       0.074
   0.00000000  0.04809678  0.00000000       0.074
   0.05112136  0.04809678  0.00000000       0.148
   0.00000000  0.00000000  0.04121027       0.074
   0.05112136  0.00000000  0.04121027       0.148
   0.00000000  0.04809678  0.04121027       0.148
   0.05112136  0.04809678  0.04121027       0.296
 
 k-points in reciprocal lattice and weights: pymatgen with grid density = 807 / numbe
   0.00000000  0.00000000  0.00000000       0.037
   0.33333333  0.00000000  0.00000000       0.074
   0.00000000  0.33333333  0.00000000       0.074
   0.33333333  0.33333333  0.00000000       0.148
   0.00000000  0.00000000  0.33333333       0.074
   0.33333333  0.00000000  0.33333333       0.148
   0.00000000  0.33333333  0.33333333       0.148
   0.33333333  0.33333333  0.33333333       0.296
 
 position of ions in fractional coordinates (direct lattice) 
   0.56682874  0.58532271  0.12237690
   0.06682874  0.41467729  0.87762310
   0.06682874  0.91467729  0.62237690
   0.56682874  0.08532271  0.37762310
   0.06420631  0.91870067  0.12560451
   0.56420631  0.08129933  0.87439549
   0.56420631  0.58129933  0.62560451
   0.06420631  0.41870067  0.37439549
   0.19205758  0.08301599  0.37662021
   0.69205758  0.91698401  0.62337979
   0.69205758  0.41698401  0.87662021
   0.19205758  0.58301599  0.12337979
   0.68410737  0.91948936  0.12831713
   0.18410737  0.08051064  0.87168287
   0.18410737  0.58051064  0.62831713
   0.68410737  0.41948936  0.37168287
 
 position of ions in cartesian coordinates  (Angst):
   3.69596822  4.05656188  0.98985757
   0.43575225  2.87390880  7.09874058
   0.43575225  6.33914414  5.03415664
   3.69596822  0.59132654  3.05444151
   0.41865287  6.36702806  1.01596441
   3.67886884  0.56344262  7.07263374
   3.67886884  4.02867796  5.06026348
   0.41865287  2.90179272  3.02833467
   1.25229838  0.57533988  3.04632953
   4.51251434  6.35513080  5.04226862
   4.51251434  2.88989546  7.09062861
   1.25229838  4.04057522  0.99796954
   4.46067554  6.37249405  1.03790570
   1.20045957  0.55797663  7.05069245
   1.20045957  4.02321197  5.08220478
   4.46067554  2.90725871  3.00639337
 


--------------------------------------------------------------------------------------------------------


 k-point  1 :   0.0000 0.0000 0.0000  plane waves:    4347
 k-point  2 :   0.3333 0.0000 0.0000  plane waves:    4296
 k-point  3 :   0.0000 0.3333 0.0000  plane waves:    4320
 k-point  4 :   0.3333 0.3333 0.0000  plane waves:    4318
 k-point  5 :   0.0000 0.0000 0.3333  plane waves:    4303
 k-point  6 :   0.3333 0.0000 0.3333  plane waves:    4324
 k-point  7 :   0.0000 0.3333 0.3333  plane waves:    4311
 k-point  8 :   0.3333 0.3333 0.3333  plane waves:    4314

 maximum and minimum number of plane-waves per node :      4347     4296

 maximum number of plane-waves:      4347
 maximum index in each direction: 
   IXMAX=    9   IYMAX=    9   IZMAX=   11
   IXMIN=   -9   IYMIN=  -10   IZMIN=  -11


 serial   3D FFT for wavefunctions
 parallel 3D FFT for charge:
    minimum data exchange during FFTs selected (reduces bandwidth)


 total amount of memory used by VASP MPI-rank0    34983. kBytes
=======================================================================

   base      :      30000. kBytes
   nonlr-proj:       1150. kBytes
   fftplans  :        357. kBytes
   grid      :       1622. kBytes
   one-center:        129. kBytes
   wavefun   :       1725. kBytes
 
     INWAV:  cpu time    0.0000: real time    0.0001
 Broyden mixing: mesh for mixing (old mesh)
   NGX = 19   NGY = 19   NGZ = 23
  (NGX  = 40   NGY  = 42   NGZ  = 48)
  gives a total of   8303 points

 initial charge density was supplied:
 charge density of overlapping atoms calculated
 number of electron      64.0000000 magnetization 
 keeping initial charge density in first step


--------------------------------------------------------------------------------------------------------


 Maximum index for non-local projection operator          968
 Maximum index for augmentation-charges          164 (set IRDMAX)


--------------------------------------------------------------------------------------------------------


 First call to EWALD:  gamma=   0.248
 Maximum number of real-space cells 3x 3x 2
 Maximum number of reciprocal cells 3x 3x 3

    FEWALD:  cpu time    0.0019: real time    0.0019


--------------------------------------- Iteration      1(   1)  ---------------------------------------


    POTLOK:  cpu time    0.0096: real time    0.0321
    SETDIJ:  cpu time    0.1448: real time    0.1462
     EDDAV:  cpu time    0.2130: real time    0.2156
       DOS:  cpu time    0.0003: real time    0.0004
    --------------------------------------------
      LOOP:  cpu time    0.3678: real time    0.3943

 eigenvalue-minimisations  :   672
 total energy-change (2. order) : 0.2291995E+03  (-0.1849260E+04)
 number of electron      64.0000000 magnetization 
 augmentation part       64.0000000 magnetization 

 Free energy of the ion-electron system (eV)
  ---------------------------------------------------
  alpha Z        PSCENC =        78.71820500
  Ewald energy   TEWEN  =     -2082.43076519
  -Hartree energ DENC   =      -399.87245447
  -exchange      EXHF   =         0.00000000
  -V(xc)+E(xc)   XCENC  =         1.28683759
  PAW double counting   =      2018.78655713    -1876.24968428
  entropy T*S    EENTRO =        -0.00982737
  eigenvalues    EBANDS =        17.77299941
  atomic energy  EATOM  =      2471.19760440
  Solvation  Ediel_sol  =         0.00000000
  ---------------------------------------------------
  free energy    TOTEN  =       229.19947220 eV

  energy without entropy =      229.20929957  energy(sigma->0) =      229.20438589


--------------------------------------------------------------------------------------------------------




--------------------------------------- Iteration      1(   2)  ---------------------------------------


     EDDAV:  cpu time    0.2974: real time    0.3036
       DOS:  cpu time    0.0002: real time    0.0002
    --------------------------------------------
      LOOP:  cpu time    0.2976: real time    0.3037

 eigenvalue-minimisations  :   924
 total energy-change (2. order) :-0.2790570E+03  (-0.2736424E+03)
 number of electron      64.0000000 magnetization 
 augmentation part       64.0000000 magnetization 

 Free energy of the ion-electron system (eV)
  ---------------------------------------------------
  alpha Z        PSCENC =        78.71820500
  Ewald energy   TEWEN  =     -2082.43076519
  -Hartree energ DENC   =      -399.87245447
  -exchange      EXHF   =         0.00000000
  -V(xc)+E(xc)   XCENC  =         1.28683759
  PAW double counting   =      2018.78655713    -1876.24968428
  entropy T*S    EENTRO =        -0.00000000
  eigenvalues    EBANDS =      -261.29379555
  atomic energy  EATOM  =      2471.19760440
  Solvation  Ediel_sol  =         0.00000000
  ---------------------------------------------------
  free energy    TOTEN  =       -49.85749538 eV

  energy without entropy =      -49.85749538  energy(sigma->0) =      -49.85749538


--------------------------------------------------------------------------------------------------------




--------------------------------------- Iteration      1(   3)  ---------------------------------------


     EDDAV:  cpu time    0.2929: real time    0.2972
       DOS:  cpu time    0.0002: real time    0.0001
    --------------------------------------------
      LOOP:  cpu time    0.2930: real time    0.2974

 eigenvalue-minimisations  :   896
 total energy-change (2. order) :-0.2066363E+02  (-0.2059744E+02)
 number of electron      64.0000000 magnetization 
 augmentation part       64.0000000 magnetization 

 Free energy of the ion-electron system (eV)
  ---------------------------------------------------
  alpha Z        PSCENC =        78.71820500
  Ewald energy   TEWEN  =     -2082.43076519
  -Hartree energ DENC   =      -399.87245447
  -exchange      EXHF   =         0.00000000
  -V(xc)+E(xc)   XCENC  =         1.28683759
  PAW double counting   =      2018.78655713    -1876.24968428
  entropy T*S    EENTRO =        -0.00000000
  eigenvalues    EBANDS =      -281.95742818
  atomic energy  EATOM  =      2471.19760440
  Solvation  Ediel_sol  =         0.00000000
  ---------------------------------------------------
  free energy    TOTEN  =       -70.52112801 eV

  energy without entropy =      -70.52112801  energy(sigma->0) =      -70.52112801


--------------------------------------------------------------------------------------------------------




--------------------------------------- Iteration      1(   4)  ---------------------------------------


     EDDAV:  cpu time    0.2022: real time    0.2044
       DOS:  cpu time    0.0002: real time    0.0002
    --------------------------------------------
      LOOP:  cpu time    0.2023: real time    0.2046

 eigenvalue-minimisations  :   882
 total energy-change (2. order) :-0.2950344E+00  (-0.2948654E+00)
 number of electron      64.0000000 magnetization 
 augmentation part       64.0000000 magnetization 

 Free energy of the ion-electron system (eV)
  ---------------------------------------------------
  alpha Z        PSCENC =        78.71820500
  Ewald energy   TEWEN  =     -2082.43076519
  -Hartree energ DENC   =      -399.87245447
  -exchange      EXHF   =         0.00000000
  -V(xc)+E(xc)   XCENC  =         1.28683759
  PAW double counting   =      2018.78655713    -1876.24968428
  entropy T*S    EENTRO =        -0.00000000
  eigenvalues    EBANDS =      -282.25246262
  atomic energy  EATOM  =      2471.19760440
  Solvation  Ediel_sol  =         0.00000000
  ---------------------------------------------------
  free energy    TOTEN  =       -70.81616245 eV

  energy without entropy =      -70.81616245  energy(sigma->0) =      -70.81616245


--------------------------------------------------------------------------------------------------------




--------------------------------------- Iteration      1(   5)  ---------------------------------------


     EDDAV:  cpu time    0.2639: real time    0.2671
       DOS:  cpu time    0.0001: real time    0.0001
    CHARGE:  cpu time    0.0107: real time    0.0108
    MIXING:  cpu time    0.0004: real time    0.0004
    --------------------------------------------
      LOOP:  cpu time    0.2752: real time    0.2785

 eigenvalue-minimisations  :   896
 total energy-change (2. order) :-0.7022739E-02  (-0.7022290E-02)
 number of electron      64.0000101 magnetization 
 augmentation part       -8.2439024 magnetization 

 Broyden mixing:
  rms(total) = 0.11988E+01    rms(broyden)= 0.11987E+01
  rms(prec ) = 0.17539E+01
  weight for this iteration     100.00

 Free energy of the ion-electron system (eV)
  ---------------------------------------------------
  alpha Z        PSCENC =        78.71820500
  Ewald energy   TEWEN  =     -2082.43076519
  -Hartree energ DENC   =      -399.87245447
  -exchange      EXHF   =         0.00000000
  -V(xc)+E(xc)   XCENC  =         1.28683759
  PAW double counting   =      2018.78655713    -1876.24968428
  entropy T*S    EENTRO =        -0.00000000
  eigenvalues    EBANDS =      -282.25948536
  atomic energy  EATOM  =      2471.19760440
  Solvation  Ediel_sol  =         0.00000000
  ---------------------------------------------------
  free energy    TOTEN  =       -70.82318519 eV

  energy without entropy =      -70.82318519  energy(sigma->0) =      -70.82318519


--------------------------------------------------------------------------------------------------------




--------------------------------------- Iteration      1(   6)  ---------------------------------------


    POTLOK:  cpu time    0.0048: real time    0.0049
    SETDIJ:  cpu time    0.1403: real time    0.1408
     EDDAV:  cpu time    0.1859: real time    0.1870
       DOS:  cpu time    0.0004: real time    0.0004
    CHARGE:  cpu time    0.0096: real time    0.0096
    MIXING:  cpu time    0.0003: real time    0.0003
    --------------------------------------------
      LOOP:  cpu time    0.3413: real time    0.3430

 eigenvalue-minimisations  :   840
 total energy-change (2. order) : 0.3471206E+01  (-0.7277382E+00)
 number of electron      64.0000088 magnetization 
 augmentation part       -8.2992906 magnetization 

 Broyden mixing:
  rms(total) = 0.96987E+00    rms(broyden)= 0.96985E+00
  rms(prec ) = 0.10687E+01
  weight for this iteration     100.00

 eigenvalues of (default mixing * dielectric matrix)
  average eigenvalue GAMMA=   1.2180
  1.2180

 Free energy of the ion-electron system (eV)
  ---------------------------------------------------
  alpha Z        PSCENC =        78.71820500
  Ewald energy   TEWEN  =     -2082.43076519
  -Hartree energ DENC   =      -428.07753755
  -exchange      EXHF   =         0.00000000
  -V(xc)+E(xc)   XCENC  =         4.38675980
  PAW double counting   =      2796.39158814    -2655.22199462
  entropy T*S    EENTRO =        -0.00000000
  eigenvalues    EBANDS =      -252.31583919
  atomic energy  EATOM  =      2471.19760440
  Solvation  Ediel_sol  =         0.00000000
  ---------------------------------------------------
  free energy    TOTEN  =       -67.35197922 eV

  energy without entropy =      -67.35197922  energy(sigma->0) =      -67.35197922


--------------------------------------------------------------------------------------------------------




--------------------------------------- Iteration      1(   7)  ---------------------------------------


    POTLOK:  cpu time    0.0035: real time    0.0036
    SETDIJ:  cpu time    0.1439: real time    0.1442
     EDDAV:  cpu time    0.2652: real time    0.2652
       DOS:  cpu time    0.0002: real time    0.0002
    CHARGE:  cpu time    0.0104: real time    0.0104
    MIXING:  cpu time    0.0004: real time    0.0004
    --------------------------------------------
      LOOP:  cpu time    0.4236: real time    0.4239

 eigenvalue-minimisations  :   882
 total energy-change (2. order) : 0.1690431E+00  (-0.1772101E+00)
 number of electron      64.0000077 magnetization 
 augmentation part       -8.3204117 magnetization 

 Broyden mixing:
  rms(total) = 0.49773E+00    rms(broyden)= 0.49772E+00
  rms(prec ) = 0.53061E+00
  weight for this iteration     100.00

 eigenvalues of (default mixing * dielectric matrix)
  average eigenvalue GAMMA=   1.5966
  1.3176  1.8756

 Free energy of the ion-electron system (eV)
  ---------------------------------------------------
  alpha Z        PSCENC =        78.71820500
  Ewald energy   TEWEN  =     -2082.43076519
  -Hartree energ DENC   =      -438.33891133
  -exchange      EXHF   =         0.00000000
  -V(xc)+E(xc)   XCENC  =         5.84231676
  PAW double counting   =      3748.70363933    -3608.06049271
  entropy T*S    EENTRO =        -0.00000000
  eigenvalues    EBANDS =      -242.81453236
  atomic energy  EATOM  =      2471.19760440
  Solvation  Ediel_sol  =         0.00000000
  ---------------------------------------------------
  free energy    TOTEN  =       -67.18293611 eV

  energy without entropy =      -67.18293611  energy(sigma->0) =      -67.18293611


--------------------------------------------------------------------------------------------------------




--------------------------------------- Iteration      1(   8)  ---------------------------------------


    POTLOK:  cpu time    0.0038: real time    0.0039
    SETDIJ:  cpu time    0.1464: real time    0.1464
     EDDAV:  cpu time    0.3029: real time    0.3030
       DOS:  cpu time    0.0002: real time    0.0002
    CHARGE:  cpu time    0.0103: real time    0.0103
    MIXING:  cpu time    0.0006: real time    0.0006
    --------------------------------------------
      LOOP:  cpu time    0.4642: real time    0.4643

 eigenvalue-minimisations  :   826
 total energy-change (2. order) :-0.4505399E-03  (-0.1675900E-01)
 number of electron      64.0000078 magnetization 
 augmentation part       -8.3390659 magnetization 

 Broyden mixing:
  rms(total) = 0.75909E-01    rms(broyden)= 0.75908E-01
  rms(prec ) = 0.10490E+00
  weight for this iteration     100.00

 eigenvalues of (default mixing * dielectric matrix)
  average eigenvalue GAMMA=   1.5545
  2.3141  1.1748  1.1748

 Free energy of the ion-electron system (eV)
  ---------------------------------------------------
  alpha Z        PSCENC =        78.71820500
  Ewald energy   TEWEN  =     -2082.43076519
  -Hartree energ DENC   =      -438.06476998
  -exchange      EXHF   =         0.00000000
  -V(xc)+E(xc)   XCENC  =         6.21367110
  PAW double counting   =      4522.59457942    -4382.01869116
  entropy T*S    EENTRO =        -0.00000000
  eigenvalues    EBANDS =      -243.39322022
  atomic energy  EATOM  =      2471.19760440
  Solvation  Ediel_sol  =         0.00000000
  ---------------------------------------------------
  free energy    TOTEN  =       -67.18338665 eV

  energy without entropy =      -67.18338665  energy(sigma->0) =      -67.18338665


--------------------------------------------------------------------------------------------------------




--------------------------------------- Iteration      1(   9)  ---------------------------------------


    POTLOK:  cpu time    0.0045: real time    0.0047
    SETDIJ:  cpu time    0.1436: real time    0.1436
     EDDAV:  cpu time    0.2046: real time    0.2046
       DOS:  cpu time    0.0001: real time    0.0001
    CHARGE:  cpu time    0.0104: real time    0.0104
    MIXING:  cpu time    0.0004: real time    0.0004
    --------------------------------------------
      LOOP:  cpu time    0.3637: real time    0.3638

 eigenvalue-minimisations  :   882
 total energy-change (2. order) :-0.4163395E-02  (-0.3561892E-02)
 number of electron      64.0000079 magnetization 
 augmentation part       -8.3480414 magnetization 

 Broyden mixing:
  rms(total) = 0.27521E-01    rms(broyden)= 0.27520E-01
  rms(prec ) = 0.35584E-01
  weight for this iteration     100.00

 eigenvalues of (default mixing * dielectric matrix)
  average eigenvalue GAMMA=   1.5803
  2.0154  2.0154  1.1452  1.1452

 Free energy of the ion-electron system (eV)
  ---------------------------------------------------
  alpha Z        PSCENC =        78.71820500
  Ewald energy   TEWEN  =     -2082.43076519
  -Hartree energ DENC   =      -440.71037903
  -exchange      EXHF   =         0.00000000
  -V(xc)+E(xc)   XCENC  =         6.56544711
  PAW double counting   =      4708.85874539    -4568.38507112
  entropy T*S    EENTRO =        -0.00000000
  eigenvalues    EBANDS =      -241.00133660
  atomic energy  EATOM  =      2471.19760440
  Solvation  Ediel_sol  =         0.00000000
  ---------------------------------------------------
  free energy    TOTEN  =       -67.18755004 eV

  energy without entropy =      -67.18755004  energy(sigma->0) =      -67.18755004


--------------------------------------------------------------------------------------------------------




--------------------------------------- Iteration      1(  10)  ---------------------------------------


    POTLOK:  cpu time    0.0041: real time    0.0042
    SETDIJ:  cpu time    0.1450: real time    0.1450
     EDDAV:  cpu time    0.3312: real time    0.3312
       DOS:  cpu time    0.0003: real time    0.0003
    CHARGE:  cpu time    0.0125: real time    0.0125
    MIXING:  cpu time    0.0006: real time    0.0006
    --------------------------------------------
      LOOP:  cpu time    0.4937: real time    0.4938

 eigenvalue-minimisations  :   854
 total energy-change (2. order) :-0.3620481E-02  (-0.4810836E-03)
 number of electron      64.0000078 magnetization 
 augmentation part       -8.3456052 magnetization 

 Broyden mixing:
  rms(total) = 0.12000E-01    rms(broyden)= 0.12000E-01
  rms(prec ) = 0.17001E-01
  weight for this iteration     100.00

 eigenvalues of (default mixing * dielectric matrix)
  average eigenvalue GAMMA=   1.7297
  2.9436  2.4306  1.1125  1.1125  1.0493

 Free energy of the ion-electron system (eV)
  ---------------------------------------------------
  alpha Z        PSCENC =        78.71820500
  Ewald energy   TEWEN  =     -2082.43076519
  -Hartree energ DENC   =      -440.96661002
  -exchange      EXHF   =         0.00000000
  -V(xc)+E(xc)   XCENC  =         6.57831617
  PAW double counting   =      4661.54926125    -4521.05615099
  entropy T*S    EENTRO =        -0.00000000
  eigenvalues    EBANDS =      -240.78103114
  atomic energy  EATOM  =      2471.19760440
  Solvation  Ediel_sol  =         0.00000000
  ---------------------------------------------------
  free energy    TOTEN  =       -67.19117052 eV

  energy without entropy =      -67.19117052  energy(sigma->0) =      -67.19117052


--------------------------------------------------------------------------------------------------------




--------------------------------------- Iteration      1(  11)  ---------------------------------------


    POTLOK:  cpu time    0.0064: real time    0.0066
    SETDIJ:  cpu time    0.1473: real time    0.1473
     EDDAV:  cpu time    0.3128: real time    0.3128
       DOS:  cpu time    0.0002: real time    0.0002
    CHARGE:  cpu time    0.0105: real time    0.0105
    MIXING:  cpu time    0.0005: real time    0.0005
    --------------------------------------------
      LOOP:  cpu time    0.4777: real time    0.4779

 eigenvalue-minimisations  :   882
 total energy-change (2. order) :-0.1030428E-02  (-0.1736279E-03)
 number of electron      64.0000078 magnetization 
 augmentation part       -8.3457542 magnetization 

 Broyden mixing:
  rms(total) = 0.40039E-02    rms(broyden)= 0.40034E-02
  rms(prec ) = 0.45673E-02
  weight for this iteration     100.00

 eigenvalues of (default mixing * dielectric matrix)
  average eigenvalue GAMMA=   1.6432
  2.7789  2.4652  1.3162  1.0870  1.1060  1.1060

 Free energy of the ion-electron system (eV)
  ---------------------------------------------------
  alpha Z        PSCENC =        78.71820500
  Ewald energy   TEWEN  =     -2082.43076519
  -Hartree energ DENC   =      -441.59159509
  -exchange      EXHF   =         0.00000000
  -V(xc)+E(xc)   XCENC  =         6.64492684
  PAW double counting   =      4664.15209671    -4523.66756466
  entropy T*S    EENTRO =        -0.00000000
  eigenvalues    EBANDS =      -240.21510895
  atomic energy  EATOM  =      2471.19760440
  Solvation  Ediel_sol  =         0.00000000
  ---------------------------------------------------
  free energy    TOTEN  =       -67.19220095 eV

  energy without entropy =      -67.19220095  energy(sigma->0) =      -67.19220095


--------------------------------------------------------------------------------------------------------




--------------------------------------- Iteration      1(  12)  ---------------------------------------


    POTLOK:  cpu time    0.0040: real time    0.0042
    SETDIJ:  cpu time    0.1421: real time    0.1421
     EDDAV:  cpu time    0.2510: real time    0.2510
       DOS:  cpu time    0.0002: real time    0.0002
    --------------------------------------------
      LOOP:  cpu time    0.3974: real time    0.3975

 eigenvalue-minimisations  :   630
 total energy-change (2. order) :-0.4126053E-04  (-0.8037264E-05)
 number of electron      64.0000078 magnetization 
 augmentation part       -8.3457542 magnetization 

 Free energy of the ion-electron system (eV)
  ---------------------------------------------------
  alpha Z        PSCENC =        78.71820500
  Ewald energy   TEWEN  =     -2082.43076519
  -Hartree energ DENC   =      -441.61899346
  -exchange      EXHF   =         0.00000000
  -V(xc)+E(xc)   XCENC  =         6.64674185
  PAW double counting   =      4664.20424104    -4523.71911950
  entropy T*S    EENTRO =        -0.00000000
  eigenvalues    EBANDS =      -240.19015634
  atomic energy  EATOM  =      2471.19760440
  Solvation  Ediel_sol  =         0.00000000
  ---------------------------------------------------
  free energy    TOTEN  =       -67.19224221 eV

  energy without entropy =      -67.19224221  energy(sigma->0) =      -67.19224221


--------------------------------------------------------------------------------------------------------




 average (electrostatic) potential at core
  the test charge radii are     0.9748  1.2767  0.9698
  (the norm of the test charge is              1.0000)
       1 -27.8399       2 -27.8399       3 -27.8399       4 -27.8399       5 -16.4095
       6 -16.4095       7 -16.4095       8 -16.4095       9 -89.5640      10 -89.5640
      11 -89.5640      12 -89.5640      13 -89.5644      14 -89.5644      15 -89.5644
      16 -89.5644
 
 
 
 E-fermi :   0.6123     XC(G=0):  -8.1220     alpha+bet : -7.9048


 k-point     1 :       0.0000    0.0000    0.0000
  band No.  band energies     occupation 
      1     -11.4030      2.00000
      2     -10.7848      2.00000
      3     -10.7669      2.00000
      4     -10.4525      2.00000
      5     -10.4512      2.00000
      6     -10.3208      2.00000
      7     -10.3177      2.00000
      8     -10.3091      2.00000
      9      -5.0067      2.00000
     10      -4.4633      2.00000
     11      -4.1920      2.00000
     12      -3.3354      2.00000
     13      -2.3651      2.00000
     14      -2.2253      2.00000
     15      -2.2077      2.00000
     16      -1.9976      2.00000
     17      -1.7851      2.00000
     18      -1.6548      2.00000
     19      -1.3618      2.00000
     20      -1.1422      2.00000
     21      -0.9028      2.00000
     22      -0.8374      2.00000
     23      -0.7267      2.00000
     24      -0.7011      2.00000
     25      -0.6683      2.00000
     26      -0.5191      2.00000
     27      -0.0746      2.00000
     28      -0.0711      2.00000
     29       0.0011      2.00000
     30       0.3402      2.00000
     31       0.3825      2.00000
     32       0.3949      2.00000
     33       2.4227      0.00000
     34       2.9200      0.00000
     35       3.4268      0.00000
     36       3.6005      0.00000
     37       5.1732      0.00000
     38       5.3878      0.00000
     39       5.4698      0.00000
     40       6.0385      0.00000
     41       6.3340      0.00000
     42       6.5599      0.00000

 k-point     2 :       0.3333    0.0000    0.0000
  band No.  band energies     occupation 
      1     -11.2419      2.00000
      2     -10.8994      2.00000
      3     -10.6707      2.00000
      4     -10.4761      2.00000
      5     -10.4336      2.00000
      6     -10.4196      2.00000
      7     -10.3803      2.00000
      8     -10.3527      2.00000
      9      -4.9781      2.00000
     10      -4.5926      2.00000
     11      -4.1815      2.00000
     12      -3.7250      2.00000
     13      -2.0681      2.00000
     14      -2.0525      2.00000
     15      -1.9859      2.00000
     16      -1.5653      2.00000
     17      -1.5223      2.00000
     18      -1.4872      2.00000
     19      -1.3230      2.00000
     20      -1.2618      2.00000
     21      -1.0780      2.00000
     22      -0.7820      2.00000
     23      -0.6910      2.00000
     24      -0.6460      2.00000
     25      -0.4959      2.00000
     26      -0.4198      2.00000
     27      -0.2436      2.00000
     28      -0.1496      2.00000
     29       0.0511      2.00000
     30       0.0977      2.00000
     31       0.2119      2.00000
     32       0.2669      2.00000
     33       2.8909      0.00000
     34       2.9693      0.00000
     35       2.9984      0.00000
     36       3.4410      0.00000
     37       5.1656      0.00000
     38       5.2910      0.00000
     39       5.5514      0.00000
     40       5.5751      0.00000
     41       5.8630      0.00000
     42       6.1404      0.00000

 k-point     3 :       0.0000    0.3333    0.0000
  band No.  band energies     occupation 
      1     -11.2622      2.00000
      2     -10.9453      2.00000
      3     -10.6883      2.00000
      4     -10.5548      2.00000
      5     -10.4173      2.00000
      6     -10.3341      2.00000
      7     -10.3276      2.00000
      8     -10.3270      2.00000
      9      -4.8331      2.00000
     10      -4.5578      2.00000
     11      -4.0173      2.00000
     12      -3.6605      2.00000
     13      -2.3332      2.00000
     14      -2.2895      2.00000
     15      -2.1792      2.00000
     16      -2.0056      2.00000
     17      -1.4688      2.00000
     18      -1.4587      2.00000
     19      -1.3132      2.00000
     20      -1.0259      2.00000
     21      -1.0031      2.00000
     22      -0.8665      2.00000
     23      -0.7324      2.00000
     24      -0.6807      2.00000
     25      -0.4894      2.00000
     26      -0.3404      2.00000
     27      -0.2464      2.00000
     28      -0.1610      2.00000
     29      -0.0344      2.00000
     30       0.0573      2.00000
     31       0.2522      2.00000
     32       0.2623      2.00000
     33       2.7743      0.00000
     34       3.1097      0.00000
     35       3.1654      0.00000
     36       3.3936      0.00000
     37       5.1170      0.00000
     38       5.1795      0.00000
     39       5.7633      0.00000
     40       5.8809      0.00000
     41       5.8841      0.00000
     42       6.0310      0.00000

 k-point     4 :       0.3333    0.3333    0.0000
  band No.  band energies     occupation 
      1     -11.1090      2.00000
      2     -10.8153      2.00000
      3     -10.7904      2.00000
      4     -10.5683      2.00000
      5     -10.4623      2.00000
      6     -10.4299      2.00000
      7     -10.3818      2.00000
      8     -10.3731      2.00000
      9      -4.7772      2.00000
     10      -4.3980      2.00000
     11      -4.3892      2.00000
     12      -4.0078      2.00000
     13      -2.0246      2.00000
     14      -1.9589      2.00000
     15      -1.8058      2.00000
     16      -1.5976      2.00000
     17      -1.5776      2.00000
     18      -1.2346      2.00000
     19      -1.0962      2.00000
     20      -0.9917      2.00000
     21      -0.9630      2.00000
     22      -0.9255      2.00000
     23      -0.6872      2.00000
     24      -0.6737      2.00000
     25      -0.4536      2.00000
     26      -0.4185      2.00000
     27      -0.2802      2.00000
     28      -0.2687      2.00000
     29      -0.1250      2.00000
     30      -0.0002      2.00000
     31       0.0050      2.00000
     32       0.1088      2.00000
     33       2.9371      0.00000
     34       2.9910      0.00000
     35       3.0943      0.00000
     36       3.2532      0.00000
     37       5.0703      0.00000
     38       5.0709      0.00000
     39       5.2815      0.00000
     40       5.3406      0.00000
     41       5.6597      0.00000
     42       5.7042      0.00000

 k-point     5 :       0.0000    0.0000    0.3333
  band No.  band energies     occupation 
      1     -11.3048      2.00000
      2     -11.0534      2.00000
      3     -10.5698      2.00000
      4     -10.4543      2.00000
      5     -10.3978      2.00000
      6     -10.3696      2.00000
      7     -10.3598      2.00000
      8     -10.3135      2.00000
      9      -4.8732      2.00000
     10      -4.6359      2.00000
     11      -3.8746      2.00000
     12      -3.4675      2.00000
     13      -2.4131      2.00000
     14      -2.3715      2.00000
     15      -1.9058      2.00000
     16      -1.8666      2.00000
     17      -1.8238      2.00000
     18      -1.4987      2.00000
     19      -1.4361      2.00000
     20      -1.3340      2.00000
     21      -1.0275      2.00000
     22      -0.8468      2.00000
     23      -0.7463      2.00000
     24      -0.7180      2.00000
     25      -0.5399      2.00000
     26      -0.5372      2.00000
     27      -0.3391      2.00000
     28      -0.1560      2.00000
     29      -0.0401      2.00000
     30      -0.0106      2.00000
     31       0.2805      2.00000
     32       0.2871      2.00000
     33       2.8737      0.00000
     34       3.1174      0.00000
     35       3.8211      0.00000
     36       3.9730      0.00000
     37       4.9293      0.00000
     38       5.2588      0.00000
     39       5.6527      0.00000
     40       5.7481      0.00000
     41       6.1086      0.00000
     42       6.4955      0.00000

 k-point     6 :       0.3333    0.0000    0.3333
  band No.  band energies     occupation 
      1     -11.1584      2.00000
      2     -10.9743      2.00000
      3     -10.6678      2.00000
      4     -10.5345      2.00000
      5     -10.4550      2.00000
      6     -10.3915      2.00000
      7     -10.3645      2.00000
      8     -10.3490      2.00000
      9      -4.8660      2.00000
     10      -4.6875      2.00000
     11      -3.9502      2.00000
     12      -3.7244      2.00000
     13      -2.1830      2.00000
     14      -2.0585      2.00000
     15      -1.7429      2.00000
     16      -1.7089      2.00000
     17      -1.6273      2.00000
     18      -1.5383      2.00000
     19      -1.1931      2.00000
     20      -1.1191      2.00000
     21      -1.0291      2.00000
     22      -0.9922      2.00000
     23      -0.7914      2.00000
     24      -0.6629      2.00000
     25      -0.5653      2.00000
     26      -0.5005      2.00000
     27      -0.3017      2.00000
     28      -0.2166      2.00000
     29      -0.0660      2.00000
     30       0.0248      2.00000
     31       0.0342      2.00000
     32       0.1292      2.00000
     33       3.1363      0.00000
     34       3.2032      0.00000
     35       3.4064      0.00000
     36       3.6501      0.00000
     37       5.3282      0.00000
     38       5.3825      0.00000
     39       5.5743      0.00000
     40       5.6857      0.00000
     41       5.9983      0.00000
     42       6.2699      0.00000

 k-point     7 :       0.0000    0.3333    0.3333
  band No.  band energies     occupation 
      1     -11.1803      2.00000
      2     -11.0064      2.00000
      3     -10.7023      2.00000
      4     -10.6002      2.00000
      5     -10.4062      2.00000
      6     -10.3461      2.00000
      7     -10.3193      2.00000
      8     -10.3162      2.00000
      9      -4.7248      2.00000
     10      -4.5916      2.00000
     11      -3.8342      2.00000
     12      -3.6477      2.00000
     13      -2.3448      2.00000
     14      -2.1740      2.00000
     15      -2.1466      2.00000
     16      -2.0288      2.00000
     17      -1.6912      2.00000
     18      -1.6249      2.00000
     19      -1.2239      2.00000
     20      -1.0796      2.00000
     21      -1.0550      2.00000
     22      -0.8965      2.00000
     23      -0.7826      2.00000
     24      -0.7442      2.00000
     25      -0.4921      2.00000
     26      -0.3836      2.00000
     27      -0.3708      2.00000
     28      -0.2325      2.00000
     29      -0.0406      2.00000
     30       0.0286      2.00000
     31       0.1639      2.00000
     32       0.1740      2.00000
     33       3.0182      0.00000
     34       3.1747      0.00000
     35       3.5975      0.00000
     36       3.6995      0.00000
     37       5.1606      0.00000
     38       5.2872      0.00000
     39       5.7161      0.00000
     40       5.8726      0.00000
     41       6.1033      0.00000
     42       6.2157      0.00000

 k-point     8 :       0.3333    0.3333    0.3333
  band No.  band energies     occupation 
      1     -11.0387      2.00000
      2     -10.8945      2.00000
      3     -10.7063      2.00000
      4     -10.6040      2.00000
      5     -10.4939      2.00000
      6     -10.4505      2.00000
      7     -10.3957      2.00000
      8     -10.3728      2.00000
      9      -4.6705      2.00000
     10      -4.5294      2.00000
     11      -4.1127      2.00000
     12      -3.9641      2.00000
     13      -2.0323      2.00000
     14      -1.8864      2.00000
     15      -1.7309      2.00000
     16      -1.6123      2.00000
     17      -1.5718      2.00000
     18      -1.3741      2.00000
     19      -1.2598      2.00000
     20      -1.1630      2.00000
     21      -1.0058      2.00000
     22      -0.9194      2.00000
     23      -0.8424      2.00000
     24      -0.7710      2.00000
     25      -0.5842      2.00000
     26      -0.4769      2.00000
     27      -0.3370      2.00000
     28      -0.2108      2.00000
     29      -0.1443      2.00000
     30      -0.0409      2.00000
     31       0.0094      2.00000
     32       0.0673      2.00000
     33       3.0873      0.00000
     34       3.1767      0.00000
     35       3.4006      0.00000
     36       3.5168      0.00000
     37       5.0478      0.00000
     38       5.2894      0.00000
     39       5.3905      0.00000
     40       5.5743      0.00000
     41       5.8628      0.00000
     42       5.8908      0.00000


--------------------------------------------------------------------------------------------------------


 soft charge-density along one line, spin component           1
         0         1         2         3         4         5         6         7         8         9
 total charge-density along one line
 
 pseudopotential strength for first ion, spin component:           1
  1.168   5.277  -0.000  -0.000   0.000
  5.277  22.748  -0.001  -0.001   0.000
 -0.000  -0.001  -0.393   0.000   0.000
 -0.000  -0.001   0.000  -0.393  -0.000
  0.000   0.000   0.000  -0.000  -0.393
 total augmentation occupancy for first ion, spin component:           1
  0.898  -0.020   0.003   0.002  -0.004
 -0.020   0.000  -0.000  -0.000   0.000
  0.003  -0.000   0.074   0.001   0.001
  0.002  -0.000   0.001   0.075  -0.000
 -0.004   0.000   0.001  -0.000   0.072


------------------------ aborting loop because EDIFF is reached ----------------------------------------


 


 total charge     
 
# of ion       s       p       d       tot
------------------------------------------
    1        0.090   0.160   0.000   0.249
    2        0.089   0.160   0.000   0.249
    3        0.089   0.159   0.000   0.249
    4        0.090   0.159   0.000   0.249
    5        1.003   0.879   0.136   2.019
    6        1.005   0.879   0.136   2.020
    7        1.005   0.878   0.136   2.019
    8        1.004   0.879   0.136   2.018
    9        1.334   2.366   0.000   3.700
   10        1.334   2.364   0.000   3.698
   11        1.334   2.362   0.000   3.696
   12        1.334   2.362   0.000   3.696
   13        1.334   2.365   0.000   3.699
   14        1.334   2.364   0.000   3.698
   15        1.334   2.366   0.000   3.699
   16        1.334   2.365   0.000   3.699
--------------------------------------------------
tot         15.044  23.068   0.544  38.656
 
    CHARGE:  cpu time    0.0119: real time    0.0119
    FORLOC:  cpu time    0.0005: real time    0.0005
    FORNL :  cpu time    0.0549: real time    0.0550
    STRESS:  cpu time    0.1564: real time    0.1564
    FORCOR:  cpu time    0.0037: real time    0.0037
    FORHAR:  cpu time    0.0011: real time    0.0011
    MIXING:  cpu time    0.0006: real time    0.0006
    OFIELD:  cpu time    0.0000: real time    0.0000

  FORCE on cell =-STRESS in cart. coord.  units (eV):
  Direction    XX          YY          ZZ          XY          YZ          ZX
  --------------------------------------------------------------------------------------
  Alpha Z    78.71820    78.71820    78.71820
  Ewald    -678.14892  -704.33622  -699.94888     0.00000     0.00000     0.00000
  Hartree   156.61636   143.51576   141.45715    -0.00000    -0.00000    -0.00000
  E(xc)    -217.74398  -217.94947  -217.95072    -0.00000     0.00000     0.00000
  Local    -550.50844  -512.89723  -511.29856    -0.00000     0.00000     0.00000
  n-local   609.56029   610.07334   609.79678    -0.11443    -0.14084    -0.06269
  augment  -126.96662  -127.13566  -126.70340    -0.00000     0.00000    -0.00000
  Kinetic   714.58966   715.30733   711.28044    -0.35433     0.04161     0.00490
  Fock        0.00000     0.00000     0.00000     0.00000     0.00000     0.00000
  -------------------------------------------------------------------------------------
  Total     -13.88344   -14.70394   -14.64898     0.00000     0.00000     0.00000
  in kB     -60.85487   -64.45134   -64.21044     0.00000     0.00000     0.00000
  external pressure =      -63.17 kB  Pullay stress =        0.00 kB


 VOLUME and BASIS-vectors are now :
 -----------------------------------------------------------------------------
  energy-cutoff  :      300.00
  volume of cell :      365.52
      direct lattice vectors                 reciprocal lattice vectors
     6.520431930  0.000000000  0.000000000     0.153364073  0.000000000  0.000000000
     0.000000000  6.930470680  0.000000000     0.000000000  0.144290344  0.000000000
     0.000000000  0.000000000  8.088598150     0.000000000  0.000000000  0.123630817

  length of vectors
     6.520431930  6.930470680  8.088598150     0.153364073  0.144290344  0.123630817


 FORCES acting on ions
    electron-ion (+dipol)            ewald-force                    non-local-force                 convergence-correction
 -----------------------------------------------------------------------------------------------
   -.875E-01 0.422E+00 0.340E+00   0.573E-01 -.356E+00 -.296E+00   0.411E-01 -.366E-01 -.215E-01   0.774E-04 0.458E-05 0.522E-04
   -.875E-01 -.422E+00 -.340E+00   0.573E-01 0.356E+00 0.296E+00   0.411E-01 0.366E-01 0.215E-01   0.774E-04 -.458E-05 -.522E-04
   -.875E-01 -.422E+00 0.340E+00   0.573E-01 0.356E+00 -.296E+00   0.411E-01 0.366E-01 -.215E-01   0.774E-04 -.458E-05 0.522E-04
   -.875E-01 0.422E+00 -.340E+00   0.573E-01 -.356E+00 0.296E+00   0.411E-01 -.366E-01 0.215E-01   0.774E-04 0.458E-05 -.522E-04
   0.927E+00 0.410E+00 -.619E+00   -.912E+00 -.396E+00 0.540E+00   -.836E-03 -.651E-02 0.344E-01   -.146E-03 -.370E-05 -.423E-04
   0.927E+00 -.410E+00 0.619E+00   -.912E+00 0.396E+00 -.540E+00   -.836E-03 0.651E-02 -.344E-01   -.146E-03 0.370E-05 0.423E-04
   0.927E+00 -.410E+00 -.619E+00   -.912E+00 0.396E+00 0.540E+00   -.836E-03 0.651E-02 0.344E-01   -.146E-03 0.370E-05 -.423E-04
   0.927E+00 0.410E+00 0.619E+00   -.912E+00 -.396E+00 -.540E+00   -.836E-03 -.651E-02 -.344E-01   -.146E-03 -.370E-05 0.423E-04
   -.859E+01 0.720E+01 -.123E+02   0.112E+02 -.906E+01 0.155E+02   -.340E+01 0.241E+01 -.413E+01   0.182E-02 -.103E-02 0.221E-02
   -.859E+01 -.720E+01 0.123E+02   0.112E+02 0.906E+01 -.155E+02   -.340E+01 -.241E+01 0.413E+01   0.182E-02 0.103E-02 -.221E-02
   -.859E+01 -.720E+01 -.123E+02   0.112E+02 0.906E+01 0.155E+02   -.340E+01 -.241E+01 -.413E+01   0.182E-02 0.103E-02 0.221E-02
   -.859E+01 0.720E+01 0.123E+02   0.112E+02 -.906E+01 -.155E+02   -.340E+01 0.241E+01 0.413E+01   0.182E-02 -.103E-02 -.221E-02
   0.779E+01 0.633E+01 -.125E+02   -.104E+02 -.818E+01 0.158E+02   0.334E+01 0.238E+01 -.424E+01   -.140E-02 -.700E-03 0.279E-02
   0.779E+01 -.633E+01 0.125E+02   -.104E+02 0.818E+01 -.158E+02   0.334E+01 -.238E+01 0.424E+01   -.140E-02 0.700E-03 -.279E-02
   0.779E+01 -.633E+01 -.125E+02   -.104E+02 0.818E+01 0.158E+02   0.334E+01 -.238E+01 -.424E+01   -.140E-02 0.700E-03 0.279E-02
   0.779E+01 0.633E+01 0.125E+02   -.104E+02 -.818E+01 -.158E+02   0.334E+01 0.238E+01 0.424E+01   -.140E-02 -.700E-03 -.279E-02
 -----------------------------------------------------------------------------------------------
   0.138E+00 0.248E-11 0.327E-03   -.355E-14 0.178E-14 -.178E-14   -.669E-01 -.444E-15 -.888E-15   0.143E-02 0.872E-14 -.120E-12
 
 
 POSITION                                       TOTAL-FORCE (eV/Angst)
 -----------------------------------------------------------------------------------
      3.69597      4.05656      0.98986         0.006397      0.029594      0.023123
      0.43575      2.87391      7.09874         0.006397     -0.029594     -0.023123
      0.43575      6.33914      5.03416         0.006397     -0.029594      0.023123
      3.69597      0.59133      3.05444         0.006397      0.029594     -0.023123
      0.41865      6.36703      1.01596         0.009500      0.007689     -0.044560
      3.67887      0.56344      7.07263         0.009500     -0.007689      0.044560
      3.67887      4.02868      5.06026         0.009500     -0.007689     -0.044560
      0.41865      2.90179      3.02833         0.009500      0.007689      0.044560
      1.25230      0.57534      3.04633        -0.763366      0.546375     -0.906614
      4.51251      6.35513      5.04227        -0.763366     -0.546375      0.906614
      4.51251      2.88990      7.09063        -0.763366     -0.546375     -0.906614
      1.25230      4.04058      0.99797        -0.763366      0.546375      0.906614
      4.46068      6.37249      1.03791         0.747469      0.534779     -0.961806
      1.20046      0.55798      7.05069         0.747469     -0.534779      0.961806
      1.20046      4.02321      5.08220         0.747469     -0.534779     -0.961806
      4.46068      2.90726      3.00639         0.747469      0.534779      0.961806
 -----------------------------------------------------------------------------------
    total drift:                                0.072036      0.000000      0.000327


--------------------------------------------------------------------------------------------------------



  FREE ENERGIE OF THE ION-ELECTRON SYSTEM (eV)
  ---------------------------------------------------
  free  energy   TOTEN  =       -67.19224221 eV

  energy  without entropy=      -67.19224221  energy(sigma->0) =      -67.19224221
 


--------------------------------------------------------------------------------------------------------


    POTLOK:  cpu time    0.1533: real time    0.1533


--------------------------------------------------------------------------------------------------------




--------------------------------------------------------------------------------------------------------


    WAVPRE:  cpu time    0.0067: real time    0.0809
    FEWALD:  cpu time    0.0009: real time    0.0015
    GENKIN:  cpu time    0.0104: real time    0.0106
    ORTHCH:  cpu time    0.0282: real time    0.0287
     LOOP+:  cpu time    4.9763: real time    5.1124


--------------------------------------- Iteration      2(   1)  ---------------------------------------


    POTLOK:  cpu time    0.0107: real time    0.0363
    SETDIJ:  cpu time    0.1413: real time    0.1422
     EDDAV:  cpu time    0.2474: real time    0.2515
       DOS:  cpu time    0.0002: real time    0.0002
    CHARGE:  cpu time    0.0109: real time    0.0110
    MIXING:  cpu time    0.0002: real time    0.0002
    --------------------------------------------
      LOOP:  cpu time    0.4107: real time    0.4414

 eigenvalue-minimisations  :   672
 total energy-change (2. order) :-0.6107421E+00  (-0.4331613E+00)
 number of electron      64.0000553 magnetization 
 augmentation part       -8.2790924 magnetization 

 Broyden mixing:
  rms(total) = 0.29875E+00    rms(broyden)= 0.29862E+00
  rms(prec ) = 0.37456E+00
  weight for this iteration     100.00

 Free energy of the ion-electron system (eV)
  ---------------------------------------------------
  alpha Z        PSCENC =        80.80682659
  Ewald energy   TEWEN  =     -2098.50879377
  -Hartree energ DENC   =      -447.25269768
  -exchange      EXHF   =         0.00000000
  -V(xc)+E(xc)   XCENC  =         7.74910288
  PAW double counting   =      4662.57330285    -4522.08583507
  entropy T*S    EENTRO =        -0.00000000
  eigenvalues    EBANDS =      -222.28245321
  atomic energy  EATOM  =      2471.19760440
  Solvation  Ediel_sol  =         0.00000000
  ---------------------------------------------------
  free energy    TOTEN  =       -67.80294301 eV

  energy without entropy =      -67.80294301  energy(sigma->0) =      -67.80294301


--------------------------------------------------------------------------------------------------------




--------------------------------------- Iteration      2(   2)  ---------------------------------------


    POTLOK:  cpu time    0.0039: real time    0.0040
    SETDIJ:  cpu time    0.1472: real time    0.1485
     EDDAV:  cpu time    0.2424: real time    0.2452
       DOS:  cpu time    0.0002: real time    0.0002
    CHARGE:  cpu time    0.0106: real time    0.0107
    MIXING:  cpu time    0.0003: real time    0.0003
    --------------------------------------------
      LOOP:  cpu time    0.4045: real time    0.4088

 eigenvalue-minimisations  :   784
 total energy-change (2. order) : 0.1200053E+00  (-0.3884325E-01)
 number of electron      64.0000557 magnetization 
 augmentation part       -8.3011869 magnetization 

 Broyden mixing:
  rms(total) = 0.94946E-01    rms(broyden)= 0.94944E-01
  rms(prec ) = 0.12456E+00
  weight for this iteration     100.00

 eigenvalues of (default mixing * dielectric matrix)
  average eigenvalue GAMMA=   1.1014
  1.1014

 Free energy of the ion-electron system (eV)
  ---------------------------------------------------
  alpha Z        PSCENC =        80.80682659
  Ewald energy   TEWEN  =     -2098.50879377
  -Hartree energ DENC   =      -439.60240921
  -exchange      EXHF   =         0.00000000
  -V(xc)+E(xc)   XCENC  =         7.30862633
  PAW double counting   =      4853.81985151    -4713.27391208
  entropy T*S    EENTRO =        -0.00000000
  eigenvalues    EBANDS =      -229.43073149
  atomic energy  EATOM  =      2471.19760440
  Solvation  Ediel_sol  =         0.00000000
  ---------------------------------------------------
  free energy    TOTEN  =       -67.68293772 eV

  energy without entropy =      -67.68293772  energy(sigma->0) =      -67.68293772


--------------------------------------------------------------------------------------------------------




--------------------------------------- Iteration      2(   3)  ---------------------------------------


    POTLOK:  cpu time    0.0038: real time    0.0039
    SETDIJ:  cpu time    0.1438: real time    0.1446
     EDDAV:  cpu time    0.2431: real time    0.2460
       DOS:  cpu time    0.0002: real time    0.0002
    CHARGE:  cpu time    0.0102: real time    0.0102
    MIXING:  cpu time    0.0004: real time    0.0004
    --------------------------------------------
      LOOP:  cpu time    0.4014: real time    0.4053

 eigenvalue-minimisations  :   840
 total energy-change (2. order) : 0.1548385E-01  (-0.6801114E-02)
 number of electron      64.0000560 magnetization 
 augmentation part       -8.3226701 magnetization 

 Broyden mixing:
  rms(total) = 0.43491E-01    rms(broyden)= 0.43485E-01
  rms(prec ) = 0.50871E-01
  weight for this iteration     100.00

 eigenvalues of (default mixing * dielectric matrix)
  average eigenvalue GAMMA=   1.1292
[...]
     12      -3.1042      2.00000
     13      -2.1695      2.00000
     14      -2.0685      2.00000
     15      -1.9436      2.00000
     16      -1.7717      2.00000
     17      -1.1590      2.00000
     18      -1.1063      2.00000
     19      -0.8581      2.00000
     20      -0.5683      2.00000
     21      -0.5382      2.00000
     22      -0.3066      2.00000
     23      -0.3033      2.00000
     24      -0.1457      2.00000
     25       0.1264      2.00000
     26       0.1963      2.00000
     27       0.3565      2.00000
     28       0.4573      2.00000
     29       0.5911      2.00000
     30       0.6594      2.00000
     31       0.7994      2.00000
     32       0.8950      2.00000
     33       4.3779      0.00000
     34       4.6899      0.00000
     35       4.8157      0.00000
     36       4.9778      0.00000
     37       5.9804      0.00000
     38       6.2025      0.00000
     39       6.6594      0.00000
     40       6.7842      0.00000
     41       6.9190      0.00000
     42       7.0693      0.00000

 k-point     4 :       0.3333    0.3333    0.0000
  band No.  band energies     occupation 
      1     -11.0271      2.00000
      2     -10.6471      2.00000
      3     -10.6216      2.00000
      4     -10.2770      2.00000
      5     -10.0382      2.00000
      6      -9.9946      2.00000
      7      -9.9547      2.00000
      8      -9.9363      2.00000
      9      -4.6297      2.00000
     10      -4.0715      2.00000
     11      -4.0712      2.00000
     12      -3.5608      2.00000
     13      -1.7324      2.00000
     14      -1.7127      2.00000
     15      -1.5618      2.00000
     16      -1.3357      2.00000
     17      -1.2683      2.00000
     18      -0.8826      2.00000
     19      -0.6757      2.00000
     20      -0.5624      2.00000
     21      -0.5093      2.00000
     22      -0.4308      2.00000
     23      -0.1549      2.00000
     24      -0.1526      2.00000
     25       0.0942      2.00000
     26       0.1103      2.00000
     27       0.2963      2.00000
     28       0.3242      2.00000
     29       0.4630      2.00000
     30       0.6010      2.00000
     31       0.6333      2.00000
     32       0.6860      2.00000
     33       4.4038      0.00000
     34       4.5675      0.00000
     35       4.6326      0.00000
     36       4.8150      0.00000
     37       6.0411      0.00000
     38       6.0770      0.00000
     39       6.2498      0.00000
     40       6.4123      0.00000
     41       6.6615      0.00000
     42       6.9039      0.00000

 k-point     5 :       0.0000    0.0000    0.3333
  band No.  band energies     occupation 
      1     -11.2811      2.00000
      2     -10.9847      2.00000
      3     -10.2668      2.00000
      4     -10.0176      2.00000
      5      -9.9953      2.00000
      6      -9.9380      2.00000
      7      -9.9231      2.00000
      8      -9.8646      2.00000
      9      -4.8856      2.00000
     10      -4.5100      2.00000
     11      -3.4280      2.00000
     12      -2.9060      2.00000
     13      -2.2292      2.00000
     14      -2.1279      2.00000
     15      -1.6379      2.00000
     16      -1.6174      2.00000
     17      -1.5680      2.00000
     18      -1.1725      2.00000
     19      -1.0515      2.00000
     20      -0.9819      2.00000
     21      -0.5117      2.00000
     22      -0.3434      2.00000
     23      -0.1735      2.00000
     24      -0.0519      2.00000
     25       0.0570      2.00000
     26       0.1153      2.00000
     27       0.3069      2.00000
     28       0.4247      2.00000
     29       0.5141      2.00000
     30       0.5659      2.00000
     31       0.8939      2.00000
     32       0.9381      2.00000
     33       4.4950      0.00000
     34       4.7687      0.00000
     35       5.4874      0.00000
     36       5.5854      0.00000
     37       5.9200      0.00000
     38       6.0524      0.00000
     39       6.6667      0.00000
     40       6.6691      0.00000
     41       7.0426      0.00000
     42       7.5568      0.00000

 k-point     6 :       0.3333    0.0000    0.3333
  band No.  band energies     occupation 
      1     -11.1078      2.00000
      2     -10.8989      2.00000
      3     -10.3935      2.00000
      4     -10.2117      2.00000
      5     -10.0202      2.00000
      6      -9.9566      2.00000
      7      -9.9196      2.00000
      8      -9.8962      2.00000
      9      -4.7966      2.00000
     10      -4.5362      2.00000
     11      -3.4626      2.00000
     12      -3.1690      2.00000
     13      -1.9794      2.00000
     14      -1.8581      2.00000
     15      -1.5115      2.00000
     16      -1.4738      2.00000
     17      -1.2804      2.00000
     18      -1.2018      2.00000
     19      -0.8331      2.00000
     20      -0.6799      2.00000
     21      -0.6493      2.00000
     22      -0.5534      2.00000
     23      -0.2352      2.00000
     24      -0.1026      2.00000
     25      -0.0193      2.00000
     26       0.1216      2.00000
     27       0.3482      2.00000
     28       0.4019      2.00000
     29       0.5080      2.00000
     30       0.6624      2.00000
     31       0.6746      2.00000
     32       0.7680      2.00000
     33       4.6564      0.00000
     34       4.8468      0.00000
     35       4.9784      0.00000
     36       5.2677      0.00000
     37       6.3499      0.00000
     38       6.4296      0.00000
     39       6.6489      0.00000
     40       6.7311      0.00000
     41       6.9931      0.00000
     42       7.2336      0.00000

 k-point     7 :       0.0000    0.3333    0.3333
  band No.  band energies     occupation 
      1     -11.1293      2.00000
      2     -10.9325      2.00000
      3     -10.4053      2.00000
      4     -10.2586      2.00000
      5      -9.9823      2.00000
      6      -9.9253      2.00000
      7      -9.8787      2.00000
      8      -9.8648      2.00000
      9      -4.6660      2.00000
     10      -4.4586      2.00000
     11      -3.3235      2.00000
     12      -3.0882      2.00000
     13      -2.2011      2.00000
     14      -1.9899      2.00000
     15      -1.9024      2.00000
     16      -1.7819      2.00000
     17      -1.3779      2.00000
     18      -1.2247      2.00000
     19      -0.8665      2.00000
     20      -0.6488      2.00000
     21      -0.5685      2.00000
     22      -0.3375      2.00000
     23      -0.2417      2.00000
     24      -0.2036      2.00000
     25      -0.0054      2.00000
     26       0.1905      2.00000
     27       0.3311      2.00000
     28       0.4276      2.00000
     29       0.5089      2.00000
     30       0.6524      2.00000
     31       0.7844      2.00000
     32       0.8199      2.00000
     33       4.6025      0.00000
     34       4.8179      0.00000
     35       5.1788      0.00000
     36       5.3453      0.00000
     37       6.1859      0.00000
     38       6.3188      0.00000
     39       6.5717      0.00000
     40       6.7841      0.00000
     41       7.0305      0.00000
     42       7.2123      0.00000

 k-point     8 :       0.3333    0.3333    0.3333
  band No.  band energies     occupation 
      1     -10.9535      2.00000
      2     -10.7891      2.00000
      3     -10.4804      2.00000
      4     -10.3336      2.00000
      5     -10.0646      2.00000
      6     -10.0229      2.00000
      7      -9.9477      2.00000
      8      -9.9329      2.00000
      9      -4.5057      2.00000
     10      -4.3039      2.00000
     11      -3.6948      2.00000
     12      -3.4981      2.00000
     13      -1.8085      2.00000
     14      -1.6565      2.00000
     15      -1.5078      2.00000
     16      -1.3561      2.00000
     17      -1.2167      2.00000
     18      -1.0332      2.00000
     19      -0.8579      2.00000
     20      -0.6845      2.00000
     21      -0.6156      2.00000
     22      -0.4387      2.00000
     23      -0.3007      2.00000
     24      -0.2591      2.00000
     25      -0.0630      2.00000
     26       0.0441      2.00000
     27       0.2883      2.00000
     28       0.3804      2.00000
     29       0.5207      2.00000
     30       0.5962      2.00000
     31       0.6470      2.00000
     32       0.7236      2.00000
     33       4.5484      0.00000
     34       4.7362      0.00000
     35       4.9695      0.00000
     36       5.1342      0.00000
     37       6.0890      0.00000
     38       6.2723      0.00000
     39       6.3543      0.00000
     40       6.6683      0.00000
     41       6.9343      0.00000
     42       7.0071      0.00000


--------------------------------------------------------------------------------------------------------


 soft charge-density along one line, spin component           1
         0         1         2         3         4         5         6         7         8         9
 total charge-density along one line
 
 pseudopotential strength for first ion, spin component:           1
  1.170   5.272  -0.000  -0.000   0.000
  5.272  22.678  -0.002  -0.000   0.001
 -0.000  -0.002  -0.380   0.000   0.001
 -0.000  -0.000   0.000  -0.379   0.000
  0.000   0.001   0.001   0.000  -0.380
 total augmentation occupancy for first ion, spin component:           1
  0.892  -0.019   0.013   0.009  -0.003
 -0.019   0.000  -0.000  -0.000   0.000
  0.013  -0.000   0.072  -0.001   0.002
  0.009  -0.000  -0.001   0.076   0.001
 -0.003   0.000   0.002   0.001   0.072


------------------------ aborting loop because EDIFF is reached ----------------------------------------


 


 total charge     
 
# of ion       s       p       d       tot
------------------------------------------
    1        0.089   0.160   0.000   0.248
    2        0.088   0.159   0.000   0.248
    3        0.088   0.159   0.000   0.248
    4        0.089   0.159   0.000   0.248
    5        1.013   1.149   0.218   2.381
    6        1.014   1.149   0.218   2.382
    7        1.015   1.148   0.218   2.381
    8        1.014   1.149   0.219   2.381
    9        1.325   2.433   0.000   3.758
   10        1.325   2.431   0.000   3.757
   11        1.325   2.430   0.000   3.755
   12        1.325   2.430   0.000   3.755
   13        1.324   2.437   0.000   3.761
   14        1.324   2.436   0.000   3.761
   15        1.324   2.438   0.000   3.762
   16        1.324   2.437   0.000   3.761
--------------------------------------------------
tot         15.009  24.705   0.873  40.587
 
    CHARGE:  cpu time    0.0106: real time    0.0107
    FORLOC:  cpu time    0.0005: real time    0.0005
    FORNL :  cpu time    0.0609: real time    0.0613
    STRESS:  cpu time    0.1814: real time    0.1825
    FORCOR:  cpu time    0.0036: real time    0.0036
    FORHAR:  cpu time    0.0010: real time    0.0010
    MIXING:  cpu time    0.0006: real time    0.0006
    OFIELD:  cpu time    0.0000: real time    0.0000

  FORCE on cell =-STRESS in cart. coord.  units (eV):
  Direction    XX          YY          ZZ          XY          YZ          ZX
  --------------------------------------------------------------------------------------
  Alpha Z    86.89320    86.89320    86.89320
  Ewald    -692.85877  -715.59856  -713.64938    -0.00000     0.00000     0.00000
  Hartree   155.74903   147.70421   136.06509    -0.00000    -0.00000    -0.00000
  E(xc)    -222.43205  -222.59545  -222.75680    -0.00000     0.00000     0.00000
  Local    -551.15621  -522.47644  -507.04017    -0.00000     0.00000     0.00000
  n-local   620.87844   621.13650   622.28145    -0.10586    -0.13050    -0.05244
  augment  -126.15680  -126.35216  -125.80718     0.00000    -0.00000    -0.00000
  Kinetic   729.11685   731.32009   723.87401    -0.39787     0.13803     0.07651
  Fock        0.00000     0.00000     0.00000     0.00000     0.00000     0.00000
  -------------------------------------------------------------------------------------
  Total       0.03369     0.03140    -0.13978     0.00000     0.00000     0.00000
  in kB       0.16300     0.15192    -0.67631     0.00000     0.00000     0.00000
  external pressure =       -0.12 kB  Pullay stress =        0.00 kB


 VOLUME and BASIS-vectors are now :
 -----------------------------------------------------------------------------
  energy-cutoff  :      300.00
  volume of cell :      331.13
      direct lattice vectors                 reciprocal lattice vectors
     6.310608930  0.000000000  0.000000000     0.158463313  0.000000000  0.000000000
     0.000000000  6.609096221  0.000000000     0.000000000  0.151306618  0.000000000
     0.000000000  0.000000000  7.939412949     0.000000000  0.000000000  0.125953897

  length of vectors
     6.310608930  6.609096221  7.939412949     0.158463313  0.151306618  0.125953897


 FORCES acting on ions
    electron-ion (+dipol)            ewald-force                    non-local-force                 convergence-correction
 -----------------------------------------------------------------------------------------------
   0.124E+00 0.146E+01 0.667E+00   -.159E+00 -.129E+01 -.581E+00   0.341E-01 -.153E+00 -.101E+00   -.330E-04 0.417E-04 -.226E-04
   0.124E+00 -.146E+01 -.667E+00   -.159E+00 0.129E+01 0.581E+00   0.341E-01 0.153E+00 0.101E+00   -.330E-04 -.417E-04 0.226E-04
   0.124E+00 -.146E+01 0.667E+00   -.159E+00 0.129E+01 -.581E+00   0.341E-01 0.153E+00 -.101E+00   -.330E-04 -.417E-04 -.226E-04
   0.124E+00 0.146E+01 -.667E+00   -.159E+00 -.129E+01 0.581E+00   0.341E-01 -.153E+00 0.101E+00   -.330E-04 0.417E-04 0.226E-04
   0.658E+00 0.256E+00 -.830E+00   -.611E+00 -.302E+00 0.755E+00   -.582E-01 0.334E-01 0.654E-01   -.160E-03 -.167E-03 0.483E-03
   0.658E+00 -.256E+00 0.830E+00   -.611E+00 0.302E+00 -.755E+00   -.582E-01 -.334E-01 -.654E-01   -.160E-03 0.167E-03 -.483E-03
   0.658E+00 -.256E+00 -.830E+00   -.611E+00 0.302E+00 0.755E+00   -.582E-01 -.334E-01 0.654E-01   -.160E-03 0.167E-03 0.483E-03
   0.658E+00 0.256E+00 0.830E+00   -.611E+00 -.302E+00 -.755E+00   -.582E-01 0.334E-01 -.654E-01   -.160E-03 -.167E-03 -.483E-03
   -.151E+02 0.128E+02 -.217E+02   0.175E+02 -.146E+02 0.249E+02   -.237E+01 0.173E+01 -.312E+01   -.537E-03 -.237E-02 -.290E-02
   -.151E+02 -.128E+02 0.217E+02   0.175E+02 0.146E+02 -.249E+02   -.237E+01 -.173E+01 0.312E+01   -.537E-03 0.237E-02 0.290E-02
   -.151E+02 -.128E+02 -.217E+02   0.175E+02 0.146E+02 0.249E+02   -.237E+01 -.173E+01 -.312E+01   -.537E-03 0.237E-02 -.290E-02
   -.151E+02 0.128E+02 0.217E+02   0.175E+02 -.146E+02 -.249E+02   -.237E+01 0.173E+01 0.312E+01   -.537E-03 -.237E-02 0.290E-02
   0.143E+02 0.956E+01 -.218E+02   -.167E+02 -.112E+02 0.250E+02   0.238E+01 0.166E+01 -.323E+01   0.147E-04 -.396E-04 -.124E-02
   0.143E+02 -.956E+01 0.218E+02   -.167E+02 0.112E+02 -.250E+02   0.238E+01 -.166E+01 0.323E+01   0.147E-04 0.396E-04 0.124E-02
   0.143E+02 -.956E+01 -.218E+02   -.167E+02 0.112E+02 0.250E+02   0.238E+01 -.166E+01 -.323E+01   0.147E-04 0.396E-04 -.124E-02
   0.143E+02 0.956E+01 0.218E+02   -.167E+02 -.112E+02 -.250E+02   0.238E+01 0.166E+01 0.323E+01   0.147E-04 -.396E-04 0.124E-02
 -----------------------------------------------------------------------------------------------
   0.327E-01 0.371E-11 -.287E-03   -.355E-14 -.142E-13 -.355E-14   -.387E-01 0.000E+00 -.444E-15   -.286E-02 -.157E-13 0.193E-12
 
 
 POSITION                                       TOTAL-FORCE (eV/Angst)
 -----------------------------------------------------------------------------------
      3.57677      3.86411      0.97985        -0.000860      0.014616     -0.014883
      0.42147      2.74499      6.95956        -0.000860     -0.014616      0.014883
      0.42147      6.04954      4.94956        -0.000860     -0.014616     -0.014883
      3.57677      0.55956      2.98986        -0.000860      0.014616      0.014883
      0.40808      6.12755      0.99773        -0.010596     -0.012261     -0.009622
      3.56338      0.48155      6.94168        -0.010596      0.012261      0.009622
      3.56338      3.78610      4.96744        -0.010596      0.012261     -0.009622
      0.40808      2.82300      2.97197        -0.010596     -0.012261      0.009622
      1.13004      0.61972      2.90011         0.028746      0.006295      0.010056
      4.28534      5.98937      5.03930         0.028746     -0.006295     -0.010056
      4.28534      2.68482      6.86982         0.028746     -0.006295      0.010056
      1.13004      3.92427      1.06960         0.028746      0.006295     -0.010056
      4.39646      6.15346      0.93766        -0.017289     -0.004370     -0.015664
      1.24116      0.45564      7.00176        -0.017289      0.004370      0.015664
      1.24116      3.76018      4.90736        -0.017289      0.004370     -0.015664
      4.39646      2.84891      3.03205        -0.017289     -0.004370      0.015664
 -----------------------------------------------------------------------------------
    total drift:                               -0.008840      0.000000     -0.000287


--------------------------------------------------------------------------------------------------------



  FREE ENERGIE OF THE ION-ELECTRON SYSTEM (eV)
  ---------------------------------------------------
  free  energy   TOTEN  =       -68.76153337 eV

  energy  without entropy=      -68.76153337  energy(sigma->0) =      -68.76153337
 
 d Force = 0.1551288E-03[-0.332E-03, 0.642E-03]  d Energy = 0.9000366E-03-0.745E-03
 d Force =-0.2029344E+00[-0.207E+00,-0.198E+00]  d Ewald  =-0.4043338E+00 0.201E+00


--------------------------------------------------------------------------------------------------------


    POTLOK:  cpu time    0.1454: real time    0.1528


--------------------------------------------------------------------------------------------------------




--------------------------------------------------------------------------------------------------------


  
 reached required accuracy - stopping structural energy minimisation
     LOOP+:  cpu time    2.4961: real time    2.6875
    4ORBIT:  cpu time    0.0000: real time    0.0000
 


 total charge     
 
# of ion       s       p       d       tot
------------------------------------------
    1        0.089   0.160   0.000   0.248
    2        0.088   0.159   0.000   0.248
    3        0.088   0.159   0.000   0.248
    4        0.089   0.159   0.000   0.248
    5        1.013   1.149   0.218   2.381
    6        1.014   1.149   0.218   2.382
    7        1.015   1.148   0.218   2.381
    8        1.014   1.149   0.219   2.381
    9        1.325   2.433   0.000   3.758
   10        1.325   2.431   0.000   3.757
   11        1.325   2.430   0.000   3.755
   12        1.325   2.430   0.000   3.755
   13        1.324   2.437   0.000   3.761
   14        1.324   2.436   0.000   3.761
   15        1.324   2.438   0.000   3.762
   16        1.324   2.437   0.000   3.761
--------------------------------------------------
tot         15.009  24.705   0.873  40.587
 

 total amount of memory used by VASP MPI-rank0    35135. kBytes
=======================================================================

   base      :      30000. kBytes
   nonlr-proj:       1302. kBytes
   fftplans  :        357. kBytes
   grid      :       1622. kBytes
   one-center:        129. kBytes
   wavefun   :       1725. kBytes
 
  
  
 General timing and accounting informations for this job:
 ========================================================
  
                  Total CPU time used (sec):       48.930
                            User time (sec):       47.439
                          System time (sec):        1.491
                         Elapsed time (sec):       53.134
  
                   Maximum memory used (kb):       68872.
                   Average memory used (kb):           0.
  
                          Minor page faults:        30450
                          Major page faults:            0
                 Voluntary context switches:         1097
