PROCAR new format
# of k-points:    8         # of bands:   42         # of ions:   16

 k-point     1 :    0.00000000 0.00000000 0.00000000     weight = 0.03703704

band     1 # energy  -11.39239573 # occ.  2.00000000
 
ion      s      p      d    tot
    1  0.001  0.000  0.000  0.001
    2  0.001  0.000  0.000  0.001
    3  0.001  0.000  0.000  0.001
    4  0.001  0.000  0.000  0.001
    5  0.041  0.000  0.000  0.041
    6  0.041  0.000  0.000  0.041
    7  0.041  0.000  0.000  0.041
    8  0.041  0.000  0.000  0.041
    9  0.063  0.001  0.000  0.063
   10  0.063  0.001  0.000  0.063
   11  0.063  0.001  0.000  0.063
   12  0.063  0.001  0.000  0.063
   13  0.068  0.001  0.000  0.068
   14  0.068  0.001  0.000  0.068
   15  0.068  0.001  0.000  0.068
   16  0.068  0.001  0.000  0.068
tot    0.694  0.004  0.000  0.698
 
band     2 # energy  -10.62598181 # occ.  2.00000000
 
ion      s      p      d    tot
    1  0.000  0.001  0.000  0.001
    2  0.000  0.001  0.000  0.001
    3  0.000  0.001  0.000  0.001
    4  0.000  0.001  0.000  0.001
    5  0.029  0.005  0.001  0.036
    6  0.029  0.005  0.001  0.036
    7  0.029  0.005  0.001  0.036
    8  0.029  0.005  0.001  0.036
    9  0.001  0.001  0.000  0.001
   10  0.001  0.001  0.000  0.001
   11  0.001  0.001  0.000  0.001
   12  0.001  0.001  0.000  0.001
   13  0.143  0.001  0.000  0.144
   14  0.143  0.001  0.000  0.144
   15  0.143  0.001  0.000  0.144
   16  0.143  0.001  0.000  0.144
tot    0.693  0.030  0.005  0.728
 
band     3 # energy  -10.59329390 # occ.  2.00000000
 
ion      s      p      d    tot
    1  0.000  0.001  0.000  0.001
    2  0.000  0.001  0.000  0.001
    3  0.000  0.001  0.000  0.001
    4  0.000  0.001  0.000  0.001
    5  0.028  0.005  0.001  0.035
    6  0.028  0.005  0.001  0.035
    7  0.028  0.005  0.001  0.035
    8  0.028  0.005  0.001  0.035
    9  0.144  0.001  0.000  0.145
   10  0.144  0.001  0.000  0.145
   11  0.144  0.001  0.000  0.145
   12  0.144  0.001  0.000  0.145
   13  0.001  0.001  0.000  0.001
   14  0.001  0.001  0.000  0.001
   15  0.001  0.001  0.000  0.001
   16  0.001  0.001  0.000  0.001
tot    0.693  0.030  0.005  0.728
 
band     4 # energy  -10.03455855 # occ.  2.00000000
 
ion      s      p      d    tot
    1  0.001  0.001  0.000  0.002
    2  0.001  0.001  0.000  0.002
    3  0.001  0.001  0.000  0.002
    4  0.001  0.001  0.000  0.002
    5  0.000  0.013  0.003  0.016
    6  0.000  0.013  0.003  0.016
    7  0.000  0.013  0.003  0.016
    8  0.000  0.013  0.003  0.016
    9  0.001  0.000  0.000  0.001
   10  0.001  0.000  0.000  0.001
   11  0.001  0.000  0.000  0.001
   12  0.001  0.000  0.000  0.001
   13  0.162  0.000  0.000  0.162
   14  0.162  0.000  0.000  0.162
   15  0.162  0.000  0.000  0.162
   16  0.162  0.000  0.000  0.162
tot    0.657  0.056  0.012  0.725
 
band     5 # energy   -9.98808946 # occ.  2.00000000
 
ion      s      p      d    tot
    1  0.001  0.000  0.000  0.001
    2  0.001  0.000  0.000  0.001
    3  0.001  0.000  0.000  0.001
    4  0.001  0.000  0.000  0.001
    5  0.000  0.013  0.003  0.016
    6  0.000  0.013  0.003  0.016
    7  0.000  0.013  0.003  0.016
    8  0.000  0.013  0.003  0.016
    9  0.163  0.000  0.000  0.163
   10  0.163  0.000  0.000  0.163
   11  0.163  0.000  0.000  0.163
   12  0.163  0.000  0.000  0.163
   13  0.001  0.000  0.000  0.001
   14  0.001  0.000  0.000  0.001
   15  0.001  0.000  0.000  0.001
   16  0.001  0.000  0.000  0.001
tot    0.659  0.055  0.012  0.726
 
band     6 # energy   -9.89236110 # occ.  2.00000000
 
ion      s      p      d    tot
    1  0.000  0.001  0.000  0.001
    2  0.000  0.001  0.000  0.001
    3  0.000  0.001  0.000  0.001
    4  0.000  0.001  0.000  0.001
    5  0.000  0.014  0.003  0.017
    6  0.000  0.014  0.003  0.017
    7  0.000  0.014  0.003  0.017
    8  0.000  0.014  0.003  0.017
    9  0.102  0.000  0.000  0.102
   10  0.102  0.000  0.000  0.102
   11  0.102  0.000  0.000  0.102
   12  0.102  0.000  0.000  0.102
   13  0.064  0.000  0.000  0.064
   14  0.064  0.000  0.000  0.064
   15  0.064  0.000  0.000  0.064
   16  0.064  0.000  0.000  0.064
tot    0.665  0.061  0.012  0.738
 
band     7 # energy   -9.87631048 # occ.  2.00000000
 
ion      s      p      d    tot
    1  0.000  0.001  0.000  0.001
    2  0.000  0.001  0.000  0.001
    3  0.000  0.001  0.000  0.001
    4  0.000  0.001  0.000  0.001
    5  0.000  0.013  0.003  0.017
    6  0.000  0.013  0.003  0.017
    7  0.000  0.013  0.003  0.017
    8  0.000  0.013  0.003  0.017
    9  0.086  0.000  0.000  0.086
   10  0.086  0.000  0.000  0.086
   11  0.086  0.000  0.000  0.086
   12  0.086  0.000  0.000  0.086
   13  0.080  0.000  0.000  0.081
   14  0.080  0.000  0.000  0.081
   15  0.080  0.000  0.000  0.081
   16  0.080  0.000  0.000  0.081
tot    0.667  0.059  0.013  0.739
 
band     8 # energy   -9.85194320 # occ.  2.00000000
 
ion      s      p      d    tot
    1  0.000  0.001  0.000  0.001
    2  0.000  0.001  0.000  0.001
    3  0.000  0.001  0.000  0.001
    4  0.000  0.001  0.000  0.001
    5  0.000  0.014  0.003  0.017
    6  0.000  0.014  0.003  0.017
    7  0.000  0.014  0.003  0.017
    8  0.000  0.014  0.003  0.017
    9  0.064  0.000  0.000  0.064
   10  0.064  0.000  0.000  0.064
   11  0.064  0.000  0.000  0.064
   12  0.064  0.000  0.000  0.064
   13  0.103  0.000  0.000  0.103
   14  0.103  0.000  0.000  0.103
   15  0.103  0.000  0.000  0.103
   16  0.103  0.000  0.000  0.103
tot    0.666  0.060  0.013  0.739
 
band     9 # energy   -5.06630807 # occ.  2.00000000
 
ion      s      p      d    tot
    1  0.000  0.000  0.000  0.000
    2  0.000  0.000  0.000  0.000
    3  0.000  0.000  0.000  0.000
    4  0.000  0.000  0.000  0.000
    5  0.136  0.000  0.000  0.136
    6  0.136  0.000  0.000  0.136
    7  0.136  0.000  0.000  0.136
    8  0.136  0.000  0.000  0.136
    9  0.000  0.028  0.000  0.028
   10  0.000  0.028  0.000  0.028
   11  0.000  0.028  0.000  0.028
   12  0.000  0.028  0.000  0.028
   13  0.000  0.025  0.000  0.025
   14  0.000  0.025  0.000  0.025
   15  0.000  0.025  0.000  0.025
   16  0.000  0.025  0.000  0.025
tot    0.543  0.213  0.000  0.756
 
band    10 # energy   -4.19670604 # occ.  2.00000000
 
ion      s      p      d    tot
    1  0.000  0.002  0.000  0.002
    2  0.000  0.002  0.000  0.002
    3  0.000  0.002  0.000  0.002
    4  0.000  0.002  0.000  0.002
    5  0.085  0.012  0.001  0.098
    6  0.085  0.012  0.001  0.098
    7  0.085  0.012  0.001  0.098
    8  0.085  0.012  0.001  0.098
    9  0.014  0.013  0.000  0.027
   10  0.014  0.013  0.000  0.027
   11  0.014  0.013  0.000  0.027
   12  0.014  0.013  0.000  0.027
   13  0.001  0.044  0.000  0.045
   14  0.001  0.044  0.000  0.045
   15  0.001  0.044  0.000  0.045
   16  0.001  0.044  0.000  0.045
tot    0.400  0.282  0.004  0.685
 
band    11 # energy   -3.83040925 # occ.  2.00000000
 
ion      s      p      d    tot
    1  0.000  0.001  0.000  0.001
    2  0.000  0.001  0.000  0.001
    3  0.000  0.001  0.000  0.001
    4  0.000  0.001  0.000  0.001
    5  0.095  0.011  0.001  0.107
    6  0.095  0.011  0.001  0.107
    7  0.095  0.011  0.001  0.107
    8  0.095  0.011  0.001  0.107
    9  0.000  0.048  0.000  0.048
   10  0.000  0.048  0.000  0.048
   11  0.000  0.048  0.000  0.048
   12  0.000  0.048  0.000  0.048
   13  0.019  0.010  0.000  0.029
   14  0.019  0.010  0.000  0.029
   15  0.019  0.010  0.000  0.029
   16  0.019  0.010  0.000  0.029
tot    0.454  0.277  0.006  0.737
 
band    12 # energy   -2.55753204 # occ.  2.00000000
 
ion      s      p      d    tot
    1  0.006  0.000  0.000  0.006
    2  0.006  0.000  0.000  0.006
    3  0.006  0.000  0.000  0.006
    4  0.006  0.000  0.000  0.006
    5  0.075  0.002  0.000  0.077
    6  0.075  0.002  0.000  0.077
    7  0.075  0.002  0.000  0.077
    8  0.075  0.002  0.000  0.077
    9  0.009  0.032  0.000  0.040
   10  0.009  0.032  0.000  0.040
   11  0.009  0.032  0.000  0.040
   12  0.009  0.032  0.000  0.040
   13  0.010  0.033  0.000  0.043
   14  0.010  0.033  0.000  0.043
   15  0.010  0.033  0.000  0.043
   16  0.010  0.033  0.000  0.043
tot    0.401  0.264  0.001  0.665
 
band    13 # energy   -2.24635574 # occ.  2.00000000
 
ion      s      p      d    tot
    1  0.001  0.002  0.000  0.003
    2  0.001  0.002  0.000  0.003
    3  0.001  0.002  0.000  0.003
    4  0.001  0.002  0.000  0.003
    5  0.001  0.051  0.001  0.053
    6  0.001  0.051  0.001  0.053
    7  0.001  0.051  0.001  0.053
    8  0.001  0.051  0.001  0.053
    9  0.001  0.029  0.000  0.030
   10  0.001  0.029  0.000  0.030
   11  0.001  0.029  0.000  0.030
   12  0.001  0.029  0.000  0.030
   13  0.000  0.056  0.000  0.056
   14  0.000  0.056  0.000  0.056
   15  0.000  0.056  0.000  0.056
   16  0.000  0.056  0.000  0.056
tot    0.011  0.553  0.004  0.567
 
band    14 # energy   -2.02823853 # occ.  2.00000000
 
ion      s      p      d    tot
    1  0.001  0.002  0.000  0.004
    2  0.001  0.002  0.000  0.004
    3  0.001  0.002  0.000  0.004
    4  0.001  0.002  0.000  0.004
    5  0.001  0.044  0.001  0.046
    6  0.001  0.044  0.001  0.046
    7  0.001  0.044  0.001  0.046
    8  0.001  0.044  0.001  0.046
    9  0.002  0.056  0.000  0.058
   10  0.002  0.056  0.000  0.058
   11  0.002  0.056  0.000  0.058
   12  0.002  0.056  0.000  0.058
   13  0.000  0.030  0.000  0.030
   14  0.000  0.030  0.000  0.030
   15  0.000  0.030  0.000  0.030
   16  0.000  0.030  0.000  0.030
tot    0.016  0.527  0.006  0.549
 
band    15 # energy   -2.01253164 # occ.  2.00000000
 
ion      s      p      d    tot
    1  0.001  0.002  0.000  0.003
    2  0.001  0.002  0.000  0.003
    3  0.001  0.002  0.000  0.003
    4  0.001  0.002  0.000  0.003
    5  0.000  0.046  0.001  0.048
    6  0.000  0.046  0.001  0.048
    7  0.000  0.046  0.001  0.048
    8  0.000  0.046  0.001  0.048
    9  0.000  0.036  0.000  0.036
   10  0.000  0.036  0.000  0.036
   11  0.000  0.036  0.000  0.036
   12  0.000  0.036  0.000  0.036
   13  0.002  0.050  0.000  0.052
   14  0.002  0.050  0.000  0.052
   15  0.002  0.050  0.000  0.052
   16  0.002  0.050  0.000  0.052
tot    0.012  0.539  0.005  0.557
 
band    16 # energy   -1.92523379 # occ.  2.00000000
 
ion      s      p      d    tot
    1  0.000  0.002  0.000  0.002
    2  0.000  0.002  0.000  0.002
    3  0.000  0.002  0.000  0.002
    4  0.000  0.002  0.000  0.002
    5  0.000  0.055  0.002  0.058
    6  0.000  0.055  0.002  0.058
    7  0.000  0.055  0.002  0.058
    8  0.000  0.055  0.002  0.058
    9  0.000  0.023  0.000  0.023
   10  0.000  0.023  0.000  0.023
   11  0.000  0.023  0.000  0.023
   12  0.000  0.023  0.000  0.023
   13  0.000  0.069  0.000  0.069
   14  0.000  0.069  0.000  0.069
   15  0.000  0.069  0.000  0.069
   16  0.000  0.069  0.000  0.069
tot    0.004  0.593  0.009  0.606
 
band    17 # energy   -1.41794310 # occ.  2.00000000
 
ion      s      p      d    tot
    1  0.001  0.005  0.000  0.006
    2  0.001  0.005  0.000  0.006
    3  0.001  0.005  0.000  0.006
    4  0.001  0.005  0.000  0.006
    5  0.000  0.027  0.002  0.029
    6  0.000  0.027  0.002  0.029
    7  0.000  0.027  0.002  0.029
    8  0.000  0.027  0.002  0.029
    9  0.002  0.046  0.000  0.048
   10  0.002  0.046  0.000  0.048
   11  0.002  0.046  0.000  0.048
   12  0.002  0.046  0.000  0.048
   13  0.001  0.046  0.000  0.046
   14  0.001  0.046  0.000  0.046
   15  0.001  0.046  0.000  0.046
   16  0.001  0.046  0.000  0.046
tot    0.019  0.493  0.006  0.519
 
band    18 # energy   -1.28805906 # occ.  2.00000000
 
ion      s      p      d    tot
    1  0.005  0.000  0.000  0.006
    2  0.005  0.000  0.000  0.006
    3  0.005  0.000  0.000  0.006
    4  0.005  0.000  0.000  0.006
    5  0.010  0.030  0.003  0.043
    6  0.010  0.030  0.003  0.043
    7  0.010  0.030  0.003  0.043
    8  0.010  0.030  0.003  0.043
    9  0.004  0.037  0.000  0.042
   10  0.004  0.037  0.000  0.042
   11  0.004  0.037  0.000  0.042
   12  0.004  0.037  0.000  0.042
   13  0.000  0.054  0.000  0.054
   14  0.000  0.054  0.000  0.054
   15  0.000  0.054  0.000  0.054
   16  0.000  0.054  0.000  0.054
tot    0.080  0.485  0.010  0.576
 
band    19 # energy   -1.08141840 # occ.  2.00000000
 
ion      s      p      d    tot
    1  0.000  0.002  0.000  0.002
    2  0.000  0.002  0.000  0.002
    3  0.000  0.002  0.000  0.002
    4  0.000  0.002  0.000  0.002
    5  0.002  0.046  0.005  0.053
    6  0.002  0.046  0.005  0.053
    7  0.002  0.046  0.005  0.053
    8  0.002  0.046  0.005  0.053
    9  0.000  0.092  0.000  0.092
   10  0.000  0.092  0.000  0.092
   11  0.000  0.092  0.000  0.092
   12  0.000  0.092  0.000  0.092
   13  0.001  0.012  0.000  0.013
   14  0.001  0.012  0.000  0.013
   15  0.001  0.012  0.000  0.013
   16  0.001  0.012  0.000  0.013
tot    0.010  0.607  0.020  0.637
 
band    20 # energy   -0.66638165 # occ.  2.00000000
 
ion      s      p      d    tot
    1  0.002  0.001  0.000  0.003
    2  0.002  0.001  0.000  0.003
    3  0.002  0.001  0.000  0.003
    4  0.002  0.001  0.000  0.003
    5  0.004  0.035  0.007  0.045
    6  0.004  0.035  0.007  0.045
    7  0.004  0.035  0.007  0.045
    8  0.004  0.035  0.007  0.045
    9  0.000  0.029  0.000  0.029
   10  0.000  0.029  0.000  0.029
   11  0.000  0.029  0.000  0.029
   12  0.000  0.029  0.000  0.029
   13  0.001  0.078  0.000  0.079
   14  0.001  0.078  0.000  0.079
   15  0.001  0.078  0.000  0.079
   16  0.001  0.078  0.000  0.079
tot    0.029  0.570  0.027  0.626
 
band    21 # energy   -0.34170419 # occ.  2.00000000
 
ion      s      p      d    tot
    1  0.002  0.005  0.000  0.007
    2  0.002  0.005  0.000  0.007
    3  0.002  0.005  0.000  0.007
    4  0.002  0.005  0.000  0.007
    5  0.000  0.017  0.004  0.021
    6  0.000  0.017  0.004  0.021
    7  0.000  0.017  0.004  0.021
    8  0.000  0.017  0.004  0.021
    9  0.000  0.064  0.000  0.064
   10  0.000  0.064  0.000  0.064
   11  0.000  0.064  0.000  0.064
   12  0.000  0.064  0.000  0.064
   13  0.001  0.045  0.000  0.046
   14  0.001  0.045  0.000  0.046
   15  0.001  0.045  0.000  0.046
   16  0.001  0.045  0.000  0.046
tot    0.011  0.523  0.017  0.551
 
band    22 # energy   -0.29305608 # occ.  2.00000000
 
ion      s      p      d    tot
    1  0.005  0.005  0.000  0.010
    2  0.005  0.005  0.000  0.010
    3  0.005  0.005  0.000  0.010
    4  0.005  0.005  0.000  0.010
    5  0.000  0.005  0.004  0.010
    6  0.000  0.005  0.004  0.010
    7  0.000  0.005  0.004  0.010
    8  0.000  0.005  0.004  0.010
    9  0.001  0.013  0.000  0.014
   10  0.001  0.013  0.000  0.014
   11  0.001  0.013  0.000  0.014
   12  0.001  0.013  0.000  0.014
   13  0.000  0.095  0.000  0.095
   14  0.000  0.095  0.000  0.095
   15  0.000  0.095  0.000  0.095
   16  0.000  0.095  0.000  0.095
tot    0.021  0.477  0.018  0.516
 
band    23 # energy   -0.11923167 # occ.  2.00000000
 
ion      s      p      d    tot
    1  0.001  0.004  0.000  0.005
    2  0.001  0.004  0.000  0.005
    3  0.001  0.004  0.000  0.005
    4  0.001  0.004  0.000  0.005
    5  0.000  0.025  0.005  0.030
    6  0.000  0.025  0.005  0.030
    7  0.000  0.025  0.005  0.030
    8  0.000  0.025  0.005  0.030
    9  0.000  0.082  0.000  0.083
   10  0.000  0.082  0.000  0.083
   11  0.000  0.082  0.000  0.083
   12  0.000  0.082  0.000  0.083
   13  0.000  0.033  0.000  0.033
   14  0.000  0.033  0.000  0.033
   15  0.000  0.033  0.000  0.033
   16  0.000  0.033  0.000  0.033
tot    0.006  0.577  0.019  0.602
 
band    24 # energy   -0.10702918 # occ.  2.00000000
 
ion      s      p      d    tot
    1  0.008  0.002  0.000  0.010
    2  0.008  0.002  0.000  0.010
    3  0.008  0.002  0.000  0.010
    4  0.008  0.002  0.000  0.010
    5  0.000  0.005  0.004  0.010
    6  0.000  0.005  0.004  0.010
    7  0.000  0.005  0.004  0.010
    8  0.000  0.005  0.004  0.010
    9  0.000  0.057  0.000  0.057
   10  0.000  0.057  0.000  0.057
   11  0.000  0.057  0.000  0.057
   12  0.000  0.057  0.000  0.057
   13  0.000  0.056  0.000  0.056
   14  0.000  0.056  0.000  0.056
   15  0.000  0.056  0.000  0.056
   16  0.000  0.056  0.000  0.056
tot    0.036  0.481  0.018  0.534
 
band    25 # energy   -0.10503626 # occ.  2.00000000
 
ion      s      p      d    tot
    1  0.000  0.008  0.000  0.008
    2  0.000  0.008  0.000  0.008
    3  0.000  0.008  0.000  0.008
    4  0.000  0.008  0.000  0.008
    5  0.000  0.018  0.004  0.022
    6  0.000  0.018  0.004  0.022
    7  0.000  0.018  0.004  0.022
    8  0.000  0.018  0.004  0.022
    9  0.000  0.074  0.000  0.074
   10  0.000  0.074  0.000  0.074
   11  0.000  0.074  0.000  0.074
   12  0.000  0.074  0.000  0.074
   13  0.000  0.041  0.000  0.041
   14  0.000  0.041  0.000  0.041
   15  0.000  0.041  0.000  0.041
   16  0.000  0.041  0.000  0.041
tot    0.003  0.562  0.016  0.581
 
band    26 # energy   -0.07323403 # occ.  2.00000000
 
ion      s      p      d    tot
    1  0.001  0.004  0.000  0.005
    2  0.001  0.004  0.000  0.005
    3  0.001  0.004  0.000  0.005
    4  0.001  0.004  0.000  0.005
    5  0.000  0.026  0.004  0.030
    6  0.000  0.026  0.004  0.030
    7  0.000  0.026  0.004  0.030
    8  0.000  0.026  0.004  0.030
    9  0.001  0.082  0.000  0.083
   10  0.001  0.082  0.000  0.083
   11  0.001  0.082  0.000  0.083
   12  0.001  0.082  0.000  0.083
   13  0.000  0.032  0.000  0.032
   14  0.000  0.032  0.000  0.032
   15  0.000  0.032  0.000  0.032
   16  0.000  0.032  0.000  0.032
tot    0.012  0.572  0.015  0.599
 
band    27 # energy    0.47603291 # occ.  2.00000000
 
ion      s      p      d    tot
    1  0.000  0.007  0.000  0.007
    2  0.000  0.007  0.000  0.007
    3  0.000  0.007  0.000  0.007
    4  0.000  0.007  0.000  0.007
    5  0.002  0.004  0.005  0.011
    6  0.002  0.004  0.005  0.011
    7  0.002  0.004  0.005  0.011
    8  0.002  0.004  0.005  0.011
    9  0.000  0.068  0.000  0.068
   10  0.000  0.068  0.000  0.068
   11  0.000  0.068  0.000  0.068
   12  0.000  0.068  0.000  0.068
   13  0.000  0.058  0.000  0.058
   14  0.000  0.058  0.000  0.058
   15  0.000  0.058  0.000  0.058
   16  0.000  0.058  0.000  0.058
tot    0.011  0.547  0.021  0.579
 
band    28 # energy    0.53621000 # occ.  2.00000000
 
ion      s      p      d    tot
    1  0.001  0.007  0.000  0.008
    2  0.001  0.007  0.000  0.008
    3  0.001  0.007  0.000  0.008
    4  0.001  0.007  0.000  0.008
    5  0.001  0.004  0.003  0.008
    6  0.001  0.004  0.003  0.008
    7  0.001  0.004  0.003  0.008
    8  0.001  0.004  0.003  0.008
    9  0.000  0.082  0.000  0.082
   10  0.000  0.082  0.000  0.082
   11  0.000  0.082  0.000  0.082
   12  0.000  0.082  0.000  0.082
   13  0.000  0.043  0.000  0.043
   14  0.000  0.043  0.000  0.043
   15  0.000  0.043  0.000  0.043
   16  0.000  0.043  0.000  0.043
tot    0.008  0.545  0.012  0.566
 
band    29 # energy    0.62869496 # occ.  2.00000000
 
ion      s      p      d    tot
    1  0.000  0.006  0.000  0.006
    2  0.000  0.006  0.000  0.006
    3  0.000  0.006  0.000  0.006
    4  0.000  0.006  0.000  0.006
    5  0.000  0.005  0.004  0.010
    6  0.000  0.005  0.004  0.010
    7  0.000  0.005  0.004  0.010
    8  0.000  0.005  0.004  0.010
    9  0.000  0.015  0.000  0.015
   10  0.000  0.015  0.000  0.015
   11  0.000  0.015  0.000  0.015
   12  0.000  0.015  0.000  0.015
   13  0.000  0.113  0.000  0.113
   14  0.000  0.113  0.000  0.113
   15  0.000  0.113  0.000  0.113
   16  0.000  0.113  0.000  0.113
tot    0.002  0.556  0.017  0.575
 
band    30 # energy    0.90176360 # occ.  2.00000000
 
ion      s      p      d    tot
    1  0.000  0.003  0.000  0.003
    2  0.000  0.003  0.000  0.003
    3  0.000  0.003  0.000  0.003
    4  0.000  0.003  0.000  0.003
    5  0.000  0.005  0.011  0.016
    6  0.000  0.005  0.011  0.016
    7  0.000  0.005  0.011  0.016
    8  0.000  0.005  0.011  0.016
    9  0.000  0.075  0.000  0.075
   10  0.000  0.075  0.000  0.075
   11  0.000  0.075  0.000  0.075
   12  0.000  0.075  0.000  0.075
   13  0.000  0.064  0.000  0.064
   14  0.000  0.064  0.000  0.064
   15  0.000  0.064  0.000  0.064
   16  0.000  0.064  0.000  0.064
tot    0.000  0.589  0.043  0.633
 
band    31 # energy    1.01992235 # occ.  2.00000000
 
ion      s      p      d    tot
    1  0.000  0.003  0.000  0.003
    2  0.000  0.003  0.000  0.003
    3  0.000  0.003  0.000  0.003
    4  0.000  0.003  0.000  0.003
    5  0.000  0.005  0.011  0.016
    6  0.000  0.005  0.011  0.016
    7  0.000  0.005  0.011  0.016
    8  0.000  0.005  0.011  0.016
    9  0.000  0.081  0.000  0.081
   10  0.000  0.081  0.000  0.081
   11  0.000  0.081  0.000  0.081
   12  0.000  0.081  0.000  0.081
   13  0.000  0.059  0.000  0.059
   14  0.000  0.059  0.000  0.059
   15  0.000  0.059  0.000  0.059
   16  0.000  0.059  0.000  0.059
tot    0.000  0.591  0.043  0.633
 
band    32 # energy    1.08460091 # occ.  2.00000000
 
ion      s      p      d    tot
    1  0.000  0.002  0.000  0.002
    2  0.000  0.002  0.000  0.002
    3  0.000  0.002  0.000  0.002
    4  0.000  0.002  0.000  0.002
    5  0.000  0.004  0.011  0.015
    6  0.000  0.004  0.011  0.015
    7  0.000  0.004  0.011  0.015
    8  0.000  0.004  0.011  0.015
    9  0.000  0.061  0.000  0.061
   10  0.000  0.061  0.000  0.061
   11  0.000  0.061  0.000  0.061
   12  0.000  0.061  0.000  0.061
   13  0.000  0.080  0.000  0.080
   14  0.000  0.080  0.000  0.080
   15  0.000  0.080  0.000  0.080
   16  0.000  0.080  0.000  0.080
tot    0.000  0.590  0.044  0.635
 
band    33 # energy    4.01490938 # occ.  0.00000000
 
ion      s      p      d    tot
    1  0.007  0.000  0.000  0.007
    2  0.007  0.000  0.000  0.007
    3  0.007  0.000  0.000  0.007
    4  0.007  0.000  0.000  0.007
    5  0.055  0.000  0.000  0.056
    6  0.055  0.000  0.000  0.056
    7  0.055  0.000  0.000  0.056
    8  0.055  0.000  0.000  0.056
    9  0.024  0.021  0.000  0.045
   10  0.024  0.021  0.000  0.045
   11  0.024  0.021  0.000  0.045
   12  0.024  0.021  0.000  0.045
   13  0.022  0.019  0.000  0.041
   14  0.022  0.019  0.000  0.041
   15  0.022  0.019  0.000  0.041
   16  0.022  0.019  0.000  0.041
tot    0.432  0.165  0.001  0.599
 
band    34 # energy    4.58296191 # occ.  0.00000000
 
ion      s      p      d    tot
    1  0.004  0.003  0.000  0.006
    2  0.004  0.003  0.000  0.006
    3  0.004  0.003  0.000  0.006
    4  0.004  0.003  0.000  0.006
    5  0.063  0.005  0.002  0.071
    6  0.063  0.005  0.002  0.071
    7  0.063  0.005  0.002  0.071
    8  0.063  0.005  0.002  0.071
    9  0.014  0.020  0.000  0.035
   10  0.014  0.020  0.000  0.035
   11  0.014  0.020  0.000  0.035
   12  0.014  0.020  0.000  0.035
   13  0.003  0.030  0.000  0.034
   14  0.003  0.030  0.000  0.034
   15  0.003  0.030  0.000  0.034
   16  0.003  0.030  0.000  0.034
tot    0.337  0.234  0.009  0.581
 
band    35 # energy    5.07874243 # occ.  0.00000000
 
ion      s      p      d    tot
    1  0.004  0.003  0.000  0.007
    2  0.004  0.003  0.000  0.007
    3  0.004  0.003  0.000  0.007
    4  0.004  0.003  0.000  0.007
    5  0.038  0.016  0.005  0.058
    6  0.038  0.016  0.005  0.058
    7  0.038  0.016  0.005  0.058
    8  0.038  0.016  0.005  0.058
    9  0.001  0.017  0.000  0.018
   10  0.001  0.017  0.000  0.018
   11  0.001  0.017  0.000  0.018
   12  0.001  0.017  0.000  0.018
   13  0.002  0.023  0.000  0.025
   14  0.002  0.023  0.000  0.025
   15  0.002  0.023  0.000  0.025
   16  0.002  0.023  0.000  0.025
tot    0.179  0.234  0.018  0.431
 
band    36 # energy    5.09294045 # occ.  0.00000000
 
ion      s      p      d    tot
    1  0.001  0.001  0.000  0.003
    2  0.001  0.001  0.000  0.003
    3  0.001  0.001  0.000  0.003
    4  0.001  0.001  0.000  0.003
    5  0.065  0.009  0.002  0.075
    6  0.065  0.009  0.002  0.075
    7  0.065  0.009  0.002  0.075
    8  0.065  0.009  0.002  0.075
    9  0.002  0.038  0.000  0.040
   10  0.002  0.038  0.000  0.040
   11  0.002  0.038  0.000  0.040
   12  0.002  0.038  0.000  0.040
   13  0.013  0.025  0.000  0.038
   14  0.013  0.025  0.000  0.038
   15  0.013  0.025  0.000  0.038
   16  0.013  0.025  0.000  0.038
tot    0.324  0.292  0.008  0.624
 
band    37 # energy    6.03617928 # occ.  0.00000000
 
ion      s      p      d    tot
    1  0.000  0.005  0.000  0.005
    2  0.000  0.005  0.000  0.005
    3  0.000  0.005  0.000  0.005
    4  0.000  0.005  0.000  0.005
    5  0.006  0.051  0.011  0.067
    6  0.006  0.051  0.011  0.067
    7  0.006  0.051  0.011  0.067
    8  0.006  0.051  0.011  0.067
    9  0.000  0.014  0.000  0.014
   10  0.000  0.014  0.000  0.014
   11  0.000  0.014  0.000  0.014
   12  0.000  0.014  0.000  0.014
   13  0.000  0.002  0.000  0.002
   14  0.000  0.002  0.000  0.002
   15  0.000  0.002  0.000  0.002
   16  0.000  0.002  0.000  0.002
tot    0.025  0.285  0.043  0.353
 
band    38 # energy    6.17588106 # occ.  0.00000000
 
ion      s      p      d    tot
    1  0.000  0.006  0.000  0.006
    2  0.000  0.006  0.000  0.006
    3  0.000  0.006  0.000  0.006
    4  0.000  0.006  0.000  0.006
    5  0.000  0.042  0.012  0.055
    6  0.000  0.042  0.012  0.055
    7  0.000  0.042  0.012  0.055
    8  0.000  0.042  0.012  0.055
    9  0.000  0.013  0.000  0.013
   10  0.000  0.013  0.000  0.013
   11  0.000  0.013  0.000  0.013
   12  0.000  0.013  0.000  0.013
   13  0.000  0.002  0.000  0.002
   14  0.000  0.002  0.000  0.002
   15  0.000  0.002  0.000  0.002
   16  0.000  0.002  0.000  0.002
tot    0.003  0.253  0.049  0.305
 
band    39 # energy    6.31263944 # occ.  0.00000000
 
ion      s      p      d    tot
    1  0.000  0.005  0.000  0.005
    2  0.000  0.005  0.000  0.005
    3  0.000  0.005  0.000  0.005
    4  0.000  0.005  0.000  0.005
    5  0.001  0.034  0.015  0.049
    6  0.001  0.034  0.015  0.049
    7  0.001  0.034  0.015  0.049
    8  0.001  0.034  0.015  0.049
    9  0.005  0.015  0.000  0.019
   10  0.005  0.015  0.000  0.019
   11  0.005  0.015  0.000  0.019
   12  0.005  0.015  0.000  0.019
   13  0.000  0.014  0.000  0.014
   14  0.000  0.014  0.000  0.014
   15  0.000  0.014  0.000  0.014
   16  0.000  0.014  0.000  0.014
tot    0.024  0.270  0.059  0.353
 
band    40 # energy    7.00047797 # occ.  0.00000000
 
ion      s      p      d    tot
    1  0.000  0.004  0.000  0.004
    2  0.000  0.004  0.000  0.004
    3  0.000  0.004  0.000  0.004
    4  0.000  0.004  0.000  0.004
    5  0.000  0.096  0.006  0.103
    6  0.000  0.096  0.006  0.103
    7  0.000  0.096  0.006  0.103
    8  0.000  0.096  0.006  0.103
    9  0.004  0.009  0.000  0.013
   10  0.004  0.009  0.000  0.013
   11  0.004  0.009  0.000  0.013
   12  0.004  0.009  0.000  0.013
   13  0.005  0.002  0.000  0.007
   14  0.005  0.002  0.000  0.007
   15  0.005  0.002  0.000  0.007
   16  0.005  0.002  0.000  0.007
tot    0.039  0.444  0.025  0.508
 
band    41 # energy    7.51716003 # occ.  0.00000000
 
ion      s      p      d    tot
    1  0.001  0.020  0.000  0.020
    2  0.001  0.020  0.000  0.020
    3  0.001  0.020  0.000  0.020
    4  0.001  0.020  0.000  0.020
    5  0.004  0.064  0.004  0.072
    6  0.004  0.064  0.004  0.072
    7  0.004  0.064  0.004  0.072
    8  0.004  0.064  0.004  0.072
    9  0.003  0.003  0.000  0.006
   10  0.003  0.003  0.000  0.006
   11  0.003  0.003  0.000  0.006
   12  0.003  0.003  0.000  0.006
   13  0.000  0.005  0.000  0.006
   14  0.000  0.005  0.000  0.006
   15  0.000  0.005  0.000  0.006
   16  0.000  0.005  0.000  0.006
tot    0.035  0.366  0.017  0.417
 
band    42 # energy    7.52838053 # occ.  0.00000000
 
ion      s      p      d    tot
    1  0.002  0.008  0.000  0.010
    2  0.002  0.008  0.000  0.010
    3  0.002  0.008  0.000  0.010
    4  0.002  0.008  0.000  0.010
    5  0.002  0.093  0.004  0.099
    6  0.002  0.093  0.004  0.099
    7  0.002  0.093  0.004  0.099
    8  0.002  0.093  0.004  0.099
    9  0.001  0.006  0.000  0.007
   10  0.001  0.006  0.000  0.007
   11  0.001  0.006  0.000  0.007
   12  0.001  0.006  0.000  0.007
   13  0.004  0.004  0.000  0.008
   14  0.004  0.004  0.000  0.008
   15  0.004  0.004  0.000  0.008
   16  0.004  0.004  0.000  0.008
tot    0.038  0.442  0.015  0.495
 

 k-point     2 :    0.33333333 0.00000000 0.00000000     weight = 0.07407407

band     1 # energy  -11.19843382 # occ.  2.00000000
 
ion      s      p      d    tot
    1  0.001  0.000  0.000  0.001
    2  0.001  0.000  0.000  0.001
    3  0.001  0.000  0.000  0.001
    4  0.001  0.000  0.000  0.001
    5  0.039  0.001  0.000  0.040
    6  0.039  0.001  0.000  0.040
    7  0.039  0.001  0.000  0.040
    8  0.039  0.001  0.000  0.040
    9  0.071  0.001  0.000  0.072
   10  0.071  0.001  0.000  0.072
   11  0.071  0.001  0.000  0.072
   12  0.071  0.001  0.000  0.072
   13  0.062  0.001  0.000  0.063
   14  0.062  0.001  0.000  0.063
   15  0.062  0.001  0.000  0.063
   16  0.062  0.001  0.000  0.063
tot    0.693  0.011  0.001  0.705
 
band     2 # energy  -10.77867166 # occ.  2.00000000
 
ion      s      p      d    tot
    1  0.000  0.001  0.000  0.001
    2  0.000  0.001  0.000  0.001
    3  0.000  0.001  0.000  0.001
    4  0.000  0.001  0.000  0.001
    5  0.033  0.004  0.001  0.037
    6  0.033  0.004  0.001  0.037
    7  0.033  0.004  0.001  0.037
    8  0.033  0.004  0.001  0.037
    9  0.108  0.001  0.000  0.109
   10  0.108  0.001  0.000  0.109
   11  0.108  0.001  0.000  0.109
   12  0.108  0.001  0.000  0.109
   13  0.033  0.001  0.000  0.033
   14  0.033  0.001  0.000  0.033
   15  0.033  0.001  0.000  0.033
   16  0.033  0.001  0.000  0.033
tot    0.695  0.024  0.003  0.722
 
band     3 # energy  -10.45570428 # occ.  2.00000000
 
ion      s      p      d    tot
    1  0.000  0.001  0.000  0.001
    2  0.000  0.001  0.000  0.001
    3  0.000  0.001  0.000  0.001
    4  0.000  0.001  0.000  0.001
    5  0.023  0.007  0.002  0.032
    6  0.023  0.007  0.002  0.032
    7  0.023  0.007  0.002  0.032
    8  0.023  0.007  0.002  0.032
    9  0.001  0.000  0.000  0.001