<?xml version="1.0" encoding="ISO-8859-1"?>
<modeling>
 <generator>
  <i name="program" type="string">vasp </i>
  <i name="version" type="string">5.4.4.18Apr17-6-g9f103f2a35  </i>
  <i name="subversion" type="string">(build Oct 27 2022 13:04:57) complex            parallel </i>
  <i name="platform" type="string">LinuxIFC </i>
  <i name="date" type="string">2024 07 04 </i>
  <i name="time" type="string">07:08:29 </i>
 </generator>
 <incar>
  <i type="string" name="SYSTEM"> CIS</i>
  <i type="int" name="ISTART">     0</i>
  <i type="string" name="PREC">medium</i>
  <i type="int" name="ICHARG">     2</i>
  <i type="int" name="IBRION">     2</i>
  <i name="EDIFF">      0.00010000</i>
  <i name="EDIFFG">     -0.05000000</i>
  <i type="int" name="NSW">    99</i>
  <i type="int" name="ISIF">     3</i>
  <i name="ENCUT">    300.00000000</i>
  <i name="POTIM">      0.10000000</i>
  <i type="string" name="LREAL"> Auto</i>
  <i type="int" name="ISMEAR">     0</i>
  <i name="SIGMA">      0.05000000</i>
  <i type="int" name="LMAXMIX">     4</i>
  <i type="logical" name="LWAVE"> F  </i>
  <i type="logical" name="LCHARG"> F  </i>
  <i type="int" name="LORBIT">    10</i>
  <i type="logical" name="LASPH"> T  </i>
  <v type="int" name="KPOINT_BSE">    -1     0     0     0</v>
  <i type="logical" name="LASPH"> T  </i>
 </incar>
 <structure name="primitive_cell" >
  <crystal>
   <varray name="basis" >
    <v>       6.52043193       0.00000000       0.00000000 </v>
    <v>       0.00000000       6.93047068       0.00000000 </v>
    <v>       0.00000000       0.00000000       8.08859815 </v>
   </varray>
   <i name="volume">    365.52101897 </i>
   <varray name="rec_basis" >
    <v>       0.15336407       0.00000000       0.00000000 </v>
    <v>       0.00000000       0.14429034       0.00000000 </v>
    <v>       0.00000000       0.00000000       0.12363082 </v>
   </varray>
  </crystal>
  <varray name="positions" >
   <v>      -0.43317126      -0.41467729       0.12237690 </v>
   <v>      -0.31589263      -0.08051064       0.12831713 </v>
   <v>       0.19205758      -0.41698401       0.12337979 </v>
   <v>      -0.31589263       0.41948936       0.37168287 </v>
   <v>      -0.30794242       0.41698401      -0.12337979 </v>
   <v>      -0.43579369       0.08129933      -0.12560451 </v>
   <v>       0.06420631      -0.08129933       0.12560451 </v>
   <v>       0.06682874       0.41467729      -0.12237690 </v>
   <v>       0.06420631       0.41870067       0.37439549 </v>
   <v>      -0.43579369      -0.41870067      -0.37439549 </v>
   <v>      -0.43317126       0.08532271       0.37762310 </v>
   <v>       0.19205758       0.08301599       0.37662021 </v>
   <v>       0.18410737       0.08051064      -0.12831713 </v>
   <v>       0.18410737      -0.41948936      -0.37168287 </v>
   <v>      -0.30794242      -0.08301599      -0.37662021 </v>
   <v>       0.06682874      -0.08532271      -0.37762310 </v>
  </varray>
 </structure>
 <varray name="primitive_index" >
  <v type="int" >        1 </v>
  <v type="int" >       13 </v>
  <v type="int" >       12 </v>
  <v type="int" >       16 </v>
  <v type="int" >       11 </v>
  <v type="int" >        6 </v>
  <v type="int" >        5 </v>
  <v type="int" >        2 </v>
  <v type="int" >        8 </v>
  <v type="int" >        7 </v>
  <v type="int" >        4 </v>
  <v type="int" >        9 </v>
  <v type="int" >       14 </v>
  <v type="int" >       15 </v>
  <v type="int" >       10 </v>
  <v type="int" >        3 </v>
 </varray>
 <kpoints>
  <generation param="Monkhorst-Pack">
   <v type="int" name="divisions">       3        3        3 </v>
   <v name="usershift">      0.00000000       0.00000000       0.00000000 </v>
   <v name="genvec1">      0.33333333       0.00000000       0.00000000 </v>
   <v name="genvec2">      0.00000000       0.33333333       0.00000000 </v>
   <v name="genvec3">      0.00000000       0.00000000       0.33333333 </v>
   <v name="shift">      0.00000000       0.00000000       0.00000000 </v>
  </generation>
  <varray name="kpointlist" >
   <v>       0.00000000       0.00000000       0.00000000 </v>
   <v>       0.33333333       0.00000000       0.00000000 </v>
   <v>       0.00000000       0.33333333       0.00000000 </v>
   <v>       0.33333333       0.33333333       0.00000000 </v>
   <v>       0.00000000       0.00000000       0.33333333 </v>
   <v>       0.33333333       0.00000000       0.33333333 </v>
   <v>       0.00000000       0.33333333       0.33333333 </v>
   <v>       0.33333333       0.33333333       0.33333333 </v>
  </varray>
  <varray name="weights" >
   <v>       0.03703704 </v>
   <v>       0.07407407 </v>
   <v>       0.07407407 </v>
   <v>       0.14814815 </v>
   <v>       0.07407407 </v>
   <v>       0.14814815 </v>
   <v>       0.14814815 </v>
   <v>       0.29629630 </v>
  </varray>
 </kpoints>
 <parameters>
  <separator name="general" >
   <i type="string" name="SYSTEM">CIS</i>
   <i type="logical" name="LCOMPAT"> F  </i>
  </separator>
  <separator name="electronic" >
   <i type="string" name="PREC">medium</i>
   <i name="ENMAX">    300.00000000</i>
   <i name="ENAUG">    335.09200000</i>
   <i name="EDIFF">      0.00010000</i>
   <i type="int" name="IALGO">    38</i>
   <i type="int" name="IWAVPR">    11</i>
   <i type="int" name="NBANDS">    42</i>
   <i name="NELECT">     64.00000000</i>
   <i type="int" name="TURBO">     0</i>
   <i type="int" name="IRESTART">     0</i>
   <i type="int" name="NREBOOT">     0</i>
   <i type="int" name="NMIN">     0</i>
   <i name="EREF">      0.00000000</i>
   <separator name="electronic smearing" >
    <i type="int" name="ISMEAR">     0</i>
    <i name="SIGMA">      0.05000000</i>
    <i name="KSPACING">      0.50000000</i>
    <i type="logical" name="KGAMMA"> T  </i>
   </separator>
   <separator name="electronic projectors" >
    <i type="logical" name="LREAL"> T  </i>
    <v name="ROPT">     -0.00200000     -0.00200000     -0.00200000</v>
    <i type="int" name="LMAXPAW">  -100</i>
    <i type="int" name="LMAXMIX">     4</i>
    <i type="logical" name="NLSPLINE"> F  </i>
   </separator>
   <separator name="electronic startup" >
    <i type="int" name="ISTART">     0</i>
    <i type="int" name="ICHARG">     2</i>
    <i type="int" name="INIWAV">     1</i>
   </separator>
   <separator name="electronic spin" >
    <i type="int" name="ISPIN">     1</i>
    <i type="logical" name="LNONCOLLINEAR"> F  </i>
    <v name="MAGMOM">      1.00000000      1.00000000      1.00000000      1.00000000      1.00000000      1.00000000      1.00000000      1.00000000      1.00000000      1.00000000      1.00000000      1.00000000      1.00000000      1.00000000      1.00000000      1.00000000</v>
    <i name="NUPDOWN">     -1.00000000</i>
    <i type="logical" name="LSORBIT"> F  </i>
    <v name="SAXIS">      0.00000000      0.00000000      1.00000000</v>
    <i type="logical" name="LSPIRAL"> F  </i>
    <v name="QSPIRAL">      0.00000000      0.00000000      0.00000000</v>
    <i type="logical" name="LZEROZ"> F  </i>
   </separator>
   <separator name="electronic exchange-correlation" >
    <i type="logical" name="LASPH"> T  </i>
    <i type="logical" name="LMETAGGA"> F  </i>
   </separator>
   <separator name="electronic convergence" >
    <i type="int" name="NELM">    60</i>
    <i type="int" name="NELMDL">    -5</i>
    <i type="int" name="NELMIN">     2</i>
    <i name="ENINI">    300.00000000</i>
    <separator name="electronic convergence detail" >
     <i type="logical" name="LDIAG"> T  </i>
     <i type="logical" name="LSUBROT"> F  </i>
     <i name="WEIMIN">      0.00100000</i>
     <i name="EBREAK">      0.00000060</i>
     <i name="DEPER">      0.30000000</i>
     <i type="int" name="NRMM">     4</i>
     <i name="TIME">      0.40000000</i>
    </separator>
   </separator>
   <separator name="electronic mixer" >
    <i name="AMIX">      0.40000000</i>
    <i name="BMIX">      1.00000000</i>
    <i name="AMIN">      0.10000000</i>
    <i name="AMIX_MAG">      1.60000000</i>
    <i name="BMIX_MAG">      1.00000000</i>
    <separator name="electronic mixer details" >
     <i type="int" name="IMIX">     4</i>
     <i type="logical" name="MIXFIRST"> F  </i>
     <i type="int" name="MAXMIX">   -45</i>
     <i name="WC">    100.00000000</i>
     <i type="int" name="INIMIX">     1</i>
     <i type="int" name="MIXPRE">     1</i>
     <i type="int" name="MREMOVE">     5</i>
    </separator>
   </separator>
   <separator name="electronic dipolcorrection" >
    <i type="logical" name="LDIPOL"> F  </i>
    <i type="logical" name="LMONO"> F  </i>
    <i type="int" name="IDIPOL">     0</i>
    <i name="EPSILON">      1.00000000</i>
    <v name="DIPOL">   -100.00000000   -100.00000000   -100.00000000</v>
    <i name="EFIELD">      0.00000000</i>
   </separator>
  </separator>
  <separator name="grids" >
   <i type="int" name="NGX">    28</i>
   <i type="int" name="NGY">    30</i>
   <i type="int" name="NGZ">    36</i>
   <i type="int" name="NGXF">    40</i>
   <i type="int" name="NGYF">    42</i>
   <i type="int" name="NGZF">    48</i>
   <i type="logical" name="ADDGRID"> F  </i>
  </separator>
  <separator name="ionic" >
   <i type="int" name="NSW">    99</i>
   <i type="int" name="IBRION">     2</i>
   <i type="int" name="MDALGO">     0</i>
   <i type="int" name="ISIF">     3</i>
   <i name="PSTRESS">      0.00000000</i>
   <i name="EDIFFG">     -0.05000000</i>
   <i type="int" name="NFREE">     1</i>
   <i name="POTIM">      0.10000000</i>
   <i name="SMASS">     -3.00000000</i>
   <i name="SCALEE">      1.00000000</i>
  </separator>
  <separator name="ionic md" >
   <i name="TEBEG">      0.00010000</i>
   <i name="TEEND">      0.00010000</i>
   <i type="int" name="NBLOCK">     1</i>
   <i type="int" name="KBLOCK">    99</i>
   <i type="int" name="NPACO">   256</i>
   <i name="APACO">     16.00000000</i>
  </separator>
  <separator name="symmetry" >
   <i type="int" name="ISYM">     2</i>
   <i name="SYMPREC">      0.00001000</i>
  </separator>
  <separator name="dos" >
   <i type="int" name="LORBIT">    10</i>
   <v name="RWIGS">     -1.00000000     -1.00000000     -1.00000000</v>
   <i type="int" name="NEDOS">   301</i>
   <i name="EMIN">     10.00000000</i>
   <i name="EMAX">    -10.00000000</i>
   <i name="EFERMI">      0.00000000</i>
  </separator>
  <separator name="writing" >
   <i type="int" name="NWRITE">     2</i>
   <i type="logical" name="LWAVE"> F  </i>
   <i type="logical" name="LDOWNSAMPLE"> F  </i>
   <i type="logical" name="LCHARG"> F  </i>
   <i type="logical" name="LPARD"> F  </i>
   <i type="logical" name="LVTOT"> F  </i>
   <i type="logical" name="LVHAR"> F  </i>
   <i type="logical" name="LELF"> F  </i>
   <i type="logical" name="LOPTICS"> F  </i>
   <v name="STM">      0.00000000      0.00000000      0.00000000      0.00000000      0.00000000      0.00000000      0.00000000</v>
  </separator>
  <separator name="performance" >
   <i type="int" name="NPAR">    14</i>
   <i type="int" name="NSIM">     4</i>
   <i type="int" name="NBLK">    -1</i>
   <i type="logical" name="LPLANE"> T  </i>
   <i type="logical" name="LSCALAPACK"> T  </i>
   <i type="logical" name="LSCAAWARE"> F  </i>
   <i type="logical" name="LSCALU"> F  </i>
   <i type="logical" name="LASYNC"> F  </i>
   <i type="logical" name="LORBITALREAL"> F  </i>
  </separator>
  <separator name="miscellaneous" >
   <i type="int" name="IDIOT">     3</i>
   <i type="int" name="ISPECIAL">     0</i>
   <i type="logical" name="LMUSIC"> F  </i>
   <v name="POMASS">      7.01000000     69.72300000     32.06600000</v>
   <v name="DARWINR">      0.00000000      0.00000000      0.00000000</v>
   <v name="DARWINV">      1.00000000      1.00000000      1.00000000</v>
   <i type="logical" name="LCORR"> T  </i>
  </separator>
  <i type="logical" name="GGA_COMPAT"> T  </i>
  <i type="logical" name="LBERRY"> F  </i>
  <i type="int" name="ICORELEVEL">     0</i>
  <i type="logical" name="LDAU"> F  </i>
  <i type="int" name="I_CONSTRAINED_M">     0</i>
  <separator name="electronic exchange-correlation" >
   <i type="string" name="GGA">--</i>
   <i type="int" name="VOSKOWN">     0</i>
   <i type="logical" name="LHFCALC"> F  </i>
   <i type="string" name="PRECFOCK"></i>
   <i type="logical" name="LSYMGRAD"> F  </i>
   <i type="logical" name="LHFONE"> F  </i>
   <i type="logical" name="LRHFCALC"> F  </i>
   <i type="logical" name="LTHOMAS"> F  </i>
   <i type="logical" name="LMODELHF"> F  </i>
   <i name="ENCUT4O">     -1.00000000</i>
   <i type="int" name="EXXOEP">     0</i>
   <i type="int" name="FOURORBIT">     0</i>
   <i name="AEXX">      0.00000000</i>
   <i name="HFALPHA">      0.00000000</i>
   <i name="MCALPHA">      0.00000000</i>
   <i name="ALDAX">      1.00000000</i>
   <i name="AGGAX">      1.00000000</i>
   <i name="ALDAC">      1.00000000</i>
   <i name="AGGAC">      1.00000000</i>
   <i type="int" name="NKREDX">     1</i>
   <i type="int" name="NKREDY">     1</i>
   <i type="int" name="NKREDZ">     1</i>
   <i type="logical" name="SHIFTRED"> F  </i>
   <i type="logical" name="ODDONLY"> F  </i>
   <i type="logical" name="EVENONLY"> F  </i>
   <i type="int" name="LMAXFOCK">     0</i>
   <i type="int" name="NMAXFOCKAE">     0</i>
   <i type="logical" name="LFOCKAEDFT"> F  </i>
   <i name="HFSCREEN">      0.00000000</i>
   <i name="HFSCREENC">      0.00000000</i>
   <i type="int" name="NBANDSGWLOW">     0</i>
  </separator>
  <separator name="vdW DFT" >
   <i type="logical" name="LUSE_VDW"> F  </i>
   <i name="Zab_VDW">     -0.84910000</i>
   <i name="PARAM1">      0.12340000</i>
   <i name="PARAM2">      1.00000000</i>
   <i name="PARAM3">      0.00000000</i>
  </separator>
  <separator name="model GW" >
   <i type="int" name="MODEL_GW">     0</i>
   <i name="MODEL_EPS0">     13.70703821</i>
   <i name="MODEL_ALPHA">      1.00000000</i>
  </separator>
  <separator name="linear response parameters" >
   <i type="logical" name="LEPSILON"> F  </i>
   <i type="logical" name="LRPA"> F  </i>
   <i type="logical" name="LNABLA"> F  </i>
   <i type="logical" name="LVEL"> F  </i>
   <i type="int" name="KINTER">     0</i>
   <i name="CSHIFT">      0.10000000</i>
   <i name="OMEGAMAX">     -1.00000000</i>
   <i name="DEG_THRESHOLD">      0.00200000</i>
   <i name="RTIME">     -0.10000000</i>
   <i name="WPLASMAI">      0.00000000</i>
   <v name="DFIELD">      0.00000000      0.00000000      0.00000000</v>
   <v name="WPLASMA">      0.00000000      0.00000000      0.00000000      0.00000000      0.00000000      0.00000000      0.00000000      0.00000000      0.00000000</v>
  </separator>
  <separator name="orbital magnetization" >
   <i type="logical" name="NUCIND"> F  </i>
   <v name="MAGPOS">      0.00000000      0.00000000      0.00000000</v>
   <i type="logical" name="LNICSALL"> T  </i>
   <i type="logical" name="ORBITALMAG"> F  </i>
   <i type="logical" name="LMAGBLOCH"> F  </i>
   <i type="logical" name="LCHIMAG"> F  </i>
   <i type="logical" name="LGAUGE"> T  </i>
   <i type="int" name="MAGATOM">     0</i>
   <v name="MAGDIPOL">      0.00000000      0.00000000      0.00000000</v>
   <v name="AVECCONST">      0.00000000      0.00000000      0.00000000</v>
  </separator>
  <separator name="response functions" >
   <i type="logical" name="LADDER"> F  </i>
   <i type="logical" name="LRPAFORCE"> F  </i>
   <i type="logical" name="LFXC"> F  </i>
   <i type="logical" name="LHARTREE"> T  </i>
   <i type="int" name="IBSE">     0</i>
   <v type="int" name="KPOINT">    -1     0     0     0</v>
   <i type="logical" name="LTCTE"> F  </i>
   <i type="logical" name="LTETE"> F  </i>
   <i type="logical" name="LTRIPLET"> F  </i>
   <i type="logical" name="LFXCEPS"> F  </i>
   <i type="logical" name="LFXHEG"> F  </i>
   <i type="int" name="NATURALO">     2</i>
   <i type="logical" name="L2ORDER"> F  </i>
   <i type="logical" name="LMP2LT"> F  </i>
   <i type="logical" name="LUSEW"> F  </i>
   <i name="ENCUTGW">     -2.00000000</i>
   <i name="ENCUTGWSOFT">     -2.00000000</i>
   <i name="ENCUTLF">     -1.00000000</i>
   <i type="int" name="LMAXMP2">    -1</i>
   <i name="SCISSOR">      0.00000000</i>
   <i type="int" name="NOMEGA">     0</i>
   <i type="int" name="NOMEGAR">     0</i>
   <i type="int" name="NBANDSGW">    -1</i>
   <i type="int" name="NBANDSO">    -1</i>
   <i type="int" name="NBANDSV">    -1</i>
   <i type="int" name="NELM">     1</i>
   <i type="int" name="NELMHF">     1</i>
   <i type="int" name="DIM">     3</i>
   <i type="int" name="ANTIRES">     0</i>
   <i name="OMEGAMAX">    -30.00000000</i>
   <i name="OMEGAMIN">    -30.00000000</i>
   <i name="OMEGATL">   -200.00000000</i>
   <i type="int" name="OMEGAGRID">   140</i>
   <i name="CSHIFT">     -0.10000000</i>
   <i type="logical" name="SELFENERGY"> F  </i>
   <i type="logical" name="LSPECTRAL"> F  </i>
   <i type="logical" name="LSPECTRALGW"> F  </i>
   <i type="logical" name="LSINGLES"> F  </i>
   <i type="logical" name="LFERMIGW"> F  </i>
   <i type="logical" name="ODDONLYGW"> F  </i>
   <i type="logical" name="EVENONLYGW"> F  </i>
   <i type="int" name="NKREDLFX">     1</i>
   <i type="int" name="NKREDLFY">     1</i>
   <i type="int" name="NKREDLFZ">     1</i>
   <i type="int" name="MAXMEM">  2800</i>
   <i type="int" name="TELESCOPE">     0</i>
   <i type="int" name="TAUPAR">     1</i>
   <i type="int" name="OMEGAPAR">    -1</i>
   <i name="LAMBDA">      1.00000000</i>
  </separator>
  <separator name="External order field" >
   <i name="OFIELD_KAPPA">      0.00000000</i>
   <v name="OFIELD_K">      0.00000000      0.00000000      0.00000000</v>
   <i name="OFIELD_Q6_NEAR">      0.00000000</i>
   <i name="OFIELD_Q6_FAR">      0.00000000</i>
   <i name="OFIELD_A">      0.00000000</i>
  </separator>
 </parameters>
 <atominfo>
  <atoms>      16 </atoms>
  <types>       3 </types>
  <array name="atoms" >
   <dimension dim="1">ion</dimension>
   <field type="string">element</field>
   <field type="int">atomtype</field>
   <set>
    <rc><c>Li</c><c>   1</c></rc>
    <rc><c>Li</c><c>   1</c></rc>
    <rc><c>Li</c><c>   1</c></rc>
    <rc><c>Li</c><c>   1</c></rc>
    <rc><c>Ga</c><c>   2</c></rc>
    <rc><c>Ga</c><c>   2</c></rc>
    <rc><c>Ga</c><c>   2</c></rc>
    <rc><c>Ga</c><c>   2</c></rc>
    <rc><c>S </c><c>   3</c></rc>
    <rc><c>S </c><c>   3</c></rc>
    <rc><c>S </c><c>   3</c></rc>
    <rc><c>S </c><c>   3</c></rc>
    <rc><c>S </c><c>   3</c></rc>
    <rc><c>S </c><c>   3</c></rc>
    <rc><c>S </c><c>   3</c></rc>
    <rc><c>S </c><c>   3</c></rc>
   </set>
  </array>
  <array name="atomtypes" >
   <dimension dim="1">type</dimension>
   <field type="int">atomspertype</field>
   <field type="string">element</field>
   <field>mass</field>
   <field>valence</field>
   <field type="string">pseudopotential</field>
   <set>
    <rc><c>   4</c><c>Li</c><c>      7.01000000</c><c>      1.00000000</c><c>  PAW_PBE Li 17Jan2003                  </c></rc>
    <rc><c>   4</c><c>Ga</c><c>     69.72300000</c><c>      3.00000000</c><c>  PAW_PBE Ga 08Apr2002                  </c></rc>
    <rc><c>   8</c><c>S </c><c>     32.06600000</c><c>      6.00000000</c><c>  PAW_PBE S 06Sep2000                   </c></rc>
   </set>
  </array>
 </atominfo>
 <structure name="initialpos" >
  <crystal>
   <varray name="basis" >
    <v>       6.52043193       0.00000000       0.00000000 </v>
    <v>       0.00000000       6.93047068       0.00000000 </v>
    <v>       0.00000000       0.00000000       8.08859815 </v>
   </varray>
   <i name="volume">    365.52101897 </i>
   <varray name="rec_basis" >
    <v>       0.15336407       0.00000000       0.00000000 </v>
    <v>       0.00000000       0.14429034       0.00000000 </v>
    <v>       0.00000000       0.00000000       0.12363082 </v>
   </varray>
  </crystal>
  <varray name="positions" >
   <v>       0.56682874       0.58532271       0.12237690 </v>
   <v>       0.06682874       0.41467729       0.87762310 </v>
   <v>       0.06682874       0.91467729       0.62237690 </v>
   <v>       0.56682874       0.08532271       0.37762310 </v>
   <v>       0.06420631       0.91870067       0.12560451 </v>
   <v>       0.56420631       0.08129933       0.87439549 </v>
   <v>       0.56420631       0.58129933       0.62560451 </v>
   <v>       0.06420631       0.41870067       0.37439549 </v>
   <v>       0.19205758       0.08301599       0.37662021 </v>
   <v>       0.69205758       0.91698401       0.62337979 </v>
   <v>       0.69205758       0.41698401       0.87662021 </v>
   <v>       0.19205758       0.58301599       0.12337979 </v>
   <v>       0.68410737       0.91948936       0.12831713 </v>
   <v>       0.18410737       0.08051064       0.87168287 </v>
   <v>       0.18410737       0.58051064       0.62831713 </v>
   <v>       0.68410737       0.41948936       0.37168287 </v>
  </varray>
 </structure>
 <calculation>
  <scstep>
   <time name="dav">    0.21    0.22</time>
   <time name="total">    0.37    0.39</time>
   <energy>
    <i name="alphaZ">     78.71820500 </i>
    <i name="ewald">  -2082.43076519 </i>
    <i name="hartreedc">   -399.87245447 </i>
    <i name="XCdc">      1.28683759 </i>
    <i name="pawpsdc">   2018.78655713 </i>
    <i name="pawaedc">  -1876.24968428 </i>
    <i name="eentropy">     -0.00982737 </i>
    <i name="bandstr">     17.77299941 </i>
    <i name="atom">   2471.19760440 </i>
    <i name="e_fr_energy">    229.19947220 </i>
    <i name="e_wo_entrp">    229.20929957 </i>
    <i name="e_0_energy">    229.20438589 </i>
   </energy>
  </scstep>
  <scstep>
   <time name="dav">    0.30    0.30</time>
   <time name="total">    0.30    0.30</time>
   <energy>
    <i name="e_fr_energy">    -49.85749538 </i>
    <i name="e_wo_entrp">    -49.85749538 </i>
    <i name="e_0_energy">    -49.85749538 </i>
   </energy>
  </scstep>
  <scstep>
   <time name="dav">    0.29    0.30</time>
   <time name="total">    0.29    0.30</time>
   <energy>
    <i name="e_fr_energy">    -70.52112801 </i>
    <i name="e_wo_entrp">    -70.52112801 </i>
    <i name="e_0_energy">    -70.52112801 </i>
   </energy>
  </scstep>
  <scstep>
   <time name="dav">    0.20    0.20</time>
   <time name="total">    0.20    0.20</time>
   <energy>
    <i name="e_fr_energy">    -70.81616245 </i>
    <i name="e_wo_entrp">    -70.81616245 </i>
    <i name="e_0_energy">    -70.81616245 </i>
   </energy>
  </scstep>
  <scstep>
   <time name="dav">    0.26    0.27</time>
   <time name="total">    0.28    0.28</time>
   <energy>
    <i name="e_fr_energy">    -70.82318519 </i>
    <i name="e_wo_entrp">    -70.82318519 </i>
    <i name="e_0_energy">    -70.82318519 </i>
   </energy>
  </scstep>
  <scstep>
   <time name="dav">    0.19    0.19</time>
   <time name="total">    0.34    0.34</time>
   <energy>
    <i name="e_fr_energy">    -67.35197922 </i>
    <i name="e_wo_entrp">    -67.35197922 </i>
    <i name="e_0_energy">    -67.35197922 </i>
   </energy>
  </scstep>
  <scstep>
   <time name="dav">    0.27    0.27</time>
   <time name="total">    0.42    0.42</time>
   <energy>
    <i name="e_fr_energy">    -67.18293611 </i>
    <i name="e_wo_entrp">    -67.18293611 </i>
    <i name="e_0_energy">    -67.18293611 </i>
   </energy>
  </scstep>
  <scstep>
   <time name="dav">    0.30    0.30</time>
   <time name="total">    0.46    0.46</time>
   <energy>
    <i name="e_fr_energy">    -67.18338665 </i>
    <i name="e_wo_entrp">    -67.18338665 </i>
    <i name="e_0_energy">    -67.18338665 </i>
   </energy>
  </scstep>
  <scstep>
   <time name="dav">    0.20    0.20</time>
   <time name="total">    0.36    0.36</time>
   <energy>
    <i name="e_fr_energy">    -67.18755004 </i>
    <i name="e_wo_entrp">    -67.18755004 </i>
    <i name="e_0_energy">    -67.18755004 </i>
   </energy>
  </scstep>
  <scstep>
   <time name="dav">    0.33    0.33</time>
   <time name="total">    0.49    0.49</time>
   <energy>
    <i name="e_fr_energy">    -67.19117052 </i>
    <i name="e_wo_entrp">    -67.19117052 </i>
    <i name="e_0_energy">    -67.19117052 </i>
   </energy>
  </scstep>
  <scstep>
   <time name="dav">    0.31    0.31</time>
   <time name="total">    0.48    0.48</time>
   <energy>
    <i name="e_fr_energy">    -67.19220095 </i>
    <i name="e_wo_entrp">    -67.19220095 </i>
    <i name="e_0_energy">    -67.19220095 </i>
   </energy>
  </scstep>
  <scstep>
   <time name="dav">    0.25    0.25</time>
   <time name="total">    0.40    0.40</time>
   <energy>
    <i name="alphaZ">     78.71820500 </i>
    <i name="ewald">  -2082.43076519 </i>
    <i name="hartreedc">   -441.61899346 </i>
    <i name="XCdc">      6.64674185 </i>
    <i name="pawpsdc">   4664.20424104 </i>
    <i name="pawaedc">  -4523.71911950 </i>
    <i name="eentropy">     -0.00000000 </i>
    <i name="bandstr">   -240.19015634 </i>
    <i name="atom">   2471.19760440 </i>
    <i name="e_fr_energy">    -67.19224221 </i>
    <i name="e_wo_entrp">    -67.19224221 </i>
    <i name="e_0_energy">    -67.19224221 </i>
   </energy>
  </scstep>
  <structure>
   <crystal>
    <varray name="basis" >
     <v>       6.52043193       0.00000000       0.00000000 </v>
     <v>       0.00000000       6.93047068       0.00000000 </v>
     <v>       0.00000000       0.00000000       8.08859815 </v>
    </varray>
    <i name="volume">    365.52101897 </i>
    <varray name="rec_basis" >
     <v>       0.15336407       0.00000000       0.00000000 </v>
     <v>       0.00000000       0.14429034       0.00000000 </v>
     <v>       0.00000000       0.00000000       0.12363082 </v>
    </varray>
   </crystal>
   <varray name="positions" >
    <v>       0.56682874       0.58532271       0.12237690 </v>
    <v>       0.06682874       0.41467729       0.87762310 </v>
    <v>       0.06682874       0.91467729       0.62237690 </v>
    <v>       0.56682874       0.08532271       0.37762310 </v>
    <v>       0.06420631       0.91870067       0.12560451 </v>
    <v>       0.56420631       0.08129933       0.87439549 </v>
    <v>       0.56420631       0.58129933       0.62560451 </v>
    <v>       0.06420631       0.41870067       0.37439549 </v>
    <v>       0.19205758       0.08301599       0.37662021 </v>
    <v>       0.69205758       0.91698401       0.62337979 </v>
    <v>       0.69205758       0.41698401       0.87662021 </v>
    <v>       0.19205758       0.58301599       0.12337979 </v>
    <v>       0.68410737       0.91948936       0.12831713 </v>
    <v>       0.18410737       0.08051064       0.87168287 </v>
    <v>       0.18410737       0.58051064       0.62831713 </v>
    <v>       0.68410737       0.41948936       0.37168287 </v>
   </varray>
  </structure>
  <varray name="forces" >
   <v>       0.00639665       0.02959425       0.02312267 </v>
   <v>       0.00639665      -0.02959425      -0.02312267 </v>
   <v>       0.00639665      -0.02959425       0.02312267 </v>
   <v>       0.00639665       0.02959425      -0.02312267 </v>
   <v>       0.00950047       0.00768942      -0.04456012 </v>
   <v>       0.00950047      -0.00768942       0.04456012 </v>
   <v>       0.00950047      -0.00768942      -0.04456012 </v>
   <v>       0.00950047       0.00768942       0.04456012 </v>
   <v>      -0.76336591       0.54637480      -0.90661411 </v>
   <v>      -0.76336591      -0.54637480       0.90661411 </v>
   <v>      -0.76336591      -0.54637480      -0.90661411 </v>
   <v>      -0.76336591       0.54637480       0.90661411 </v>
   <v>       0.74746879       0.53477914      -0.96180571 </v>
   <v>       0.74746879      -0.53477914       0.96180571 </v>
   <v>       0.74746879      -0.53477914      -0.96180571 </v>
   <v>       0.74746879       0.53477914       0.96180571 </v>
  </varray>
  <varray name="stress" >
   <v>     -60.85487424       0.00000000       0.00000000 </v>
   <v>       0.00000000     -64.45133859       0.00000000 </v>
   <v>       0.00000000       0.00000000     -64.21043838 </v>
  </varray>
  <energy>
   <i name="e_fr_energy">    -67.19224221 </i>
   <i name="e_wo_entrp">    -67.19224221 </i>
   <i name="e_0_energy">     -0.00000000 </i>
  </energy>
  <time name="totalsc">    4.98    5.11</time>
 </calculation>
 <calculation>
  <scstep>
   <time name="dav">    0.25    0.25</time>
   <time name="total">    0.41    0.44</time>
   <energy>
    <i name="alphaZ">     80.80682659 </i>
    <i name="ewald">  -2098.50879377 </i>
    <i name="hartreedc">   -447.25269768 </i>
    <i name="XCdc">      7.74910288 </i>
    <i name="pawpsdc">   4662.57330285 </i>
    <i name="pawaedc">  -4522.08583507 </i>
    <i name="eentropy">     -0.00000000 </i>
    <i name="bandstr">   -222.28245321 </i>
    <i name="atom">   2471.19760440 </i>
    <i name="e_fr_energy">    -67.80294301 </i>
    <i name="e_wo_entrp">    -67.80294301 </i>
    <i name="e_0_energy">    -67.80294301 </i>
   </energy>
  </scstep>
  <scstep>
   <time name="dav">    0.24    0.25</time>
   <time name="total">    0.40    0.41</time>
   <energy>
    <i name="e_fr_energy">    -67.68293772 </i>
    <i name="e_wo_entrp">    -67.68293772 </i>
    <i name="e_0_energy">    -67.68293772 </i>
   </energy>
  </scstep>
  <scstep>
   <time name="dav">    0.24    0.25</time>
   <time name="total">    0.40    0.41</time>
   <energy>
    <i name="e_fr_energy">    -67.66745387 </i>
    <i name="e_wo_entrp">    -67.66745387 </i>
    <i name="e_0_energy">    -67.66745387 </i>
   </energy>
  </scstep>
  <scstep>
   <time name="dav">    0.26    0.26</time>
   <time name="total">    0.41    0.42</time>
   <energy>
    <i name="e_fr_energy">    -67.66566799 </i>
    <i name="e_wo_entrp">    -67.66566799 </i>
    <i name="e_0_energy">    -67.66566799 </i>
   </energy>
  </scstep>
  <scstep>
   <time name="dav">    0.20    0.20</time>
   <time name="total">    0.35    0.36</time>
   <energy>
    <i name="e_fr_energy">    -67.66494453 </i>
    <i name="e_wo_entrp">    -67.66494453 </i>
    <i name="e_0_energy">    -67.66494453 </i>
   </energy>
  </scstep>
  <scstep>
   <time name="dav">    0.26    0.27</time>
   <time name="total">    0.41    0.42</time>
   <energy>
    <i name="alphaZ">     80.80682659 </i>
    <i name="ewald">  -2098.50879377 </i>
    <i name="hartreedc">   -435.79541934 </i>
    <i name="XCdc">      7.22493384 </i>
    <i name="pawpsdc">   4826.42793706 </i>
    <i name="pawaedc">  -4686.08099684 </i>
    <i name="eentropy">     -0.00000000 </i>
    <i name="bandstr">   -232.93704769 </i>
    <i name="atom">   2471.19760440 </i>
    <i name="e_fr_energy">    -67.66495576 </i>
    <i name="e_wo_entrp">    -67.66495576 </i>
    <i name="e_0_energy">    -67.66495576 </i>
   </energy>
  </scstep>
  <structure>
   <crystal>
    <varray name="basis" >
     <v>       6.46584173       0.00000000       0.00000000 </v>
     <v>       0.00000000       6.86901845       0.00000000 </v>
     <v>       0.00000000       0.00000000       8.01714492 </v>
    </varray>
    <i name="volume">    356.07336306 </i>
    <varray name="rec_basis" >
     <v>       0.15465890       0.00000000       0.00000000 </v>
     <v>       0.00000000       0.14558121       0.00000000 </v>
     <v>       0.00000000       0.00000000       0.12473268 </v>
    </varray>
   </crystal>
   <varray name="positions" >
    <v>       0.56683821       0.58536391       0.12240448 </v>
    <v>       0.06683821       0.41463609       0.87759552 </v>
    <v>       0.06683821       0.91463609       0.62240448 </v>
    <v>       0.56683821       0.08536391       0.37759552 </v>
    <v>       0.06422037       0.91871138       0.12555136 </v>
    <v>       0.56422037       0.08128862       0.87444864 </v>
    <v>       0.56422037       0.58128862       0.62555136 </v>
    <v>       0.06422037       0.41871138       0.37444864 </v>
    <v>       0.19092800       0.08377665       0.37553875 </v>
    <v>       0.69092800       0.91622335       0.62446125 </v>
    <v>       0.69092800       0.41622335       0.87553875 </v>
    <v>       0.19092800       0.58377665       0.12446125 </v>
    <v>       0.68521343       0.92023387       0.12716983 </v>
    <v>       0.18521343       0.07976613       0.87283017 </v>
    <v>       0.18521343       0.57976613       0.62716983 </v>
    <v>       0.68521343       0.42023387       0.37283017 </v>
   </varray>
  </structure>
  <varray name="forces" >
   <v>       0.00874880       0.02700873       0.02141696 </v>
   <v>       0.00874880      -0.02700873      -0.02141696 </v>
   <v>       0.00874880      -0.02700873       0.02141696 </v>
   <v>       0.00874880       0.02700873      -0.02141696 </v>
   <v>      -0.00121877       0.04057857      -0.03354278 </v>
   <v>      -0.00121877      -0.04057857       0.03354278 </v>
   <v>      -0.00121877      -0.04057857      -0.03354278 </v>
   <v>      -0.00121877       0.04057857       0.03354278 </v>
   <v>      -0.69107973       0.50107738      -0.81491662 </v>
   <v>      -0.69107973      -0.50107738       0.81491662 </v>
   <v>      -0.69107973      -0.50107738      -0.81491662 </v>
   <v>      -0.69107973       0.50107738       0.81491662 </v>
   <v>       0.68354971       0.47488208      -0.85376290 </v>
   <v>       0.68354971      -0.47488208       0.85376290 </v>
   <v>       0.68354971      -0.47488208      -0.85376290 </v>
   <v>       0.68354971       0.47488208       0.85376290 </v>
  </varray>
  <varray name="stress" >
   <v>     -52.39795295       0.00000000       0.00000000 </v>
   <v>       0.00000000     -55.59010790       0.00000000 </v>
   <v>       0.00000000       0.00000000     -53.82921128 </v>
  </varray>
  <energy>
   <i name="e_fr_energy">    -67.66495576 </i>
   <i name="e_wo_entrp">    -67.66495576 </i>
   <i name="e_0_energy">     -0.00000000 </i>
  </energy>
  <time name="totalsc">    2.96    3.21</time>
 </calculation>
 <calculation>
  <scstep>
   <time name="dav">    0.23    0.24</time>
   <time name="total">    0.40    0.48</time>
   <energy>
    <i name="alphaZ">     87.53367226 </i>
    <i name="ewald">  -2147.84897237 </i>
    <i name="hartreedc">   -453.22597697 </i>
    <i name="XCdc">     10.60728389 </i>
    <i name="pawpsdc">   4819.69572933 </i>
    <i name="pawaedc">  -4679.35510172 </i>
    <i name="eentropy">     -0.00000000 </i>
    <i name="bandstr">   -178.40427622 </i>
    <i name="atom">   2471.19760440 </i>
    <i name="e_fr_energy">    -69.80003740 </i>
    <i name="e_wo_entrp">    -69.80003740 </i>
    <i name="e_0_energy">    -69.80003740 </i>
   </energy>
  </scstep>
  <scstep>
   <time name="dav">    0.28    0.28</time>
   <time name="total">    0.43    0.45</time>
   <energy>
    <i name="e_fr_energy">    -68.71540214 </i>
    <i name="e_wo_entrp">    -68.71540214 </i>
    <i name="e_0_energy">    -68.71540214 </i>
   </energy>
  </scstep>
  <scstep>
   <time name="dav">    0.32    0.33</time>
   <time name="total">    0.48    0.49</time>
   <energy>
    <i name="e_fr_energy">    -68.56224068 </i>
    <i name="e_wo_entrp">    -68.56224068 </i>
    <i name="e_0_energy">    -68.56224068 </i>
   </energy>
  </scstep>
  <scstep>
   <time name="dav">    0.32    0.32</time>
   <time name="total">    0.47    0.48</time>
   <energy>
    <i name="e_fr_energy">    -68.54858752 </i>
    <i name="e_wo_entrp">    -68.54858752 </i>
    <i name="e_0_energy">    -68.54858752 </i>
   </energy>
  </scstep>
  <scstep>
   <time name="dav">    0.31    0.32</time>
   <time name="total">    0.47    0.48</time>
   <energy>
    <i name="e_fr_energy">    -68.53935866 </i>
    <i name="e_wo_entrp">    -68.53935866 </i>
    <i name="e_0_energy">    -68.53935866 </i>
   </energy>
  </scstep>
  <scstep>
   <time name="dav">    0.32    0.33</time>
   <time name="total">    0.48    0.49</time>
   <energy>
    <i name="e_fr_energy">    -68.53948104 </i>
    <i name="e_wo_entrp">    -68.53948104 </i>
    <i name="e_0_energy">    -68.53948104 </i>
   </energy>
  </scstep>
  <scstep>
   <time name="dav">    0.14    0.14</time>
   <time name="total">    0.28    0.28</time>
   <energy>
    <i name="alphaZ">     87.53367226 </i>
    <i name="ewald">  -2147.84897237 </i>
    <i name="hartreedc">   -418.34230478 </i>
    <i name="XCdc">      9.01618812 </i>
    <i name="pawpsdc">   5396.41877438 </i>
    <i name="pawaedc">  -5256.59067759 </i>
    <i name="eentropy">     -0.00000000 </i>
    <i name="bandstr">   -209.92376568 </i>
    <i name="atom">   2471.19760440 </i>
    <i name="e_fr_energy">    -68.53948126 </i>
    <i name="e_wo_entrp">    -68.53948126 </i>
    <i name="e_0_energy">    -68.53948126 </i>
   </energy>
  </scstep>
  <structure>
   <crystal>
    <varray name="basis" >
     <v>       6.30207112       0.00000000       0.00000000 </v>
     <v>       0.00000000       6.68466176       0.00000000 </v>
     <v>       0.00000000       0.00000000       7.80278522 </v>
    </varray>
    <i name="volume">    328.70960124 </i>
    <varray name="rec_basis" >
     <v>       0.15867799       0.00000000       0.00000000 </v>
     <v>       0.00000000       0.14959620       0.00000000 </v>
     <v>       0.00000000       0.00000000       0.12815937 </v>
    </varray>
   </crystal>
   <varray name="positions" >
    <v>       0.56686684       0.58548862       0.12248797 </v>
    <v>       0.06686684       0.41451138       0.87751203 </v>
    <v>       0.06686684       0.91451138       0.62248797 </v>
    <v>       0.56686684       0.08548862       0.37751203 </v>
    <v>       0.06426290       0.91874378       0.12539047 </v>
    <v>       0.56426290       0.08125622       0.87460953 </v>
    <v>       0.56426290       0.58125622       0.62539047 </v>
    <v>       0.06426290       0.41874378       0.37460953 </v>
    <v>       0.18751064       0.08607903       0.37226545 </v>
    <v>       0.68751064       0.91392097       0.62773455 </v>
    <v>       0.68751064       0.41392097       0.87226545 </v>
    <v>       0.18751064       0.58607903       0.12773455 </v>
    <v>       0.68855962       0.92248740       0.12369727 </v>
    <v>       0.18855962       0.07751260       0.87630273 </v>
    <v>       0.18855962       0.57751260       0.62369727 </v>
    <v>       0.68855962       0.42248740       0.37630273 </v>
   </varray>
  </structure>
  <varray name="forces" >
   <v>      -0.01652575       0.00895229       0.02288331 </v>
   <v>      -0.01652575      -0.00895229      -0.02288331 </v>
   <v>      -0.01652575      -0.00895229       0.02288331 </v>
   <v>      -0.01652575       0.00895229      -0.02288331 </v>
   <v>      -0.05537181       0.10063378      -0.02339466 </v>
   <v>      -0.05537181      -0.10063378       0.02339466 </v>
   <v>      -0.05537181      -0.10063378      -0.02339466 </v>
   <v>      -0.05537181       0.10063378       0.02339466 </v>
   <v>      -0.33060491       0.24623552      -0.41868708 </v>
   <v>      -0.33060491      -0.24623552       0.41868708 </v>
   <v>      -0.33060491      -0.24623552      -0.41868708 </v>
   <v>      -0.33060491       0.24623552       0.41868708 </v>
   <v>       0.40250247       0.23512847      -0.41330987 </v>
   <v>       0.40250247      -0.23512847       0.41330987 </v>
   <v>       0.40250247      -0.23512847      -0.41330987 </v>
   <v>       0.40250247       0.23512847       0.41330987 </v>
  </varray>
  <varray name="stress" >
   <v>     -12.59457922       0.00000000       0.00000000 </v>
   <v>       0.00000000     -15.09590479       0.00000000 </v>
   <v>       0.00000000       0.00000000      -9.11985540 </v>
  </varray>
  <energy>
   <i name="e_fr_energy">    -68.53948126 </i>
   <i name="e_wo_entrp">    -68.53948126 </i>
   <i name="e_0_energy">     -0.00000000 </i>
  </energy>
  <time name="totalsc">    3.53    3.84</time>
 </calculation>
 <calculation>
  <scstep>
   <time name="dav">    0.30    0.31</time>
   <time name="total">    0.47    0.52</time>
   <energy>
    <i name="alphaZ">     90.54308030 </i>
    <i name="ewald">  -2168.75919135 </i>
    <i name="hartreedc">   -425.74319379 </i>
    <i name="XCdc">     10.44869076 </i>
    <i name="pawpsdc">   5400.99037859 </i>
    <i name="pawaedc">  -5261.16227182 </i>
    <i name="eentropy">     -0.00000000 </i>
    <i name="bandstr">   -186.33993980 </i>
    <i name="atom">   2471.19760440 </i>
    <i name="e_fr_energy">    -68.82484272 </i>
    <i name="e_wo_entrp">    -68.82484272 </i>
    <i name="e_0_energy">    -68.82484272 </i>
   </energy>
  </scstep>
  <scstep>
   <time name="dav">    0.30    0.31</time>
   <time name="total">    0.46    0.48</time>
   <energy>
    <i name="e_fr_energy">    -68.63748875 </i>
    <i name="e_wo_entrp">    -68.63748875 </i>
    <i name="e_0_energy">    -68.63748875 </i>
   </energy>
  </scstep>
  <scstep>
   <time name="dav">    0.33    0.33</time>
   <time name="total">    0.49    0.49</time>
   <energy>
    <i name="e_fr_energy">    -68.60910173 </i>
    <i name="e_wo_entrp">    -68.60910173 </i>
    <i name="e_0_energy">    -68.60910173 </i>
   </energy>
  </scstep>
  <scstep>
   <time name="dav">    0.32    0.33</time>
   <time name="total">    0.48    0.49</time>
   <energy>
    <i name="e_fr_energy">    -68.60673673 </i>
    <i name="e_wo_entrp">    -68.60673673 </i>
    <i name="e_0_energy">    -68.60673673 </i>
   </energy>
  </scstep>
  <scstep>
   <time name="dav">    0.28    0.29</time>
   <time name="total">    0.44    0.45</time>
   <energy>
    <i name="e_fr_energy">    -68.60551064 </i>
    <i name="e_wo_entrp">    -68.60551064 </i>
    <i name="e_0_energy">    -68.60551064 </i>
   </energy>
  </scstep>
  <scstep>
   <time name="dav">    0.21    0.21</time>
   <time name="total">    0.35    0.35</time>
   <energy>
    <i name="alphaZ">     90.54308030 </i>
    <i name="ewald">  -2168.75919135 </i>
    <i name="hartreedc">   -411.46764624 </i>
    <i name="XCdc">      9.79462597 </i>
    <i name="pawpsdc">   5707.49945970 </i>
    <i name="pawaedc">  -5567.91403905 </i>
    <i name="eentropy">     -0.00000000 </i>
    <i name="bandstr">   -199.49942035 </i>
    <i name="atom">   2471.19760440 </i>
    <i name="e_fr_energy">    -68.60552661 </i>
    <i name="e_wo_entrp">    -68.60552661 </i>
    <i name="e_0_energy">    -68.60552661 </i>
   </energy>
  </scstep>
  <structure>
   <crystal>
    <varray name="basis" >
     <v>       6.23414356       0.00000000       0.00000000 </v>
     <v>       0.00000000       6.60819566       0.00000000 </v>
     <v>       0.00000000       0.00000000       7.71387471 </v>
    </varray>
    <i name="volume">    317.78417972 </i>
    <varray name="rec_basis" >
     <v>       0.16040696       0.00000000       0.00000000 </v>
     <v>       0.00000000       0.15132724       0.00000000 </v>
     <v>       0.00000000       0.00000000       0.12963654 </v>
    </varray>
   </crystal>
   <varray name="positions" >
    <v>       0.56687903       0.58554177       0.12252354 </v>
    <v>       0.06687903       0.41445823       0.87747646 </v>
    <v>       0.06687903       0.91445823       0.62252354 </v>
    <v>       0.56687903       0.08554177       0.37747646 </v>
    <v>       0.06428100       0.91875759       0.12532191 </v>
    <v>       0.56428100       0.08124241       0.87467809 </v>
    <v>       0.56428100       0.58124241       0.62532191 </v>
    <v>       0.06428100       0.41875759       0.37467809 </v>
    <v>       0.18605638       0.08706034       0.37087048 </v>
    <v>       0.68605638       0.91293966       0.62912952 </v>
    <v>       0.68605638       0.41293966       0.87087048 </v>
    <v>       0.18605638       0.58706034       0.12912952 </v>
    <v>       0.68998359       0.92344788       0.12221738 </v>
    <v>       0.18998359       0.07655212       0.87778262 </v>
    <v>       0.18998359       0.57655212       0.62221738 </v>
    <v>       0.68998359       0.42344788       0.37778262 </v>
   </varray>
  </structure>
  <varray name="forces" >
   <v>      -0.00016265       0.00007123       0.02181259 </v>
   <v>      -0.00016265      -0.00007123      -0.02181259 </v>
   <v>      -0.00016265      -0.00007123       0.02181259 </v>
   <v>      -0.00016265       0.00007123      -0.02181259 </v>
   <v>      -0.08448075       0.06264392      -0.00205384 </v>
   <v>      -0.08448075      -0.06264392       0.00205384 </v>
   <v>      -0.08448075      -0.06264392      -0.00205384 </v>
   <v>      -0.08448075       0.06264392       0.00205384 </v>
   <v>      -0.15682774       0.16113798      -0.22482870 </v>
   <v>      -0.15682774      -0.16113798       0.22482870 </v>
   <v>      -0.15682774      -0.16113798      -0.22482870 </v>
   <v>      -0.15682774       0.16113798       0.22482870 </v>
   <v>       0.24147114       0.13871847      -0.22984972 </v>
   <v>       0.24147114      -0.13871847       0.22984972 </v>
   <v>       0.24147114      -0.13871847      -0.22984972 </v>
   <v>       0.24147114       0.13871847       0.22984972 </v>
  </varray>
  <varray name="stress" >
   <v>       8.44985214       0.00000000       0.00000000 </v>
   <v>       0.00000000       6.81681963       0.00000000 </v>
   <v>       0.00000000       0.00000000      15.50047083 </v>
  </varray>
  <energy>
   <i name="e_fr_energy">    -68.60552661 </i>
   <i name="e_wo_entrp">    -68.60552661 </i>
   <i name="e_0_energy">     -0.00000000 </i>
  </energy>
  <time name="totalsc">    3.27    3.47</time>
 </calculation>
 <calculation>
  <scstep>
   <time name="dav">    0.27    0.28</time>
   <time name="total">    0.44    0.48</time>
   <energy>
    <i name="alphaZ">     90.14536152 </i>
    <i name="ewald">  -2166.03646076 </i>
    <i name="hartreedc">   -410.41036143 </i>
    <i name="XCdc">      9.60547860 </i>
    <i name="pawpsdc">   5696.55219164 </i>
    <i name="pawaedc">  -5556.97571189 </i>
    <i name="eentropy">     -0.00000000 </i>
    <i name="bandstr">   -202.68954282 </i>
    <i name="atom">   2471.19760440 </i>
    <i name="e_fr_energy">    -68.61144074 </i>
    <i name="e_wo_entrp">    -68.61144074 </i>
    <i name="e_0_energy">    -68.61144074 </i>
   </energy>
  </scstep>
  <scstep>
   <time name="dav">    0.29    0.29</time>
   <time name="total">    0.45    0.45</time>
   <energy>
    <i name="e_fr_energy">    -68.60826238 </i>
    <i name="e_wo_entrp">    -68.60826238 </i>
    <i name="e_0_energy">    -68.60826238 </i>
   </energy>
  </scstep>
  <scstep>
   <time name="dav">    0.29    0.30</time>
   <time name="total">    0.45    0.46</time>
   <energy>
    <i name="e_fr_energy">    -68.60776279 </i>
    <i name="e_wo_entrp">    -68.60776279 </i>
    <i name="e_0_energy">    -68.60776279 </i>
   </energy>
  </scstep>
  <scstep>
   <time name="dav">    0.11    0.11</time>
   <time name="total">    0.26    0.26</time>
   <energy>
    <i name="alphaZ">     90.14536152 </i>
    <i name="ewald">  -2166.03646076 </i>
    <i name="hartreedc">   -412.17150391 </i>
    <i name="XCdc">      9.69092930 </i>
    <i name="pawpsdc">   5645.21473251 </i>
    <i name="pawaedc">  -5505.61820591 </i>
    <i name="eentropy">     -0.00000000 </i>
    <i name="bandstr">   -201.03015977 </i>
    <i name="atom">   2471.19760440 </i>
    <i name="e_fr_energy">    -68.60770261 </i>
    <i name="e_wo_entrp">    -68.60770261 </i>
    <i name="e_0_energy">    -68.60770261 </i>
   </energy>
  </scstep>
  <structure>
   <crystal>
    <varray name="basis" >
     <v>       6.24294686       0.00000000       0.00000000 </v>
     <v>       0.00000000       6.61810554       0.00000000 </v>
     <v>       0.00000000       0.00000000       7.72539736 </v>
    </varray>
    <i name="volume">    319.18623450 </i>
    <varray name="rec_basis" >
     <v>       0.16018076       0.00000000       0.00000000 </v>
     <v>       0.00000000       0.15110064       0.00000000 </v>
     <v>       0.00000000       0.00000000       0.12944318 </v>
    </varray>
   </crystal>
   <varray name="positions" >
    <v>       0.56687743       0.58553480       0.12251888 </v>
    <v>       0.06687743       0.41446520       0.87748112 </v>
    <v>       0.06687743       0.91446520       0.62251888 </v>
    <v>       0.56687743       0.08553480       0.37748112 </v>
    <v>       0.06427863       0.91875578       0.12533090 </v>
    <v>       0.56427863       0.08124422       0.87466910 </v>
    <v>       0.56427863       0.58124422       0.62533090 </v>
    <v>       0.06427863       0.41875578       0.37466910 </v>
    <v>       0.18624691       0.08693169       0.37105335 </v>
    <v>       0.68624691       0.91306831       0.62894665 </v>
    <v>       0.68624691       0.41306831       0.87105335 </v>
    <v>       0.18624691       0.58693169       0.12894665 </v>
    <v>       0.68979704       0.92332196       0.12241138 </v>
    <v>       0.18979704       0.07667804       0.87758862 </v>
    <v>       0.18979704       0.57667804       0.62241138 </v>
    <v>       0.68979704       0.42332196       0.37758862 </v>
   </varray>
  </structure>
  <varray name="forces" >
   <v>       0.00061696       0.00253730       0.02192664 </v>
   <v>       0.00061696      -0.00253730      -0.02192664 </v>
   <v>       0.00061696      -0.00253730       0.02192664 </v>
   <v>       0.00061696       0.00253730      -0.02192664 </v>
   <v>      -0.09072229       0.07843528      -0.02355765 </v>
   <v>      -0.09072229      -0.07843528       0.02355765 </v>
   <v>      -0.09072229      -0.07843528      -0.02355765 </v>
   <v>      -0.09072229       0.07843528       0.02355765 </v>
   <v>      -0.18615773       0.16518995      -0.25406581 </v>
   <v>      -0.18615773      -0.16518995       0.25406581 </v>
   <v>      -0.18615773      -0.16518995      -0.25406581 </v>
   <v>      -0.18615773       0.16518995       0.25406581 </v>
   <v>       0.27626306       0.14728364      -0.25085442 </v>
   <v>       0.27626306      -0.14728364       0.25085442 </v>
   <v>       0.27626306      -0.14728364      -0.25085442 </v>
   <v>       0.27626306       0.14728364       0.25085442 </v>
  </varray>
  <varray name="stress" >
   <v>       6.57508057       0.00000000       0.00000000 </v>
   <v>       0.00000000       4.72811907       0.00000000 </v>
   <v>       0.00000000       0.00000000      12.98299077 </v>
  </varray>
  <energy>
   <i name="e_fr_energy">    -68.60770261 </i>
   <i name="e_wo_entrp">    -68.60770261 </i>
   <i name="e_0_energy">     -0.00000000 </i>
  </energy>
  <time name="totalsc">    2.12    2.32</time>
 </calculation>
 <calculation>
  <scstep>
   <time name="dav">    0.27    0.28</time>
   <time name="total">    0.42    0.51</time>
   <energy>
    <i name="alphaZ">     90.04444073 </i>
    <i name="ewald">  -2165.34370055 </i>
    <i name="hartreedc">   -412.00851225 </i>
    <i name="XCdc">      9.64099382 </i>
    <i name="pawpsdc">   5649.95710256 </i>
    <i name="pawaedc">  -5510.34724587 </i>
    <i name="eentropy">     -0.00000000 </i>
    <i name="bandstr">   -201.74864698 </i>
    <i name="atom">   2471.19760440 </i>
    <i name="e_fr_energy">    -68.60796414 </i>
    <i name="e_wo_entrp">    -68.60796414 </i>
    <i name="e_0_energy">    -68.60796414 </i>
   </energy>
  </scstep>
  <scstep>
   <time name="dav">    0.30    0.30</time>
   <time name="total">    0.46    0.46</time>
   <energy>
    <i name="e_fr_energy">    -68.60774886 </i>
    <i name="e_wo_entrp">    -68.60774886 </i>
    <i name="e_0_energy">    -68.60774886 </i>
   </energy>
  </scstep>
  <scstep>
   <time name="dav">    0.19    0.19</time>
   <time name="total">    0.33    0.34</time>
   <energy>
    <i name="alphaZ">     90.04444073 </i>
    <i name="ewald">  -2165.34370055 </i>
    <i name="hartreedc">   -412.45088939 </i>
    <i name="XCdc">      9.66485007 </i>
    <i name="pawpsdc">   5640.11144851 </i>
    <i name="pawaedc">  -5500.49906851 </i>
    <i name="eentropy">     -0.00000000 </i>
    <i name="bandstr">   -201.33239760 </i>
    <i name="atom">   2471.19760440 </i>
    <i name="e_fr_energy">    -68.60771233 </i>
    <i name="e_wo_entrp">    -68.60771233 </i>
    <i name="e_0_energy">    -68.60771233 </i>
   </energy>
  </scstep>
  <structure>
   <crystal>
    <varray name="basis" >
     <v>       6.24518893       0.00000000       0.00000000 </v>
     <v>       0.00000000       6.62062944       0.00000000 </v>
     <v>       0.00000000       0.00000000       7.72833201 </v>
    </varray>
    <i name="volume">    319.54397483 </i>
    <varray name="rec_basis" >
     <v>       0.16012326       0.00000000       0.00000000 </v>
     <v>       0.00000000       0.15104304       0.00000000 </v>
     <v>       0.00000000       0.00000000       0.12939403 </v>
    </varray>
   </crystal>
   <varray name="positions" >
    <v>       0.56687702       0.58553303       0.12251769 </v>
    <v>       0.06687702       0.41446697       0.87748231 </v>
    <v>       0.06687702       0.91446697       0.62251769 </v>
    <v>       0.56687702       0.08553303       0.37748231 </v>
    <v>       0.06427802       0.91875532       0.12533318 </v>
    <v>       0.56427802       0.08124468       0.87466682 </v>
    <v>       0.56427802       0.58124468       0.62533318 </v>
    <v>       0.06427802       0.41875532       0.37466682 </v>
    <v>       0.18629536       0.08689898       0.37109986 </v>
    <v>       0.68629536       0.91310102       0.62890014 </v>
    <v>       0.68629536       0.41310102       0.87109986 </v>
    <v>       0.18629536       0.58689898       0.12890014 </v>
    <v>       0.68974959       0.92328994       0.12246072 </v>
    <v>       0.18974959       0.07671006       0.87753928 </v>
    <v>       0.18974959       0.57671006       0.62246072 </v>
    <v>       0.68974959       0.42328994       0.37753928 </v>
   </varray>
  </structure>
  <varray name="forces" >
   <v>       0.00053591       0.00280135       0.02193799 </v>
   <v>       0.00053591      -0.00280135      -0.02193799 </v>
   <v>       0.00053591      -0.00280135       0.02193799 </v>
   <v>       0.00053591       0.00280135      -0.02193799 </v>
   <v>      -0.09249408       0.07634675      -0.02169230 </v>
   <v>      -0.09249408      -0.07634675       0.02169230 </v>
   <v>      -0.09249408      -0.07634675      -0.02169230 </v>
   <v>      -0.09249408       0.07634675       0.02169230 </v>
   <v>      -0.18789141       0.16572750      -0.26385747 </v>
   <v>      -0.18789141      -0.16572750       0.26385747 </v>
   <v>      -0.18789141      -0.16572750      -0.26385747 </v>
   <v>      -0.18789141       0.16572750       0.26385747 </v>
   <v>       0.27984958       0.15043742      -0.26199908 </v>
   <v>       0.27984958      -0.15043742       0.26199908 </v>
   <v>       0.27984958      -0.15043742      -0.26199908 </v>
   <v>       0.27984958       0.15043742       0.26199908 </v>
  </varray>
  <varray name="stress" >
   <v>       5.87043399       0.00000000       0.00000000 </v>
   <v>       0.00000000       3.89844895       0.00000000 </v>
   <v>       0.00000000       0.00000000      11.84883462 </v>
  </varray>
  <energy>
   <i name="e_fr_energy">    -68.60771233 </i>
   <i name="e_wo_entrp">    -68.60771233 </i>
   <i name="e_0_energy">     -0.00000000 </i>
  </energy>
  <time name="totalsc">    1.82    2.04</time>
 </calculation>
 <calculation>
  <scstep>
   <time name="dav">    0.16    0.16</time>
   <time name="total">    0.32    0.36</time>
   <energy>
    <i name="alphaZ">     89.74797535 </i>
    <i name="ewald">  -2161.30221173 </i>
    <i name="hartreedc">   -413.30693428 </i>
    <i name="XCdc">      9.56768799 </i>
    <i name="pawpsdc">   5640.70124778 </i>
    <i name="pawaedc">  -5501.08540766 </i>
    <i name="eentropy">     -0.00000000 </i>
    <i name="bandstr">   -204.15647505 </i>
    <i name="atom">   2471.19760440 </i>
    <i name="e_fr_energy">    -68.63651319 </i>
    <i name="e_wo_entrp">    -68.63651319 </i>
    <i name="e_0_energy">    -68.63651319 </i>
   </energy>
  </scstep>
  <scstep>
   <time name="dav">    0.20    0.21</time>
   <time name="total">    0.36    0.36</time>
   <energy>
    <i name="e_fr_energy">    -68.63673453 </i>
    <i name="e_wo_entrp">    -68.63673453 </i>
    <i name="e_0_energy">    -68.63673453 </i>
   </energy>
  </scstep>
  <scstep>
   <time name="dav">    0.20    0.20</time>
   <time name="total">    0.35    0.35</time>
   <energy>
    <i name="e_fr_energy">    -68.63618758 </i>
    <i name="e_wo_entrp">    -68.63618758 </i>
    <i name="e_0_energy">    -68.63618758 </i>
   </energy>
  </scstep>
  <scstep>
   <time name="dav">    0.29    0.29</time>
   <time name="total">    0.45    0.45</time>
   <energy>
    <i name="e_fr_energy">    -68.63589220 </i>
    <i name="e_wo_entrp">    -68.63589220 </i>
    <i name="e_0_energy">    -68.63589220 </i>
   </energy>
  </scstep>
  <scstep>
   <time name="dav">    0.16    0.17</time>
   <time name="total">    0.31    0.32</time>
   <energy>
    <i name="alphaZ">     89.74797535 </i>
    <i name="ewald">  -2161.30221173 </i>
    <i name="hartreedc">   -414.93593997 </i>
    <i name="XCdc">      9.64067630 </i>
    <i name="pawpsdc">   5641.91729051 </i>
    <i name="pawaedc">  -5502.30378349 </i>
    <i name="eentropy">     -0.00000000 </i>
    <i name="bandstr">   -202.59749925 </i>
    <i name="atom">   2471.19760440 </i>
    <i name="e_fr_energy">    -68.63588789 </i>
    <i name="e_wo_entrp">    -68.63588789 </i>
    <i name="e_0_energy">    -68.63588789 </i>
   </energy>
  </scstep>
  <structure>
   <crystal>
    <varray name="basis" >
     <v>       6.25035266       0.00000000       0.00000000 </v>
     <v>       0.00000000       6.62308793       0.00000000 </v>
     <v>       0.00000000       0.00000000       7.74457937 </v>
    </varray>
    <i name="volume">    320.59952762 </i>
    <varray name="rec_basis" >
     <v>       0.15999097       0.00000000       0.00000000 </v>
     <v>       0.00000000       0.15098697       0.00000000 </v>
     <v>       0.00000000       0.00000000       0.12912257 </v>
    </varray>
   </crystal>
   <varray name="positions" >
    <v>       0.56687905       0.58554273       0.12256877 </v>
    <v>       0.06687905       0.41445727       0.87743123 </v>
    <v>       0.06687905       0.91445727       0.62256877 </v>
    <v>       0.56687905       0.08554273       0.37743123 </v>
    <v>       0.06402039       0.91895713       0.12528122 </v>
    <v>       0.56402039       0.08104287       0.87471878 </v>
    <v>       0.56402039       0.58104287       0.62528122 </v>
    <v>       0.06402039       0.41895713       0.37471878 </v>
    <v>       0.18570703       0.08737854       0.37044331 </v>
    <v>       0.68570703       0.91262146       0.62955669 </v>
    <v>       0.68570703       0.41262146       0.87044331 </v>
    <v>       0.18570703       0.58737854       0.12955669 </v>
    <v>       0.69059353       0.92372830       0.12180466 </v>
    <v>       0.19059353       0.07627170       0.87819534 </v>
    <v>       0.19059353       0.57627170       0.62180466 </v>
    <v>       0.69059353       0.42372830       0.37819534 </v>
   </varray>
  </structure>
  <varray name="forces" >
   <v>       0.00095493      -0.00178023       0.02089456 </v>
   <v>       0.00095493       0.00178023      -0.02089456 </v>
   <v>       0.00095493       0.00178023       0.02089456 </v>
   <v>       0.00095493      -0.00178023      -0.02089456 </v>
   <v>      -0.07264928       0.09381305      -0.00573455 </v>
   <v>      -0.07264928      -0.09381305       0.00573455 </v>
   <v>      -0.07264928      -0.09381305      -0.00573455 </v>
   <v>      -0.07264928       0.09381305       0.00573455 </v>
   <v>      -0.16227198       0.15967902      -0.23156189 </v>
   <v>      -0.16227198      -0.15967902       0.23156189 </v>
   <v>      -0.16227198      -0.15967902      -0.23156189 </v>
   <v>      -0.16227198       0.15967902       0.23156189 </v>
   <v>       0.23396633       0.14979192      -0.22537042 </v>
   <v>       0.23396633      -0.14979192       0.22537042 </v>
   <v>       0.23396633      -0.14979192      -0.22537042 </v>
   <v>       0.23396633       0.14979192       0.22537042 </v>
  </varray>
  <varray name="stress" >
   <v>       5.40971278       0.00000000       0.00000000 </v>
   <v>       0.00000000       2.32517988       0.00000000 </v>
   <v>       0.00000000       0.00000000       9.81859346 </v>
  </varray>
  <energy>
   <i name="e_fr_energy">    -68.63588789 </i>
   <i name="e_wo_entrp">    -68.63588789 </i>
   <i name="e_0_energy">     -0.00000000 </i>
  </energy>
  <time name="totalsc">    2.36    2.51</time>
 </calculation>
 <calculation>
  <scstep>
   <time name="dav">    0.19    0.19</time>
   <time name="total">    0.35    0.42</time>
   <energy>
    <i name="alphaZ">     88.86720004 </i>
    <i name="ewald">  -2149.01282677 </i>
    <i name="hartreedc">   -417.63627254 </i>
    <i name="XCdc">      9.35193891 </i>
    <i name="pawpsdc">   5646.29584283 </i>
    <i name="pawaedc">  -5506.67928862 </i>
    <i name="eentropy">     -0.00000000 </i>
    <i name="bandstr">   -211.08472910 </i>
    <i name="atom">   2471.19760440 </i>
    <i name="e_fr_energy">    -68.70053084 </i>
    <i name="e_wo_entrp">    -68.70053084 </i>
    <i name="e_0_energy">    -68.70053084 </i>
   </energy>
  </scstep>
  <scstep>
   <time name="dav">    0.35    0.35</time>
   <time name="total">    0.51    0.52</time>
   <energy>
    <i name="e_fr_energy">    -68.70332559 </i>
    <i name="e_wo_entrp">    -68.70332559 </i>
    <i name="e_0_energy">    -68.70332559 </i>
   </energy>
  </scstep>
  <scstep>
   <time name="dav">    0.29    0.29</time>
   <time name="total">    0.45    0.45</time>
   <energy>
    <i name="e_fr_energy">    -68.69853048 </i>
    <i name="e_wo_entrp">    -68.69853048 </i>
    <i name="e_0_energy">    -68.69853048 </i>
   </energy>
  </scstep>
  <scstep>
   <time name="dav">    0.34    0.35</time>
   <time name="total">    0.50    0.51</time>
   <energy>
    <i name="e_fr_energy">    -68.69587731 </i>
    <i name="e_wo_entrp">    -68.69587731 </i>
    <i name="e_0_energy">    -68.69587731 </i>
   </energy>
  </scstep>
  <scstep>
   <time name="dav">    0.29    0.29</time>
   <time name="total">    0.44    0.45</time>
   <energy>
    <i name="alphaZ">     88.86720004 </i>
    <i name="ewald">  -2149.01282677 </i>
    <i name="hartreedc">   -422.52546401 </i>
    <i name="XCdc">      9.57547927 </i>
    <i name="pawpsdc">   5646.25335343 </i>
    <i name="pawaedc">  -5506.65584778 </i>
    <i name="eentropy">     -0.00000000 </i>
    <i name="bandstr">   -206.39538649 </i>
    <i name="atom">   2471.19760440 </i>
    <i name="e_fr_energy">    -68.69588790 </i>
    <i name="e_wo_entrp">    -68.69588790 </i>
    <i name="e_0_energy">    -68.69588790 </i>
   </energy>
  </scstep>
  <structure>
   <crystal>
    <varray name="basis" >
     <v>       6.26584386       0.00000000       0.00000000 </v>
     <v>       0.00000000       6.63046341       0.00000000 </v>
     <v>       0.00000000       0.00000000       7.79332146 </v>
    </varray>
    <i name="volume">    323.77703458 </i>
    <varray name="rec_basis" >
     <v>       0.15959542       0.00000000       0.00000000 </v>
     <v>       0.00000000       0.15081902       0.00000000 </v>
     <v>       0.00000000       0.00000000       0.12831499 </v>
    </varray>
   </crystal>
   <varray name="positions" >
    <v>       0.56688513       0.58557182       0.12272170 </v>
    <v>       0.06688513       0.41442818       0.87727830 </v>
    <v>       0.06688513       0.91442818       0.62272170 </v>
    <v>       0.56688513       0.08557182       0.37727830 </v>
    <v>       0.06324814       0.91956234       0.12512565 </v>
    <v>       0.56324814       0.08043766       0.87487435 </v>
    <v>       0.56324814       0.58043766       0.62512565 </v>
    <v>       0.06324814       0.41956234       0.37487435 </v>
    <v>       0.18394348       0.08881670       0.36847779 </v>
    <v>       0.68394348       0.91118330       0.63152221 </v>
    <v>       0.68394348       0.41118330       0.86847779 </v>
    <v>       0.18394348       0.58881670       0.13152221 </v>
    <v>       0.69312324       0.92504289       0.11984062 </v>
    <v>       0.19312324       0.07495711       0.88015938 </v>
    <v>       0.19312324       0.57495711       0.61984062 </v>
    <v>       0.69312324       0.42504289       0.38015938 </v>
   </varray>
  </structure>
  <varray name="forces" >
   <v>       0.00734166      -0.01547265       0.01881845 </v>
   <v>       0.00734166       0.01547265      -0.01881845 </v>
   <v>       0.00734166       0.01547265       0.01881845 </v>
   <v>       0.00734166      -0.01547265      -0.01881845 </v>
   <v>       0.02029534       0.09711023       0.02553015 </v>
   <v>       0.02029534      -0.09711023      -0.02553015 </v>
   <v>       0.02029534      -0.09711023       0.02553015 </v>
   <v>       0.02029534       0.09711023      -0.02553015 </v>
   <v>      -0.11812087       0.10726601      -0.14908037 </v>
   <v>      -0.11812087      -0.10726601       0.14908037 </v>
   <v>      -0.11812087      -0.10726601      -0.14908037 </v>
   <v>      -0.11812087       0.10726601       0.14908037 </v>
   <v>       0.09048387       0.11123502      -0.10536850 </v>
   <v>       0.09048387      -0.11123502       0.10536850 </v>
   <v>       0.09048387      -0.11123502      -0.10536850 </v>
   <v>       0.09048387       0.11123502       0.10536850 </v>
  </varray>
  <varray name="stress" >
   <v>       8.08497048       0.00000000       0.00000000 </v>
   <v>       0.00000000       1.05202701       0.00000000 </v>
   <v>       0.00000000       0.00000000       6.43069196 </v>
  </varray>
  <energy>
   <i name="e_fr_energy">    -68.69588790 </i>
   <i name="e_wo_entrp">    -68.69588790 </i>
   <i name="e_0_energy">     -0.00000000 </i>
  </energy>
  <time name="totalsc">    2.86    3.13</time>
 </calculation>
 <calculation>
  <scstep>
   <time name="dav">    0.18    0.18</time>
   <time name="total">    0.34    0.38</time>
   <energy>
    <i name="alphaZ">     87.14359809 </i>
    <i name="ewald">  -2123.72951976 </i>
    <i name="hartreedc">   -428.66996894 </i>
    <i name="XCdc">      9.00229286 </i>
    <i name="pawpsdc">   5658.05294031 </i>
    <i name="pawaedc">  -5518.44759350 </i>
    <i name="eentropy">     -0.00000000 </i>
    <i name="bandstr">   -223.28736234 </i>
    <i name="atom">   2471.19760440 </i>
    <i name="e_fr_energy">    -68.73800889 </i>
    <i name="e_wo_entrp">    -68.73800889 </i>
    <i name="e_0_energy">    -68.73800889 </i>
   </energy>
  </scstep>
  <scstep>
   <time name="dav">    0.34    0.34</time>
   <time name="total">    0.50    0.50</time>
   <energy>
    <i name="e_fr_energy">    -68.75272643 </i>
    <i name="e_wo_entrp">    -68.75272643 </i>
    <i name="e_0_energy">    -68.75272643 </i>
   </energy>
  </scstep>
  <scstep>
   <time name="dav">    0.28    0.28</time>
   <time name="total">    0.44    0.44</time>
   <energy>
    <i name="e_fr_energy">    -68.73338953 </i>
    <i name="e_wo_entrp">    -68.73338953 </i>
    <i name="e_0_energy">    -68.73338953 </i>
   </energy>
  </scstep>
  <scstep>
   <time name="dav">    0.22    0.22</time>
   <time name="total">    0.37    0.38</time>
   <energy>
    <i name="e_fr_energy">    -68.72246507 </i>
    <i name="e_wo_entrp">    -68.72246507 </i>
    <i name="e_0_energy">    -68.72246507 </i>
   </energy>
  </scstep>
  <scstep>
   <time name="dav">    0.21    0.21</time>
   <time name="total">    0.36    0.36</time>
   <energy>
    <i name="e_fr_energy">    -68.72248210 </i>
    <i name="e_wo_entrp">    -68.72248210 </i>
    <i name="e_0_energy">    -68.72248210 </i>
   </energy>
  </scstep>
  <scstep>
   <time name="dav">    0.31    0.31</time>
   <time name="total">    0.47    0.47</time>
   <energy>
    <i name="e_fr_energy">    -68.72237015 </i>
    <i name="e_wo_entrp">    -68.72237015 </i>
    <i name="e_0_energy">    -68.72237015 </i>
   </energy>
  </scstep>
  <scstep>
   <time name="dav">    0.20    0.20</time>
   <time name="total">    0.35    0.35</time>
   <energy>
    <i name="alphaZ">     87.14359809 </i>
    <i name="ewald">  -2123.72951976 </i>
    <i name="hartreedc">   -438.86953811 </i>
    <i name="XCdc">      9.46204443 </i>
    <i name="pawpsdc">   5706.17480182 </i>
    <i name="pawaedc">  -5566.59200015 </i>
    <i name="eentropy">     -0.00000000 </i>
    <i name="bandstr">   -213.50935981 </i>
    <i name="atom">   2471.19760440 </i>
    <i name="e_fr_energy">    -68.72236911 </i>
    <i name="e_wo_entrp">    -68.72236911 </i>
    <i name="e_0_energy">    -68.72236911 </i>
   </energy>
  </scstep>
  <structure>
   <crystal>
    <varray name="basis" >
     <v>       6.29682625       0.00000000       0.00000000 </v>
     <v>       0.00000000       6.64521436       0.00000000 </v>
     <v>       0.00000000       0.00000000       7.89080562 </v>
    </varray>
    <i name="volume">    330.18097868 </i>
    <varray name="rec_basis" >
     <v>       0.15881016       0.00000000       0.00000000 </v>
     <v>       0.00000000       0.15048424       0.00000000 </v>
     <v>       0.00000000       0.00000000       0.12672977 </v>
    </varray>
   </crystal>
   <varray name="positions" >
    <v>       0.56689726       0.58562994       0.12302563 </v>
    <v>       0.06689726       0.41437006       0.87697437 </v>
    <v>       0.06689726       0.91437006       0.62302563 </v>
    <v>       0.56689726       0.08562994       0.37697437 </v>
    <v>       0.06170746       0.92077140       0.12481646 </v>
    <v>       0.56170746       0.07922860       0.87518354 </v>
    <v>       0.56170746       0.57922860       0.62481646 </v>
    <v>       0.06170746       0.42077140       0.37518354 </v>
    <v>       0.18042511       0.09168981       0.36457135 </v>
    <v>       0.68042511       0.90831019       0.63542865 </v>
    <v>       0.68042511       0.40831019       0.86457135 </v>
    <v>       0.18042511       0.59168981       0.13542865 </v>
    <v>       0.69817016       0.92766914       0.11593711 </v>
    <v>       0.19817016       0.07233086       0.88406289 </v>
    <v>       0.19817016       0.57233086       0.61593711 </v>
    <v>       0.69817016       0.42766914       0.38406289 </v>
   </varray>
  </structure>
  <varray name="forces" >
   <v>       0.01044104      -0.03482627       0.01124455 </v>
   <v>       0.01044104       0.03482627      -0.01124455 </v>
   <v>       0.01044104       0.03482627       0.01124455 </v>
   <v>       0.01044104      -0.03482627      -0.01124455 </v>
   <v>       0.27858464       0.17427456       0.05018813 </v>
   <v>       0.27858464      -0.17427456      -0.05018813 </v>
   <v>       0.27858464      -0.17427456       0.05018813 </v>
   <v>       0.27858464       0.17427456      -0.05018813 </v>
   <v>      -0.03037859      -0.00296730       0.00405088 </v>
   <v>      -0.03037859       0.00296730      -0.00405088 </v>
   <v>      -0.03037859       0.00296730       0.00405088 </v>
   <v>      -0.03037859      -0.00296730      -0.00405088 </v>
   <v>      -0.25864709       0.09286409       0.04448173 </v>
   <v>      -0.25864709      -0.09286409      -0.04448173 </v>
   <v>      -0.25864709      -0.09286409       0.04448173 </v>
   <v>      -0.25864709       0.09286409      -0.04448173 </v>
  </varray>
  <varray name="stress" >
   <v>       9.85701374       0.00000000       0.00000000 </v>
   <v>       0.00000000      -2.28815824       0.00000000 </v>
   <v>       0.00000000       0.00000000      -1.29390465 </v>
  </varray>
  <energy>
   <i name="e_fr_energy">    -68.72236911 </i>
   <i name="e_wo_entrp">    -68.72236911 </i>
   <i name="e_0_energy">     -0.00000000 </i>
  </energy>
  <time name="totalsc">    3.39    3.57</time>
 </calculation>
 <calculation>
  <scstep>
   <time name="dav">    0.26    0.27</time>
   <time name="total">    0.43    0.48</time>
   <energy>
    <i name="alphaZ">     87.54577345 </i>
    <i name="ewald">  -2129.76014071 </i>
    <i name="hartreedc">   -437.35814513 </i>
    <i name="XCdc">      9.59441599 </i>
    <i name="pawpsdc">   5713.62899737 </i>
    <i name="pawaedc">  -5574.04441871 </i>
    <i name="eentropy">     -0.00000000 </i>
    <i name="bandstr">   -209.53235140 </i>
    <i name="atom">   2471.19760440 </i>
    <i name="e_fr_energy">    -68.72826474 </i>
    <i name="e_wo_entrp">    -68.72826474 </i>
    <i name="e_0_energy">    -68.72826474 </i>
   </energy>
  </scstep>
  <scstep>
   <time name="dav">    0.34    0.34</time>
   <time name="total">    0.49    0.50</time>
   <energy>
    <i name="e_fr_energy">    -68.72853637 </i>
    <i name="e_wo_entrp">    -68.72853637 </i>
    <i name="e_0_energy">    -68.72853637 </i>
   </energy>
  </scstep>
  <scstep>
   <time name="dav">    0.35    0.37</time>
   <time name="total">    0.51    0.53</time>
   <energy>
    <i name="e_fr_energy">    -68.72746487 </i>
    <i name="e_wo_entrp">    -68.72746487 </i>
    <i name="e_0_energy">    -68.72746487 </i>
   </energy>
  </scstep>
  <scstep>
   <time name="dav">    0.31    0.32</time>
   <time name="total">    0.47    0.48</time>
   <energy>
    <i name="e_fr_energy">    -68.72693479 </i>
    <i name="e_wo_entrp">    -68.72693479 </i>
    <i name="e_0_energy">    -68.72693479 </i>
   </energy>
  </scstep>
  <scstep>
   <time name="dav">    0.22    0.22</time>
   <time name="total">    0.36    0.37</time>
   <energy>
    <i name="alphaZ">     87.54577345 </i>
    <i name="ewald">  -2129.76014071 </i>
    <i name="hartreedc">   -435.01417767 </i>
    <i name="XCdc">      9.49068351 </i>
    <i name="pawpsdc">   5716.68323137 </i>
    <i name="pawaedc">  -5577.08874128 </i>
    <i name="eentropy">     -0.00000000 </i>
    <i name="bandstr">   -211.78117951 </i>
    <i name="atom">   2471.19760440 </i>
    <i name="e_fr_energy">    -68.72694644 </i>
    <i name="e_wo_entrp">    -68.72694644 </i>
    <i name="e_0_energy">    -68.72694644 </i>
   </energy>
  </scstep>
  <structure>
   <crystal>
    <varray name="basis" >
     <v>       6.28951638       0.00000000       0.00000000 </v>
     <v>       0.00000000       6.64173407       0.00000000 </v>
     <v>       0.00000000       0.00000000       7.86780556 </v>
    </varray>
    <i name="volume">    328.66416468 </i>
    <varray name="rec_basis" >
     <v>       0.15899474       0.00000000       0.00000000 </v>
     <v>       0.00000000       0.15056309       0.00000000 </v>
     <v>       0.00000000       0.00000000       0.12710024 </v>
    </varray>
   </crystal>
   <varray name="positions" >
    <v>       0.56689442       0.58561626       0.12295481 </v>
    <v>       0.06689442       0.41438374       0.87704519 </v>
    <v>       0.06689442       0.91438374       0.62295481 </v>
    <v>       0.56689442       0.08561626       0.37704519 </v>
    <v>       0.06206918       0.92048677       0.12488851 </v>
    <v>       0.56206918       0.07951323       0.87511149 </v>
    <v>       0.56206918       0.57951323       0.62488851 </v>
    <v>       0.06206918       0.42048677       0.37511149 </v>
    <v>       0.18125114       0.09101344       0.36548164 </v>
    <v>       0.68125114       0.90898656       0.63451836 </v>
    <v>       0.68125114       0.40898656       0.86548164 </v>
    <v>       0.18125114       0.59101344       0.13451836 </v>
    <v>       0.69698527       0.92705088       0.11684671 </v>
    <v>       0.19698527       0.07294912       0.88315329 </v>
    <v>       0.19698527       0.57294912       0.61684671 </v>
    <v>       0.69698527       0.42705088       0.38315329 </v>
   </varray>
  </structure>
  <varray name="forces" >
   <v>       0.00791809      -0.03066089       0.01176486 </v>
   <v>       0.00791809       0.03066089      -0.01176486 </v>
   <v>       0.00791809       0.03066089       0.01176486 </v>
   <v>       0.00791809      -0.03066089      -0.01176486 </v>
   <v>       0.24141163       0.15645637       0.04621835 </v>
   <v>       0.24141163      -0.15645637      -0.04621835 </v>
   <v>       0.24141163      -0.15645637       0.04621835 </v>
   <v>       0.24141163       0.15645637      -0.04621835 </v>
   <v>      -0.06054004       0.01032165      -0.03839848 </v>
   <v>      -0.06054004      -0.01032165       0.03839848 </v>
   <v>      -0.06054004      -0.01032165      -0.03839848 </v>
   <v>      -0.06054004       0.01032165       0.03839848 </v>
   <v>      -0.18878968       0.09978325       0.02991071 </v>
   <v>      -0.18878968      -0.09978325      -0.02991071 </v>
   <v>      -0.18878968      -0.09978325       0.02991071 </v>
   <v>      -0.18878968       0.09978325      -0.02991071 </v>
  </varray>
  <varray name="stress" >
   <v>       8.83003858       0.00000000       0.00000000 </v>
   <v>       0.00000000      -1.79384139       0.00000000 </v>
   <v>       0.00000000       0.00000000      -0.58668260 </v>
  </varray>
  <energy>
   <i name="e_fr_energy">    -68.72694644 </i>
   <i name="e_wo_entrp">    -68.72694644 </i>
   <i name="e_0_energy">     -0.00000000 </i>
  </energy>
  <time name="totalsc">    2.84    3.14</time>
 </calculation>
 <calculation>
  <scstep>
   <time name="dav">    0.17    0.17</time>
   <time name="total">    0.33    0.38</time>
   <energy>
    <i name="alphaZ">     86.89665658 </i>
    <i name="ewald">  -2122.41832882 </i>
    <i name="hartreedc">   -435.56739429 </i>
    <i name="XCdc">      9.23330820 </i>
    <i name="pawpsdc">   5709.88575820 </i>
    <i name="pawaedc">  -5570.29481269 </i>
    <i name="eentropy">     -0.00000000 </i>
    <i name="bandstr">   -217.68601790 </i>
    <i name="atom">   2471.19760440 </i>
    <i name="e_fr_energy">    -68.75322631 </i>
    <i name="e_wo_entrp">    -68.75322631 </i>
    <i name="e_0_energy">    -68.75322631 </i>
   </energy>
  </scstep>
  <scstep>
   <time name="dav">    0.26    0.26</time>
   <time name="total">    0.42    0.42</time>
   <energy>
    <i name="e_fr_energy">    -68.74900734 </i>
    <i name="e_wo_entrp">    -68.74900734 </i>
    <i name="e_0_energy">    -68.74900734 </i>
   </energy>
  </scstep>
  <scstep>
   <time name="dav">    0.28    0.29</time>
   <time name="total">    0.44    0.45</time>
   <energy>
    <i name="e_fr_energy">    -68.74594433 </i>
    <i name="e_wo_entrp">    -68.74594433 </i>
    <i name="e_0_energy">    -68.74594433 </i>
   </energy>
  </scstep>
  <scstep>
   <time name="dav">    0.33    0.33</time>
   <time name="total">    0.49    0.49</time>
   <energy>
    <i name="e_fr_energy">    -68.74452687 </i>
    <i name="e_wo_entrp">    -68.74452687 </i>
    <i name="e_0_energy">    -68.74452687 </i>
   </energy>
  </scstep>
  <scstep>
   <time name="dav">    0.22    0.22</time>
   <time name="total">    0.36    0.36</time>
   <energy>
    <i name="alphaZ">     86.89665658 </i>
    <i name="ewald">  -2122.41832882 </i>
    <i name="hartreedc">   -439.04530357 </i>
    <i name="XCdc">      9.39013362 </i>
    <i name="pawpsdc">   5669.20169344 </i>
    <i name="pawaedc">  -5529.59879815 </i>
    <i name="eentropy">     -0.00000000 </i>
    <i name="bandstr">   -214.36814021 </i>
    <i name="atom">   2471.19760440 </i>
    <i name="e_fr_energy">    -68.74448271 </i>
    <i name="e_wo_entrp">    -68.74448271 </i>
    <i name="e_0_energy">    -68.74448271 </i>
   </energy>
  </scstep>
  <structure>
   <crystal>
    <varray name="basis" >
     <v>       6.32682169       0.00000000       0.00000000 </v>
     <v>       0.00000000       6.63788852       0.00000000 </v>
     <v>       0.00000000       0.00000000       7.88440495 </v>
    </varray>
    <i name="volume">    331.11928161 </i>
    <varray name="rec_basis" >
     <v>       0.15805724       0.00000000       0.00000000 </v>
     <v>       0.00000000       0.15065032       0.00000000 </v>
     <v>       0.00000000       0.00000000       0.12683265 </v>
    </varray>
   </crystal>
   <varray name="positions" >
    <v>       0.56695204       0.58542475       0.12307871 </v>
    <v>       0.06695204       0.41457525       0.87692129 </v>
    <v>       0.06695204       0.91457525       0.62307871 </v>
[...]
        <r>  0.0007  0.0460  0.0000 </r>
       </set>
       <set comment="band 17">
        <r>  0.0013  0.0031  0.0000 </r>
        <r>  0.0058  0.0039  0.0000 </r>
        <r>  0.0022  0.0015  0.0000 </r>
        <r>  0.0002  0.0043  0.0000 </r>
        <r>  0.0049  0.0061  0.0018 </r>
        <r>  0.0022  0.0293  0.0035 </r>
        <r>  0.0049  0.0624  0.0021 </r>
        <r>  0.0011  0.0186  0.0021 </r>
        <r>  0.0008  0.0165  0.0000 </r>
        <r>  0.0042  0.0717  0.0000 </r>
        <r>  0.0008  0.0935  0.0000 </r>
        <r>  0.0001  0.0389  0.0000 </r>
        <r>  0.0048  0.0494  0.0000 </r>
        <r>  0.0018  0.0207  0.0000 </r>
        <r>  0.0005  0.0581  0.0000 </r>
        <r>  0.0005  0.0248  0.0000 </r>
       </set>
       <set comment="band 18">
        <r>  0.0028  0.0027  0.0000 </r>
        <r>  0.0023  0.0007  0.0000 </r>
        <r>  0.0074  0.0018  0.0000 </r>
        <r>  0.0004  0.0018  0.0000 </r>
        <r>  0.0018  0.0445  0.0059 </r>
        <r>  0.0002  0.0501  0.0043 </r>
        <r>  0.0035  0.0132  0.0029 </r>
        <r>  0.0015  0.0217  0.0043 </r>
        <r>  0.0004  0.0421  0.0000 </r>
        <r>  0.0010  0.1119  0.0000 </r>
        <r>  0.0034  0.0143  0.0000 </r>
        <r>  0.0000  0.0416  0.0000 </r>
        <r>  0.0005  0.0730  0.0000 </r>
        <r>  0.0004  0.0489  0.0000 </r>
        <r>  0.0025  0.0107  0.0000 </r>
        <r>  0.0018  0.0529  0.0000 </r>
       </set>
       <set comment="band 19">
        <r>  0.0015  0.0011  0.0000 </r>
        <r>  0.0040  0.0024  0.0000 </r>
        <r>  0.0025  0.0038  0.0000 </r>
        <r>  0.0032  0.0033  0.0000 </r>
        <r>  0.0021  0.0418  0.0025 </r>
        <r>  0.0070  0.0174  0.0036 </r>
        <r>  0.0028  0.0331  0.0054 </r>
        <r>  0.0017  0.0171  0.0046 </r>
        <r>  0.0002  0.0524  0.0000 </r>
        <r>  0.0024  0.0057  0.0000 </r>
        <r>  0.0010  0.0562  0.0000 </r>
        <r>  0.0022  0.0349  0.0000 </r>
        <r>  0.0022  0.0221  0.0000 </r>
        <r>  0.0024  0.1098  0.0000 </r>
        <r>  0.0003  0.0354  0.0000 </r>
        <r>  0.0011  0.0857  0.0000 </r>
       </set>
       <set comment="band 20">
        <r>  0.0043  0.0019  0.0000 </r>
        <r>  0.0037  0.0028  0.0000 </r>
        <r>  0.0023  0.0037  0.0000 </r>
        <r>  0.0027  0.0021  0.0000 </r>
        <r>  0.0033  0.0303  0.0033 </r>
        <r>  0.0010  0.0260  0.0076 </r>
        <r>  0.0029  0.0172  0.0026 </r>
        <r>  0.0009  0.0354  0.0043 </r>
        <r>  0.0022  0.0553  0.0000 </r>
        <r>  0.0003  0.0488  0.0000 </r>
        <r>  0.0001  0.0529  0.0000 </r>
        <r>  0.0005  0.0691  0.0000 </r>
        <r>  0.0001  0.0426  0.0000 </r>
        <r>  0.0004  0.0614  0.0000 </r>
        <r>  0.0017  0.0792  0.0000 </r>
        <r>  0.0018  0.0098  0.0000 </r>
       </set>
       <set comment="band 21">
        <r>  0.0037  0.0023  0.0000 </r>
        <r>  0.0003  0.0076  0.0000 </r>
        <r>  0.0003  0.0023  0.0000 </r>
        <r>  0.0002  0.0022  0.0000 </r>
        <r>  0.0002  0.0142  0.0035 </r>
        <r>  0.0004  0.0308  0.0036 </r>
        <r>  0.0006  0.0359  0.0049 </r>
        <r>  0.0033  0.0405  0.0033 </r>
        <r>  0.0018  0.0392  0.0000 </r>
        <r>  0.0003  0.0360  0.0000 </r>
        <r>  0.0000  0.0503  0.0000 </r>
        <r>  0.0009  0.0764  0.0000 </r>
        <r>  0.0008  0.0718  0.0000 </r>
        <r>  0.0003  0.0198  0.0000 </r>
        <r>  0.0035  0.0797  0.0000 </r>
        <r>  0.0005  0.0445  0.0000 </r>
       </set>
       <set comment="band 22">
        <r>  0.0033  0.0021  0.0000 </r>
        <r>  0.0025  0.0006  0.0000 </r>
        <r>  0.0016  0.0018  0.0000 </r>
        <r>  0.0071  0.0014  0.0000 </r>
        <r>  0.0009  0.0504  0.0066 </r>
        <r>  0.0012  0.0232  0.0059 </r>
        <r>  0.0001  0.0290  0.0066 </r>
        <r>  0.0021  0.0187  0.0044 </r>
        <r>  0.0010  0.1360  0.0000 </r>
        <r>  0.0003  0.0304  0.0000 </r>
        <r>  0.0003  0.0671  0.0000 </r>
        <r>  0.0003  0.0515  0.0000 </r>
        <r>  0.0002  0.0432  0.0000 </r>
        <r>  0.0001  0.0424  0.0000 </r>
        <r>  0.0003  0.0132  0.0000 </r>
        <r>  0.0001  0.0617  0.0000 </r>
       </set>
       <set comment="band 23">
        <r>  0.0067  0.0031  0.0000 </r>
        <r>  0.0045  0.0009  0.0000 </r>
        <r>  0.0044  0.0038  0.0000 </r>
        <r>  0.0010  0.0011  0.0000 </r>
        <r>  0.0003  0.0297  0.0065 </r>
        <r>  0.0002  0.0325  0.0060 </r>
        <r>  0.0006  0.0079  0.0028 </r>
        <r>  0.0018  0.0264  0.0051 </r>
        <r>  0.0010  0.0411  0.0000 </r>
        <r>  0.0001  0.0376  0.0000 </r>
        <r>  0.0002  0.0338  0.0000 </r>
        <r>  0.0004  0.0635  0.0000 </r>
        <r>  0.0004  0.1127  0.0000 </r>
        <r>  0.0000  0.0641  0.0000 </r>
        <r>  0.0003  0.0528  0.0000 </r>
        <r>  0.0001  0.0442  0.0000 </r>
       </set>
       <set comment="band 24">
        <r>  0.0017  0.0013  0.0000 </r>
        <r>  0.0040  0.0012  0.0000 </r>
        <r>  0.0060  0.0013  0.0000 </r>
        <r>  0.0067  0.0021  0.0000 </r>
        <r>  0.0003  0.0162  0.0045 </r>
        <r>  0.0001  0.0159  0.0027 </r>
        <r>  0.0005  0.0328  0.0074 </r>
        <r>  0.0002  0.0411  0.0070 </r>
        <r>  0.0002  0.0215  0.0000 </r>
        <r>  0.0001  0.0274  0.0000 </r>
        <r>  0.0001  0.0220  0.0000 </r>
        <r>  0.0001  0.0440  0.0000 </r>
        <r>  0.0001  0.0393  0.0000 </r>
        <r>  0.0003  0.0501  0.0000 </r>
        <r>  0.0000  0.1029  0.0000 </r>
        <r>  0.0008  0.1515  0.0000 </r>
       </set>
       <set comment="band 25">
        <r>  0.0001  0.0031  0.0000 </r>
        <r>  0.0008  0.0059  0.0000 </r>
        <r>  0.0012  0.0072  0.0000 </r>
        <r>  0.0010  0.0039  0.0000 </r>
        <r>  0.0003  0.0228  0.0073 </r>
        <r>  0.0008  0.0106  0.0045 </r>
        <r>  0.0008  0.0074  0.0038 </r>
        <r>  0.0006  0.0277  0.0066 </r>
        <r>  0.0014  0.0617  0.0000 </r>
        <r>  0.0007  0.0609  0.0000 </r>
        <r>  0.0006  0.0523  0.0000 </r>
        <r>  0.0007  0.0349  0.0000 </r>
        <r>  0.0003  0.0177  0.0000 </r>
        <r>  0.0010  0.1047  0.0000 </r>
        <r>  0.0012  0.0826  0.0000 </r>
        <r>  0.0004  0.0418  0.0000 </r>
       </set>
       <set comment="band 26">
        <r>  0.0000  0.0062  0.0000 </r>
        <r>  0.0008  0.0020  0.0000 </r>
        <r>  0.0009  0.0022  0.0000 </r>
        <r>  0.0003  0.0082  0.0000 </r>
        <r>  0.0008  0.0079  0.0035 </r>
        <r>  0.0001  0.0333  0.0065 </r>
        <r>  0.0004  0.0273  0.0062 </r>
        <r>  0.0007  0.0066  0.0044 </r>
        <r>  0.0006  0.0198  0.0000 </r>
        <r>  0.0012  0.1154  0.0000 </r>
        <r>  0.0012  0.1090  0.0000 </r>
        <r>  0.0004  0.0449  0.0000 </r>
        <r>  0.0011  0.0773  0.0000 </r>
        <r>  0.0008  0.0293  0.0000 </r>
        <r>  0.0005  0.0283  0.0000 </r>
        <r>  0.0008  0.0407  0.0000 </r>
       </set>
       <set comment="band 27">
        <r>  0.0006  0.0074  0.0000 </r>
        <r>  0.0023  0.0034  0.0000 </r>
        <r>  0.0007  0.0046  0.0000 </r>
        <r>  0.0031  0.0039  0.0000 </r>
        <r>  0.0008  0.0152  0.0105 </r>
        <r>  0.0002  0.0052  0.0046 </r>
        <r>  0.0001  0.0104  0.0045 </r>
        <r>  0.0004  0.0107  0.0039 </r>
        <r>  0.0004  0.1235  0.0000 </r>
        <r>  0.0002  0.0275  0.0000 </r>
        <r>  0.0005  0.0531  0.0000 </r>
        <r>  0.0002  0.0674  0.0000 </r>
        <r>  0.0003  0.0630  0.0000 </r>
        <r>  0.0004  0.0559  0.0000 </r>
        <r>  0.0003  0.0283  0.0000 </r>
        <r>  0.0014  0.0642  0.0000 </r>
       </set>
       <set comment="band 28">
        <r>  0.0036  0.0056  0.0000 </r>
        <r>  0.0001  0.0057  0.0000 </r>
        <r>  0.0004  0.0053  0.0000 </r>
        <r>  0.0025  0.0084  0.0000 </r>
        <r>  0.0001  0.0064  0.0039 </r>
        <r>  0.0001  0.0055  0.0046 </r>
        <r>  0.0003  0.0051  0.0036 </r>
        <r>  0.0003  0.0031  0.0058 </r>
        <r>  0.0001  0.0293  0.0000 </r>
        <r>  0.0001  0.1119  0.0000 </r>
        <r>  0.0001  0.0541  0.0000 </r>
        <r>  0.0005  0.0902  0.0000 </r>
        <r>  0.0002  0.0986  0.0000 </r>
        <r>  0.0006  0.0379  0.0000 </r>
        <r>  0.0004  0.0247  0.0000 </r>
        <r>  0.0001  0.0422  0.0000 </r>
       </set>
       <set comment="band 29">
        <r>  0.0010  0.0065  0.0000 </r>
        <r>  0.0012  0.0107  0.0000 </r>
        <r>  0.0011  0.0040  0.0000 </r>
        <r>  0.0004  0.0056  0.0000 </r>
        <r>  0.0003  0.0041  0.0038 </r>
        <r>  0.0002  0.0097  0.0025 </r>
        <r>  0.0010  0.0067  0.0066 </r>
        <r>  0.0003  0.0032  0.0020 </r>
        <r>  0.0000  0.0171  0.0000 </r>
        <r>  0.0002  0.0358  0.0000 </r>
        <r>  0.0009  0.0517  0.0000 </r>
        <r>  0.0003  0.0807  0.0000 </r>
        <r>  0.0003  0.0522  0.0000 </r>
        <r>  0.0002  0.0624  0.0000 </r>
        <r>  0.0002  0.0909  0.0000 </r>
        <r>  0.0002  0.1102  0.0000 </r>
       </set>
       <set comment="band 30">
        <r>  0.0004  0.0117  0.0000 </r>
        <r>  0.0002  0.0037  0.0000 </r>
        <r>  0.0005  0.0037  0.0000 </r>
        <r>  0.0007  0.0062  0.0000 </r>
        <r>  0.0001  0.0037  0.0032 </r>
        <r>  0.0008  0.0048  0.0068 </r>
        <r>  0.0002  0.0050  0.0025 </r>
        <r>  0.0004  0.0049  0.0055 </r>
        <r>  0.0003  0.0816  0.0000 </r>
        <r>  0.0002  0.0541  0.0000 </r>
        <r>  0.0002  0.0667  0.0000 </r>
        <r>  0.0001  0.1047  0.0000 </r>
        <r>  0.0000  0.1076  0.0000 </r>
        <r>  0.0003  0.0257  0.0000 </r>
        <r>  0.0002  0.0431  0.0000 </r>
        <r>  0.0000  0.0259  0.0000 </r>
       </set>
       <set comment="band 31">
        <r>  0.0002  0.0010  0.0000 </r>
        <r>  0.0002  0.0087  0.0000 </r>
        <r>  0.0009  0.0104  0.0000 </r>
        <r>  0.0002  0.0046  0.0000 </r>
        <r>  0.0003  0.0056  0.0027 </r>
        <r>  0.0002  0.0045  0.0046 </r>
        <r>  0.0004  0.0041  0.0056 </r>
        <r>  0.0003  0.0062  0.0072 </r>
        <r>  0.0002  0.0932  0.0000 </r>
        <r>  0.0005  0.0438  0.0000 </r>
        <r>  0.0000  0.0255  0.0000 </r>
        <r>  0.0001  0.0421  0.0000 </r>
        <r>  0.0002  0.0227  0.0000 </r>
        <r>  0.0000  0.1197  0.0000 </r>
        <r>  0.0002  0.1113  0.0000 </r>
        <r>  0.0000  0.0546  0.0000 </r>
       </set>
       <set comment="band 32">
        <r>  0.0003  0.0067  0.0000 </r>
        <r>  0.0004  0.0060  0.0000 </r>
        <r>  0.0002  0.0079  0.0000 </r>
        <r>  0.0001  0.0068  0.0000 </r>
        <r>  0.0003  0.0014  0.0038 </r>
        <r>  0.0004  0.0019  0.0027 </r>
        <r>  0.0003  0.0032  0.0042 </r>
        <r>  0.0002  0.0009  0.0025 </r>
        <r>  0.0000  0.0628  0.0000 </r>
        <r>  0.0001  0.0973  0.0000 </r>
        <r>  0.0000  0.1100  0.0000 </r>
        <r>  0.0000  0.0226  0.0000 </r>
        <r>  0.0002  0.0395  0.0000 </r>
        <r>  0.0001  0.0620  0.0000 </r>
        <r>  0.0001  0.0576  0.0000 </r>
        <r>  0.0001  0.0651  0.0000 </r>
       </set>
       <set comment="band 33">
        <r>  0.0000  0.0036  0.0000 </r>
        <r>  0.0005  0.0044  0.0000 </r>
        <r>  0.0001  0.0051  0.0000 </r>
        <r>  0.0002  0.0028  0.0000 </r>
        <r>  0.1150  0.0098  0.0035 </r>
        <r>  0.0099  0.0167  0.0059 </r>
        <r>  0.0097  0.0155  0.0054 </r>
        <r>  0.1058  0.0123  0.0036 </r>
        <r>  0.0185  0.0261  0.0000 </r>
        <r>  0.0005  0.0065  0.0000 </r>
        <r>  0.0008  0.0043  0.0000 </r>
        <r>  0.0043  0.0480  0.0000 </r>
        <r>  0.0100  0.0146  0.0000 </r>
        <r>  0.0025  0.0187  0.0000 </r>
        <r>  0.0136  0.0275  0.0000 </r>
        <r>  0.0048  0.0129  0.0000 </r>
       </set>
       <set comment="band 34">
        <r>  0.0000  0.0014  0.0000 </r>
        <r>  0.0000  0.0035  0.0000 </r>
        <r>  0.0001  0.0007  0.0000 </r>
        <r>  0.0000  0.0039  0.0000 </r>
        <r>  0.0580  0.0108  0.0045 </r>
        <r>  0.1127  0.0105  0.0022 </r>
        <r>  0.0451  0.0111  0.0053 </r>
        <r>  0.0539  0.0059  0.0024 </r>
        <r>  0.0014  0.0255  0.0000 </r>
        <r>  0.0110  0.0346  0.0000 </r>
        <r>  0.0099  0.0331  0.0000 </r>
        <r>  0.0054  0.0158  0.0000 </r>
        <r>  0.0066  0.0355  0.0000 </r>
        <r>  0.0133  0.0268  0.0000 </r>
        <r>  0.0036  0.0164  0.0000 </r>
        <r>  0.0117  0.0249  0.0000 </r>
       </set>
       <set comment="band 35">
        <r>  0.0000  0.0010  0.0000 </r>
        <r>  0.0004  0.0021  0.0000 </r>
        <r>  0.0003  0.0033  0.0000 </r>
        <r>  0.0001  0.0018  0.0000 </r>
        <r>  0.0067  0.0138  0.0053 </r>
        <r>  0.0477  0.0078  0.0055 </r>
        <r>  0.1729  0.0103  0.0031 </r>
        <r>  0.0126  0.0228  0.0094 </r>
        <r>  0.0019  0.0116  0.0000 </r>
        <r>  0.0036  0.0469  0.0000 </r>
        <r>  0.0092  0.0424  0.0000 </r>
        <r>  0.0044  0.0070  0.0000 </r>
        <r>  0.0015  0.0197  0.0000 </r>
        <r>  0.0076  0.0136  0.0000 </r>
        <r>  0.0119  0.0386  0.0000 </r>
        <r>  0.0065  0.0251  0.0000 </r>
       </set>
       <set comment="band 36">
        <r>  0.0010  0.0042  0.0000 </r>
        <r>  0.0005  0.0008  0.0000 </r>
        <r>  0.0002  0.0017  0.0000 </r>
        <r>  0.0001  0.0047  0.0000 </r>
        <r>  0.0567  0.0086  0.0056 </r>
        <r>  0.0858  0.0093  0.0069 </r>
        <r>  0.0280  0.0112  0.0070 </r>
        <r>  0.0735  0.0041  0.0026 </r>
        <r>  0.0002  0.0311  0.0000 </r>
        <r>  0.0106  0.0184  0.0000 </r>
        <r>  0.0025  0.0392  0.0000 </r>
        <r>  0.0087  0.0247  0.0000 </r>
        <r>  0.0097  0.0154  0.0000 </r>
        <r>  0.0006  0.0404  0.0000 </r>
        <r>  0.0020  0.0098  0.0000 </r>
        <r>  0.0041  0.0342  0.0000 </r>
       </set>
       <set comment="band 37">
        <r>  0.0000  0.0047  0.0000 </r>
        <r>  0.0030  0.0033  0.0000 </r>
        <r>  0.0063  0.0031  0.0000 </r>
        <r>  0.0000  0.0034  0.0000 </r>
        <r>  0.0055  0.0294  0.0056 </r>
        <r>  0.0061  0.0895  0.0102 </r>
        <r>  0.0006  0.0808  0.0117 </r>
        <r>  0.0001  0.0242  0.0060 </r>
        <r>  0.0010  0.0084  0.0000 </r>
        <r>  0.0082  0.0102  0.0000 </r>
        <r>  0.0093  0.0038  0.0000 </r>
        <r>  0.0002  0.0093  0.0000 </r>
        <r>  0.0015  0.0209  0.0000 </r>
        <r>  0.0236  0.0036  0.0000 </r>
        <r>  0.0077  0.0083  0.0000 </r>
        <r>  0.0039  0.0098  0.0000 </r>
       </set>
       <set comment="band 38">
        <r>  0.0005  0.0035  0.0000 </r>
        <r>  0.0006  0.0050  0.0000 </r>
        <r>  0.0000  0.0041  0.0000 </r>
        <r>  0.0021  0.0042  0.0000 </r>
        <r>  0.0061  0.0462  0.0138 </r>
        <r>  0.0090  0.0277  0.0085 </r>
        <r>  0.0036  0.0556  0.0037 </r>
        <r>  0.0078  0.0869  0.0148 </r>
        <r>  0.0111  0.0142  0.0000 </r>
        <r>  0.0035  0.0044  0.0000 </r>
        <r>  0.0002  0.0006  0.0000 </r>
        <r>  0.0019  0.0133  0.0000 </r>
        <r>  0.0072  0.0171  0.0000 </r>
        <r>  0.0003  0.0039  0.0000 </r>
        <r>  0.0015  0.0094  0.0000 </r>
        <r>  0.0113  0.0035  0.0000 </r>
       </set>
       <set comment="band 39">
        <r>  0.0055  0.0071  0.0000 </r>
        <r>  0.0009  0.0036  0.0000 </r>
        <r>  0.0048  0.0028  0.0000 </r>
        <r>  0.0008  0.0035  0.0000 </r>
        <r>  0.0097  0.0816  0.0116 </r>
        <r>  0.0004  0.0484  0.0069 </r>
        <r>  0.0110  0.0307  0.0052 </r>
        <r>  0.0006  0.0385  0.0105 </r>
        <r>  0.0014  0.0133  0.0000 </r>
        <r>  0.0008  0.0106  0.0000 </r>
        <r>  0.0137  0.0094  0.0000 </r>
        <r>  0.0167  0.0048  0.0000 </r>
        <r>  0.0085  0.0030  0.0000 </r>
        <r>  0.0041  0.0193  0.0000 </r>
        <r>  0.0009  0.0099  0.0000 </r>
        <r>  0.0077  0.0062  0.0000 </r>
       </set>
       <set comment="band 40">
        <r>  0.0008  0.0040  0.0000 </r>
        <r>  0.0040  0.0084  0.0000 </r>
        <r>  0.0006  0.0044  0.0000 </r>
        <r>  0.0017  0.0052  0.0000 </r>
        <r>  0.0060  0.0498  0.0081 </r>
        <r>  0.0045  0.0033  0.0101 </r>
        <r>  0.0047  0.0404  0.0131 </r>
        <r>  0.0060  0.0569  0.0061 </r>
        <r>  0.0069  0.0081  0.0000 </r>
        <r>  0.0059  0.0101  0.0000 </r>
        <r>  0.0027  0.0075  0.0000 </r>
        <r>  0.0121  0.0173  0.0000 </r>
        <r>  0.0052  0.0239  0.0000 </r>
        <r>  0.0008  0.0086  0.0000 </r>
        <r>  0.0001  0.0204  0.0000 </r>
        <r>  0.0011  0.0180  0.0000 </r>
       </set>
       <set comment="band 41">
        <r>  0.0008  0.0065  0.0000 </r>
        <r>  0.0002  0.0028  0.0000 </r>
        <r>  0.0001  0.0136  0.0000 </r>
        <r>  0.0013  0.0015  0.0000 </r>
        <r>  0.0150  0.0610  0.0149 </r>
        <r>  0.0033  0.0312  0.0047 </r>
        <r>  0.0012  0.0123  0.0081 </r>
        <r>  0.0083  0.0500  0.0092 </r>
        <r>  0.0072  0.0176  0.0000 </r>
        <r>  0.0030  0.0045  0.0000 </r>
        <r>  0.0047  0.0074  0.0000 </r>
        <r>  0.0087  0.0157  0.0000 </r>
        <r>  0.0013  0.0137  0.0000 </r>
        <r>  0.0017  0.0333  0.0000 </r>
        <r>  0.0046  0.0186  0.0000 </r>
        <r>  0.0049  0.0252  0.0000 </r>
       </set>
       <set comment="band 42">
        <r>  0.0016  0.0046  0.0000 </r>
        <r>  0.0038  0.0050  0.0000 </r>
        <r>  0.0005  0.0070  0.0000 </r>
        <r>  0.0025  0.0078  0.0000 </r>
        <r>  0.0060  0.0298  0.0051 </r>
        <r>  0.0011  0.0678  0.0126 </r>
        <r>  0.0044  0.0502  0.0164 </r>
        <r>  0.0058  0.0258  0.0055 </r>
        <r>  0.0004  0.0150  0.0000 </r>
        <r>  0.0085  0.0123  0.0000 </r>
        <r>  0.0038  0.0159  0.0000 </r>
        <r>  0.0040  0.0041  0.0000 </r>
        <r>  0.0092  0.0145  0.0000 </r>
        <r>  0.0007  0.0152  0.0000 </r>
        <r>  0.0098  0.0039  0.0000 </r>
        <r>  0.0040  0.0184  0.0000 </r>
       </set>
      </set>
     </set>
    </set>
   </array>
  </projected>
 </calculation>
 <structure name="finalpos" >
  <crystal>
   <varray name="basis" >
    <v>       6.31060893       0.00000000       0.00000000 </v>
    <v>       0.00000000       6.60909622       0.00000000 </v>
    <v>       0.00000000       0.00000000       7.93941295 </v>
   </varray>
   <i name="volume">    331.13244338 </i>
   <varray name="rec_basis" >
    <v>       0.15846331       0.00000000       0.00000000 </v>
    <v>       0.00000000       0.15130662       0.00000000 </v>
    <v>       0.00000000       0.00000000       0.12595390 </v>
   </varray>
  </crystal>
  <varray name="positions" >
   <v>       0.56678685       0.58466469       0.12341585 </v>
   <v>       0.06678685       0.41533531       0.87658415 </v>
   <v>       0.06678685       0.91533531       0.62341585 </v>
   <v>       0.56678685       0.08466469       0.37658415 </v>
   <v>       0.06466571       0.92713862       0.12566853 </v>
   <v>       0.56466571       0.07286138       0.87433147 </v>
   <v>       0.56466571       0.57286138       0.62566853 </v>
   <v>       0.06466571       0.42713862       0.37433147 </v>
   <v>       0.17906959       0.09376846       0.36528032 </v>
   <v>       0.67906959       0.90623154       0.63471968 </v>
   <v>       0.67906959       0.40623154       0.86528032 </v>
   <v>       0.17906959       0.59376846       0.13471968 </v>
   <v>       0.69667785       0.93105932       0.11810134 </v>
   <v>       0.19667785       0.06894068       0.88189866 </v>
   <v>       0.19667785       0.56894068       0.61810134 </v>
   <v>       0.69667785       0.43105932       0.38189866 </v>
  </varray>
 </structure>
</modeling>
