CIS                                     
           1
     6.520432    0.000000    0.000000
     0.000000    6.930471    0.000000
     0.000000    0.000000    8.088598
   Li   Ga   S 
   4   4   8
Direct configuration=     1
   0.56682874  0.58532271  0.12237690
   0.06682874  0.41467729  0.87762310
   0.06682874  0.91467729  0.62237690
   0.56682874  0.08532271  0.37762310
   0.06420631  0.91870067  0.12560451
   0.56420631  0.08129933  0.87439549
   0.56420631  0.58129933  0.62560451
   0.06420631  0.41870067  0.37439549
   0.19205758  0.08301599  0.37662021
   0.69205758  0.91698401  0.62337979
   0.69205758  0.41698401  0.87662021
   0.19205758  0.58301599  0.12337979
   0.68410737  0.91948936  0.12831713
   0.18410737  0.08051064  0.87168287
   0.18410737  0.58051064  0.62831713
   0.68410737  0.41948936  0.37168287
CIS                                     
           1
     6.465842    0.000000    0.000000
     0.000000    6.869018    0.000000
     0.000000    0.000000    8.017145
   Li   Ga   S 
   4   4   8
Direct configuration=     2
   0.56683821  0.58536391  0.12240448
   0.06683821  0.41463609  0.87759552
   0.06683821  0.91463609  0.62240448
   0.56683821  0.08536391  0.37759552
   0.06422037  0.91871138  0.12555136
   0.56422037  0.08128862  0.87444864
   0.56422037  0.58128862  0.62555136
   0.06422037  0.41871138  0.37444864
   0.19092800  0.08377665  0.37553875
   0.69092800  0.91622335  0.62446125
   0.69092800  0.41622335  0.87553875
   0.19092800  0.58377665  0.12446125
   0.68521343  0.92023387  0.12716983
   0.18521343  0.07976613  0.87283017
   0.18521343  0.57976613  0.62716983
   0.68521343  0.42023387  0.37283017
CIS                                     
           1
     6.302071    0.000000    0.000000
     0.000000    6.684662    0.000000
     0.000000    0.000000    7.802785
   Li   Ga   S 
   4   4   8
Direct configuration=     3
   0.56686684  0.58548862  0.12248797
   0.06686684  0.41451138  0.87751203
   0.06686684  0.91451138  0.62248797
   0.56686684  0.08548862  0.37751203
   0.06426290  0.91874378  0.12539047
   0.56426290  0.08125622  0.87460953
   0.56426290  0.58125622  0.62539047
   0.06426290  0.41874378  0.37460953
   0.18751064  0.08607903  0.37226545
   0.68751064  0.91392097  0.62773455
   0.68751064  0.41392097  0.87226545
   0.18751064  0.58607903  0.12773455
   0.68855962  0.92248740  0.12369727
   0.18855962  0.07751260  0.87630273
   0.18855962  0.57751260  0.62369727
   0.68855962  0.42248740  0.37630273
CIS                                     
           1
     6.234144    0.000000    0.000000
     0.000000    6.608196    0.000000
     0.000000    0.000000    7.713875
   Li   Ga   S 
   4   4   8
Direct configuration=     4
   0.56687903  0.58554177  0.12252354
   0.06687903  0.41445823  0.87747646
   0.06687903  0.91445823  0.62252354
   0.56687903  0.08554177  0.37747646
   0.06428100  0.91875759  0.12532191
   0.56428100  0.08124241  0.87467809
   0.56428100  0.58124241  0.62532191
   0.06428100  0.41875759  0.37467809
   0.18605638  0.08706034  0.37087048
   0.68605638  0.91293966  0.62912952
   0.68605638  0.41293966  0.87087048
   0.18605638  0.58706034  0.12912952
   0.68998359  0.92344788  0.12221738
   0.18998359  0.07655212  0.87778262
   0.18998359  0.57655212  0.62221738
   0.68998359  0.42344788  0.37778262
CIS                                     
           1
     6.242947    0.000000    0.000000
     0.000000    6.618106    0.000000
     0.000000    0.000000    7.725397
   Li   Ga   S 
   4   4   8
Direct configuration=     5
   0.56687743  0.58553480  0.12251888
   0.06687743  0.41446520  0.87748112
   0.06687743  0.91446520  0.62251888
   0.56687743  0.08553480  0.37748112
   0.06427863  0.91875578  0.12533090
   0.56427863  0.08124422  0.87466910
   0.56427863  0.58124422  0.62533090
   0.06427863  0.41875578  0.37466910
   0.18624691  0.08693169  0.37105335
   0.68624691  0.91306831  0.62894665
   0.68624691  0.41306831  0.87105335
   0.18624691  0.58693169  0.12894665
   0.68979704  0.92332196  0.12241138
   0.18979704  0.07667804  0.87758862
   0.18979704  0.57667804  0.62241138
   0.68979704  0.42332196  0.37758862
CIS                                     
           1
     6.245189    0.000000    0.000000
     0.000000    6.620629    0.000000
     0.000000    0.000000    7.728332
   Li   Ga   S 
   4   4   8
Direct configuration=     6
   0.56687702  0.58553303  0.12251769
   0.06687702  0.41446697  0.87748231
   0.06687702  0.91446697  0.62251769
   0.56687702  0.08553303  0.37748231
   0.06427802  0.91875532  0.12533318
   0.56427802  0.08124468  0.87466682
   0.56427802  0.58124468  0.62533318
   0.06427802  0.41875532  0.37466682
   0.18629536  0.08689898  0.37109986
   0.68629536  0.91310102  0.62890014
   0.68629536  0.41310102  0.87109986
   0.18629536  0.58689898  0.12890014
   0.68974959  0.92328994  0.12246072
   0.18974959  0.07671006  0.87753928
   0.18974959  0.57671006  0.62246072
   0.68974959  0.42328994  0.37753928
CIS                                     
           1
     6.250353    0.000000    0.000000
     0.000000    6.623088    0.000000
     0.000000    0.000000    7.744579
   Li   Ga   S 
   4   4   8
Direct configuration=     7
   0.56687905  0.58554273  0.12256877
   0.06687905  0.41445727  0.87743123
   0.06687905  0.91445727  0.62256877
   0.56687905  0.08554273  0.37743123
   0.06402039  0.91895713  0.12528122
   0.56402039  0.08104287  0.87471878
   0.56402039  0.58104287  0.62528122
   0.06402039  0.41895713  0.37471878
   0.18570703  0.08737854  0.37044331
   0.68570703  0.91262146  0.62955669
   0.68570703  0.41262146  0.87044331
   0.18570703  0.58737854  0.12955669
   0.69059353  0.92372830  0.12180466
   0.19059353  0.07627170  0.87819534
   0.19059353  0.57627170  0.62180466
   0.69059353  0.42372830  0.37819534
CIS                                     
           1
     6.265844    0.000000    0.000000
     0.000000    6.630463    0.000000
     0.000000    0.000000    7.793321
   Li   Ga   S 
   4   4   8
Direct configuration=     8
   0.56688513  0.58557182  0.12272170
   0.06688513  0.41442818  0.87727830
   0.06688513  0.91442818  0.62272170
   0.56688513  0.08557182  0.37727830
   0.06324814  0.91956234  0.12512565
   0.56324814  0.08043766  0.87487435
   0.56324814  0.58043766  0.62512565
   0.06324814  0.41956234  0.37487435
   0.18394348  0.08881670  0.36847779
   0.68394348  0.91118330  0.63152221
   0.68394348  0.41118330  0.86847779
   0.18394348  0.58881670  0.13152221
   0.69312324  0.92504289  0.11984062
   0.19312324  0.07495711  0.88015938
   0.19312324  0.57495711  0.61984062
   0.69312324  0.42504289  0.38015938
CIS                                     
           1
     6.296826    0.000000    0.000000
     0.000000    6.645214    0.000000
     0.000000    0.000000    7.890806
   Li   Ga   S 
   4   4   8
Direct configuration=     9
   0.56689726  0.58562994  0.12302563
   0.06689726  0.41437006  0.87697437
   0.06689726  0.91437006  0.62302563
   0.56689726  0.08562994  0.37697437
   0.06170746  0.92077140  0.12481646
   0.56170746  0.07922860  0.87518354
   0.56170746  0.57922860  0.62481646
   0.06170746  0.42077140  0.37518354
   0.18042511  0.09168981  0.36457135
   0.68042511  0.90831019  0.63542865
   0.68042511  0.40831019  0.86457135
   0.18042511  0.59168981  0.13542865
   0.69817016  0.92766914  0.11593711
   0.19817016  0.07233086  0.88406289
   0.19817016  0.57233086  0.61593711
   0.69817016  0.42766914  0.38406289
CIS                                     
           1
     6.289516    0.000000    0.000000
     0.000000    6.641734    0.000000
     0.000000    0.000000    7.867806
   Li   Ga   S 
   4   4   8
Direct configuration=    10
   0.56689442  0.58561626  0.12295481
   0.06689442  0.41438374  0.87704519
   0.06689442  0.91438374  0.62295481
   0.56689442  0.08561626  0.37704519
   0.06206918  0.92048677  0.12488851
   0.56206918  0.07951323  0.87511149
   0.56206918  0.57951323  0.62488851
   0.06206918  0.42048677  0.37511149
   0.18125114  0.09101344  0.36548164
   0.68125114  0.90898656  0.63451836
   0.68125114  0.40898656  0.86548164
   0.18125114  0.59101344  0.13451836
   0.69698527  0.92705088  0.11684671
   0.19698527  0.07294912  0.88315329
   0.19698527  0.57294912  0.61684671
   0.69698527  0.42705088  0.38315329
CIS                                     
           1
     6.326822    0.000000    0.000000
     0.000000    6.637889    0.000000
     0.000000    0.000000    7.884405
   Li   Ga   S 
   4   4   8
Direct configuration=    11
   0.56695204  0.58542475  0.12307871
   0.06695204  0.41457525  0.87692129
   0.06695204  0.91457525  0.62307871
   0.56695204  0.08542475  0.37692129
   0.06345787  0.92175476  0.12508724
   0.56345787  0.07824524  0.87491276
   0.56345787  0.57824524  0.62508724
   0.06345787  0.42175476  0.37491276
   0.18015037  0.09163654  0.36451877
   0.68015037  0.90836346  0.63548123
   0.68015037  0.40836346  0.86451877
   0.18015037  0.59163654  0.13548123
   0.69663971  0.92821783  0.11626569
   0.19663971  0.07178217  0.88373431
   0.19663971  0.57178217  0.61626569
   0.69663971  0.42821783  0.38373431
CIS                                     
           1
     6.335904    0.000000    0.000000
     0.000000    6.636952    0.000000
     0.000000    0.000000    7.888446
   Li   Ga   S 
   4   4   8
Direct configuration=    12
   0.56696599  0.58537810  0.12310882
   0.06696599  0.41462190  0.87689118
   0.06696599  0.91462190  0.62310882
   0.56696599  0.08537810  0.37689118
   0.06379398  0.92206366  0.12513552
   0.56379398  0.07793634  0.87486448
   0.56379398  0.57793634  0.62513552
   0.06379398  0.42206366  0.37486448
   0.17988395  0.09178833  0.36428484
   0.67988395  0.90821167  0.63571516
   0.67988395  0.40821167  0.86428484
   0.17988395  0.59178833  0.13571516
   0.69655608  0.92850211  0.11612452
   0.19655608  0.07149789  0.88387548
   0.19655608  0.57149789  0.61612452
   0.69655608  0.42850211  0.38387548
CIS                                     
           1
     6.333634    0.000000    0.000000
     0.000000    6.637186    0.000000
     0.000000    0.000000    7.887436
   Li   Ga   S 
   4   4   8
Direct configuration=    13
   0.56696251  0.58538977  0.12310129
   0.06696251  0.41461023  0.87689871
   0.06696251  0.91461023  0.62310129
   0.56696251  0.08538977  0.37689871
   0.06371007  0.92198642  0.12512346
   0.56371007  0.07801358  0.87487654
   0.56371007  0.57801358  0.62512346
   0.06371007  0.42198642  0.37487654
   0.17995046  0.09175038  0.36434329
   0.67995046  0.90824962  0.63565671
   0.67995046  0.40824962  0.86434329
   0.17995046  0.59175038  0.13565671
   0.69657696  0.92843103  0.11615980
   0.19657696  0.07156897  0.88384020
   0.19657696  0.57156897  0.61615980
   0.69657696  0.42843103  0.38384020
CIS                                     
           1
     6.329238    0.000000    0.000000
     0.000000    6.632181    0.000000
     0.000000    0.000000    7.897015
   Li   Ga   S 
   4   4   8
Direct configuration=    14
   0.56693050  0.58521222  0.12318352
   0.06693050  0.41478778  0.87681648
   0.06693050  0.91478778  0.62318352
   0.56693050  0.08521222  0.37681648
   0.06394126  0.92314116  0.12526328
   0.56394126  0.07685884  0.87473672
   0.56394126  0.57685884  0.62526328
   0.06394126  0.42314116  0.37473672
   0.17972190  0.09211275  0.36449102
   0.67972190  0.90788725  0.63550898
   0.67972190  0.40788725  0.86449102
   0.17972190  0.59211275  0.13550898
   0.69660633  0.92900721  0.11657921
   0.19660633  0.07099279  0.88342079
   0.19660633  0.57099279  0.61657921
   0.69660633  0.42900721  0.38342079
CIS                                     
           1
     6.317441    0.000000    0.000000
     0.000000    6.618752    0.000000
     0.000000    0.000000    7.922720
   Li   Ga   S 
   4   4   8
Direct configuration=    15
   0.56684456  0.58473547  0.12340388
   0.06684456  0.41526453  0.87659612
   0.06684456  0.91526453  0.62340388
   0.56684456  0.08473547  0.37659612
   0.06456205  0.92624203  0.12563801
   0.56456205  0.07375797  0.87436199
   0.56456205  0.57375797  0.62563801
   0.06456205  0.42624203  0.37436199
   0.17910819  0.09308583  0.36488695
   0.67910819  0.90691417  0.63511305
   0.67910819  0.40691417  0.86488695
   0.17910819  0.59308583  0.13511305
   0.69668521  0.93055447  0.11770327
   0.19668521  0.06944553  0.88229673
   0.19668521  0.56944553  0.61770327
   0.69668521  0.43055447  0.38229673
CIS                                     
           1
     6.314199    0.000000    0.000000
     0.000000    6.615060    0.000000
     0.000000    0.000000    7.929786
   Li   Ga   S 
   4   4   8
Direct configuration=    16
   0.56682090  0.58460415  0.12346425
   0.06682090  0.41539585  0.87653575
   0.06682090  0.91539585  0.62346425
   0.56682090  0.08460415  0.37653575
   0.06473300  0.92709609  0.12574068
   0.56473300  0.07290391  0.87425932
   0.56473300  0.57290391  0.62574068
   0.06473300  0.42709609  0.37425932
   0.17893918  0.09335385  0.36499543
   0.67893918  0.90664615  0.63500457
   0.67893918  0.40664615  0.86499543
   0.17893918  0.59335385  0.13500457
   0.69670693  0.93098062  0.11801124
   0.19670693  0.06901938  0.88198876
   0.19670693  0.56901938  0.61801124
   0.69670693  0.43098062  0.38198876
CIS                                     
           1
     6.306453    0.000000    0.000000
     0.000000    6.602191    0.000000
     0.000000    0.000000    7.950559
   Li   Ga   S 
   4   4   8
Direct configuration=    17
   0.56674733  0.58473508  0.12336013
   0.06674733  0.41526492  0.87663987
   0.06674733  0.91526492  0.62336013
   0.56674733  0.08473508  0.37663987
   0.06458759  0.92718806  0.12558547
   0.56458759  0.07281194  0.87441453
   0.56458759  0.57281194  0.62558547
   0.06458759  0.42718806  0.37441453
   0.17922099  0.09425050  0.36560830
   0.67922099  0.90574950  0.63439170
   0.67922099  0.40574950  0.86560830
   0.17922099  0.59425050  0.13439170
   0.69664409  0.93115082  0.11820506
   0.19664409  0.06884918  0.88179494
   0.19664409  0.56884918  0.61820506
   0.69664409  0.43115082  0.38179494
CIS                                     
           1
     6.310609    0.000000    0.000000
     0.000000    6.609096    0.000000
     0.000000    0.000000    7.939413
   Li   Ga   S 
   4   4   8
Direct configuration=    18
   0.56678685  0.58466469  0.12341585
   0.06678685  0.41533531  0.87658415
   0.06678685  0.91533531  0.62341585
   0.56678685  0.08466469  0.37658415
   0.06466571  0.92713862  0.12566853
   0.56466571  0.07286138  0.87433147
   0.56466571  0.57286138  0.62566853
   0.06466571  0.42713862  0.37433147
   0.17906959  0.09376846  0.36528032
   0.67906959  0.90623154  0.63471968
   0.67906959  0.40623154  0.86528032
   0.17906959  0.59376846  0.13471968
   0.69667785  0.93105932  0.11810134
   0.19667785  0.06894068  0.88189866
   0.19667785  0.56894068  0.61810134
   0.69667785  0.43105932  0.38189866
