  26  26   1   0
  0.3015640E+02  0.4189396E-09  0.1361272E-08  0.1375487E-08  0.1000000E-15
  1.000000000000000E-004
  CAR 
 CIS                                     
      7.51324998    -11.80097592  301      3.00860917      1.00000000
    -11.801  0.0000E+00  0.0000E+00
    -11.737  0.0000E+00  0.0000E+00
    -11.672  0.0000E+00  0.0000E+00
    -11.608  0.0000E+00  0.0000E+00
    -11.543  0.0000E+00  0.0000E+00
    -11.479  0.0000E+00  0.0000E+00
    -11.415  0.0000E+00  0.0000E+00
    -11.350  0.0000E+00  0.0000E+00
    -11.286  0.0000E+00  0.0000E+00
    -11.222  0.0000E+00  0.0000E+00
    -11.157  0.5572E-12  0.3587E-13
    -11.093  0.2482E-07  0.1598E-08
    -11.028  0.4555E-04  0.2934E-05
    -10.964  0.4051E-02  0.2637E-03
    -10.900  0.2811E-01  0.2073E-02
    -10.835  0.3770E-01  0.4501E-02
    -10.771  0.2215E-01  0.5927E-02
    -10.707  0.2065E-01  0.7256E-02
    -10.642  0.9503E-01  0.1337E-01
    -10.578  0.1025E+00  0.1997E-01
    -10.513  0.3387E-01  0.2215E-01
    -10.449  0.2175E-01  0.2355E-01
    -10.385  0.7413E-01  0.2833E-01
    -10.320  0.8036E-01  0.3350E-01
    -10.256  0.6226E-01  0.3751E-01
    -10.191  0.1454E-01  0.3845E-01
    -10.127  0.4266E-01  0.4119E-01
    -10.063  0.1470E+00  0.5065E-01
     -9.998  0.1386E+00  0.5958E-01
     -9.934  0.1390E+00  0.6853E-01
     -9.870  0.9052E-01  0.7436E-01
     -9.805  0.7845E-01  0.7941E-01
     -9.741  0.1473E+00  0.8889E-01
     -9.676  0.1307E+00  0.9731E-01
     -9.612  0.5572E-01  0.1009E+00
     -9.548  0.1265E+00  0.1090E+00
     -9.483  0.1364E+00  0.1178E+00
     -9.419  0.7929E-01  0.1229E+00
     -9.355  0.1492E+00  0.1325E+00
     -9.290  0.3321E+00  0.1539E+00
     -9.226  0.4025E+00  0.1798E+00
     -9.161  0.4549E+00  0.2091E+00
     -9.097  0.4877E+00  0.2405E+00
     -9.033  0.3317E+00  0.2619E+00
     -8.968  0.1805E+00  0.2735E+00
     -8.904  0.6520E-01  0.2777E+00
     -8.839  0.7111E-01  0.2823E+00
     -8.775  0.8718E-02  0.2828E+00
     -8.711  0.6129E-04  0.2828E+00
     -8.646  0.1938E-07  0.2828E+00
     -8.582  0.2481E-12  0.2828E+00
     -8.518  0.0000E+00  0.2828E+00
     -8.453  0.0000E+00  0.2828E+00
     -8.389  0.0000E+00  0.2828E+00
     -8.324  0.0000E+00  0.2828E+00
     -8.260  0.0000E+00  0.2828E+00
     -8.196  0.0000E+00  0.2828E+00
     -8.131  0.0000E+00  0.2828E+00
     -8.067  0.0000E+00  0.2828E+00
     -8.003  0.5392E-12  0.2828E+00
     -7.938  0.2899E-07  0.2828E+00
     -7.874  0.6359E-04  0.2828E+00
     -7.809  0.6420E-02  0.2832E+00
     -7.745  0.4230E-01  0.2860E+00
     -7.681  0.6284E-01  0.2900E+00
     -7.616  0.1189E+00  0.2977E+00
     -7.552  0.1400E+00  0.3067E+00
     -7.487  0.1002E+00  0.3131E+00
     -7.423  0.1264E+00  0.3213E+00
     -7.359  0.1132E+00  0.3286E+00
     -7.294  0.1174E+00  0.3361E+00
     -7.230  0.1325E+00  0.3446E+00
     -7.166  0.1015E+00  0.3512E+00
     -7.101  0.1159E+00  0.3586E+00
     -7.037  0.6767E-01  0.3630E+00
     -6.972  0.1279E+00  0.3712E+00
     -6.908  0.1881E+00  0.3833E+00
     -6.844  0.1914E+00  0.3957E+00
     -6.779  0.8713E-01  0.4013E+00
     -6.715  0.7047E-01  0.4058E+00
     -6.651  0.5076E-01  0.4091E+00
     -6.586  0.6015E-01  0.4130E+00
     -6.522  0.4577E-01  0.4159E+00
     -6.457  0.3176E-01  0.4179E+00
     -6.393  0.5571E-01  0.4215E+00
     -6.329  0.3769E-01  0.4240E+00
     -6.264  0.5742E-01  0.4277E+00
     -6.200  0.1118E-01  0.4284E+00
     -6.135  0.2435E-01  0.4299E+00
     -6.071  0.8738E-01  0.4356E+00
     -6.007  0.6900E-01  0.4400E+00
     -5.942  0.6041E-02  0.4404E+00
     -5.878  0.3713E-04  0.4404E+00
     -5.814  0.5617E-03  0.4404E+00
     -5.749  0.1751E-01  0.4416E+00
     -5.685  0.3803E-01  0.4440E+00
     -5.620  0.6580E-02  0.4444E+00
     -5.556  0.7028E-04  0.4444E+00
     -5.492  0.3587E-07  0.4444E+00
     -5.427  0.7731E-12  0.4444E+00
     -5.363  0.0000E+00  0.4444E+00
     -5.299  0.0000E+00  0.4444E+00
     -5.234  0.0000E+00  0.4444E+00
     -5.170  0.0000E+00  0.4444E+00
     -5.105  0.0000E+00  0.4444E+00
     -5.041  0.0000E+00  0.4444E+00
     -4.977  0.0000E+00  0.4444E+00
     -4.912  0.0000E+00  0.4444E+00
     -4.848  0.0000E+00  0.4444E+00
     -4.783  0.0000E+00  0.4444E+00
     -4.719  0.0000E+00  0.4444E+00
     -4.655  0.0000E+00  0.4444E+00
     -4.590  0.0000E+00  0.4444E+00
     -4.526  0.0000E+00  0.4444E+00
     -4.462  0.0000E+00  0.4444E+00
     -4.397  0.0000E+00  0.4444E+00
     -4.333  0.0000E+00  0.4444E+00
     -4.268  0.0000E+00  0.4444E+00
     -4.204  0.0000E+00  0.4444E+00
     -4.140  0.0000E+00  0.4444E+00
     -4.075  0.0000E+00  0.4444E+00
     -4.011  0.0000E+00  0.4444E+00
     -3.947  0.0000E+00  0.4444E+00
     -3.882  0.0000E+00  0.4444E+00
     -3.818  0.0000E+00  0.4444E+00
     -3.753  0.0000E+00  0.4444E+00
     -3.689  0.0000E+00  0.4444E+00
     -3.625  0.0000E+00  0.4444E+00
     -3.560  0.0000E+00  0.4444E+00
     -3.496  0.0000E+00  0.4444E+00
     -3.431  0.0000E+00  0.4444E+00
     -3.367  0.0000E+00  0.4444E+00
     -3.303  0.0000E+00  0.4444E+00
     -3.238  0.0000E+00  0.4444E+00
     -3.174  0.0000E+00  0.4444E+00
     -3.110  0.0000E+00  0.4444E+00
     -3.045  0.0000E+00  0.4444E+00
     -2.981  0.0000E+00  0.4444E+00
     -2.916  0.0000E+00  0.4444E+00
     -2.852  0.0000E+00  0.4444E+00
     -2.788  0.0000E+00  0.4444E+00
     -2.723  0.0000E+00  0.4444E+00
     -2.659  0.0000E+00  0.4444E+00
     -2.595  0.0000E+00  0.4444E+00
     -2.530  0.0000E+00  0.4444E+00
     -2.466  0.0000E+00  0.4444E+00
     -2.401  0.0000E+00  0.4444E+00
     -2.337  0.0000E+00  0.4444E+00
     -2.273  0.0000E+00  0.4444E+00
     -2.208  0.1742E-17  0.4444E+00
     -2.144  0.1079E-11  0.4444E+00
     -2.079  0.4035E-07  0.4444E+00
     -2.015  0.6208E-04  0.4444E+00
     -1.951  0.4471E-02  0.4447E+00
     -1.886  0.1993E-01  0.4460E+00
     -1.822  0.1302E-01  0.4469E+00
     -1.758  0.4659E-01  0.4499E+00
     -1.693  0.1096E+00  0.4569E+00
     -1.629  0.1305E+00  0.4653E+00
     -1.564  0.1178E+00  0.4729E+00
     -1.500  0.1038E+00  0.4796E+00
     -1.436  0.1327E+00  0.4881E+00
     -1.371  0.6999E-01  0.4926E+00
     -1.307  0.9135E-01  0.4985E+00
     -1.243  0.5655E-01  0.5022E+00
     -1.178  0.8617E-01  0.5077E+00
     -1.114  0.9745E-01  0.5140E+00
     -1.049  0.1090E+00  0.5210E+00
     -0.985  0.1712E+00  0.5320E+00
     -0.921  0.1491E+00  0.5416E+00
     -0.856  0.1581E+00  0.5518E+00
     -0.792  0.2084E+00  0.5652E+00
     -0.727  0.1680E+00  0.5760E+00
     -0.663  0.1888E+00  0.5882E+00
     -0.599  0.1369E+00  0.5970E+00
     -0.534  0.1457E+00  0.6064E+00
     -0.470  0.1734E+00  0.6175E+00
     -0.406  0.1294E+00  0.6259E+00
     -0.341  0.1972E+00  0.6386E+00
     -0.277  0.2860E+00  0.6570E+00
     -0.212  0.2099E+00  0.6705E+00
     -0.148  0.2658E+00  0.6876E+00
     -0.084  0.2067E+00  0.7009E+00
     -0.019  0.2322E+00  0.7159E+00
      0.045  0.2729E+00  0.7334E+00
      0.109  0.2008E+00  0.7464E+00
      0.174  0.1478E+00  0.7559E+00
      0.238  0.2056E+00  0.7691E+00
      0.303  0.1775E+00  0.7805E+00
      0.367  0.2032E+00  0.7936E+00
      0.431  0.2025E+00  0.8067E+00
      0.496  0.1860E+00  0.8186E+00
      0.560  0.3091E+00  0.8385E+00
      0.625  0.2755E+00  0.8563E+00
      0.689  0.1549E+00  0.8662E+00
      0.753  0.2294E+00  0.8810E+00
      0.818  0.1450E+00  0.8903E+00
      0.882  0.1403E+00  0.8994E+00
      0.946  0.1146E+00  0.9068E+00
      1.011  0.1193E+00  0.9144E+00
      1.075  0.1693E+00  0.9253E+00
      1.140  0.1472E+00  0.9348E+00
      1.204  0.2099E+00  0.9483E+00
      1.268  0.3123E+00  0.9684E+00
      1.333  0.2001E+00  0.9813E+00
      1.397  0.2726E+00  0.9989E+00
      1.461  0.3072E+00  0.1019E+01
      1.526  0.2715E+00  0.1036E+01
      1.590  0.3141E+00  0.1056E+01
      1.655  0.3155E+00  0.1077E+01
      1.719  0.2290E+00  0.1091E+01
      1.783  0.3604E+00  0.1115E+01
      1.848  0.3317E+00  0.1136E+01
      1.912  0.2756E+00  0.1154E+01
      1.977  0.3235E+00  0.1175E+01
      2.041  0.2938E+00  0.1193E+01
      2.105  0.2229E+00  0.1208E+01
      2.170  0.2282E+00  0.1223E+01
      2.234  0.2679E+00  0.1240E+01
      2.298  0.2249E+00  0.1254E+01
      2.363  0.1785E+00  0.1266E+01
      2.427  0.1658E+00  0.1276E+01
      2.492  0.6768E-01  0.1281E+01
      2.556  0.5546E-01  0.1284E+01
      2.620  0.6467E-01  0.1288E+01
      2.685  0.1075E-01  0.1289E+01
      2.749  0.3557E-01  0.1291E+01
      2.813  0.2156E-01  0.1293E+01
      2.878  0.9543E-03  0.1293E+01
      2.942  0.2280E-05  0.1293E+01
      3.007  0.2440E-09  0.1293E+01
      3.071  0.1070E-14  0.1293E+01
      3.135  0.0000E+00  0.1293E+01
      3.200  0.0000E+00  0.1293E+01
      3.264  0.0000E+00  0.1293E+01
      3.329  0.2008E-13  0.1293E+01
      3.393  0.2077E-08  0.1293E+01
      3.457  0.8646E-05  0.1293E+01
      3.522  0.1597E-02  0.1293E+01
      3.586  0.1642E-01  0.1294E+01
      3.650  0.1266E-01  0.1295E+01
      3.715  0.6978E-03  0.1295E+01
      3.779  0.2134E-05  0.1295E+01
      3.844  0.1237E-03  0.1295E+01
      3.908  0.6532E-02  0.1295E+01
      3.972  0.3154E-01  0.1297E+01
      4.037  0.4138E-01  0.1300E+01
      4.101  0.1950E-01  0.1301E+01
      4.165  0.8235E-01  0.1307E+01
      4.230  0.1290E+00  0.1315E+01
      4.294  0.3778E-01  0.1317E+01
      4.359  0.5658E-01  0.1321E+01
      4.423  0.1404E+00  0.1330E+01
      4.487  0.8779E-01  0.1336E+01
      4.552  0.8551E-01  0.1341E+01
      4.616  0.1600E+00  0.1352E+01
      4.680  0.1356E+00  0.1360E+01
      4.745  0.1033E+00  0.1367E+01
      4.809  0.1381E+00  0.1376E+01
      4.874  0.2338E+00  0.1391E+01
      4.938  0.2134E+00  0.1405E+01
      5.002  0.2043E+00  0.1418E+01
      5.067  0.1347E+00  0.1426E+01
      5.131  0.1908E+00  0.1439E+01
      5.196  0.1836E+00  0.1450E+01
      5.260  0.2659E+00  0.1468E+01
      5.324  0.2773E+00  0.1485E+01
      5.389  0.1439E+00  0.1495E+01
      5.453  0.2523E+00  0.1511E+01
      5.517  0.2459E+00  0.1527E+01
      5.582  0.1935E+00  0.1539E+01
      5.646  0.2171E+00  0.1553E+01
      5.711  0.1921E+00  0.1566E+01
      5.775  0.1861E+00  0.1578E+01
      5.839  0.2459E+00  0.1593E+01
      5.904  0.2156E+00  0.1607E+01
      5.968  0.1558E+00  0.1617E+01
      6.032  0.1556E+00  0.1627E+01
      6.097  0.1545E+00  0.1637E+01
      6.161  0.1135E+00  0.1645E+01
      6.226  0.8762E-01  0.1650E+01
      6.290  0.3768E-01  0.1653E+01
      6.354  0.9786E-01  0.1659E+01
      6.419  0.2323E+00  0.1674E+01
      6.483  0.1351E+00  0.1683E+01
      6.548  0.4916E-01  0.1686E+01
      6.612  0.8652E-01  0.1691E+01
      6.676  0.7761E-01  0.1696E+01
      6.741  0.9831E-02  0.1697E+01
      6.805  0.9833E-04  0.1697E+01
      6.869  0.5090E-07  0.1697E+01
      6.934  0.1123E-11  0.1697E+01
      6.998  0.0000E+00  0.1697E+01
      7.063  0.0000E+00  0.1697E+01
      7.127  0.0000E+00  0.1697E+01
      7.191  0.0000E+00  0.1697E+01
      7.256  0.0000E+00  0.1697E+01
      7.320  0.0000E+00  0.1697E+01
      7.384  0.0000E+00  0.1697E+01
      7.449  0.0000E+00  0.1697E+01
      7.513  0.0000E+00  0.1697E+01
      7.51324998    -11.80097592  301      3.00860917      1.00000000
    -11.801  0.0000E+00  0.0000E+00  0.0000E+00
    -11.737  0.0000E+00  0.0000E+00  0.0000E+00
    -11.672  0.0000E+00  0.0000E+00  0.0000E+00
    -11.608  0.0000E+00  0.0000E+00  0.0000E+00
    -11.543  0.0000E+00  0.0000E+00  0.0000E+00
    -11.479  0.0000E+00  0.0000E+00  0.0000E+00
    -11.415  0.0000E+00  0.0000E+00  0.0000E+00
    -11.350  0.0000E+00  0.0000E+00  0.0000E+00
    -11.286  0.0000E+00  0.0000E+00  0.0000E+00
    -11.222  0.0000E+00  0.0000E+00  0.0000E+00
    -11.157  0.2527E-14  0.6422E-15  0.0000E+00
    -11.093  0.1125E-09  0.2859E-10  0.0000E+00
    -11.028  0.2061E-06  0.5223E-07  0.0000E+00
    -10.964  0.1801E-04  0.4473E-05  0.0000E+00
    -10.900  0.1153E-03  0.2603E-04  0.0000E+00
    -10.835  0.1633E-03  0.4360E-04  0.0000E+00
    -10.771  0.1348E-03  0.5143E-04  0.0000E+00
    -10.707  0.8579E-04  0.2865E-04  0.0000E+00
    -10.642  0.3590E-03  0.1158E-03  0.0000E+00
    -10.578  0.4666E-03  0.1804E-03  0.0000E+00
    -10.513  0.1875E-03  0.8628E-04  0.0000E+00
    -10.449  0.7070E-04  0.3259E-04  0.0000E+00
    -10.385  0.2837E-03  0.1556E-03  0.0000E+00
    -10.320  0.3210E-03  0.2283E-03  0.0000E+00
    -10.256  0.2746E-03  0.1219E-03  0.0000E+00
    -10.191  0.6830E-04  0.2014E-04  0.0000E+00
    -10.127  0.1098E-03  0.1222E-03  0.0000E+00
    -10.063  0.4962E-03  0.3409E-03  0.0000E+00
     -9.998  0.4745E-03  0.2457E-03  0.0000E+00
     -9.934  0.4971E-03  0.3075E-03  0.0000E+00
     -9.870  0.3967E-03  0.2156E-03  0.0000E+00
     -9.805  0.2467E-03  0.1739E-03  0.0000E+00
     -9.741  0.5700E-03  0.4590E-03  0.0000E+00
     -9.676  0.6118E-03  0.3703E-03  0.0000E+00
     -9.612  0.1892E-03  0.1402E-03  0.0000E+00
     -9.548  0.2184E-03  0.2386E-03  0.0000E+00
     -9.483  0.2157E-03  0.2579E-03  0.0000E+00
     -9.419  0.1800E-03  0.2335E-03  0.0000E+00
     -9.355  0.5973E-03  0.4256E-03  0.0000E+00
     -9.290  0.1150E-02  0.7897E-03  0.0000E+00
     -9.226  0.1647E-02  0.1071E-02  0.0000E+00
     -9.161  0.1904E-02  0.1404E-02  0.0000E+00
     -9.097  0.2213E-02  0.1601E-02  0.0000E+00
     -9.033  0.1382E-02  0.1225E-02  0.0000E+00
     -8.968  0.8797E-03  0.9396E-03  0.0000E+00
     -8.904  0.6830E-03  0.4604E-03  0.0000E+00
     -8.839  0.9396E-03  0.5396E-03  0.0000E+00
     -8.775  0.1155E-03  0.6616E-04  0.0000E+00
     -8.711  0.8120E-06  0.4648E-06  0.0000E+00
     -8.646  0.2569E-09  0.1469E-09  0.0000E+00
     -8.582  0.3290E-14  0.1879E-14  0.0000E+00
     -8.518  0.0000E+00  0.0000E+00  0.0000E+00
     -8.453  0.0000E+00  0.0000E+00  0.0000E+00
     -8.389  0.0000E+00  0.0000E+00  0.0000E+00
     -8.324  0.0000E+00  0.0000E+00  0.0000E+00
     -8.260  0.0000E+00  0.0000E+00  0.0000E+00
     -8.196  0.0000E+00  0.0000E+00  0.0000E+00
     -8.131  0.0000E+00  0.0000E+00  0.0000E+00
     -8.067  0.0000E+00  0.0000E+00  0.0000E+00
     -8.003  0.1183E-14  0.1048E-14  0.0000E+00
     -7.938  0.6362E-10  0.5633E-10  0.0000E+00
     -7.874  0.1396E-06  0.1236E-06  0.0000E+00
     -7.809  0.1410E-04  0.1249E-04  0.0000E+00
     -7.745  0.9368E-04  0.8431E-04  0.0000E+00
     -7.681  0.1296E-03  0.1306E-03  0.0000E+00
     -7.616  0.1021E-03  0.1491E-03  0.0000E+00
     -7.552  0.8080E-04  0.1249E-03  0.0000E+00
     -7.487  0.7609E-04  0.9048E-04  0.0000E+00
     -7.423  0.7368E-04  0.1939E-03  0.0000E+00
     -7.359  0.1036E-03  0.2119E-03  0.0000E+00
     -7.294  0.8596E-04  0.1802E-03  0.0000E+00
     -7.230  0.8610E-04  0.1319E-03  0.0000E+00
     -7.166  0.8147E-04  0.1569E-03  0.0000E+00
     -7.101  0.1055E-03  0.2266E-03  0.0000E+00
     -7.037  0.1205E-03  0.1434E-03  0.0000E+00
     -6.972  0.3746E-03  0.3490E-03  0.0000E+00
     -6.908  0.4085E-03  0.4049E-03  0.0000E+00
     -6.844  0.3318E-03  0.3266E-03  0.0000E+00
     -6.779  0.3704E-03  0.2123E-03  0.0000E+00
     -6.715  0.4614E-03  0.2362E-03  0.0000E+00
     -6.651  0.3071E-03  0.1879E-03  0.0000E+00
     -6.586  0.3406E-03  0.2462E-03  0.0000E+00
     -6.522  0.3773E-03  0.2108E-03  0.0000E+00
     -6.457  0.3546E-03  0.1248E-03  0.0000E+00
     -6.393  0.4487E-03  0.1803E-03  0.0000E+00
     -6.329  0.4412E-03  0.1640E-03  0.0000E+00
     -6.264  0.8155E-03  0.2849E-03  0.0000E+00
     -6.200  0.1498E-03  0.5190E-04  0.0000E+00
     -6.135  0.1762E-03  0.6550E-04  0.0000E+00
     -6.071  0.5455E-03  0.2393E-03  0.0000E+00
     -6.007  0.6164E-03  0.2139E-03  0.0000E+00
     -5.942  0.7363E-04  0.2093E-04  0.0000E+00
     -5.878  0.5449E-06  0.1398E-06  0.0000E+00
     -5.814  0.2387E-05  0.2396E-05  0.0000E+00
     -5.749  0.8333E-04  0.7482E-04  0.0000E+00
     -5.685  0.1992E-03  0.1628E-03  0.0000E+00
     -5.620  0.3769E-04  0.2821E-04  0.0000E+00
     -5.556  0.4383E-06  0.3019E-06  0.0000E+00
     -5.492  0.2402E-09  0.1543E-09  0.0000E+00
     -5.427  0.5466E-14  0.3330E-14  0.0000E+00
     -5.363  0.0000E+00  0.0000E+00  0.0000E+00
     -5.299  0.0000E+00  0.0000E+00  0.0000E+00
     -5.234  0.0000E+00  0.0000E+00  0.0000E+00
     -5.170  0.0000E+00  0.0000E+00  0.0000E+00
     -5.105  0.0000E+00  0.0000E+00  0.0000E+00
     -5.041  0.0000E+00  0.0000E+00  0.0000E+00
     -4.977  0.0000E+00  0.0000E+00  0.0000E+00
     -4.912  0.0000E+00  0.0000E+00  0.0000E+00
     -4.848  0.0000E+00  0.0000E+00  0.0000E+00
     -4.783  0.0000E+00  0.0000E+00  0.0000E+00
     -4.719  0.0000E+00  0.0000E+00  0.0000E+00
     -4.655  0.0000E+00  0.0000E+00  0.0000E+00
     -4.590  0.0000E+00  0.0000E+00  0.0000E+00
     -4.526  0.0000E+00  0.0000E+00  0.0000E+00
     -4.462  0.0000E+00  0.0000E+00  0.0000E+00
     -4.397  0.0000E+00  0.0000E+00  0.0000E+00
     -4.333  0.0000E+00  0.0000E+00  0.0000E+00
     -4.268  0.0000E+00  0.0000E+00  0.0000E+00
     -4.204  0.0000E+00  0.0000E+00  0.0000E+00
     -4.140  0.0000E+00  0.0000E+00  0.0000E+00
     -4.075  0.0000E+00  0.0000E+00  0.0000E+00
     -4.011  0.0000E+00  0.0000E+00  0.0000E+00
     -3.947  0.0000E+00  0.0000E+00  0.0000E+00
     -3.882  0.0000E+00  0.0000E+00  0.0000E+00
     -3.818  0.0000E+00  0.0000E+00  0.0000E+00
     -3.753  0.0000E+00  0.0000E+00  0.0000E+00
     -3.689  0.0000E+00  0.0000E+00  0.0000E+00
     -3.625  0.0000E+00  0.0000E+00  0.0000E+00
     -3.560  0.0000E+00  0.0000E+00  0.0000E+00
     -3.496  0.0000E+00  0.0000E+00  0.0000E+00
     -3.431  0.0000E+00  0.0000E+00  0.0000E+00
     -3.367  0.0000E+00  0.0000E+00  0.0000E+00
     -3.303  0.0000E+00  0.0000E+00  0.0000E+00
     -3.238  0.0000E+00  0.0000E+00  0.0000E+00
     -3.174  0.0000E+00  0.0000E+00  0.0000E+00
     -3.110  0.0000E+00  0.0000E+00  0.0000E+00
     -3.045  0.0000E+00  0.0000E+00  0.0000E+00
     -2.981  0.0000E+00  0.0000E+00  0.0000E+00
     -2.916  0.0000E+00  0.0000E+00  0.0000E+00
     -2.852  0.0000E+00  0.0000E+00  0.0000E+00
     -2.788  0.0000E+00  0.0000E+00  0.0000E+00
     -2.723  0.0000E+00  0.0000E+00  0.0000E+00
     -2.659  0.0000E+00  0.0000E+00  0.0000E+00
     -2.595  0.0000E+00  0.0000E+00  0.0000E+00
     -2.530  0.0000E+00  0.0000E+00  0.0000E+00
     -2.466  0.0000E+00  0.0000E+00  0.0000E+00
     -2.401  0.0000E+00  0.0000E+00  0.0000E+00
     -2.337  0.0000E+00  0.0000E+00  0.0000E+00
     -2.273  0.0000E+00  0.0000E+00  0.0000E+00
     -2.208  0.4077E-19  0.1621E-19  0.0000E+00
     -2.144  0.2525E-13  0.1004E-13  0.0000E+00
     -2.079  0.9444E-09  0.3755E-09  0.0000E+00
     -2.015  0.1453E-05  0.5777E-06  0.0000E+00
     -1.951  0.1047E-03  0.4161E-04  0.0000E+00
     -1.886  0.4647E-03  0.1847E-03  0.0000E+00
     -1.822  0.1998E-03  0.7328E-04  0.0000E+00
     -1.758  0.7244E-03  0.2125E-03  0.0000E+00
     -1.693  0.2522E-02  0.8532E-03  0.0000E+00
     -1.629  0.3046E-02  0.1265E-02  0.0000E+00
     -1.564  0.1839E-02  0.7498E-03  0.0000E+00
     -1.500  0.4657E-02  0.1490E-02  0.0000E+00
     -1.436  0.7617E-02  0.2995E-02  0.0000E+00
     -1.371  0.3351E-02  0.1513E-02  0.0000E+00
     -1.307  0.4575E-02  0.1902E-02  0.0000E+00
     -1.243  0.2016E-02  0.8472E-03  0.0000E+00
     -1.178  0.8737E-03  0.1216E-02  0.0000E+00
     -1.114  0.2100E-02  0.1318E-02  0.0000E+00
     -1.049  0.3705E-02  0.1462E-02  0.0000E+00
     -0.985  0.6135E-02  0.2137E-02  0.0000E+00
     -0.921  0.5641E-02  0.2427E-02  0.0000E+00
     -0.856  0.3605E-02  0.2284E-02  0.0000E+00
     -0.792  0.3886E-02  0.3311E-02  0.0000E+00
     -0.727  0.6258E-02  0.2648E-02  0.0000E+00
     -0.663  0.1002E-01  0.3112E-02  0.0000E+00
     -0.599  0.4439E-02  0.2375E-02  0.0000E+00
     -0.534  0.7622E-02  0.2886E-02  0.0000E+00
     -0.470  0.1023E-01  0.3553E-02  0.0000E+00
     -0.406  0.6536E-02  0.2736E-02  0.0000E+00
     -0.341  0.8002E-02  0.3923E-02  0.0000E+00
     -0.277  0.1083E-01  0.5316E-02  0.0000E+00
     -0.212  0.7794E-02  0.4723E-02  0.0000E+00
     -0.148  0.1120E-01  0.6055E-02  0.0000E+00
     -0.084  0.6657E-02  0.4084E-02  0.0000E+00
     -0.019  0.4558E-02  0.3053E-02  0.0000E+00
      0.045  0.7229E-02  0.4200E-02  0.0000E+00
      0.109  0.1041E-01  0.3350E-02  0.0000E+00
      0.174  0.6121E-02  0.2633E-02  0.0000E+00
      0.238  0.5259E-02  0.4340E-02  0.0000E+00
      0.303  0.3423E-02  0.3412E-02  0.0000E+00
      0.367  0.6710E-02  0.3941E-02  0.0000E+00
      0.431  0.1359E-01  0.4214E-02  0.0000E+00
      0.496  0.1072E-01  0.3878E-02  0.0000E+00
      0.560  0.1445E-01  0.6752E-02  0.0000E+00
      0.625  0.1793E-01  0.4965E-02  0.0000E+00
      0.689  0.5671E-02  0.3148E-02  0.0000E+00
      0.753  0.1617E-01  0.8224E-02  0.0000E+00
      0.818  0.1491E-01  0.5725E-02  0.0000E+00
      0.882  0.2533E-01  0.7050E-02  0.0000E+00
      0.946  0.1957E-01  0.5148E-02  0.0000E+00
      1.011  0.1165E-01  0.3727E-02  0.0000E+00
      1.075  0.2529E-01  0.5670E-02  0.0000E+00
      1.140  0.1811E-01  0.4977E-02  0.0000E+00
      1.204  0.2024E-01  0.9016E-02  0.0000E+00
      1.268  0.2925E-01  0.1403E-01  0.0000E+00
      1.333  0.1469E-01  0.1077E-01  0.0000E+00
      1.397  0.2664E-01  0.1682E-01  0.0000E+00
      1.461  0.2925E-01  0.1293E-01  0.0000E+00
      1.526  0.1748E-01  0.1340E-01  0.0000E+00
      1.590  0.1259E-01  0.1695E-01  0.0000E+00
      1.655  0.1406E-01  0.1850E-01  0.0000E+00
      1.719  0.8496E-02  0.1327E-01  0.0000E+00
      1.783  0.1664E-01  0.2044E-01  0.0000E+00
      1.848  0.1745E-01  0.1717E-01  0.0000E+00
      1.912  0.1477E-01  0.1149E-01  0.0000E+00
      1.977  0.2086E-01  0.1137E-01  0.0000E+00
      2.041  0.1789E-01  0.1180E-01  0.0000E+00
      2.105  0.1156E-01  0.1109E-01  0.0000E+00
      2.170  0.8908E-02  0.1315E-01  0.0000E+00
      2.234  0.8591E-02  0.1125E-01  0.0000E+00
      2.298  0.8707E-02  0.9906E-02  0.0000E+00
      2.363  0.2858E-02  0.5908E-02  0.0000E+00
      2.427  0.2641E-02  0.3080E-02  0.0000E+00
      2.492  0.2650E-02  0.9175E-03  0.0000E+00
      2.556  0.1011E-02  0.6189E-03  0.0000E+00
      2.620  0.8910E-03  0.6963E-03  0.0000E+00
      2.685  0.1499E-03  0.1175E-03  0.0000E+00
      2.749  0.5523E-03  0.3856E-03  0.0000E+00
      2.813  0.3465E-03  0.2215E-03  0.0000E+00
      2.878  0.1588E-04  0.9237E-05  0.0000E+00
      2.942  0.3912E-07  0.2081E-07  0.0000E+00
      3.007  0.4288E-11  0.2122E-11  0.0000E+00
      3.071  0.1911E-16  0.8969E-17  0.0000E+00
      3.135  0.0000E+00  0.0000E+00  0.0000E+00
      3.200  0.0000E+00  0.0000E+00  0.0000E+00
      3.264  0.0000E+00  0.0000E+00  0.0000E+00
      3.329  0.2799E-14  0.8394E-15  0.0000E+00
      3.393  0.2895E-09  0.8683E-10  0.0000E+00
      3.457  0.1205E-05  0.3614E-06  0.0000E+00
      3.522  0.2226E-03  0.6676E-04  0.0000E+00
      3.586  0.2288E-02  0.6862E-03  0.0000E+00
      3.650  0.1764E-02  0.5291E-03  0.0000E+00
      3.715  0.9726E-04  0.2917E-04  0.0000E+00
      3.779  0.2828E-06  0.8746E-07  0.0000E+00
      3.844  0.2018E-05  0.3362E-05  0.0000E+00
      3.908  0.1459E-03  0.1826E-03  0.0000E+00
      3.972  0.2275E-02  0.9822E-03  0.0000E+00
      4.037  0.8379E-02  0.1082E-02  0.0000E+00
      4.101  0.4985E-02  0.4797E-03  0.0000E+00
      4.165  0.1435E-01  0.4225E-02  0.0000E+00
      4.230  0.2116E-01  0.7372E-02  0.0000E+00
      4.294  0.6526E-02  0.2560E-02  0.0000E+00
      4.359  0.1325E-01  0.3156E-02  0.0000E+00
      4.423  0.1733E-01  0.9500E-02  0.0000E+00
      4.487  0.1469E-01  0.4497E-02  0.0000E+00
      4.552  0.2941E-01  0.3868E-02  0.0000E+00
      4.616  0.4212E-01  0.9167E-02  0.0000E+00
      4.680  0.1503E-01  0.8790E-02  0.0000E+00
      4.745  0.4678E-02  0.1225E-01  0.0000E+00
      4.809  0.1400E-01  0.1365E-01  0.0000E+00
      4.874  0.2150E-01  0.2093E-01  0.0000E+00
      4.938  0.2949E-01  0.9823E-02  0.0000E+00
      5.002  0.3658E-01  0.8003E-02  0.0000E+00
      5.067  0.1020E-01  0.4302E-02  0.0000E+00
      5.131  0.1205E-01  0.1251E-01  0.0000E+00
      5.196  0.1240E-01  0.1108E-01  0.0000E+00
      5.260  0.1563E-01  0.1694E-01  0.0000E+00
      5.324  0.1863E-01  0.1613E-01  0.0000E+00
      5.389  0.7227E-02  0.4771E-02  0.0000E+00
      5.453  0.1475E-01  0.1505E-01  0.0000E+00
      5.517  0.2449E-01  0.1769E-01  0.0000E+00
      5.582  0.2135E-01  0.1521E-01  0.0000E+00
      5.646  0.3095E-01  0.1799E-01  0.0000E+00
      5.711  0.4289E-01  0.9568E-02  0.0000E+00
      5.775  0.4789E-01  0.7434E-02  0.0000E+00
      5.839  0.5667E-01  0.1337E-01  0.0000E+00
      5.904  0.4094E-01  0.1746E-01  0.0000E+00
      5.968  0.5006E-01  0.1780E-01  0.0000E+00
      6.032  0.4228E-01  0.9951E-02  0.0000E+00
      6.097  0.1603E-01  0.8295E-02  0.0000E+00
      6.161  0.1775E-01  0.8183E-02  0.0000E+00
      6.226  0.1318E-01  0.4783E-02  0.0000E+00
      6.290  0.2244E-02  0.1483E-02  0.0000E+00
      6.354  0.8600E-02  0.6962E-02  0.0000E+00
      6.419  0.1914E-01  0.2025E-01  0.0000E+00
      6.483  0.1024E-01  0.1119E-01  0.0000E+00
      6.548  0.3335E-02  0.3451E-02  0.0000E+00
      6.612  0.1186E-01  0.7099E-02  0.0000E+00
      6.676  0.1302E-01  0.7542E-02  0.0000E+00
      6.741  0.1855E-02  0.1261E-02  0.0000E+00
      6.805  0.1954E-04  0.1465E-04  0.0000E+00
      6.869  0.1030E-07  0.8007E-08  0.0000E+00
      6.934  0.2287E-12  0.1797E-12  0.0000E+00
      6.998  0.0000E+00  0.0000E+00  0.0000E+00
      7.063  0.0000E+00  0.0000E+00  0.0000E+00
      7.127  0.0000E+00  0.0000E+00  0.0000E+00
      7.191  0.0000E+00  0.0000E+00  0.0000E+00
      7.256  0.0000E+00  0.0000E+00  0.0000E+00
      7.320  0.0000E+00  0.0000E+00  0.0000E+00
      7.384  0.0000E+00  0.0000E+00  0.0000E+00
      7.449  0.0000E+00  0.0000E+00  0.0000E+00
      7.513  0.0000E+00  0.0000E+00  0.0000E+00
      7.51324998    -11.80097592  301      3.00860917      1.00000000
    -11.801  0.0000E+00  0.0000E+00  0.0000E+00
    -11.737  0.0000E+00  0.0000E+00  0.0000E+00
    -11.672  0.0000E+00  0.0000E+00  0.0000E+00
    -11.608  0.0000E+00  0.0000E+00  0.0000E+00
    -11.543  0.0000E+00  0.0000E+00  0.0000E+00
    -11.479  0.0000E+00  0.0000E+00  0.0000E+00
    -11.415  0.0000E+00  0.0000E+00  0.0000E+00
    -11.350  0.0000E+00  0.0000E+00  0.0000E+00
    -11.286  0.0000E+00  0.0000E+00  0.0000E+00
    -11.222  0.0000E+00  0.0000E+00  0.0000E+00
    -11.157  0.2527E-14  0.6422E-15  0.0000E+00
    -11.093  0.1125E-09  0.2859E-10  0.0000E+00
    -11.028  0.2061E-06  0.5223E-07  0.0000E+00
    -10.964  0.1801E-04  0.4473E-05  0.0000E+00
    -10.900  0.1153E-03  0.2603E-04  0.0000E+00
    -10.835  0.1633E-03  0.4360E-04  0.0000E+00
    -10.771  0.1348E-03  0.5143E-04  0.0000E+00
    -10.707  0.8579E-04  0.2865E-04  0.0000E+00
    -10.642  0.3590E-03  0.1158E-03  0.0000E+00
    -10.578  0.4666E-03  0.1804E-03  0.0000E+00
    -10.513  0.1875E-03  0.8628E-04  0.0000E+00
    -10.449  0.7070E-04  0.3259E-04  0.0000E+00
    -10.385  0.2837E-03  0.1556E-03  0.0000E+00
    -10.320  0.3210E-03  0.2283E-03  0.0000E+00
    -10.256  0.2746E-03  0.1219E-03  0.0000E+00
    -10.191  0.6830E-04  0.2014E-04  0.0000E+00
    -10.127  0.1098E-03  0.1222E-03  0.0000E+00
    -10.063  0.4962E-03  0.3409E-03  0.0000E+00
     -9.998  0.4745E-03  0.2457E-03  0.0000E+00
     -9.934  0.4971E-03  0.3075E-03  0.0000E+00
     -9.870  0.3967E-03  0.2156E-03  0.0000E+00
     -9.805  0.2467E-03  0.1739E-03  0.0000E+00
     -9.741  0.5700E-03  0.4590E-03  0.0000E+00
     -9.676  0.6118E-03  0.3703E-03  0.0000E+00
     -9.612  0.1892E-03  0.1402E-03  0.0000E+00
     -9.548  0.2184E-03  0.2386E-03  0.0000E+00
     -9.483  0.2157E-03  0.2579E-03  0.0000E+00
     -9.419  0.1800E-03  0.2335E-03  0.0000E+00
     -9.355  0.5973E-03  0.4256E-03  0.0000E+00
     -9.290  0.1150E-02  0.7897E-03  0.0000E+00
     -9.226  0.1647E-02  0.1071E-02  0.0000E+00
     -9.161  0.1904E-02  0.1404E-02  0.0000E+00
     -9.097  0.2213E-02  0.1601E-02  0.0000E+00
     -9.033  0.1382E-02  0.1225E-02  0.0000E+00
     -8.968  0.8797E-03  0.9396E-03  0.0000E+00
     -8.904  0.6830E-03  0.4604E-03  0.0000E+00
     -8.839  0.9396E-03  0.5396E-03  0.0000E+00
     -8.775  0.1155E-03  0.6616E-04  0.0000E+00
     -8.711  0.8120E-06  0.4648E-06  0.0000E+00
     -8.646  0.2569E-09  0.1469E-09  0.0000E+00
     -8.582  0.3290E-14  0.1879E-14  0.0000E+00
     -8.518  0.0000E+00  0.0000E+00  0.0000E+00
     -8.453  0.0000E+00  0.0000E+00  0.0000E+00
     -8.389  0.0000E+00  0.0000E+00  0.0000E+00
     -8.324  0.0000E+00  0.0000E+00  0.0000E+00
     -8.260  0.0000E+00  0.0000E+00  0.0000E+00
     -8.196  0.0000E+00  0.0000E+00  0.0000E+00
     -8.131  0.0000E+00  0.0000E+00  0.0000E+00
     -8.067  0.0000E+00  0.0000E+00  0.0000E+00
     -8.003  0.1183E-14  0.1048E-14  0.0000E+00
     -7.938  0.6362E-10  0.5633E-10  0.0000E+00
     -7.874  0.1396E-06  0.1236E-06  0.0000E+00
     -7.809  0.1410E-04  0.1249E-04  0.0000E+00
     -7.745  0.9368E-04  0.8431E-04  0.0000E+00
     -7.681  0.1296E-03  0.1306E-03  0.0000E+00
     -7.616  0.1021E-03  0.1491E-03  0.0000E+00
     -7.552  0.8080E-04  0.1249E-03  0.0000E+00
     -7.487  0.7609E-04  0.9048E-04  0.0000E+00
     -7.423  0.7368E-04  0.1939E-03  0.0000E+00
     -7.359  0.1036E-03  0.2119E-03  0.0000E+00
     -7.294  0.8596E-04  0.1802E-03  0.0000E+00
     -7.230  0.8610E-04  0.1319E-03  0.0000E+00
     -7.166  0.8147E-04  0.1569E-03  0.0000E+00
     -7.101  0.1055E-03  0.2266E-03  0.0000E+00
     -7.037  0.1205E-03  0.1434E-03  0.0000E+00
     -6.972  0.3746E-03  0.3490E-03  0.0000E+00
     -6.908  0.4085E-03  0.4049E-03  0.0000E+00
     -6.844  0.3318E-03  0.3266E-03  0.0000E+00
     -6.779  0.3704E-03  0.2123E-03  0.0000E+00
     -6.715  0.4614E-03  0.2362E-03  0.0000E+00
     -6.651  0.3071E-03  0.1879E-03  0.0000E+00
     -6.586  0.3406E-03  0.2462E-03  0.0000E+00
     -6.522  0.3773E-03  0.2108E-03  0.0000E+00
     -6.457  0.3546E-03  0.1248E-03  0.0000E+00
     -6.393  0.4487E-03  0.1803E-03  0.0000E+00
     -6.329  0.4412E-03  0.1640E-03  0.0000E+00
     -6.264  0.8155E-03  0.2849E-03  0.0000E+00
     -6.200  0.1498E-03  0.5190E-04  0.0000E+00
     -6.135  0.1762E-03  0.6550E-04  0.0000E+00
     -6.071  0.5455E-03  0.2393E-03  0.0000E+00