       N       E                     dE             d eps       ncg     rms          rms(c)
DAV:   1     0.552399304626E+03    0.55240E+03   -0.34338E+04  1008   0.789E+02
DAV:   2    -0.405226938714E+02   -0.59292E+03   -0.57309E+03  1330   0.165E+02
DAV:   3    -0.102756130198E+03   -0.62233E+02   -0.61342E+02  1204   0.592E+01
DAV:   4    -0.105470260143E+03   -0.27141E+01   -0.27025E+01  1540   0.130E+01
DAV:   5    -0.105520186342E+03   -0.49926E-01   -0.49890E-01  1358   0.183E+00    0.136E+01
DAV:   6    -0.100343560892E+03    0.51766E+01   -0.10102E+01  1190   0.786E+00    0.728E+00
DAV:   7    -0.100433474949E+03   -0.89914E-01   -0.36812E+00  1232   0.411E+00    0.485E+00
DAV:   8    -0.100454164000E+03   -0.20689E-01   -0.28114E-01  1484   0.151E+00    0.215E+00
DAV:   9    -0.100467957861E+03   -0.13794E-01   -0.60926E-02  1288   0.824E-01    0.408E-01
DAV:  10    -0.100469167495E+03   -0.12096E-02   -0.93984E-03  1288   0.236E-01    0.253E-01
DAV:  11    -0.100470245266E+03   -0.10778E-02   -0.20606E-03  1274   0.148E-01    0.863E-02
DAV:  12    -0.100470576936E+03   -0.33167E-03   -0.74841E-04  1232   0.767E-02    0.407E-02
DAV:  13    -0.100470688706E+03   -0.11177E-03   -0.18329E-04   882   0.378E-02    0.249E-02
DAV:  14    -0.100470715859E+03   -0.27153E-04   -0.55131E-05   756   0.197E-02
   1 F= -.10047072E+03 E0= -.10047072E+03  d E =-.100471E+03
       N       E                     dE             d eps       ncg     rms          rms(c)
DAV:   1    -0.100474770433E+03   -0.40817E-02   -0.21565E-02  1134   0.369E-01    0.794E-02
DAV:   2    -0.100474727155E+03    0.43278E-04   -0.13770E-03  1260   0.990E-02    0.389E-02
DAV:   3    -0.100474690011E+03    0.37144E-04   -0.13019E-04   756   0.298E-02
   2 F= -.10047469E+03 E0= -.10047469E+03  d E =-.397415E-02
       N       E                     dE             d eps       ncg     rms          rms(c)
DAV:   1    -0.100484945793E+03   -0.10219E-01   -0.19259E-01  1064   0.110E+00    0.240E-01
DAV:   2    -0.100484428400E+03    0.51739E-03   -0.12232E-02  1260   0.297E-01    0.121E-01
DAV:   3    -0.100484103378E+03    0.32502E-03   -0.14449E-03  1232   0.921E-02    0.666E-02
DAV:   4    -0.100483962130E+03    0.14125E-03   -0.16458E-04   812   0.372E-02    0.315E-02
DAV:   5    -0.100483925896E+03    0.36235E-04   -0.13991E-04   756   0.322E-02
   3 F= -.10048393E+03 E0= -.10048393E+03  d E =-.132100E-01
       N       E                     dE             d eps       ncg     rms          rms(c)
DAV:   1    -0.100495062534E+03   -0.11100E-01   -0.77773E-01  1050   0.221E+00    0.477E-01
DAV:   2    -0.100493414060E+03    0.16485E-02   -0.49564E-02  1260   0.597E-01    0.238E-01
DAV:   3    -0.100492230701E+03    0.11834E-02   -0.56049E-03  1260   0.182E-01    0.131E-01
DAV:   4    -0.100491708110E+03    0.52259E-03   -0.74846E-04  1260   0.737E-02    0.614E-02
DAV:   5    -0.100491578430E+03    0.12968E-03   -0.37693E-04  1092   0.516E-02    0.288E-02
DAV:   6    -0.100491582121E+03   -0.36910E-05   -0.50580E-05   756   0.191E-02
   4 F= -.10049158E+03 E0= -.10049158E+03  d E =-.208663E-01
       N       E                     dE             d eps       ncg     rms          rms(c)
DAV:   1    -0.100498135283E+03   -0.65569E-02   -0.95670E-02  1036   0.780E-01    0.163E-01
DAV:   2    -0.100498238211E+03   -0.10293E-03   -0.65543E-03  1260   0.205E-01    0.761E-02
DAV:   3    -0.100498135740E+03    0.10247E-03   -0.33154E-04  1092   0.470E-02    0.403E-02
DAV:   4    -0.100498102861E+03    0.32880E-04   -0.69102E-05   756   0.237E-02
   5 F= -.10049810E+03 E0= -.10049810E+03  d E =-.652074E-02
       N       E                     dE             d eps       ncg     rms          rms(c)
DAV:   1    -0.100510468738E+03   -0.12333E-01   -0.85406E-01  1008   0.233E+00    0.488E-01
DAV:   2    -0.100511338692E+03   -0.86995E-03   -0.58037E-02  1246   0.609E-01    0.221E-01
DAV:   3    -0.100510416151E+03    0.92254E-03   -0.31522E-03  1330   0.141E-01    0.118E-01
DAV:   4    -0.100510114989E+03    0.30116E-03   -0.49270E-04  1218   0.582E-02    0.525E-02
DAV:   5    -0.100510069511E+03    0.45478E-04   -0.17938E-04   756   0.335E-02
   6 F= -.10051007E+03 E0= -.10051007E+03  d E =-.184874E-01
       N       E                     dE             d eps       ncg     rms          rms(c)
DAV:   1    -0.100511122347E+03   -0.10074E-02   -0.12196E-01  1022   0.882E-01    0.186E-01
DAV:   2    -0.100511266599E+03   -0.14425E-03   -0.82713E-03  1260   0.229E-01    0.831E-02
DAV:   3    -0.100511139366E+03    0.12723E-03   -0.43491E-04  1218   0.529E-02    0.443E-02
DAV:   4    -0.100511100890E+03    0.38476E-04   -0.66551E-05   728   0.228E-02
   7 F= -.10051110E+03 E0= -.10051110E+03  d E =-.195188E-01
       N       E                     dE             d eps       ncg     rms          rms(c)
DAV:   1    -0.100516494358E+03   -0.53550E-02   -0.12031E-01  1008   0.878E-01    0.189E-01
DAV:   2    -0.100516209331E+03    0.28503E-03   -0.78560E-03  1274   0.225E-01    0.966E-02
DAV:   3    -0.100515929125E+03    0.28021E-03   -0.61704E-04  1232   0.621E-02    0.480E-02
DAV:   4    -0.100515839510E+03    0.89615E-04   -0.13161E-04   770   0.296E-02
   8 F= -.10051584E+03 E0= -.10051584E+03  d E =-.473862E-02
       N       E                     dE             d eps       ncg     rms          rms(c)
DAV:   1    -0.100524266296E+03   -0.83372E-02   -0.58125E-01  1008   0.193E+00    0.409E-01
DAV:   2    -0.100522906316E+03    0.13600E-02   -0.38214E-02  1274   0.496E-01    0.205E-01
DAV:   3    -0.100521573037E+03    0.13333E-02   -0.29705E-03  1260   0.136E-01    0.106E-01
DAV:   4    -0.100521161467E+03    0.41157E-03   -0.72237E-04  1260   0.651E-02    0.499E-02
DAV:   5    -0.100521110910E+03    0.50558E-04   -0.15241E-04   728   0.318E-02
   9 F= -.10052111E+03 E0= -.10052111E+03  d E =-.100100E-01
       N       E                     dE             d eps       ncg     rms          rms(c)
DAV:   1    -0.100523886022E+03   -0.27246E-02   -0.23301E+00  1008   0.386E+00    0.818E-01
DAV:   2    -0.100518721412E+03    0.51646E-02   -0.15361E-01  1260   0.995E-01    0.411E-01
DAV:   3    -0.100513452314E+03    0.52691E-02   -0.11724E-02  1246   0.270E-01    0.213E-01
DAV:   4    -0.100511780353E+03    0.16720E-02   -0.29386E-03  1260   0.131E-01    0.967E-02
DAV:   5    -0.100511599780E+03    0.18057E-03   -0.75213E-04  1302   0.635E-02    0.512E-02
DAV:   6    -0.100511612845E+03   -0.13065E-04   -0.66488E-05   714   0.248E-02
  10 F= -.10051161E+03 E0= -.10051161E+03  d E =-.511955E-03
       N       E                     dE             d eps       ncg     rms          rms(c)
DAV:   1    -0.100529082054E+03   -0.17482E-01   -0.14006E+00  1008   0.300E+00    0.650E-01
DAV:   2    -0.100525756299E+03    0.33258E-02   -0.92208E-02  1260   0.770E-01    0.315E-01
DAV:   3    -0.100522606259E+03    0.31500E-02   -0.72152E-03  1260   0.212E-01    0.160E-01
DAV:   4    -0.100521714625E+03    0.89163E-03   -0.16369E-03  1260   0.985E-02    0.766E-02
DAV:   5    -0.100521611599E+03    0.10303E-03   -0.39898E-04  1064   0.474E-02    0.360E-02
DAV:   6    -0.100521615698E+03   -0.40993E-05   -0.56494E-05   672   0.229E-02
  11 F= -.10052162E+03 E0= -.10052162E+03  d E =-.105148E-01
       N       E                     dE             d eps       ncg     rms          rms(c)
DAV:   1    -0.100524656703E+03   -0.30451E-02   -0.10278E-01  1008   0.814E-01    0.128E-01
DAV:   2    -0.100525165723E+03   -0.50902E-03   -0.74028E-03  1274   0.214E-01    0.620E-02
DAV:   3    -0.100525119101E+03    0.46622E-04   -0.20308E-04   896   0.412E-02
  12 F= -.10052512E+03 E0= -.10052512E+03  d E =-.350340E-02
       N       E                     dE             d eps       ncg     rms          rms(c)
DAV:   1    -0.100525953150E+03   -0.78743E-03   -0.91496E-01  1008   0.243E+00    0.376E-01
DAV:   2    -0.100530388129E+03   -0.44350E-02   -0.65522E-02  1260   0.638E-01    0.187E-01
DAV:   3    -0.100529993606E+03    0.39452E-03   -0.20717E-03  1316   0.122E-01    0.127E-01
DAV:   4    -0.100529704598E+03    0.28901E-03   -0.44513E-04  1162   0.554E-02    0.627E-02
DAV:   5    -0.100529644324E+03    0.60274E-04   -0.23041E-04   840   0.413E-02
  13 F= -.10052964E+03 E0= -.10052964E+03  d E =-.802863E-02
       N       E                     dE             d eps       ncg     rms          rms(c)
DAV:   1    -0.100534041094E+03   -0.43365E-02   -0.10757E-01  1008   0.821E-01    0.166E-01
DAV:   2    -0.100534165024E+03   -0.12393E-03   -0.67794E-03  1288   0.207E-01    0.762E-02
DAV:   3    -0.100534055498E+03    0.10953E-03   -0.29305E-04   994   0.451E-02    0.432E-02
DAV:   4    -0.100534012305E+03    0.43193E-04   -0.10129E-04   714   0.272E-02
  14 F= -.10053401E+03 E0= -.10053401E+03  d E =-.436798E-02
       N       E                     dE             d eps       ncg     rms          rms(c)
DAV:   1    -0.100541888968E+03   -0.78335E-02   -0.96051E-01  1008   0.246E+00    0.488E-01
DAV:   2    -0.100543043636E+03   -0.11547E-02   -0.60847E-02  1302   0.620E-01    0.217E-01
DAV:   3    -0.100542083430E+03    0.96021E-03   -0.28517E-03  1288   0.135E-01    0.129E-01
DAV:   4    -0.100541692018E+03    0.39141E-03   -0.59751E-04  1260   0.614E-02    0.581E-02
DAV:   5    -0.100541636795E+03    0.55223E-04   -0.25023E-04   812   0.377E-02
  15 F= -.10054164E+03 E0= -.10054164E+03  d E =-.119925E-01
       N       E                     dE             d eps       ncg     rms          rms(c)
DAV:   1    -0.100542598507E+03   -0.90649E-03   -0.17279E-01  1008   0.104E+00    0.209E-01
DAV:   2    -0.100542807972E+03   -0.20947E-03   -0.10873E-02  1288   0.261E-01    0.912E-02
DAV:   3    -0.100542635543E+03    0.17243E-03   -0.50547E-04  1246   0.567E-02    0.539E-02
DAV:   4    -0.100542567135E+03    0.68408E-04   -0.97563E-05   714   0.264E-02
  16 F= -.10054257E+03 E0= -.10054257E+03  d E =-.129228E-01
       N       E                     dE             d eps       ncg     rms          rms(c)
DAV:   1    -0.100546461961E+03   -0.38264E-02   -0.25735E-01  1008   0.127E+00    0.217E-01
DAV:   2    -0.100547466488E+03   -0.10045E-02   -0.16387E-02  1260   0.317E-01    0.995E-02
DAV:   3    -0.100547353866E+03    0.11262E-03   -0.53324E-04  1330   0.631E-02    0.655E-02
DAV:   4    -0.100547273623E+03    0.80242E-04   -0.10360E-04   686   0.300E-02
  17 F= -.10054727E+03 E0= -.10054727E+03  d E =-.470649E-02
       N       E                     dE             d eps       ncg     rms          rms(c)
DAV:   1    -0.100542704379E+03    0.46495E-02   -0.22410E+00  1008   0.374E+00    0.641E-01
DAV:   2    -0.100551581092E+03   -0.88767E-02   -0.14339E-01  1246   0.939E-01    0.291E-01
DAV:   3    -0.100550651113E+03    0.92998E-03   -0.47503E-03  1358   0.188E-01    0.193E-01
DAV:   4    -0.100550002542E+03    0.64857E-03   -0.10296E-03  1288   0.887E-02    0.834E-02
DAV:   5    -0.100549894267E+03    0.10828E-03   -0.42872E-04  1148   0.576E-02    0.359E-02
DAV:   6    -0.100549899308E+03   -0.50413E-05   -0.73362E-05   686   0.227E-02
  18 F= -.10054990E+03 E0= -.10054990E+03  d E =-.733217E-02
       N       E                     dE             d eps       ncg     rms          rms(c)
DAV:   1    -0.100550264552E+03   -0.37029E-03   -0.22665E-01  1008   0.119E+00    0.202E-01
DAV:   2    -0.100551147536E+03   -0.88298E-03   -0.14382E-02  1246   0.298E-01    0.909E-02
DAV:   3    -0.100551055293E+03    0.92243E-04   -0.47682E-04  1274   0.598E-02
  19 F= -.10055106E+03 E0= -.10055106E+03  d E =-.848816E-02
       N       E                     dE             d eps       ncg     rms          rms(c)
DAV:   1    -0.100552774510E+03   -0.16270E-02   -0.12575E-01  1008   0.877E-01    0.144E-01
DAV:   2    -0.100553469301E+03   -0.69479E-03   -0.82292E-03  1190   0.220E-01    0.406E-02
DAV:   3    -0.100553452077E+03    0.17224E-04   -0.16102E-04   910   0.378E-02
  20 F= -.10055345E+03 E0= -.10055345E+03  d E =-.239678E-02
       N       E                     dE             d eps       ncg     rms          rms(c)
DAV:   1    -0.100552505477E+03    0.96382E-03   -0.11010E+00  1008   0.259E+00    0.383E-01
DAV:   2    -0.100558114962E+03   -0.56095E-02   -0.68191E-02  1232   0.635E-01    0.152E-01
DAV:   3    -0.100557909976E+03    0.20499E-03   -0.15573E-03  1414   0.110E-01    0.114E-01
DAV:   4    -0.100557732568E+03    0.17741E-03   -0.34493E-04  1050   0.546E-02    0.529E-02
DAV:   5    -0.100557721485E+03    0.11083E-04   -0.16596E-04   686   0.363E-02
  21 F= -.10055772E+03 E0= -.10055772E+03  d E =-.666619E-02
       N       E                     dE             d eps       ncg     rms          rms(c)
DAV:   1    -0.100557292140E+03    0.44043E-03   -0.27095E-01  1008   0.129E+00    0.198E-01
DAV:   2    -0.100558671798E+03   -0.13797E-02   -0.16886E-02  1232   0.316E-01    0.692E-02
DAV:   3    -0.100558625352E+03    0.46446E-04   -0.37047E-04  1190   0.552E-02
  22 F= -.10055863E+03 E0= -.10055863E+03  d E =-.757006E-02
       N       E                     dE             d eps       ncg     rms          rms(c)
DAV:   1    -0.100563773233E+03   -0.51014E-02   -0.12795E-01  1008   0.892E-01    0.159E-01
DAV:   2    -0.100564171838E+03   -0.39860E-03   -0.86418E-03  1260   0.235E-01    0.763E-02
DAV:   3    -0.100564122314E+03    0.49524E-04   -0.46120E-04  1218   0.540E-02
  23 F= -.10056412E+03 E0= -.10056412E+03  d E =-.549696E-02
       N       E                     dE             d eps       ncg     rms          rms(c)
DAV:   1    -0.100570205999E+03   -0.60342E-02   -0.11642E+00  1008   0.269E+00    0.484E-01
DAV:   2    -0.100573702494E+03   -0.34965E-02   -0.78564E-02  1260   0.710E-01    0.227E-01
DAV:   3    -0.100573231626E+03    0.47087E-03   -0.43531E-03  1358   0.165E-01    0.142E-01
DAV:   4    -0.100572903360E+03    0.32827E-03   -0.43322E-04  1148   0.575E-02    0.759E-02
DAV:   5    -0.100572802650E+03    0.10071E-03   -0.46779E-04  1204   0.555E-02    0.353E-02
DAV:   6    -0.100572808132E+03   -0.54820E-05   -0.55405E-05   714   0.197E-02
  24 F= -.10057281E+03 E0= -.10057281E+03  d E =-.141828E-01
       N       E                     dE             d eps       ncg     rms          rms(c)
DAV:   1    -0.100577059735E+03   -0.42571E-02   -0.17430E-01  1008   0.103E+00    0.213E-01
DAV:   2    -0.100577142204E+03   -0.82469E-04   -0.11372E-02  1204   0.266E-01    0.104E-01
DAV:   3    -0.100576950854E+03    0.19135E-03   -0.64077E-04  1288   0.643E-02    0.570E-02
DAV:   4    -0.100576858268E+03    0.92586E-04   -0.12338E-04   686   0.300E-02
  25 F= -.10057686E+03 E0= -.10057686E+03  d E =-.405014E-02
       N       E                     dE             d eps       ncg     rms          rms(c)
DAV:   1    -0.100581340840E+03   -0.43900E-02   -0.68659E-01  1008   0.205E+00    0.420E-01
DAV:   2    -0.100581595581E+03   -0.25474E-03   -0.44263E-02  1190   0.524E-01    0.201E-01
DAV:   3    -0.100580853184E+03    0.74240E-03   -0.25532E-03  1302   0.128E-01    0.111E-01
DAV:   4    -0.100580511662E+03    0.34152E-03   -0.54743E-04  1232   0.592E-02    0.495E-02
DAV:   5    -0.100580452483E+03    0.59179E-04   -0.15119E-04   700   0.314E-02
  26 F= -.10058045E+03 E0= -.10058045E+03  d E =-.764435E-02
       N       E                     dE             d eps       ncg     rms          rms(c)
DAV:   1    -0.100580787066E+03   -0.27540E-03   -0.11914E-01  1022   0.854E-01    0.176E-01
DAV:   2    -0.100580836791E+03   -0.49725E-04   -0.76504E-03  1190   0.217E-01    0.803E-02
DAV:   3    -0.100580706160E+03    0.13063E-03   -0.43268E-04  1274   0.529E-02    0.443E-02
DAV:   4    -0.100580647585E+03    0.58575E-04   -0.84496E-05   686   0.248E-02
  27 F= -.10058065E+03 E0= -.10058065E+03  d E =-.783945E-02
       N       E                     dE             d eps       ncg     rms          rms(c)
DAV:   1    -0.100583918161E+03   -0.32120E-02   -0.76560E-02  1022   0.695E-01    0.129E-01
DAV:   2    -0.100584108566E+03   -0.19041E-03   -0.51822E-03  1260   0.188E-01    0.567E-02
DAV:   3    -0.100584068603E+03    0.39963E-04   -0.36766E-04  1148   0.495E-02
  28 F= -.10058407E+03 E0= -.10058407E+03  d E =-.342102E-02
       N       E                     dE             d eps       ncg     rms          rms(c)
DAV:   1    -0.100587548705E+03   -0.34401E-02   -0.38838E-01  1008   0.156E+00    0.286E-01
DAV:   2    -0.100588361203E+03   -0.81250E-03   -0.26182E-02  1260   0.424E-01    0.141E-01
DAV:   3    -0.100588126240E+03    0.23496E-03   -0.19351E-03  1260   0.113E-01    0.906E-02
DAV:   4    -0.100587953432E+03    0.17281E-03   -0.21482E-04   868   0.409E-02    0.481E-02
DAV:   5    -0.100587890690E+03    0.62742E-04   -0.27376E-04   882   0.428E-02
  29 F= -.10058789E+03 E0= -.10058789E+03  d E =-.724311E-02
       N       E                     dE             d eps       ncg     rms          rms(c)
DAV:   1    -0.100588191012E+03   -0.23758E-03   -0.71410E-02  1008   0.671E-01    0.128E-01
DAV:   2    -0.100588368966E+03   -0.17795E-03   -0.48849E-03  1260   0.182E-01    0.586E-02
DAV:   3    -0.100588333872E+03    0.35094E-04   -0.35733E-04  1134   0.488E-02
  30 F= -.10058833E+03 E0= -.10058833E+03  d E =-.768629E-02
       N       E                     dE             d eps       ncg     rms          rms(c)
DAV:   1    -0.100591251270E+03   -0.28823E-02   -0.73209E-02  1008   0.676E-01    0.144E-01
DAV:   2    -0.100591201520E+03    0.49749E-04   -0.46663E-03  1260   0.177E-01    0.725E-02
DAV:   3    -0.100591130773E+03    0.70748E-04   -0.35487E-04  1148   0.470E-02
  31 F= -.10059113E+03 E0= -.10059113E+03  d E =-.279690E-02
       N       E                     dE             d eps       ncg     rms          rms(c)
DAV:   1    -0.100596552908E+03   -0.53514E-02   -0.65634E-01  1008   0.203E+00    0.454E-01
DAV:   2    -0.100595589243E+03    0.96367E-03   -0.43081E-02  1260   0.535E-01    0.212E-01
DAV:   3    -0.100594750580E+03    0.83866E-03   -0.34479E-03  1246   0.145E-01    0.113E-01
DAV:   4    -0.100594452301E+03    0.29828E-03   -0.39805E-04  1176   0.549E-02    0.572E-02
DAV:   5    -0.100594383380E+03    0.68921E-04   -0.25656E-04   854   0.400E-02
  32 F= -.10059438E+03 E0= -.10059438E+03  d E =-.604951E-02
       N       E                     dE             d eps       ncg     rms          rms(c)
DAV:   1    -0.100596932238E+03   -0.24799E-02   -0.75009E-02  1008   0.695E-01    0.133E-01
DAV:   2    -0.100597132438E+03   -0.20020E-03   -0.50740E-03  1260   0.182E-01    0.564E-02
DAV:   3    -0.100597056670E+03    0.75768E-04   -0.19208E-04   854   0.394E-02
  33 F= -.10059706E+03 E0= -.10059706E+03  d E =-.267329E-02
       N       E                     dE             d eps       ncg     rms          rms(c)
DAV:   1    -0.100598500538E+03   -0.13681E-02   -0.66795E-01  1008   0.207E+00    0.390E-01
DAV:   2    -0.100600158309E+03   -0.16578E-02   -0.45262E-02  1274   0.543E-01    0.177E-01
DAV:   3    -0.100599471289E+03    0.68702E-03   -0.19732E-03  1302   0.118E-01    0.113E-01
DAV:   4    -0.100599093415E+03    0.37787E-03   -0.57971E-04  1218   0.647E-02    0.475E-02
DAV:   5    -0.100599045399E+03    0.48015E-04   -0.18981E-04   714   0.400E-02
  34 F= -.10059905E+03 E0= -.10059905E+03  d E =-.466202E-02
       N       E                     dE             d eps       ncg     rms          rms(c)
DAV:   1    -0.100599404028E+03   -0.31061E-03   -0.35394E-02  1036   0.476E-01    0.858E-02
DAV:   2    -0.100599507262E+03   -0.10323E-03   -0.24352E-03  1260   0.127E-01    0.439E-02
DAV:   3    -0.100599470917E+03    0.36345E-04   -0.81570E-05   658   0.265E-02
  35 F= -.10059947E+03 E0= -.10059947E+03  d E =-.508754E-02
       N       E                     dE             d eps       ncg     rms          rms(c)
DAV:   1    -0.100601500172E+03   -0.19929E-02   -0.47620E-02  1036   0.554E-01    0.106E-01
DAV:   2    -0.100601610106E+03   -0.10993E-03   -0.34903E-03  1232   0.152E-01    0.498E-02
DAV:   3    -0.100601566447E+03    0.43659E-04   -0.16542E-04   756   0.356E-02
  36 F= -.10060157E+03 E0= -.10060157E+03  d E =-.209553E-02
       N       E                     dE             d eps       ncg     rms          rms(c)
DAV:   1    -0.100604733620E+03   -0.31235E-02   -0.42094E-01  1008   0.165E+00    0.302E-01
DAV:   2    -0.100605586718E+03   -0.85310E-03   -0.29678E-02  1246   0.445E-01    0.155E-01
DAV:   3    -0.100605267114E+03    0.31960E-03   -0.18054E-03  1288   0.108E-01    0.908E-02
DAV:   4    -0.100605090169E+03    0.17694E-03   -0.19996E-04   854   0.395E-02    0.445E-02
DAV:   5    -0.100605036704E+03    0.53466E-04   -0.19793E-04   756   0.387E-02
  37 F= -.10060504E+03 E0= -.10060504E+03  d E =-.556579E-02
       N       E                     dE             d eps       ncg     rms          rms(c)
DAV:   1    -0.100605060119E+03    0.30051E-04   -0.38754E-02  1036   0.501E-01    0.949E-02
DAV:   2    -0.100605146038E+03   -0.85919E-04   -0.27663E-03  1260   0.136E-01    0.453E-02
DAV:   3    -0.100605115948E+03    0.30090E-04   -0.14475E-04   770   0.330E-02
  38 F= -.10060512E+03 E0= -.10060512E+03  d E =-.564503E-02
       N       E                     dE             d eps       ncg     rms          rms(c)
DAV:   1    -0.100609078264E+03   -0.39322E-02   -0.13732E-01  1036   0.934E-01    0.186E-01
DAV:   2    -0.100608815836E+03    0.26243E-03   -0.79676E-03  1260   0.230E-01    0.957E-02
DAV:   3    -0.100608520276E+03    0.29556E-03   -0.61303E-04  1302   0.634E-02    0.542E-02
DAV:   4    -0.100608403545E+03    0.11673E-03   -0.16875E-04   700   0.380E-02    0.180E-02
DAV:   5    -0.100608400379E+03    0.31660E-05   -0.73333E-05   672   0.244E-02
  39 F= -.10060840E+03 E0= -.10060840E+03  d E =-.328443E-02
       N       E                     dE             d eps       ncg     rms          rms(c)
DAV:   1    -0.100609934179E+03   -0.15306E-02   -0.10390E-01  1036   0.815E-01    0.164E-01
DAV:   2    -0.100609765085E+03    0.16909E-03   -0.61390E-03  1260   0.202E-01    0.798E-02
DAV:   3    -0.100609548035E+03    0.21705E-03   -0.46553E-04  1232   0.555E-02    0.449E-02
DAV:   4    -0.100609464827E+03    0.83208E-04   -0.11825E-04   686   0.319E-02
  40 F= -.10060946E+03 E0= -.10060946E+03  d E =-.434888E-02
       N       E                     dE             d eps       ncg     rms          rms(c)
DAV:   1    -0.100609726233E+03   -0.17820E-03   -0.41281E-01  1008   0.162E+00    0.326E-01
DAV:   2    -0.100609001197E+03    0.72504E-03   -0.24195E-02  1260   0.401E-01    0.160E-01
DAV:   3    -0.100608125321E+03    0.87588E-03   -0.18753E-03  1316   0.111E-01    0.901E-02
DAV:   4    -0.100607792209E+03    0.33311E-03   -0.53165E-04  1218   0.635E-02    0.338E-02
DAV:   5    -0.100607771764E+03    0.20445E-04   -0.12910E-04   686   0.327E-02
  41 F= -.10060777E+03 E0= -.10060777E+03  d E =-.265582E-02
       N       E                     dE             d eps       ncg     rms          rms(c)
DAV:   1    -0.100610739699E+03   -0.29475E-02   -0.25814E-01  1008   0.128E+00    0.253E-01
DAV:   2    -0.100610302881E+03    0.43682E-03   -0.15214E-02  1260   0.319E-01    0.129E-01
DAV:   3    -0.100609751936E+03    0.55094E-03   -0.11432E-03  1316   0.865E-02    0.733E-02
DAV:   4    -0.100609523271E+03    0.22867E-03   -0.32843E-04  1050   0.509E-02    0.253E-02
DAV:   5    -0.100609506351E+03    0.16919E-04   -0.96327E-05   672   0.285E-02
  42 F= -.10060951E+03 E0= -.10060951E+03  d E =-.439040E-02
       N       E                     dE             d eps       ncg     rms          rms(c)
DAV:   1    -0.100612706847E+03   -0.31836E-02   -0.17773E-01  1008   0.105E+00    0.199E-01
DAV:   2    -0.100613188328E+03   -0.48148E-03   -0.11757E-02  1232   0.267E-01    0.887E-02
DAV:   3    -0.100613056113E+03    0.13222E-03   -0.44187E-04  1218   0.552E-02    0.536E-02
DAV:   4    -0.100612989343E+03    0.66769E-04   -0.10352E-04   658   0.274E-02
  43 F= -.10061299E+03 E0= -.10061299E+03  d E =-.348299E-02
       N       E                     dE             d eps       ncg     rms          rms(c)
DAV:   1    -0.100614386282E+03   -0.13302E-02   -0.17433E-01  1008   0.104E+00    0.199E-01
DAV:   2    -0.100614833083E+03   -0.44680E-03   -0.11429E-02  1232   0.263E-01    0.841E-02
DAV:   3    -0.100614701414E+03    0.13167E-03   -0.44807E-04  1232   0.554E-02    0.509E-02
DAV:   4    -0.100614638372E+03    0.63042E-04   -0.98984E-05   686   0.268E-02
  44 F= -.10061464E+03 E0= -.10061464E+03  d E =-.513202E-02
       N       E                     dE             d eps       ncg     rms          rms(c)
DAV:   1    -0.100612503044E+03    0.21984E-02   -0.70284E-01  1008   0.209E+00    0.398E-01
DAV:   2    -0.100614347047E+03   -0.18440E-02   -0.46241E-02  1218   0.529E-01    0.171E-01
DAV:   3    -0.100613819963E+03    0.52708E-03   -0.18434E-03  1316   0.112E-01    0.103E-01
DAV:   4    -0.100613558752E+03    0.26121E-03   -0.42996E-04  1148   0.524E-02    0.459E-02
DAV:   5    -0.100613526400E+03    0.32352E-04   -0.14448E-04   686   0.317E-02
  45 F= -.10061353E+03 E0= -.10061353E+03  d E =-.402005E-02
       N       E                     dE             d eps       ncg     rms          rms(c)
DAV:   1    -0.100614335689E+03   -0.77694E-03   -0.33501E-01  1008   0.144E+00    0.271E-01
DAV:   2    -0.100615251635E+03   -0.91595E-03   -0.22185E-02  1218   0.368E-01    0.128E-01
DAV:   3    -0.100614991042E+03    0.26059E-03   -0.86962E-04  1288   0.765E-02    0.771E-02
DAV:   4    -0.100614837567E+03    0.15348E-03   -0.19837E-04   798   0.371E-02    0.322E-02
DAV:   5    -0.100614811852E+03    0.25715E-04   -0.11055E-04   546   0.272E-02
  46 F= -.10061481E+03 E0= -.10061481E+03  d E =-.530550E-02
       N       E                     dE             d eps       ncg     rms          rms(c)
DAV:   1    -0.100617904080E+03   -0.30665E-02   -0.13792E-01  1008   0.920E-01    0.166E-01
DAV:   2    -0.100618375002E+03   -0.47092E-03   -0.90413E-03  1218   0.235E-01    0.702E-02
DAV:   3    -0.100618311809E+03    0.63193E-04   -0.39865E-04  1218   0.521E-02
  47 F= -.10061831E+03 E0= -.10061831E+03  d E =-.349996E-02
       N       E                     dE             d eps       ncg     rms          rms(c)
DAV:   1    -0.100619022754E+03   -0.64775E-03   -0.12352E+00  1008   0.275E+00    0.494E-01
DAV:   2    -0.100622956036E+03   -0.39333E-02   -0.80294E-02  1218   0.702E-01    0.223E-01
DAV:   3    -0.100622362389E+03    0.59365E-03   -0.37067E-03  1316   0.157E-01    0.146E-01
DAV:   4    -0.100621968228E+03    0.39416E-03   -0.67518E-04  1232   0.674E-02    0.685E-02
DAV:   5    -0.100621878312E+03    0.89916E-04   -0.24421E-04   854   0.431E-02
  48 F= -.10062188E+03 E0= -.10062188E+03  d E =-.706646E-02
       N       E                     dE             d eps       ncg     rms          rms(c)
DAV:   1    -0.100624807626E+03   -0.28394E-02   -0.70713E-02  1022   0.660E-01    0.147E-01
DAV:   2    -0.100624687074E+03    0.12055E-03   -0.41445E-03  1218   0.163E-01    0.666E-02
DAV:   3    -0.100624556162E+03    0.13091E-03   -0.26783E-04   896   0.439E-02    0.368E-02
DAV:   4    -0.100624508370E+03    0.47793E-04   -0.10770E-04   616   0.281E-02
  49 F= -.10062451E+03 E0= -.10062451E+03  d E =-.263006E-02
       N       E                     dE             d eps       ncg     rms          rms(c)
DAV:   1    -0.100628257729E+03   -0.37016E-02   -0.30671E-01  1008   0.137E+00    0.300E-01
DAV:   2    -0.100627780102E+03    0.47763E-03   -0.18095E-02  1218   0.341E-01    0.142E-01
DAV:   3    -0.100627237805E+03    0.54230E-03   -0.12382E-03  1302   0.903E-02    0.788E-02
DAV:   4    -0.100627029322E+03    0.20848E-03   -0.33181E-04  1036   0.462E-02    0.345E-02
DAV:   5    -0.100627000551E+03    0.28771E-04   -0.94532E-05   672   0.267E-02
  50 F= -.10062700E+03 E0= -.10062700E+03  d E =-.512224E-02
       N       E                     dE             d eps       ncg     rms          rms(c)
DAV:   1    -0.100629909327E+03   -0.28800E-02   -0.10997E-01  1008   0.821E-01    0.190E-01
DAV:   2    -0.100629745637E+03    0.16369E-03   -0.64245E-03  1232   0.208E-01    0.873E-02
DAV:   3    -0.100629603962E+03    0.14167E-03   -0.53538E-04  1204   0.553E-02    0.437E-02
DAV:   4    -0.100629559641E+03    0.44321E-04   -0.53920E-05   672   0.226E-02
  51 F= -.10062956E+03 E0= -.10062956E+03  d E =-.255909E-02
       N       E                     dE             d eps       ncg     rms          rms(c)
DAV:   1    -0.100630853193E+03   -0.12492E-02   -0.10702E-01  1008   0.810E-01    0.186E-01
DAV:   2    -0.100630671408E+03    0.18179E-03   -0.61894E-03  1232   0.204E-01    0.838E-02
DAV:   3    -0.100630533768E+03    0.13764E-03   -0.54095E-04  1204   0.554E-02    0.430E-02
DAV:   4    -0.100630492678E+03    0.41090E-04   -0.51750E-05   672   0.222E-02
  52 F= -.10063049E+03 E0= -.10063049E+03  d E =-.349213E-02
       N       E                     dE             d eps       ncg     rms          rms(c)
DAV:   1    -0.100631686033E+03   -0.11523E-02   -0.48714E-02  1008   0.548E-01    0.102E-01
DAV:   2    -0.100631854201E+03   -0.16817E-03   -0.32019E-03  1260   0.145E-01    0.433E-02
DAV:   3    -0.100631828806E+03    0.25395E-04   -0.16108E-04   742   0.359E-02
  53 F= -.10063183E+03 E0= -.10063183E+03  d E =-.133613E-02
