 vasp.5.4.4.18Apr17-6-g9f103f2a35 (build Oct 27 2022 13:04:57) complex          
  
 executed on             LinuxIFC date 2024.06.30  09:16:13
 running on   14 total cores
 distrk:  each k-point on   14 cores,    1 groups
 distr:  one band on NCORES_PER_BAND=   1 cores,   14 groups


--------------------------------------------------------------------------------------------------------


 INCAR:
 POTCAR:    PAW_PBE Na 08Apr2002                  
 POTCAR:    PAW_PBE Bi 08Apr2002                  
 POTCAR:    PAW_PBE Se 06Sep2000                  

 ----------------------------------------------------------------------------- 
|                                                                             |
|           W    W    AA    RRRRR   N    N  II  N    N   GGGG   !!!           |
|           W    W   A  A   R    R  NN   N  II  NN   N  G    G  !!!           |
|           W    W  A    A  R    R  N N  N  II  N N  N  G       !!!           |
|           W WW W  AAAAAA  RRRRR   N  N N  II  N  N N  G  GGG   !            |
|           WW  WW  A    A  R   R   N   NN  II  N   NN  G    G                |
|           W    W  A    A  R    R  N    N  II  N    N   GGGG   !!!           |
|                                                                             |
|      For optimal performance we recommend to set                            |
|        NCORE= 4 - approx SQRT( number of cores)                             |
|      NCORE specifies how many cores store one orbital (NPAR=cpu/NCORE).     |
|      This setting can  greatly improve the performance of VASP for DFT.     |
|      The default,   NCORE=1            might be grossly inefficient         |
|      on modern multi-core architectures or massively parallel machines.     |
|      Do your own testing !!!!                                               |
|      Unfortunately you need to use the default for GW and RPA calculations. |
|      (for HF NCORE is supported but not extensively tested yet)             |
|                                                                             |
 ----------------------------------------------------------------------------- 

 POTCAR:    PAW_PBE Na 08Apr2002                  
   VRHFIN =Na: s1p0                                                             
   LEXCH  = PE                                                                  
   EATOM  =     5.1581 eV,    0.3791 Ry                                         
                                                                                
   TITEL  = PAW_PBE Na 08Apr2002                                                
   LULTRA =        F    use ultrasoft PP ?                                      
   IUNSCR =        1    unscreen: 0-lin 1-nonlin 2-no                           
   RPACOR =    1.800    partial core radius                                     
   POMASS =   22.990; ZVAL   =    1.000    mass and valenz                      
   RCORE  =    2.200    outmost cutoff radius                                   
   RWIGS  =    3.320; RWIGS  =    1.757    wigner-seitz radius (au A)           
   ENMAX  =  101.968; ENMIN  =   76.476 eV                                      
   ICORE  =        2    local potential                                         
   LCOR   =        T    correct aug charges                                     
   LPAW   =        T    paw PP                                                  
   EAUG   =  250.695                                                            
   DEXC   =    0.000                                                            
   RMAX   =    2.245    core radius for proj-oper                               
   RAUG   =    1.300    factor for augmentation sphere                          
   RDEP   =    2.259    radius for radial grids                                 
   RDEPT  =    2.115    core radius for aug-charge                              
                                                                                
   Atomic configuration                                                         
    6 entries                                                                   
     n  l   j            E        occ.                                          
     1  0  0.50     -1033.6933   2.0000                                         
     2  0  0.50       -56.7526   2.0000                                         
     2  1  1.50       -28.6721   6.0000                                         
     3  0  0.50        -2.7440   1.0000                                         
     3  1  0.50        -1.3606   0.0000                                         
     3  2  1.50        -1.3606   0.0000                                         
   Description                                                                  
     l       E           TYP  RCUT    TYP  RCUT                                 
     0     -2.7439560     23  2.200                                             
     0     27.2116520     23  2.200                                             
     1     -1.3605826     23  2.200                                             
     2     -1.3605826     23  2.200                                             
  local pseudopotential read in
  partial core-charges read in
  partial kinetic energy density read in
  atomic valenz-charges read in
  non local Contribution for L=           0  read in
    real space projection operators read in
  non local Contribution for L=           0  read in
    real space projection operators read in
  non local Contribution for L=           1  read in
    real space projection operators read in
    PAW grid and wavefunctions read in
 
   number of l-projection  operators is LMAX  =           3
   number of lm-projection operators is LMMAX =           5
 
 POTCAR:    PAW_PBE Bi 08Apr2002                  
   VRHFIN =Bi:                                                                  
   LEXCH  = PE                                                                  
   EATOM  =   150.8133 eV,   11.0845 Ry                                         
                                                                                
   TITEL  = PAW_PBE Bi 08Apr2002                                                
   LULTRA =        F    use ultrasoft PP ?                                      
   IUNSCR =        1    unscreen: 0-lin 1-nonlin 2-no                           
   RPACOR =    2.200    partial core radius                                     
   POMASS =  208.980; ZVAL   =    5.000    mass and valenz                      
   RCORE  =    3.000    outmost cutoff radius                                   
   RWIGS  =    3.090; RWIGS  =    1.635    wigner-seitz radius (au A)           
   ENMAX  =  105.037; ENMIN  =   78.777 eV                                      
   ICORE  =        3    local potential                                         
   LCOR   =        T    correct aug charges                                     
   LPAW   =        T    paw PP                                                  
   EAUG   =  265.427                                                            
   DEXC   =    0.000                                                            
   RMAX   =    3.067    core radius for proj-oper                               
   RAUG   =    1.300    factor for augmentation sphere                          
   RDEP   =    3.012    radius for radial grids                                 
   RDEPT  =    2.604    core radius for aug-charge                              
                                                                                
   Atomic configuration                                                         
   17 entries                                                                   
     n  l   j            E        occ.                                          
     1  0  0.50    -90639.6582   2.0000                                         
     2  0  0.50    -16282.4667   2.0000                                         
     2  1  1.50    -13922.8287   6.0000                                         
     3  0  0.50     -3930.4763   2.0000                                         
     3  1  1.50     -3256.7013   6.0000                                         
     3  2  2.50     -2581.6169  10.0000                                         
     4  0  0.50      -902.2614   2.0000                                         
     4  1  1.50      -681.5915   6.0000                                         
     4  2  2.50      -429.8249  10.0000                                         
     4  3  3.50      -152.6004  14.0000                                         
     5  0  0.50      -157.7156   2.0000                                         
     5  1  1.50       -95.8054   6.0000                                         
     5  2  2.50       -27.0806  10.0000                                         
     6  0  0.50       -14.4732   2.0000                                         
     6  1  1.50        -4.5702   3.0000                                         
     6  2  2.50        -2.7212   0.0000                                         
     5  3  2.50        -2.7212   0.0000                                         
   Description                                                                  
     l       E           TYP  RCUT    TYP  RCUT                                 
     0    -14.4732299     23  3.000                                             
     0    -12.2452434     23  3.000                                             
     1     -4.5701666     23  3.000                                             
     1    -13.6058260     23  3.000                                             
     2     -2.7211652     23  3.000                                             
     3     -1.3605826      7  3.000                                             
  local pseudopotential read in
  partial core-charges read in
  partial kinetic energy density read in
  kinetic energy density of atom read in
  atomic valenz-charges read in
  non local Contribution for L=           0  read in
    real space projection operators read in
  non local Contribution for L=           0  read in
    real space projection operators read in
  non local Contribution for L=           1  read in
    real space projection operators read in
  non local Contribution for L=           1  read in
    real space projection operators read in
  non local Contribution for L=           2  read in
    real space projection operators read in
    PAW grid and wavefunctions read in
 
   number of l-projection  operators is LMAX  =           5
   number of lm-projection operators is LMMAX =          13
 
 POTCAR:    PAW_PBE Se 06Sep2000                  
   VRHFIN =Se: s2p4                                                             
   LEXCH  = PE                                                                  
   EATOM  =   257.1286 eV,   18.8984 Ry                                         
                                                                                
   TITEL  = PAW_PBE Se 06Sep2000                                                
   LULTRA =        F    use ultrasoft PP ?                                      
   IUNSCR =        1    unscreen: 0-lin 1-nonlin 2-no                           
   RPACOR =    1.900    partial core radius                                     
   POMASS =   78.960; ZVAL   =    6.000    mass and valenz                      
   RCORE  =    2.100    outmost cutoff radius                                   
   RWIGS  =    2.200; RWIGS  =    1.164    wigner-seitz radius (au A)           
   ENMAX  =  211.555; ENMIN  =  158.666 eV                                      
   ICORE  =        3    local potential                                         
   LCOR   =        T    correct aug charges                                     
   LPAW   =        T    paw PP                                                  
   EAUG   =  446.842                                                            
   DEXC   =    0.000                                                            
   RMAX   =    2.147    core radius for proj-oper                               
   RAUG   =    1.300    factor for augmentation sphere                          
   RDEP   =    2.177    radius for radial grids                                 
   RDEPT  =    1.928    core radius for aug-charge                              
                                                                                
   Atomic configuration                                                         
   10 entries                                                                   
     n  l   j            E        occ.                                          
     1  0  0.50    -12503.4787   2.0000                                         
     2  0  0.50     -1606.9547   2.0000                                         
     2  1  1.50     -1413.3140   6.0000                                         
     3  0  0.50      -213.4885   2.0000                                         
     3  1  1.50      -152.9538   6.0000                                         
     3  2  2.50       -53.1221  10.0000                                         
     4  0  0.50       -17.2865   2.0000                                         
     4  1  0.50        -6.5110   4.0000                                         
     4  2  2.50        -6.8029   0.0000                                         
     4  3  2.50        -6.8029   0.0000                                         
   Description                                                                  
     l       E           TYP  RCUT    TYP  RCUT                                 
     0    -17.2865377     23  2.100                                             
     0    -15.3094411     23  2.100                                             
     1     -6.5110275     23  2.100                                             
     1     -0.0695192     23  2.100                                             
     2     -6.8029130     23  2.100                                             
     3     -1.3605826      7  2.100                                             
  local pseudopotential read in
  partial core-charges read in
  partial kinetic energy density read in
  atomic valenz-charges read in
  non local Contribution for L=           0  read in
    real space projection operators read in
  non local Contribution for L=           0  read in
    real space projection operators read in
  non local Contribution for L=           1  read in
    real space projection operators read in
  non local Contribution for L=           1  read in
    real space projection operators read in
  non local Contribution for L=           2  read in
    real space projection operators read in
    PAW grid and wavefunctions read in
 
   number of l-projection  operators is LMAX  =           5
   number of lm-projection operators is LMMAX =          13
 
 Optimization of the real space projectors (new method)

 maximal supplied QI-value         = 17.01
 optimisation between [QCUT,QGAM] = [  8.84, 17.69] = [ 21.90, 87.61] Ry 
 Optimized for a Real-space Cutoff    1.22 Angstroem

   l    n(q)    QCUT    max X(q) W(low)/X(q) W(high)/X(q)  e(spline) 
   0      6     8.844    45.123    0.62E-03    0.70E-03    0.80E-07
   0      6     8.844    12.364    0.51E-03    0.48E-03    0.55E-07
   1      6     8.844     8.302    0.36E-03    0.27E-03    0.23E-07
 Optimization of the real space projectors (new method)

 maximal supplied QI-value         = 12.47
 optimisation between [QCUT,QGAM] = [  8.86, 17.71] = [ 21.96, 87.83] Ry 
 Optimized for a Real-space Cutoff    1.59 Angstroem

   l    n(q)    QCUT    max X(q) W(low)/X(q) W(high)/X(q)  e(spline) 
   0      8     8.855    93.365    0.12E-03    0.22E-03    0.92E-07
   0      8     8.855    75.373    0.13E-03    0.24E-03    0.10E-06
   1      8     8.855    32.978    0.17E-02    0.62E-03    0.17E-06
   1      8     8.855    35.433    0.19E-02    0.68E-03    0.19E-06
   2      7     8.855     8.108    0.22E-03    0.34E-03    0.64E-07
 Optimization of the real space projectors (new method)

 maximal supplied QI-value         = 17.95
 optimisation between [QCUT,QGAM] = [  8.80, 17.59] = [ 21.67, 86.68] Ry 
 Optimized for a Real-space Cutoff    1.19 Angstroem

   l    n(q)    QCUT    max X(q) W(low)/X(q) W(high)/X(q)  e(spline) 
   0      6     8.797   133.320    0.14E-02    0.11E-02    0.95E-07
   0      6     8.797   111.601    0.15E-02    0.12E-02    0.10E-06
   1      6     8.797    47.222    0.19E-02    0.96E-03    0.11E-06
   1      6     8.797    33.775    0.19E-02    0.99E-03    0.11E-06
   2      5     8.797     3.720    0.16E-02    0.14E-02    0.40E-07
  PAW_PBE Na 08Apr2002                  :
 energy of atom  1       EATOM=   -5.1581
 kinetic energy error for atom=    0.0001 (will be added to EATOM!!)
  PAW_PBE Bi 08Apr2002                  :
 energy of atom  2       EATOM= -150.8133
 kinetic energy error for atom=    0.0003 (will be added to EATOM!!)
  PAW_PBE Se 06Sep2000                  :
 energy of atom  3       EATOM= -257.1286
 kinetic energy error for atom=    0.0040 (will be added to EATOM!!)
 
 
 POSCAR: Na4 Bi8 Se14                            
  positions in direct lattice
  velocities in cartesian coordinates
 exchange correlation table for  LEXCH =        8
   RHO(1)=    0.500       N(1)  =     2000
   RHO(2)=  100.500       N(2)  =     4000
 


--------------------------------------------------------------------------------------------------------


 ion  position               nearest neighbor table
   1  0.250  0.552  0.798-  13 2.88  26 3.10  26 3.10  18 3.46   8 3.93
   2  0.750  0.448  0.202-  14 2.88  25 3.10  25 3.10  17 3.46   7 3.93
   3  0.750  0.845  0.622-  19 2.91  23 2.98  23 2.98  16 3.02  16 3.02   7 3.95
   4  0.250  0.155  0.378-  20 2.91  24 2.98  24 2.98  15 3.02  15 3.02   8 3.95
   5  0.250  0.844  0.296-  23 2.90  17 2.94  17 2.94  15 3.02  15 3.02  21 3.04
   6  0.750  0.156  0.704-  24 2.90  18 2.94  18 2.94  16 3.02  16 3.02  22 3.04
   7  0.750  0.614  0.441-  26 2.91  23 2.98  23 2.98  17 3.00  25 3.02  25 3.02   2 3.93   3 3.95

   8  0.250  0.386  0.559-  25 2.91  24 2.98  24 2.98  18 3.00  26 3.02  26 3.02   1 3.93   4 3.95

   9  0.750  0.729  0.031-  13 2.79  13 2.79  17 2.96  19 2.98  21 3.23  21 3.23
  10  0.250  0.271  0.969-  14 2.79  14 2.79  18 2.96  20 2.98  22 3.23  22 3.23
  11  0.250  0.940  0.864-  16 2.84  19 2.92  19 2.92  22 3.06  22 3.06  21 3.10
  12  0.750  0.060  0.136-  15 2.84  20 2.92  20 2.92  21 3.06  21 3.06  22 3.10
  13  0.250  0.595  0.004-   9 2.79   9 2.79   1 2.88
  14  0.750  0.405  0.996-  10 2.79  10 2.79   2 2.88
  15  0.750  0.001  0.332-  12 2.84   5 3.02   5 3.02   4 3.02   4 3.02
  16  0.250  0.999  0.668-  11 2.84   6 3.02   6 3.02   3 3.02   3 3.02
  17  0.750  0.701  0.243-   5 2.94   5 2.94   9 2.96   7 3.00   2 3.46
  18  0.250  0.299  0.757-   6 2.94   6 2.94  10 2.96   8 3.00   1 3.46
  19  0.750  0.794  0.826-   3 2.91  11 2.92  11 2.92   9 2.98
  20  0.250  0.206  0.174-   4 2.91  12 2.92  12 2.92  10 2.98
  21  0.250  0.903  0.085-   5 3.04  12 3.06  12 3.06  11 3.10   9 3.23   9 3.23
  22  0.750  0.097  0.915-   6 3.04  11 3.06  11 3.06  12 3.10  10 3.23  10 3.23
  23  0.250  0.763  0.489-   5 2.90   7 2.98   7 2.98   3 2.98   3 2.98
  24  0.750  0.237  0.511-   6 2.90   8 2.98   8 2.98   4 2.98   4 2.98
  25  0.250  0.470  0.367-   8 2.91   7 3.02   7 3.02   2 3.10   2 3.10
  26  0.750  0.530  0.633-   7 2.91   8 3.02   8 3.02   1 3.10   1 3.10
 
  LATTYP: Found a simple monoclinic cell.
 ALAT       =    19.0563816888
 B/A-ratio  =     0.2198421616
 C/A-ratio  =     1.5810019927
 COS(beta)  =    -0.9453773905
  
  Lattice vectors:
  
 A1 = (   0.0000000000, -13.7146876760, -13.2307605609)
 A2 = (  -4.1893961426,   0.0000000000,   0.0000000000)
 A3 = (   0.0000000000,  27.3173289478,  12.7071088003)


Analysis of symmetry for initial positions (statically):
=====================================================================
 Subroutine PRICEL returns:
 Original cell was already a primitive cell.
 

 Routine SETGRP: Setting up the symmetry group for a 
 simple monoclinic supercell.


 Subroutine GETGRP returns: Found  4 space group operations
 (whereof  2 operations were pure point group operations)
 out of a pool of  4 trial point group operations.


The static configuration has the point symmetry S_2 .
 The point group associated with its full space group is C_2h.


Analysis of symmetry for dynamics (positions and initial velocities):
=====================================================================
 Subroutine PRICEL returns:
 Original cell was already a primitive cell.
 

 Routine SETGRP: Setting up the symmetry group for a 
 simple monoclinic supercell.


 Subroutine GETGRP returns: Found  4 space group operations
 (whereof  2 operations were pure point group operations)
 out of a pool of  4 trial point group operations.


The dynamic configuration has the point symmetry S_2 .
 The point group associated with its full space group is C_2h.


 Subroutine INISYM returns: Found  4 space group operations
 (whereof  2 operations are pure point group operations),
 and found     1 'primitive' translations

 
 
 KPOINTS: pymatgen with grid density = 807 / numbe

Automatic generation of k-mesh.
Space group operators:
 irot       det(A)        alpha          n_x          n_y          n_z        tau_x        tau_y        tau_z
    1     1.000000     0.000000     1.000000     0.000000     0.000000     0.000000     0.000000     0.000000
    2    -1.000000     0.000000     1.000000     0.000000     0.000000     0.000000     0.000000     0.000000
    3     1.000000   179.999999     1.000000     0.000000     0.000000    -0.500000     0.000000     0.000000
    4    -1.000000   179.999999     1.000000     0.000000     0.000000    -0.500000     0.000000     0.000000
 
 Subroutine IBZKPT returns following result:
 ===========================================
 
 Found      6 irreducible k-points:
 
 Following reciprocal coordinates:
            Coordinates               Weight
  0.000000  0.250000  0.250000      2.000000
  0.200000  0.250000  0.250000      4.000000
  0.400000  0.250000  0.250000      4.000000
  0.000000 -0.250000  0.250000      2.000000
  0.200000 -0.250000  0.250000      4.000000
  0.400000 -0.250000  0.250000      4.000000
 
 Following cartesian coordinates:
            Coordinates               Weight
  0.000000  0.019073  0.018021      2.000000
  0.047740  0.019073  0.018021      4.000000
  0.095479  0.019073  0.018021      4.000000
  0.000000 -0.017674  0.018320      2.000000
  0.047740 -0.017674  0.018320      4.000000
  0.095479 -0.017674  0.018320      4.000000
 


--------------------------------------------------------------------------------------------------------




 Dimension of arrays:
   k-points           NKPTS =      6   k-points in BZ     NKDIM =      6   number of bands    NBANDS=     84
   number of dos      NEDOS =    301   number of ions     NIONS =     26
   non local maximal  LDIM  =      5   non local SUM 2l+1 LMDIM =     13
   total plane-waves  NPLWV =  64800
   max r-space proj   IRMAX =   1452   max aug-charges    IRDMAX=   4118
   dimension x,y,z NGX =    18 NGY =   60 NGZ =   60
   dimension x,y,z NGXF=    28 NGYF=   96 NGZF=   96
   support grid    NGXF=    28 NGYF=   96 NGZF=   96
   ions per type =               4   8  14
   NGX,Y,Z   is equivalent  to a cutoff of   7.14,  7.33,  7.25 a.u.
   NGXF,Y,Z  is equivalent  to a cutoff of  11.11, 11.72, 11.60 a.u.

 SYSTEM =  CIS                                     
 POSCAR =  Na4 Bi8 Se14                            

 Startparameter for this run:
   NWRITE =      2    write-flag & timer
   PREC   = medium    normal or accurate (medium, high low for compatibility)
   ISTART =      0    job   : 0-new  1-cont  2-samecut
   ICHARG =      2    charge: 1-file 2-atom 10-const
   ISPIN  =      1    spin polarized calculation?
   LNONCOLLINEAR =      F non collinear calculations
   LSORBIT =      F    spin-orbit coupling
   INIWAV =      1    electr: 0-lowe 1-rand  2-diag
   LASPH  =      T    aspherical Exc in radial PAW
   METAGGA=      F    non-selfconsistent MetaGGA calc.

 Electronic Relaxation 1
   ENCUT  =  300.0 eV  22.05 Ry    4.70 a.u.   5.92 19.22 19.43*2*pi/ulx,y,z
   ENINI  =  300.0     initial cutoff
   ENAUG  =  446.8 eV  augmentation charge cutoff
   NELM   =     60;   NELMIN=  2; NELMDL= -5     # of ELM steps 
   EDIFF  = 0.1E-03   stopping-criterion for ELM
   LREAL  =      T    real-space projection
   NLSPLINE    = F    spline interpolate recip. space projectors
   LCOMPAT=      F    compatible to vasp.4.4
   GGA_COMPAT  = T    GGA compatible to vasp.4.4-vasp.4.6
   LMAXPAW     = -100 max onsite density
   LMAXMIX     =    4 max onsite mixed and CHGCAR
   VOSKOWN=      0    Vosko Wilk Nusair interpolation
   ROPT   =   -0.00200  -0.00200  -0.00200
 Ionic relaxation
   EDIFFG = -.5E-01   stopping-criterion for IOM
   NSW    =     99    number of steps for IOM
   NBLOCK =      1;   KBLOCK =     99    inner block; outer block 
   IBRION =      2    ionic relax: 0-MD 1-quasi-New 2-CG
   NFREE  =      1    steps in history (QN), initial steepest desc. (CG)
   ISIF   =      3    stress and relaxation
   IWAVPR =     11    prediction:  0-non 1-charg 2-wave 3-comb
   ISYM   =      2    0-nonsym 1-usesym 2-fastsym
   LCORR  =      T    Harris-Foulkes like correction to forces

   POTIM  = 0.1000    time-step for ionic-motion
   TEIN   =    0.0    initial temperature
   TEBEG  =    0.0;   TEEND  =   0.0 temperature during run
   SMASS  =  -3.00    Nose mass-parameter (am)
   estimated Nose-frequenzy (Omega)   =  0.10E-29 period in steps =****** mass=  -0.401E-27a.u.
   SCALEE = 1.0000    scale energy and forces
   NPACO  =    256;   APACO  = 16.0  distance and # of slots for P.C.
   PSTRESS=    0.0 pullay stress

  Mass of Ions in am
   POMASS =  22.99208.98 78.96
  Ionic Valenz
   ZVAL   =   1.00  5.00  6.00
  Atomic Wigner-Seitz radii
   RWIGS  =  -1.00 -1.00 -1.00
  virtual crystal weights 
   VCA    =   1.00  1.00  1.00
   NELECT =     128.0000    total number of electrons
   NUPDOWN=      -1.0000    fix difference up-down

 DOS related values:
   EMIN   =  10.00;   EMAX   =-10.00  energy-range for DOS
   EFERMI =   0.00
   ISMEAR =     0;   SIGMA  =   0.05  broadening in eV -4-tet -1-fermi 0-gaus

 Electronic relaxation 2 (details)
   IALGO  =     38    algorithm
   LDIAG  =      T    sub-space diagonalisation (order eigenvalues)
   LSUBROT=      F    optimize rotation matrix (better conditioning)
   TURBO    =      0    0=normal 1=particle mesh
   IRESTART =      0    0=no restart 2=restart with 2 vectors
   NREBOOT  =      0    no. of reboots
   NMIN     =      0    reboot dimension
   EREF     =   0.00    reference energy to select bands
   IMIX   =      4    mixing-type and parameters
     AMIX     =   0.40;   BMIX     =  1.00
     AMIX_MAG =   1.60;   BMIX_MAG =  1.00
     AMIN     =   0.10
     WC   =   100.;   INIMIX=   1;  MIXPRE=   1;  MAXMIX= -45

 Intra band minimization:
   WEIMIN = 0.0010     energy-eigenvalue tresh-hold
   EBREAK =  0.30E-06  absolut break condition
   DEPER  =   0.30     relativ break condition  

   TIME   =   0.40     timestep for ELM

  volume/ion in A,a.u.               =      30.16       203.51
  Fermi-wavevector in a.u.,A,eV,Ry     =   0.894734  1.690802 10.892125  0.800549
  Thomas-Fermi vector in A             =   2.016976
 
 Write flags
   LWAVE        =      F    write WAVECAR
   LDOWNSAMPLE  =      F    k-point downsampling of WAVECAR
   LCHARG       =      F    write CHGCAR
   LVTOT        =      F    write LOCPOT, total local potential
   LVHAR        =      F    write LOCPOT, Hartree potential only
   LELF         =      F    write electronic localiz. function (ELF)
   LORBIT       =     10    0 simple, 1 ext, 2 COOP (PROOUT), +10 PAW based schemes


 Dipole corrections
   LMONO  =      F    monopole corrections only (constant potential shift)
   LDIPOL =      F    correct potential (dipole corrections)
   IDIPOL =      0    1-x, 2-y, 3-z, 4-all directions 
   EPSILON=  1.0000000 bulk dielectric constant

 Exchange correlation treatment:
   GGA     =    --    GGA type
   LEXCH   =     8    internal setting for exchange type
   VOSKOWN=      0    Vosko Wilk Nusair interpolation
   LHFCALC =     F    Hartree Fock is set to
   LHFONE  =     F    Hartree Fock one center treatment
   AEXX    =    0.0000 exact exchange contribution

 Linear response parameters
   LEPSILON=     F    determine dielectric tensor
   LRPA    =     F    only Hartree local field effects (RPA)
   LNABLA  =     F    use nabla operator in PAW spheres
   LVEL    =     F    velocity operator in full k-point grid
   LINTERFAST=   F  fast interpolation
   KINTER  =     0    interpolate to denser k-point grid
   CSHIFT  =0.1000    complex shift for real part using Kramers Kronig
   OMEGAMAX=  -1.0    maximum frequency
   DEG_THRESHOLD= 0.2000000E-02 threshold for treating states as degnerate
   RTIME   =   -0.100 relaxation time in fs
  (WPLASMAI=    0.000 imaginary part of plasma frequency in eV, 0.658/RTIME)
   DFIELD  = 0.0000000 0.0000000 0.0000000 field for delta impulse in time
 
 Orbital magnetization related:
   ORBITALMAG=     F  switch on orbital magnetization
   LCHIMAG   =     F  perturbation theory with respect to B field
   DQ        =  0.001000  dq finite difference perturbation B field
   LLRAUG    =     F  two centre corrections for induced B field



--------------------------------------------------------------------------------------------------------


 conjugate gradient relaxation of ions
 charge density and potential will be updated during run
 non-spin polarized calculation
 Variant of blocked Davidson
 Davidson routine will perform the subspace rotation
 perform sub-space diagonalisation
    after iterative eigenvector-optimisation
 modified Broyden-mixing scheme, WC =      100.0
 initial mixing is a Kerker type mixing with AMIX =  0.4000 and BMIX =      1.0000
 Hartree-type preconditioning will be used
 using additional bands           20
 real space projection scheme for non local part
 use partial core corrections
 calculate Harris-corrections to forces 
   (improved forces if not selfconsistent)
 use gradient corrections 
 use of overlap-Matrix (Vanderbilt PP)
 Gauss-broadening in eV      SIGMA  =   0.05


--------------------------------------------------------------------------------------------------------


  energy-cutoff  :      300.00
  volume of cell :      784.07
      direct lattice vectors                 reciprocal lattice vectors
     4.189396143  0.000000000  0.000000000     0.238697885  0.000000000  0.000000000
     0.000000000 13.602641272 -0.523651761     0.000000000  0.073492087 -0.000598682
     0.000000000  0.112046404 13.754412321     0.000000000  0.002797957  0.072681150

  length of vectors
     4.189396143 13.612716876 13.754868691     0.238697885  0.073494526  0.072734985


 
 k-points in units of 2pi/SCALE and weight: pymatgen with grid density = 807 / numbe
   0.00000000  0.01907251  0.01802062       0.100
   0.04773958  0.01907251  0.01802062       0.200
   0.09547915  0.01907251  0.01802062       0.200
   0.00000000 -0.01767353  0.01831996       0.100
   0.04773958 -0.01767353  0.01831996       0.200
   0.09547915 -0.01767353  0.01831996       0.200
 
 k-points in reciprocal lattice and weights: pymatgen with grid density = 807 / numbe
   0.00000000  0.25000000  0.25000000       0.100
   0.20000000  0.25000000  0.25000000       0.200
   0.40000000  0.25000000  0.25000000       0.200
   0.00000000 -0.25000000  0.25000000       0.100
   0.20000000 -0.25000000  0.25000000       0.200
   0.40000000 -0.25000000  0.25000000       0.200
 
 position of ions in fractional coordinates (direct lattice) 
   0.25000000  0.55158254  0.79819023
   0.75000000  0.44841746  0.20180977
   0.75000000  0.84452463  0.62218693
   0.25000000  0.15547537  0.37781307
   0.25000000  0.84396686  0.29646884
   0.75000000  0.15603314  0.70353116
   0.75000000  0.61366118  0.44067628
   0.25000000  0.38633882  0.55932372
   0.75000000  0.72928667  0.03093256
   0.25000000  0.27071333  0.96906744
   0.25000000  0.93995597  0.86408904
   0.75000000  0.06004403  0.13591096
   0.25000000  0.59540986  0.00433758
   0.75000000  0.40459014  0.99566242
   0.75000000  0.00067527  0.33231421
   0.25000000  0.99932473  0.66768579
   0.75000000  0.70067860  0.24314505
   0.25000000  0.29932140  0.75685495
   0.75000000  0.79423295  0.82611601
   0.25000000  0.20576705  0.17388399
   0.25000000  0.90278297  0.08528515
   0.75000000  0.09721703  0.91471485
   0.25000000  0.76258680  0.48885304
   0.75000000  0.23741320  0.51114696
   0.25000000  0.47041809  0.36708012
   0.75000000  0.52958191  0.63291988
 
 position of ions in cartesian coordinates  (Angst):
   1.04734904  7.59241375 10.68980037
   3.14204711  6.12227393  2.54096019
   3.14204711 11.55747946  8.11557879
   1.04734904  2.15720821  5.11518177
   1.04734904 11.51339671  3.63580997
   3.14204711  2.20129096  9.59495059
   3.14204711  8.39678905  5.73989849
   1.04734904  5.31789862  7.49086207
   3.14204711  9.92369082  0.04356691
   1.04734904  3.79099686 13.18719365
   1.04734904 12.88270188 11.39282741
   3.14204711  0.83198579  1.83793315
   1.04734904  8.09963272 -0.25212658
   3.14204711  5.61505496 13.48288714
   3.14204711  0.04642002  4.57043300
   1.04734904 13.66826766  8.66032757
   3.14204711  9.55832314  2.97740573
   1.04734904  4.15636453 10.25335483
   3.14204711 10.89622925 10.94683881
   1.04734904  2.81845842  2.28392175
   1.04734904 12.28978881  0.70030324
   3.14204711  1.42489887 12.53045732
   1.04734904 10.42796884  6.32455630
   3.14204711  3.28671884  6.90620426
   1.04734904  6.44005854  4.80263610
   3.14204711  7.27462913  8.42812446
 


--------------------------------------------------------------------------------------------------------


 k-point  1 :   0.0000 0.2500 0.2500  plane waves:    9208
 k-point  2 :   0.2000 0.2500 0.2500  plane waves:    9261
 k-point  3 :   0.4000 0.2500 0.2500  plane waves:    9283
 k-point  4 :   0.0000-0.2500 0.2500  plane waves:    9211
 k-point  5 :   0.2000-0.2500 0.2500  plane waves:    9226
 k-point  6 :   0.4000-0.2500 0.2500  plane waves:    9274

 maximum and minimum number of plane-waves per node :      9283     9208

 maximum number of plane-waves:      9283
 maximum index in each direction: 
   IXMAX=    5   IYMAX=   19   IZMAX=   19
   IXMIN=   -6   IYMIN=  -19   IZMIN=  -19


 serial   3D FFT for wavefunctions
 parallel 3D FFT for charge:
    minimum data exchange during FFTs selected (reduces bandwidth)


 total amount of memory used by VASP MPI-rank0    43385. kBytes
=======================================================================

   base      :      30000. kBytes
   nonlr-proj:       2890. kBytes
   fftplans  :        947. kBytes
   grid      :       3807. kBytes
   one-center:        210. kBytes
   wavefun   :       5531. kBytes
 
     INWAV:  cpu time    0.0000: real time    0.0001
 Broyden mixing: mesh for mixing (old mesh)
   NGX = 11   NGY = 39   NGZ = 39
  (NGX  = 28   NGY  = 96   NGZ  = 96)
  gives a total of  16731 points

 initial charge density was supplied:
 charge density of overlapping atoms calculated
 number of electron     128.0000000 magnetization 
 keeping initial charge density in first step


--------------------------------------------------------------------------------------------------------


 Maximum index for non-local projection operator         1372
 Maximum index for augmentation-charges          274 (set IRDMAX)


--------------------------------------------------------------------------------------------------------


 First call to EWALD:  gamma=   0.192
 Maximum number of real-space cells 5x 2x 2
 Maximum number of reciprocal cells 2x 4x 4

    FEWALD:  cpu time    0.0022: real time    0.0022


--------------------------------------- Iteration      1(   1)  ---------------------------------------


    POTLOK:  cpu time    0.0279: real time    0.0630
    SETDIJ:  cpu time    0.2379: real time    0.2411
     EDDAV:  cpu time    1.0827: real time    1.1117
       DOS:  cpu time    0.0006: real time    0.0007
    --------------------------------------------
      LOOP:  cpu time    1.3491: real time    1.4165

 eigenvalue-minimisations  :  1008
 total energy-change (2. order) : 0.5523993E+03  (-0.3433821E+04)
 number of electron     128.0000000 magnetization 
 augmentation part      128.0000000 magnetization 

 Free energy of the ion-electron system (eV)
  ---------------------------------------------------
  alpha Z        PSCENC =       136.54231062
  Ewald energy   TEWEN  =     -4088.78282489
  -Hartree energ DENC   =      -852.15379661
  -exchange      EXHF   =         0.00000000
  -V(xc)+E(xc)   XCENC  =     -1036.92674461
  PAW double counting   =      4904.45371565    -3626.14853555
  entropy T*S    EENTRO =        -0.01032003
  eigenvalues    EBANDS =       288.54530528
  atomic energy  EATOM  =      4826.88019477
  Solvation  Ediel_sol  =         0.00000000
  ---------------------------------------------------
  free energy    TOTEN  =       552.39930463 eV

  energy without entropy =      552.40962466  energy(sigma->0) =      552.40446464


--------------------------------------------------------------------------------------------------------




--------------------------------------- Iteration      1(   2)  ---------------------------------------


     EDDAV:  cpu time    1.2166: real time    1.2428
       DOS:  cpu time    0.0003: real time    0.0004
    --------------------------------------------
      LOOP:  cpu time    1.2169: real time    1.2431

 eigenvalue-minimisations  :  1330
 total energy-change (2. order) :-0.5929220E+03  (-0.5730905E+03)
 number of electron     128.0000000 magnetization 
 augmentation part      128.0000000 magnetization 

 Free energy of the ion-electron system (eV)
  ---------------------------------------------------
  alpha Z        PSCENC =       136.54231062
  Ewald energy   TEWEN  =     -4088.78282489
  -Hartree energ DENC   =      -852.15379661
  -exchange      EXHF   =         0.00000000
  -V(xc)+E(xc)   XCENC  =     -1036.92674461
  PAW double counting   =      4904.45371565    -3626.14853555
  entropy T*S    EENTRO =        -0.00000000
  eigenvalues    EBANDS =      -304.38701325
  atomic energy  EATOM  =      4826.88019477
  Solvation  Ediel_sol  =         0.00000000
  ---------------------------------------------------
  free energy    TOTEN  =       -40.52269387 eV

  energy without entropy =      -40.52269387  energy(sigma->0) =      -40.52269387


--------------------------------------------------------------------------------------------------------




--------------------------------------- Iteration      1(   3)  ---------------------------------------


     EDDAV:  cpu time    1.2123: real time    1.2342
       DOS:  cpu time    0.0004: real time    0.0004
    --------------------------------------------
      LOOP:  cpu time    1.2127: real time    1.2346

 eigenvalue-minimisations  :  1204
 total energy-change (2. order) :-0.6223344E+02  (-0.6134214E+02)
 number of electron     128.0000000 magnetization 
 augmentation part      128.0000000 magnetization 

 Free energy of the ion-electron system (eV)
  ---------------------------------------------------
  alpha Z        PSCENC =       136.54231062
  Ewald energy   TEWEN  =     -4088.78282489
  -Hartree energ DENC   =      -852.15379661
  -exchange      EXHF   =         0.00000000
  -V(xc)+E(xc)   XCENC  =     -1036.92674461
  PAW double counting   =      4904.45371565    -3626.14853555
  entropy T*S    EENTRO =        -0.00000000
  eigenvalues    EBANDS =      -366.62044958
  atomic energy  EATOM  =      4826.88019477
  Solvation  Ediel_sol  =         0.00000000
  ---------------------------------------------------
  free energy    TOTEN  =      -102.75613020 eV

  energy without entropy =     -102.75613020  energy(sigma->0) =     -102.75613020


--------------------------------------------------------------------------------------------------------




--------------------------------------- Iteration      1(   4)  ---------------------------------------


     EDDAV:  cpu time    1.2396: real time    1.2625
       DOS:  cpu time    0.0004: real time    0.0004
    --------------------------------------------
      LOOP:  cpu time    1.2399: real time    1.2628

 eigenvalue-minimisations  :  1540
 total energy-change (2. order) :-0.2714130E+01  (-0.2702549E+01)
 number of electron     128.0000000 magnetization 
 augmentation part      128.0000000 magnetization 

 Free energy of the ion-electron system (eV)
  ---------------------------------------------------
  alpha Z        PSCENC =       136.54231062
  Ewald energy   TEWEN  =     -4088.78282489
  -Hartree energ DENC   =      -852.15379661
  -exchange      EXHF   =         0.00000000
  -V(xc)+E(xc)   XCENC  =     -1036.92674461
  PAW double counting   =      4904.45371565    -3626.14853555
  entropy T*S    EENTRO =        -0.00000000
  eigenvalues    EBANDS =      -369.33457952
  atomic energy  EATOM  =      4826.88019477
  Solvation  Ediel_sol  =         0.00000000
  ---------------------------------------------------
  free energy    TOTEN  =      -105.47026014 eV

  energy without entropy =     -105.47026014  energy(sigma->0) =     -105.47026014


--------------------------------------------------------------------------------------------------------




--------------------------------------- Iteration      1(   5)  ---------------------------------------


     EDDAV:  cpu time    1.2731: real time    1.2999
       DOS:  cpu time    0.0003: real time    0.0003
    CHARGE:  cpu time    0.0326: real time    0.0329
    MIXING:  cpu time    0.0005: real time    0.0005
    --------------------------------------------
      LOOP:  cpu time    1.3065: real time    1.3336

 eigenvalue-minimisations  :  1358
 total energy-change (2. order) :-0.4992620E-01  (-0.4989031E-01)
 number of electron     127.9999395 magnetization 
 augmentation part      -28.3141915 magnetization 

 Broyden mixing:
  rms(total) = 0.13564E+01    rms(broyden)= 0.13563E+01
  rms(prec ) = 0.16610E+01
  weight for this iteration     100.00

 Free energy of the ion-electron system (eV)
  ---------------------------------------------------
  alpha Z        PSCENC =       136.54231062
  Ewald energy   TEWEN  =     -4088.78282489
  -Hartree energ DENC   =      -852.15379661
  -exchange      EXHF   =         0.00000000
  -V(xc)+E(xc)   XCENC  =     -1036.92674461
  PAW double counting   =      4904.45371565    -3626.14853555
  entropy T*S    EENTRO =        -0.00000000
  eigenvalues    EBANDS =      -369.38450572
  atomic energy  EATOM  =      4826.88019477
  Solvation  Ediel_sol  =         0.00000000
  ---------------------------------------------------
  free energy    TOTEN  =      -105.52018634 eV

  energy without entropy =     -105.52018634  energy(sigma->0) =     -105.52018634


--------------------------------------------------------------------------------------------------------




--------------------------------------- Iteration      1(   6)  ---------------------------------------


    POTLOK:  cpu time    0.0110: real time    0.0111
    SETDIJ:  cpu time    0.2355: real time    0.2363
     EDDAV:  cpu time    0.8494: real time    0.8578
       DOS:  cpu time    0.0003: real time    0.0003
    CHARGE:  cpu time    0.0367: real time    0.0371
    MIXING:  cpu time    0.0009: real time    0.0010
    --------------------------------------------
      LOOP:  cpu time    1.1338: real time    1.1437

 eigenvalue-minimisations  :  1190
 total energy-change (2. order) : 0.5176625E+01  (-0.1010249E+01)
 number of electron     127.9999406 magnetization 
 augmentation part      -28.2115135 magnetization 

 Broyden mixing:
  rms(total) = 0.72800E+00    rms(broyden)= 0.72799E+00
  rms(prec ) = 0.77091E+00
  weight for this iteration     100.00

 eigenvalues of (default mixing * dielectric matrix)
  average eigenvalue GAMMA=   1.4705
  1.4705

 Free energy of the ion-electron system (eV)
  ---------------------------------------------------
  alpha Z        PSCENC =       136.54231062
  Ewald energy   TEWEN  =     -4088.78282489
  -Hartree energ DENC   =      -885.75250844
  -exchange      EXHF   =         0.00000000
  -V(xc)+E(xc)   XCENC  =     -1033.36254274
  PAW double counting   =      5506.17930769    -4228.42765355
  entropy T*S    EENTRO =        -0.00000000
  eigenvalues    EBANDS =      -333.61984435
  atomic energy  EATOM  =      4826.88019477
  Solvation  Ediel_sol  =         0.00000000
  ---------------------------------------------------
  free energy    TOTEN  =      -100.34356089 eV

  energy without entropy =     -100.34356089  energy(sigma->0) =     -100.34356089


--------------------------------------------------------------------------------------------------------




--------------------------------------- Iteration      1(   7)  ---------------------------------------


    POTLOK:  cpu time    0.0111: real time    0.0113
    SETDIJ:  cpu time    0.2374: real time    0.2400
     EDDAV:  cpu time    1.2337: real time    1.2487
       DOS:  cpu time    0.0004: real time    0.0004
    CHARGE:  cpu time    0.0368: real time    0.0372
    MIXING:  cpu time    0.0010: real time    0.0011
    --------------------------------------------
      LOOP:  cpu time    1.5203: real time    1.5387

 eigenvalue-minimisations  :  1232
 total energy-change (2. order) :-0.8991406E-01  (-0.3681186E+00)
 number of electron     127.9999418 magnetization 
 augmentation part      -28.3611846 magnetization 

 Broyden mixing:
  rms(total) = 0.48501E+00    rms(broyden)= 0.48501E+00
  rms(prec ) = 0.49993E+00
  weight for this iteration     100.00

 eigenvalues of (default mixing * dielectric matrix)
  average eigenvalue GAMMA=   1.4648
  0.8146  2.1151

 Free energy of the ion-electron system (eV)
  ---------------------------------------------------
  alpha Z        PSCENC =       136.54231062
  Ewald energy   TEWEN  =     -4088.78282489
  -Hartree energ DENC   =      -897.94286204
  -exchange      EXHF   =         0.00000000
  -V(xc)+E(xc)   XCENC  =     -1031.80235733
  PAW double counting   =      6051.70547389    -4774.44285810
  entropy T*S    EENTRO =        -0.00000000
  eigenvalues    EBANDS =      -322.59055186
  atomic energy  EATOM  =      4826.88019477
  Solvation  Ediel_sol  =         0.00000000
  ---------------------------------------------------
  free energy    TOTEN  =      -100.43347495 eV

  energy without entropy =     -100.43347495  energy(sigma->0) =     -100.43347495


--------------------------------------------------------------------------------------------------------




--------------------------------------- Iteration      1(   8)  ---------------------------------------


    POTLOK:  cpu time    0.0120: real time    0.0124
    SETDIJ:  cpu time    0.2389: real time    0.2411
     EDDAV:  cpu time    1.4541: real time    1.4773
       DOS:  cpu time    0.0003: real time    0.0003
    CHARGE:  cpu time    0.0365: real time    0.0371
    MIXING:  cpu time    0.0008: real time    0.0008
    --------------------------------------------
      LOOP:  cpu time    1.7427: real time    1.7690

 eigenvalue-minimisations  :  1484
 total energy-change (2. order) :-0.2068905E-01  (-0.2811413E-01)
 number of electron     127.9999419 magnetization 
 augmentation part      -28.4469844 magnetization 

 Broyden mixing:
  rms(total) = 0.21536E+00    rms(broyden)= 0.21536E+00
  rms(prec ) = 0.22314E+00
  weight for this iteration     100.00

 eigenvalues of (default mixing * dielectric matrix)
  average eigenvalue GAMMA=   1.5624
  2.5878  1.0497  1.0497

 Free energy of the ion-electron system (eV)
  ---------------------------------------------------
  alpha Z        PSCENC =       136.54231062
  Ewald energy   TEWEN  =     -4088.78282489
  -Hartree energ DENC   =      -899.58721886
  -exchange      EXHF   =         0.00000000
  -V(xc)+E(xc)   XCENC  =     -1031.35008547
  PAW double counting   =      6439.30049815    -5162.19309711
  entropy T*S    EENTRO =        -0.00000000
  eigenvalues    EBANDS =      -321.26394121
  atomic energy  EATOM  =      4826.88019477
  Solvation  Ediel_sol  =         0.00000000
  ---------------------------------------------------
  free energy    TOTEN  =      -100.45416400 eV

  energy without entropy =     -100.45416400  energy(sigma->0) =     -100.45416400


--------------------------------------------------------------------------------------------------------




--------------------------------------- Iteration      1(   9)  ---------------------------------------


    POTLOK:  cpu time    0.0115: real time    0.0117
    SETDIJ:  cpu time    0.2389: real time    0.2415
     EDDAV:  cpu time    1.2232: real time    1.2419
       DOS:  cpu time    0.0002: real time    0.0002
    CHARGE:  cpu time    0.0332: real time    0.0335
    MIXING:  cpu time    0.0008: real time    0.0008
    --------------------------------------------
      LOOP:  cpu time    1.5079: real time    1.5297

 eigenvalue-minimisations  :  1288
 total energy-change (2. order) :-0.1379386E-01  (-0.6092596E-02)
 number of electron     127.9999418 magnetization 
 augmentation part      -28.4655469 magnetization 

 Broyden mixing:
  rms(total) = 0.40806E-01    rms(broyden)= 0.40805E-01
  rms(prec ) = 0.44291E-01
  weight for this iteration     100.00

 eigenvalues of (default mixing * dielectric matrix)
  average eigenvalue GAMMA=   1.3905
  2.4608  1.1186  1.1186  0.8641

 Free energy of the ion-electron system (eV)
  ---------------------------------------------------
  alpha Z        PSCENC =       136.54231062
  Ewald energy   TEWEN  =     -4088.78282489
  -Hartree energ DENC   =      -901.31694420
  -exchange      EXHF   =         0.00000000
  -V(xc)+E(xc)   XCENC  =     -1030.97966165
  PAW double counting   =      6681.45057425    -5404.29370217
  entropy T*S    EENTRO =        -0.00000000
  eigenvalues    EBANDS =      -319.96790460
  atomic energy  EATOM  =      4826.88019477
  Solvation  Ediel_sol  =         0.00000000
  ---------------------------------------------------
  free energy    TOTEN  =      -100.46795786 eV

  energy without entropy =     -100.46795786  energy(sigma->0) =     -100.46795786


--------------------------------------------------------------------------------------------------------




--------------------------------------- Iteration      1(  10)  ---------------------------------------


    POTLOK:  cpu time    0.0108: real time    0.0110
    SETDIJ:  cpu time    0.2386: real time    0.2412
     EDDAV:  cpu time    1.0817: real time    1.0887
       DOS:  cpu time    0.0002: real time    0.0002
    CHARGE:  cpu time    0.0318: real time    0.0319
    MIXING:  cpu time    0.0008: real time    0.0008
    --------------------------------------------
      LOOP:  cpu time    1.3640: real time    1.3739

 eigenvalue-minimisations  :  1288
 total energy-change (2. order) :-0.1209634E-02  (-0.9398382E-03)
 number of electron     127.9999417 magnetization 
 augmentation part      -28.4678762 magnetization 

 Broyden mixing:
  rms(total) = 0.25296E-01    rms(broyden)= 0.25296E-01
  rms(prec ) = 0.28163E-01
  weight for this iteration     100.00

 eigenvalues of (default mixing * dielectric matrix)
  average eigenvalue GAMMA=   1.4731
  2.4972  1.5054  0.9949  0.9949  1.3733

 Free energy of the ion-electron system (eV)
  ---------------------------------------------------
  alpha Z        PSCENC =       136.54231062
  Ewald energy   TEWEN  =     -4088.78282489
  -Hartree energ DENC   =      -901.45217009
  -exchange      EXHF   =         0.00000000
  -V(xc)+E(xc)   XCENC  =     -1030.99870559
  PAW double counting   =      6659.97965328    -5382.77087378
  entropy T*S    EENTRO =        -0.00000000
  eigenvalues    EBANDS =      -319.86675182
  atomic energy  EATOM  =      4826.88019477
  Solvation  Ediel_sol  =         0.00000000
  ---------------------------------------------------
  free energy    TOTEN  =      -100.46916750 eV

  energy without entropy =     -100.46916750  energy(sigma->0) =     -100.46916750


--------------------------------------------------------------------------------------------------------




--------------------------------------- Iteration      1(  11)  ---------------------------------------


    POTLOK:  cpu time    0.0100: real time    0.0102
    SETDIJ:  cpu time    0.2404: real time    0.2418
     EDDAV:  cpu time    1.2849: real time    1.2960
       DOS:  cpu time    0.0003: real time    0.0003
    CHARGE:  cpu time    0.0358: real time    0.0359
    MIXING:  cpu time    0.0010: real time    0.0010
    --------------------------------------------
      LOOP:  cpu time    1.5725: real time    1.5853

 eigenvalue-minimisations  :  1274
 total energy-change (2. order) :-0.1077770E-02  (-0.2060564E-03)
 number of electron     127.9999418 magnetization 
 augmentation part      -28.4612860 magnetization 

 Broyden mixing:
  rms(total) = 0.86327E-02    rms(broyden)= 0.86327E-02
  rms(prec ) = 0.98779E-02
  weight for this iteration     100.00

 eigenvalues of (default mixing * dielectric matrix)
  average eigenvalue GAMMA=   1.4897
  2.3859  2.3859  1.0108  1.0108  0.9611  1.1837

 Free energy of the ion-electron system (eV)
  ---------------------------------------------------
  alpha Z        PSCENC =       136.54231062
  Ewald energy   TEWEN  =     -4088.78282489
  -Hartree energ DENC   =      -902.01861691
  -exchange      EXHF   =         0.00000000
  -V(xc)+E(xc)   XCENC  =     -1030.97960509
  PAW double counting   =      6646.87072110    -5369.60237207
  entropy T*S    EENTRO =        -0.00000000
  eigenvalues    EBANDS =      -319.38005280
  atomic energy  EATOM  =      4826.88019477
  Solvation  Ediel_sol  =         0.00000000
  ---------------------------------------------------
  free energy    TOTEN  =      -100.47024527 eV

  energy without entropy =     -100.47024527  energy(sigma->0) =     -100.47024527


--------------------------------------------------------------------------------------------------------




--------------------------------------- Iteration      1(  12)  ---------------------------------------


    POTLOK:  cpu time    0.0130: real time    0.0133
    SETDIJ:  cpu time    0.2398: real time    0.2412
     EDDAV:  cpu time    1.1257: real time    1.1334
       DOS:  cpu time    0.0003: real time    0.0003
    CHARGE:  cpu time    0.0318: real time    0.0319
    MIXING:  cpu time    0.0009: real time    0.0009
    --------------------------------------------
      LOOP:  cpu time    1.4115: real time    1.4210

 eigenvalue-minimisations  :  1232
 total energy-change (2. order) :-0.3316702E-03  (-0.7484137E-04)
 number of electron     127.9999418 magnetization 
 augmentation part      -28.4579440 magnetization 

 Broyden mixing:
  rms(total) = 0.40687E-02    rms(broyden)= 0.40686E-02
  rms(prec ) = 0.48742E-02
  weight for this iteration     100.00

 eigenvalues of (default mixing * dielectric matrix)
  average eigenvalue GAMMA=   1.5120
  2.6108  2.6108  1.0216  1.1001  1.1001  1.0703  1.0703

 Free energy of the ion-electron system (eV)
  ---------------------------------------------------
  alpha Z        PSCENC =       136.54231062
  Ewald energy   TEWEN  =     -4088.78282489
  -Hartree energ DENC   =      -902.25237202
  -exchange      EXHF   =         0.00000000
  -V(xc)+E(xc)   XCENC  =     -1030.97274489
  PAW double counting   =      6634.83041119    -5357.54115181
  entropy T*S    EENTRO =        -0.00000000
  eigenvalues    EBANDS =      -319.17439991
  atomic energy  EATOM  =      4826.88019477
  Solvation  Ediel_sol  =         0.00000000
  ---------------------------------------------------
  free energy    TOTEN  =      -100.47057694 eV

  energy without entropy =     -100.47057694  energy(sigma->0) =     -100.47057694


--------------------------------------------------------------------------------------------------------




--------------------------------------- Iteration      1(  13)  ---------------------------------------


    POTLOK:  cpu time    0.0089: real time    0.0090
    SETDIJ:  cpu time    0.2360: real time    0.2366
     EDDAV:  cpu time    0.6626: real time    0.6651
       DOS:  cpu time    0.0002: real time    0.0002
    CHARGE:  cpu time    0.0320: real time    0.0321
    MIXING:  cpu time    0.0010: real time    0.0010
    --------------------------------------------
      LOOP:  cpu time    0.9406: real time    0.9439

 eigenvalue-minimisations  :   882
 total energy-change (2. order) :-0.1117698E-03  (-0.1832912E-04)
 number of electron     127.9999418 magnetization 
 augmentation part      -28.4569300 magnetization 

 Broyden mixing:
  rms(total) = 0.24876E-02    rms(broyden)= 0.24876E-02
  rms(prec ) = 0.27332E-02
  weight for this iteration     100.00

 eigenvalues of (default mixing * dielectric matrix)
  average eigenvalue GAMMA=   1.5099
  2.5260  2.5260  1.7599  1.0005  1.0005  1.1848  1.1848  0.8967

 Free energy of the ion-electron system (eV)
  ---------------------------------------------------
  alpha Z        PSCENC =       136.54231062
  Ewald energy   TEWEN  =     -4088.78282489
  -Hartree energ DENC   =      -902.39454627
  -exchange      EXHF   =         0.00000000
  -V(xc)+E(xc)   XCENC  =     -1030.96245053
  PAW double counting   =      6632.83288959    -5355.53911651
  entropy T*S    EENTRO =        -0.00000000
  eigenvalues    EBANDS =      -319.04714548
  atomic energy  EATOM  =      4826.88019477
  Solvation  Ediel_sol  =         0.00000000
  ---------------------------------------------------
  free energy    TOTEN  =      -100.47068871 eV

  energy without entropy =     -100.47068871  energy(sigma->0) =     -100.47068871


--------------------------------------------------------------------------------------------------------




--------------------------------------- Iteration      1(  14)  ---------------------------------------


    POTLOK:  cpu time    0.0103: real time    0.0111
    SETDIJ:  cpu time    0.2397: real time    0.2407
     EDDAV:  cpu time    0.8877: real time    0.8931
       DOS:  cpu time    0.0004: real time    0.0003
    --------------------------------------------
      LOOP:  cpu time    1.1381: real time    1.1454

 eigenvalue-minimisations  :   756
 total energy-change (2. order) :-0.2715319E-04  (-0.5513149E-05)
 number of electron     127.9999418 magnetization 
 augmentation part      -28.4569300 magnetization 

 Free energy of the ion-electron system (eV)
  ---------------------------------------------------
  alpha Z        PSCENC =       136.54231062
  Ewald energy   TEWEN  =     -4088.78282489
  -Hartree energ DENC   =      -902.42898053
  -exchange      EXHF   =         0.00000000
  -V(xc)+E(xc)   XCENC  =     -1030.95759774
  PAW double counting   =      6632.33501786    -5355.04699133
  entropy T*S    EENTRO =        -0.00000000
  eigenvalues    EBANDS =      -319.01184462
  atomic energy  EATOM  =      4826.88019477
  Solvation  Ediel_sol  =         0.00000000
  ---------------------------------------------------
  free energy    TOTEN  =      -100.47071586 eV

  energy without entropy =     -100.47071586  energy(sigma->0) =     -100.47071586


--------------------------------------------------------------------------------------------------------




 average (electrostatic) potential at core
  the test charge radii are     1.1212  1.4024  1.0808
  (the norm of the test charge is              1.0000)
       1 -40.6617       2 -40.6617       3 -40.2347       4 -40.2347       5 -64.4660
       6 -64.4660       7 -64.5576       8 -64.5576       9 -64.3585      10 -64.3585
      11 -64.4522      12 -64.4522      13 -54.6317      14 -54.6317      15 -54.6145
      16 -54.6145      17 -54.7954      18 -54.7954      19 -54.7514      20 -54.7514
      21 -54.7660      22 -54.7660      23 -54.7075      24 -54.7075      25 -54.7093
      26 -54.7093
 
 
 
 E-fermi :   3.0701     XC(G=0):  -8.5821     alpha+bet : -8.3760


 k-point     1 :       0.0000    0.2500    0.2500
  band No.  band energies     occupation 
      1     -10.8658      2.00000
      2     -10.6036      2.00000
      3     -10.5354      2.00000
      4     -10.2958      2.00000
      5      -9.9899      2.00000
      6      -9.8610      2.00000
      7      -9.8391      2.00000
      8      -9.3795      2.00000
      9      -9.3023      2.00000
     10      -9.2442      2.00000
     11      -9.1497      2.00000
     12      -9.1016      2.00000
     13      -9.0688      2.00000
     14      -9.0430      2.00000
     15      -7.4086      2.00000
     16      -7.1043      2.00000
     17      -6.8850      2.00000
     18      -6.8227      2.00000
     19      -6.5943      2.00000
     20      -6.3187      2.00000
     21      -6.0584      2.00000
     22      -5.6719      2.00000
     23      -1.8514      2.00000
     24      -1.2819      2.00000
     25      -1.0188      2.00000
     26      -0.5192      2.00000
     27      -0.3452      2.00000
     28      -0.2828      2.00000
     29      -0.0071      2.00000
     30       0.0058      2.00000
     31       0.0804      2.00000
     32       0.2500      2.00000
     33       0.2831      2.00000
     34       0.3670      2.00000
     35       0.4189      2.00000
     36       0.4903      2.00000
     37       0.5583      2.00000
     38       0.7646      2.00000
     39       0.7948      2.00000
     40       0.8848      2.00000
     41       0.8999      2.00000
     42       1.0063      2.00000
     43       1.0801      2.00000
     44       1.0826      2.00000
     45       1.1645      2.00000
     46       1.2596      2.00000
     47       1.3925      2.00000
     48       1.4551      2.00000
     49       1.5017      2.00000
     50       1.5675      2.00000
     51       1.7372      2.00000
     52       1.8259      2.00000
     53       1.8377      2.00000
     54       1.8730      2.00000
     55       1.8909      2.00000
     56       1.9153      2.00000
     57       1.9749      2.00000
     58       2.0210      2.00000
     59       2.0584      2.00000
     60       2.0749      2.00000
     61       2.1528      2.00000
     62       2.3140      2.00000
     63       2.5045      2.00000
     64       2.8109      2.00000
     65       3.9568      0.00000
     66       4.0372      0.00000
     67       4.2403      0.00000
     68       4.4030      0.00000
     69       4.5767      0.00000
     70       4.6727      0.00000
     71       4.7293      0.00000
     72       4.8849      0.00000
     73       5.0546      0.00000
     74       5.0754      0.00000
     75       5.2852      0.00000
     76       5.3018      0.00000
     77       5.3588      0.00000
     78       5.4546      0.00000
     79       5.5512      0.00000
     80       5.7238      0.00000
     81       5.7995      0.00000
     82       5.8302      0.00000
     83       5.8691      0.00000
     84       6.3106      0.00000

 k-point     2 :       0.2000    0.2500    0.2500
  band No.  band energies     occupation 
      1     -10.6211      2.00000
      2     -10.3702      2.00000
      3     -10.3026      2.00000
      4     -10.0674      2.00000
      5      -9.7805      2.00000
      6      -9.6625      2.00000
      7      -9.6447      2.00000
      8      -9.2516      2.00000
      9      -9.2001      2.00000
     10      -9.1616      2.00000
     11      -9.0790      2.00000
     12      -9.0201      2.00000
     13      -9.0076      2.00000
     14      -8.9853      2.00000
     15      -7.5650      2.00000
     16      -7.2766      2.00000
     17      -7.1180      2.00000
     18      -6.9403      2.00000
     19      -6.7857      2.00000
     20      -6.5647      2.00000
     21      -6.3500      2.00000
     22      -6.0055      2.00000
     23      -1.6154      2.00000
     24      -1.1058      2.00000
     25      -0.9992      2.00000
     26      -0.9194      2.00000
     27      -0.8630      2.00000
     28      -0.7295      2.00000
     29      -0.6561      2.00000
     30      -0.4675      2.00000
     31      -0.3788      2.00000
     32      -0.2660      2.00000
     33      -0.1646      2.00000
     34      -0.0618      2.00000
     35       0.0662      2.00000
     36       0.0959      2.00000
     37       0.1684      2.00000
     38       0.4022      2.00000
     39       0.4626      2.00000
     40       0.5266      2.00000
     41       0.5750      2.00000
     42       0.5971      2.00000
     43       0.6657      2.00000
     44       0.7649      2.00000
     45       0.8131      2.00000
     46       0.9670      2.00000
     47       1.0822      2.00000
     48       1.3058      2.00000
     49       1.3906      2.00000
     50       1.4854      2.00000
     51       1.5573      2.00000
     52       1.6230      2.00000
     53       1.7248      2.00000
     54       1.7977      2.00000
     55       1.8861      2.00000
     56       1.9863      2.00000
     57       2.0616      2.00000
     58       2.1375      2.00000
     59       2.2144      2.00000
     60       2.2543      2.00000
     61       2.2631      2.00000
     62       2.4136      2.00000
     63       2.4412      2.00000
     64       2.6229      2.00000
     65       4.1612      0.00000
     66       4.4151      0.00000
     67       4.6039      0.00000
     68       4.8419      0.00000
     69       4.8711      0.00000
     70       5.0156      0.00000
     71       5.1649      0.00000
     72       5.2119      0.00000
     73       5.3032      0.00000
     74       5.3062      0.00000
     75       5.3678      0.00000
     76       5.5254      0.00000
     77       5.5542      0.00000
     78       5.6673      0.00000
     79       5.8468      0.00000
     80       5.9262      0.00000
     81       5.9817      0.00000
     82       6.1448      0.00000
     83       6.3957      0.00000
     84       6.5083      0.00000

 k-point     3 :       0.4000    0.2500    0.2500
  band No.  band energies     occupation 
      1      -9.9605      2.00000
      2      -9.7665      2.00000
      3      -9.6952      2.00000
      4      -9.5065      2.00000
      5      -9.3268      2.00000
      6      -9.2509      2.00000
      7      -9.2431      2.00000
      8      -9.2075      2.00000
      9      -9.1206      2.00000
     10      -9.0969      2.00000
     11      -9.0779      2.00000
     12      -9.0401      2.00000
     13      -9.0159      2.00000
     14      -8.8927      2.00000
     15      -7.6427      2.00000
     16      -7.5580      2.00000
     17      -7.4927      2.00000
     18      -7.3802      2.00000
     19      -7.2345      2.00000
     20      -7.0848      2.00000
     21      -6.9686      2.00000
     22      -6.7980      2.00000
     23      -1.7096      2.00000
     24      -1.5765      2.00000
     25      -1.4115      2.00000
     26      -1.2842      2.00000
     27      -1.2425      2.00000
     28      -1.1641      2.00000
     29      -0.9476      2.00000
     30      -0.7837      2.00000
     31      -0.7033      2.00000
     32      -0.5936      2.00000
     33      -0.5029      2.00000
     34      -0.4784      2.00000
     35      -0.3791      2.00000
     36      -0.2619      2.00000
     37      -0.2142      2.00000
     38      -0.1154      2.00000
     39      -0.0317      2.00000
     40       0.1007      2.00000
     41       0.1157      2.00000
     42       0.3086      2.00000
     43       0.3635      2.00000
     44       0.4992      2.00000
     45       0.6508      2.00000
     46       0.8068      2.00000
     47       1.1078      2.00000
     48       1.1765      2.00000
     49       1.2565      2.00000
     50       1.3739      2.00000
     51       1.4348      2.00000
     52       1.4866      2.00000
     53       1.5411      2.00000
     54       1.6226      2.00000
     55       1.6625      2.00000
     56       1.7679      2.00000
     57       1.8316      2.00000
     58       1.8528      2.00000
     59       1.9669      2.00000
     60       1.9762      2.00000
     61       2.0222      2.00000
     62       2.0960      2.00000
     63       2.2135      2.00000
     64       2.4480      2.00000
     65       4.2485      0.00000
     66       4.6000      0.00000
     67       4.7267      0.00000
     68       4.8637      0.00000
     69       5.0078      0.00000
     70       5.1743      0.00000
     71       5.2501      0.00000
     72       5.3122      0.00000
     73       5.4597      0.00000
     74       5.5434      0.00000
     75       5.6320      0.00000
     76       5.8038      0.00000
     77       5.8474      0.00000
     78       5.9627      0.00000
     79       6.0274      0.00000
     80       6.1558      0.00000
     81       6.2614      0.00000
     82       6.4491      0.00000
     83       6.5973      0.00000
     84       6.6612      0.00000

 k-point     4 :       0.0000   -0.2500    0.2500
  band No.  band energies     occupation 
      1     -10.8375      2.00000
      2     -10.7276      2.00000
      3     -10.3321      2.00000
      4     -10.2532      2.00000
      5     -10.2246      2.00000
      6      -9.9547      2.00000
      7      -9.5643      2.00000
      8      -9.4314      2.00000
      9      -9.3101      2.00000
     10      -9.2537      2.00000
     11      -9.1950      2.00000
     12      -9.1609      2.00000
     13      -9.0334      2.00000
     14      -9.0014      2.00000
     15      -7.4218      2.00000
     16      -7.1238      2.00000
     17      -6.8687      2.00000
     18      -6.7135      2.00000
     19      -6.6207      2.00000
     20      -6.4397      2.00000
     21      -5.9970      2.00000
     22      -5.6784      2.00000
     23      -1.7494      2.00000
     24      -1.5778      2.00000
     25      -0.7090      2.00000
     26      -0.4508      2.00000
     27      -0.3547      2.00000
     28      -0.2440      2.00000
     29      -0.1507      2.00000
     30       0.0215      2.00000
     31       0.0617      2.00000
     32       0.1946      2.00000
     33       0.2425      2.00000
     34       0.4186      2.00000
     35       0.4552      2.00000
     36       0.4659      2.00000
     37       0.5705      2.00000
     38       0.6571      2.00000
     39       0.6997      2.00000
     40       0.7273      2.00000
     41       0.8427      2.00000
     42       0.9607      2.00000
     43       1.0672      2.00000
     44       1.2135      2.00000
     45       1.2934      2.00000
     46       1.3678      2.00000
     47       1.3987      2.00000
     48       1.4809      2.00000
     49       1.4965      2.00000
     50       1.6893      2.00000
     51       1.7443      2.00000
     52       1.8241      2.00000
     53       1.8410      2.00000
     54       1.8985      2.00000
     55       1.9155      2.00000
     56       1.9299      2.00000
     57       1.9814      2.00000
     58       2.0196      2.00000
     59       2.0240      2.00000
     60       2.1060      2.00000
     61       2.2350      2.00000
     62       2.3074      2.00000
     63       2.3419      2.00000
     64       2.8174      2.00000
     65       3.6022      0.00000
     66       4.0647      0.00000
     67       4.1916      0.00000
     68       4.4734      0.00000
     69       4.5218      0.00000
     70       4.7878      0.00000
     71       4.8907      0.00000
     72       5.0044      0.00000
     73       5.1327      0.00000
     74       5.1624      0.00000
     75       5.2778      0.00000
     76       5.2816      0.00000
     77       5.3526      0.00000
     78       5.4445      0.00000
     79       5.4610      0.00000
     80       5.7386      0.00000
     81       5.7432      0.00000
     82       5.8325      0.00000
     83       5.8858      0.00000
     84       6.2499      0.00000

 k-point     5 :       0.2000   -0.2500    0.2500
  band No.  band energies     occupation 
      1     -10.5924      2.00000
      2     -10.4912      2.00000
      3     -10.0964      2.00000
      4     -10.0369      2.00000
      5     -10.0076      2.00000
      6      -9.7472      2.00000
      7      -9.3916      2.00000
      8      -9.2863      2.00000
      9      -9.2062      2.00000
     10      -9.1652      2.00000
     11      -9.1223      2.00000
     12      -9.0800      2.00000
     13      -8.9809      2.00000
     14      -8.9491      2.00000
     15      -7.5902      2.00000
     16      -7.3112      2.00000
     17      -6.9591      2.00000
     18      -6.8944      2.00000
     19      -6.8585      2.00000
     20      -6.7151      2.00000
     21      -6.2499      2.00000
     22      -6.0284      2.00000
     23      -1.5333      2.00000
     24      -1.3698      2.00000
     25      -1.0134      2.00000
     26      -0.8618      2.00000
     27      -0.7381      2.00000
     28      -0.6194      2.00000
     29      -0.5822      2.00000
     30      -0.4756      2.00000
     31      -0.3889      2.00000
     32      -0.2645      2.00000
     33      -0.1699      2.00000
     34      -0.1107      2.00000
     35      -0.0146      2.00000
     36       0.0989      2.00000
     37       0.2023      2.00000
     38       0.2601      2.00000
     39       0.3946      2.00000
     40       0.4496      2.00000
     41       0.5574      2.00000
     42       0.6005      2.00000
     43       0.6980      2.00000
     44       0.7913      2.00000
     45       0.9155      2.00000
     46       1.0771      2.00000
     47       1.2249      2.00000
     48       1.2846      2.00000
     49       1.3126      2.00000
     50       1.5014      2.00000
     51       1.5128      2.00000
     52       1.6418      2.00000
     53       1.7032      2.00000
     54       1.7851      2.00000
     55       1.8519      2.00000
     56       1.9908      2.00000
     57       2.0756      2.00000
     58       2.1013      2.00000
     59       2.2038      2.00000
     60       2.2545      2.00000
     61       2.2893      2.00000
     62       2.4073      2.00000
     63       2.4462      2.00000
     64       2.6261      2.00000
     65       4.1832      0.00000
     66       4.5359      0.00000
     67       4.7237      0.00000
     68       4.7982      0.00000
     69       4.9178      0.00000
     70       4.9451      0.00000
     71       4.9794      0.00000
     72       5.0495      0.00000
     73       5.1818      0.00000
     74       5.2790      0.00000
     75       5.4848      0.00000
     76       5.5110      0.00000
     77       5.6068      0.00000
     78       5.6912      0.00000
     79       5.8660      0.00000
     80       5.9785      0.00000
     81       6.0576      0.00000
     82       6.1391      0.00000
     83       6.4313      0.00000
     84       6.4653      0.00000

 k-point     6 :       0.4000   -0.2500    0.2500
  band No.  band energies     occupation 
      1      -9.9333      2.00000
      2      -9.8629      2.00000
      3      -9.5201      2.00000
      4      -9.5099      2.00000
      5      -9.4692      2.00000
      6      -9.3134      2.00000
      7      -9.2073      2.00000
      8      -9.1509      2.00000
      9      -9.1173      2.00000
     10      -9.0771      2.00000
     11      -9.0664      2.00000
     12      -9.0552      2.00000
     13      -9.0247      2.00000
     14      -8.8888      2.00000
     15      -7.7121      2.00000
     16      -7.5069      2.00000
     17      -7.4477      2.00000
     18      -7.3733      2.00000
     19      -7.2184      2.00000
     20      -7.1873      2.00000
     21      -6.8916      2.00000
     22      -6.8268      2.00000
     23      -1.7070      2.00000
     24      -1.5591      2.00000
     25      -1.4386      2.00000
     26      -1.3727      2.00000
     27      -1.1468      2.00000
     28      -1.0688      2.00000
     29      -0.9514      2.00000
     30      -0.8428      2.00000
     31      -0.7288      2.00000
     32      -0.7109      2.00000
     33      -0.5975      2.00000
     34      -0.3286      2.00000
     35      -0.3051      2.00000
     36      -0.2514      2.00000
     37      -0.1539      2.00000
     38      -0.1284      2.00000
     39      -0.0129      2.00000
     40       0.0248      2.00000
     41       0.0543      2.00000
     42       0.2822      2.00000
     43       0.4289      2.00000
     44       0.5766      2.00000
     45       0.5860      2.00000
     46       0.8071      2.00000
     47       1.1780      2.00000
     48       1.2464      2.00000
     49       1.2923      2.00000
     50       1.3404      2.00000
     51       1.4013      2.00000
     52       1.4341      2.00000
     53       1.5333      2.00000
     54       1.5812      2.00000
     55       1.6300      2.00000
     56       1.6826      2.00000
     57       1.7976      2.00000
     58       1.8425      2.00000
     59       1.8894      2.00000
     60       1.9524      2.00000
     61       2.0908      2.00000
     62       2.1964      2.00000
     63       2.3023      2.00000
     64       2.4513      2.00000
     65       4.4328      0.00000
     66       4.4664      0.00000
     67       4.6568      0.00000
     68       4.8297      0.00000
     69       4.9488      0.00000
     70       5.1196      0.00000
     71       5.2631      0.00000
     72       5.3837      0.00000
     73       5.4638      0.00000
     74       5.5712      0.00000
     75       5.6186      0.00000
     76       5.7498      0.00000
     77       5.8956      0.00000
     78       5.9923      0.00000
     79       6.0713      0.00000
     80       6.1650      0.00000
     81       6.4002      0.00000
     82       6.4441      0.00000
     83       6.5877      0.00000
     84       6.6953      0.00000


--------------------------------------------------------------------------------------------------------


 soft charge-density along one line, spin component           1
         0         1         2         3         4         5         6         7         8         9
 total charge-density along one line
 
 pseudopotential strength for first ion, spin component:           1
  1.428   6.373   0.000   0.001   0.000
  6.373  28.043   0.001   0.001   0.000
  0.000   0.001   5.514   0.001  -0.000
  0.001   0.001   0.001   5.516   0.000
  0.000   0.000  -0.000   0.000   5.515
 total augmentation occupancy for first ion, spin component:           1
  0.382   0.001   0.002   0.015   0.000
  0.001   0.000   0.000   0.000   0.000
  0.002   0.000   0.007   0.005   0.000
  0.015   0.000   0.005   0.024   0.000
  0.000   0.000  -0.000   0.000   0.010


------------------------ aborting loop because EDIFF is reached ----------------------------------------


 


 total charge     
 
# of ion       s       p       d       tot
------------------------------------------
    1        0.044   0.025   0.000   0.069
    2        0.044   0.025   0.000   0.069
    3        0.052   0.035   0.000   0.087
    4        0.052   0.035   0.000   0.087
    5        1.834   1.451   0.151   3.435
    6        1.834   1.451   0.151   3.435
    7        1.833   1.443   0.150   3.427
    8        1.833   1.443   0.150   3.427
    9        1.815   1.534   0.143   3.492
   10        1.815   1.534   0.143   3.492
   11        1.826   1.481   0.149   3.456
   12        1.826   1.481   0.149   3.456
   13        1.480   2.298   0.019   3.796
   14        1.480   2.298   0.019   3.796
   15        1.465   2.331   0.014   3.810
   16        1.465   2.331   0.014   3.810
   17        1.469   2.321   0.018   3.808
[...]
     18      -6.9103      2.00000
     19      -6.8877      2.00000
     20      -6.7251      2.00000
     21      -6.3083      2.00000
     22      -6.0902      2.00000
     23      -1.5712      2.00000
     24      -1.4430      2.00000
     25      -1.0313      2.00000
     26      -0.8973      2.00000
     27      -0.7978      2.00000
     28      -0.6980      2.00000
     29      -0.6689      2.00000
     30      -0.5222      2.00000
     31      -0.3902      2.00000
     32      -0.2991      2.00000
     33      -0.1774      2.00000
     34      -0.1717      2.00000
     35      -0.0665      2.00000
     36       0.0300      2.00000
     37       0.1772      2.00000
     38       0.2634      2.00000
     39       0.3403      2.00000
     40       0.3771      2.00000
     41       0.5055      2.00000
     42       0.5724      2.00000
     43       0.6633      2.00000
     44       0.7308      2.00000
     45       0.8786      2.00000
     46       1.0190      2.00000
     47       1.2032      2.00000
     48       1.2216      2.00000
     49       1.2573      2.00000
     50       1.4280      2.00000
     51       1.4656      2.00000
     52       1.5781      2.00000
     53       1.6408      2.00000
     54       1.7298      2.00000
     55       1.8045      2.00000
     56       1.9465      2.00000
     57       2.0128      2.00000
     58       2.0719      2.00000
     59       2.1340      2.00000
     60       2.2167      2.00000
     61       2.2621      2.00000
     62       2.3405      2.00000
     63       2.3703      2.00000
     64       2.5593      2.00000
     65       4.1722      0.00000
     66       4.5165      0.00000
     67       4.6542      0.00000
     68       4.7924      0.00000
     69       4.8883      0.00000
     70       4.9382      0.00000
     71       4.9598      0.00000
     72       5.0255      0.00000
     73       5.1231      0.00000
     74       5.2526      0.00000
     75       5.4273      0.00000
     76       5.4447      0.00000
     77       5.5410      0.00000
     78       5.6303      0.00000
     79       5.8247      0.00000
     80       5.8989      0.00000
     81       5.9945      0.00000
     82       6.0624      0.00000
     83       6.3670      0.00000
     84       6.4334      0.00000

 k-point     6 :       0.4000   -0.2500    0.2500
  band No.  band energies     occupation 
      1      -9.9785      2.00000
      2      -9.9440      2.00000
      3      -9.5764      2.00000
      4      -9.5415      2.00000
      5      -9.5360      2.00000
      6      -9.3434      2.00000
      7      -9.2609      2.00000
      8      -9.2124      2.00000
      9      -9.1777      2.00000
     10      -9.1379      2.00000
     11      -9.1278      2.00000
     12      -9.1160      2.00000
     13      -9.0225      2.00000
     14      -8.8913      2.00000
     15      -7.7646      2.00000
     16      -7.5524      2.00000
     17      -7.4744      2.00000
     18      -7.4308      2.00000
     19      -7.2569      2.00000
     20      -7.2381      2.00000
     21      -6.9533      2.00000
     22      -6.9023      2.00000
     23      -1.7252      2.00000
     24      -1.6081      2.00000
     25      -1.5174      2.00000
     26      -1.4708      2.00000
     27      -1.1977      2.00000
     28      -1.1097      2.00000
     29      -0.9864      2.00000
     30      -0.8710      2.00000
     31      -0.8046      2.00000
     32      -0.7853      2.00000
     33      -0.6168      2.00000
     34      -0.3429      2.00000
     35      -0.3065      2.00000
     36      -0.3004      2.00000
     37      -0.2049      2.00000
     38      -0.1595      2.00000
     39      -0.0623      2.00000
     40       0.0003      2.00000
     41       0.0067      2.00000
     42       0.2288      2.00000
     43       0.3639      2.00000
     44       0.5212      2.00000
     45       0.5754      2.00000
     46       0.7192      2.00000
     47       1.1180      2.00000
     48       1.2041      2.00000
     49       1.2531      2.00000
     50       1.3054      2.00000
     51       1.3622      2.00000
     52       1.4129      2.00000
     53       1.5017      2.00000
     54       1.5313      2.00000
     55       1.5979      2.00000
     56       1.6107      2.00000
     57       1.7602      2.00000
     58       1.7662      2.00000
     59       1.8524      2.00000
     60       1.8767      2.00000
     61       2.0518      2.00000
     62       2.1643      2.00000
     63       2.2610      2.00000
     64       2.4151      2.00000
     65       4.3905      0.00000
     66       4.4246      0.00000
     67       4.6197      0.00000
     68       4.8284      0.00000
     69       4.9107      0.00000
     70       5.1252      0.00000
     71       5.2788      0.00000
     72       5.3799      0.00000
     73       5.4312      0.00000
     74       5.5670      0.00000
     75       5.6053      0.00000
     76       5.6779      0.00000
     77       5.8127      0.00000
     78       5.9429      0.00000
     79       6.0210      0.00000
     80       6.1442      0.00000
     81       6.3642      0.00000
     82       6.3785      0.00000
     83       6.4762      0.00000
     84       6.6353      0.00000


--------------------------------------------------------------------------------------------------------


 soft charge-density along one line, spin component           1
         0         1         2         3         4         5         6         7         8         9
 total charge-density along one line
 
 pseudopotential strength for first ion, spin component:           1
  1.429   6.374  -0.000   0.001   0.000
  6.374  28.043   0.000  -0.000   0.000
 -0.000   0.000   5.526   0.001  -0.000
  0.001  -0.000   0.001   5.528  -0.000
  0.000   0.000  -0.000  -0.000   5.526
 total augmentation occupancy for first ion, spin component:           1
  0.403   0.002  -0.001   0.009   0.000
  0.002   0.000  -0.000   0.000   0.000
 -0.001  -0.000   0.009   0.006   0.000
  0.009   0.000   0.006   0.024  -0.000
  0.000   0.000   0.000   0.000   0.011


------------------------ aborting loop because EDIFF is reached ----------------------------------------


 


 total charge     
 
# of ion       s       p       d       tot
------------------------------------------
    1        0.046   0.028   0.000   0.074
    2        0.046   0.028   0.000   0.074
    3        0.049   0.032   0.000   0.081
    4        0.049   0.032   0.000   0.081
    5        1.834   1.455   0.152   3.440
    6        1.834   1.455   0.152   3.440
    7        1.835   1.452   0.156   3.443
    8        1.835   1.452   0.156   3.443
    9        1.814   1.528   0.141   3.483
   10        1.814   1.528   0.141   3.483
   11        1.826   1.478   0.147   3.451
   12        1.826   1.478   0.147   3.451
   13        1.477   2.298   0.017   3.792
   14        1.477   2.298   0.017   3.792
   15        1.463   2.336   0.013   3.813
   16        1.463   2.336   0.013   3.813
   17        1.469   2.321   0.018   3.808
   18        1.469   2.321   0.018   3.808
   19        1.470   2.309   0.014   3.793
   20        1.470   2.309   0.014   3.793
   21        1.470   2.313   0.018   3.801
   22        1.470   2.313   0.018   3.801
   23        1.462   2.339   0.013   3.815
   24        1.462   2.339   0.013   3.815
   25        1.462   2.333   0.013   3.808
   26        1.462   2.333   0.013   3.808
--------------------------------------------------
tot         35.354  44.443   1.406  81.202
 
    CHARGE:  cpu time    0.0305: real time    0.0305
    FORLOC:  cpu time    0.0023: real time    0.0023
    FORNL :  cpu time    0.1450: real time    0.1451
    STRESS:  cpu time    0.6762: real time    0.6771
    FORCOR:  cpu time    0.0118: real time    0.0118
    FORHAR:  cpu time    0.0041: real time    0.0041
    MIXING:  cpu time    0.0005: real time    0.0005
    OFIELD:  cpu time    0.0000: real time    0.0000

  FORCE on cell =-STRESS in cart. coord.  units (eV):
  Direction    XX          YY          ZZ          XY          YZ          ZX
  --------------------------------------------------------------------------------------
  Alpha Z   135.77413   135.77413   135.77413
  Ewald   -1012.22560 -1441.83953 -1606.40872    -0.00000  -364.62005     0.00000
  Hartree   573.83251   238.12477   111.89515    -0.00000  -282.81898    -0.00000
  E(xc)    -497.29147  -496.90000  -497.41927     0.00000    -0.32557    -0.00000
  Local   -1415.68620  -648.27762  -356.15123     0.00000   644.80194    -0.00000
  n-local  1188.76814  1185.49531  1187.97180    -0.10798     0.62526     0.25747
  augment  -274.13071  -273.56895  -273.44399     0.00000    -0.26307     0.00000
  Kinetic  1301.19867  1301.45245  1298.00758     0.19257     2.53978     0.71498
  Fock        0.00000     0.00000     0.00000     0.00000     0.00000     0.00000
  -------------------------------------------------------------------------------------
  Total       0.23946     0.26056     0.22547     0.00000    -0.06069     0.00000
  in kB       0.48657     0.52944     0.45813     0.00000    -0.12331     0.00000
  external pressure =        0.49 kB  Pullay stress =        0.00 kB


 VOLUME and BASIS-vectors are now :
 -----------------------------------------------------------------------------
  energy-cutoff  :      300.00
  volume of cell :      788.50
      direct lattice vectors                 reciprocal lattice vectors
     4.195396432  0.000000000  0.000000000     0.238356498  0.000000000  0.000000000
     0.000000000 13.723673788 -0.471360252     0.000000000  0.072836723 -0.000875276
     0.000000000  0.164503541 13.689276477     0.000000000  0.002507973  0.073019741

  length of vectors
     4.195396432 13.731766191 13.690264858     0.238356498  0.072841982  0.073062799


 FORCES acting on ions
    electron-ion (+dipol)            ewald-force                    non-local-force                 convergence-correction
 -----------------------------------------------------------------------------------------------
   0.145E-14 -.650E+01 0.761E+00   -.217E-14 0.639E+01 -.557E+00   0.000E+00 0.793E-01 -.193E+00   -.904E-16 0.936E-03 0.209E-02
   -.540E-14 0.650E+01 -.761E+00   0.191E-14 -.639E+01 0.557E+00   0.000E+00 -.793E-01 0.193E+00   -.934E-17 -.936E-03 -.209E-02
   0.235E-14 0.380E+01 0.265E+01   0.527E-15 -.367E+01 -.251E+01   0.000E+00 -.107E+00 -.163E+00   0.195E-16 -.212E-04 0.200E-02
   -.429E-15 -.380E+01 -.265E+01   -.253E-15 0.367E+01 0.251E+01   0.000E+00 0.107E+00 0.163E+00   -.131E-15 0.212E-04 -.200E-02
   -.754E-14 -.818E+01 -.356E+02   -.968E-14 0.940E+01 0.349E+02   0.000E+00 -.123E+01 0.712E+00   -.456E-14 0.129E-02 -.118E-01
   -.263E-13 0.818E+01 0.356E+02   0.446E-14 -.940E+01 -.349E+02   0.000E+00 0.123E+01 -.712E+00   0.292E-14 -.129E-02 0.118E-01
   -.310E-13 0.494E+01 -.178E+02   0.943E-15 -.466E+01 0.171E+02   0.000E+00 -.275E+00 0.637E+00   0.980E-15 0.404E-02 -.545E-03
   0.177E-14 -.494E+01 0.178E+02   0.396E-14 0.466E+01 -.171E+02   0.000E+00 0.275E+00 -.637E+00   -.367E-14 -.404E-02 0.545E-03
   -.258E-13 0.371E+02 0.215E+02   0.849E-14 -.339E+02 -.198E+02   0.000E+00 -.313E+01 -.161E+01   0.333E-15 0.451E-02 -.403E-02
   -.844E-14 -.371E+02 -.215E+02   -.101E-13 0.339E+02 0.198E+02   0.000E+00 0.313E+01 0.161E+01   -.258E-14 -.451E-02 0.403E-02
   0.194E-15 0.317E+02 0.306E+02   -.344E-15 -.310E+02 -.284E+02   0.000E+00 -.670E+00 -.209E+01   -.357E-14 0.191E-02 0.508E-02
   -.391E-13 -.317E+02 -.306E+02   -.698E-15 0.310E+02 0.284E+02   0.000E+00 0.670E+00 0.209E+01   0.202E-14 -.191E-02 -.508E-02
   0.199E-13 0.532E+02 0.277E+02   -.613E-14 -.556E+02 -.275E+02   0.000E+00 0.243E+01 -.251E+00   0.347E-14 -.411E-02 -.327E-02
   0.246E-13 -.532E+02 -.277E+02   0.107E-13 0.556E+02 0.275E+02   0.000E+00 -.243E+01 0.251E+00   0.206E-14 0.411E-02 0.327E-02
   0.253E-13 -.489E+02 -.849E+02   0.117E-14 0.497E+02 0.866E+02   0.000E+00 -.805E+00 -.164E+01   0.581E-14 0.567E-02 -.205E-01
   0.190E-13 0.489E+02 0.849E+02   0.459E-14 -.497E+02 -.866E+02   0.000E+00 0.805E+00 0.164E+01   0.243E-14 -.567E-02 0.205E-01
   0.227E-13 0.664E+02 0.492E+01   0.646E-14 -.677E+02 -.569E+01   0.434E-18 0.129E+01 0.784E+00   0.129E-13 0.352E-02 -.132E-01
   0.223E-13 -.664E+02 -.492E+01   -.409E-14 0.677E+02 0.569E+01   -.434E-18 -.129E+01 -.784E+00   -.959E-14 -.352E-02 0.132E-01
   0.250E-13 0.793E+02 0.792E+02   -.824E-14 -.807E+02 -.806E+02   0.173E-17 0.144E+01 0.142E+01   0.135E-13 -.668E-02 0.144E-02
   0.152E-13 -.793E+02 -.792E+02   0.506E-14 0.807E+02 0.806E+02   -.173E-17 -.144E+01 -.142E+01   -.730E-14 0.668E-02 -.144E-02
   0.219E-13 0.140E+02 -.485E-01   0.566E-14 -.143E+02 -.276E+00   0.000E+00 0.322E+00 0.323E+00   0.154E-14 -.173E-02 -.189E-02
   0.210E-13 -.140E+02 0.485E-01   -.966E-17 0.143E+02 0.276E+00   0.000E+00 -.322E+00 -.323E+00   0.332E-14 0.173E-02 0.189E-02
   0.224E-13 -.328E+02 -.771E+02   0.122E-13 0.337E+02 0.787E+02   0.000E+00 -.943E+00 -.147E+01   0.579E-15 0.550E-02 -.796E-02
   0.305E-13 0.328E+02 0.771E+02   -.965E-14 -.337E+02 -.787E+02   0.000E+00 0.943E+00 0.147E+01   0.102E-13 -.550E-02 0.796E-02
   0.209E-13 0.543E+02 0.615E+02   -.110E-13 -.551E+02 -.629E+02   0.000E+00 0.860E+00 0.144E+01   0.203E-15 -.186E-01 -.457E-02
   0.324E-13 -.543E+02 -.615E+02   0.111E-13 0.551E+02 0.629E+02   0.000E+00 -.860E+00 -.144E+01   0.676E-14 0.186E-01 0.457E-02
 -----------------------------------------------------------------------------------------------
   0.185E-12 -.104E-12 -.211E-10   0.149E-13 -.782E-13 -.639E-13   0.000E+00 0.555E-15 0.000E+00   0.375E-13 -.509E-13 -.156E-12
 
 
 POSITION                                       TOTAL-FORCE (eV/Angst)
 -----------------------------------------------------------------------------------
      1.04885      7.55838     10.59240         0.000000     -0.026506      0.013207
      3.14655      6.32980      2.62551         0.000000      0.026506     -0.013207
      3.14655     11.97428      7.92863         0.000000      0.022351     -0.025658
      1.04885      1.91389      5.28928         0.000000     -0.022351      0.025658
      1.04885     11.46956      3.62325         0.000000     -0.005209     -0.004731
      3.14655      2.41862      9.59467         0.000000      0.005209      0.004731
      3.14655      8.49715      5.74215         0.000000      0.012625      0.005969
      1.04885      5.39103      7.47577        -0.000000     -0.012625     -0.005969
      3.14655     10.05425     -0.04671         0.000000      0.049321      0.003415
      1.04885      3.83393     13.26463         0.000000     -0.049321     -0.003415
      1.04885     13.15434     11.32890         0.000000     -0.011716      0.025072
      3.14655      0.73384      1.88901        -0.000000      0.011716     -0.025072
      1.04885      8.22380     -0.33499         0.000000     -0.016597      0.017881
      3.14655      5.49987     -0.13637         0.000000      0.016597     -0.017881
      3.14655     -0.12795      4.60090         0.000000     -0.017260      0.020495
      1.04885      0.29245      9.08837         0.000000      0.017260     -0.020495
      3.14655      9.54295      2.94856         0.000000      0.004126     -0.004071
      1.04885      4.34523     10.26936        -0.000000     -0.004126      0.004071
      3.14655     11.15520     10.86715         0.000000      0.037307      0.032587
      1.04885      2.73298      2.35077         0.000000     -0.037307     -0.032587
      1.04885     12.37066      0.71293         0.000000      0.018458     -0.003264
      3.14655      1.51751     12.50499         0.000000     -0.018458      0.003264
      1.04885     10.50775      6.35663         0.000000     -0.007372      0.041572
      3.14655      3.38042      6.86128         0.000000      0.007372     -0.041572
      1.04885      6.57098      4.82433         0.000000      0.022970      0.030972
      3.14655      7.31720      8.39359         0.000000     -0.022970     -0.030972
 -----------------------------------------------------------------------------------
    total drift:                                0.000000     -0.000000     -0.000000


--------------------------------------------------------------------------------------------------------



  FREE ENERGIE OF THE ION-ELECTRON SYSTEM (eV)
  ---------------------------------------------------
  free  energy   TOTEN  =      -100.63182881 eV

  energy  without entropy=     -100.63182881  energy(sigma->0) =     -100.63182881
 
 d Force = 0.1382192E-02[ 0.110E-02, 0.166E-02]  d Energy = 0.1336128E-02 0.461E-04
 d Force =-0.9046729E+00[-0.908E+00,-0.902E+00]  d Ewald  =-0.4985671E+00-0.406E+00


--------------------------------------------------------------------------------------------------------


    POTLOK:  cpu time    0.2507: real time    0.2507


--------------------------------------------------------------------------------------------------------


 Conjugate gradient step on ions:
 trial-energy change:   -0.001336  1 .order   -0.001383   -0.001745   -0.001022
  (g-gl).g = 0.335E-03      g.g   = 0.421E-03  gl.gl    = 0.993E-03
 g(Force)  = 0.399E-03   g(Stress)= 0.225E-04 ortho     = 0.809E-04
 gamma     =   0.33690
 trial     =   3.89059
 opt step  =   9.38601  (harmonic =   9.38601) maximal distance =0.00702081
 next E    =  -100.632598   (d E  =  -0.00211)


--------------------------------------------------------------------------------------------------------


  
 reached required accuracy - stopping structural energy minimisation
     LOOP+:  cpu time    4.6534: real time    4.8921
    4ORBIT:  cpu time    0.0000: real time    0.0000
 


 total charge     
 
# of ion       s       p       d       tot
------------------------------------------
    1        0.046   0.028   0.000   0.074
    2        0.046   0.028   0.000   0.074
    3        0.049   0.032   0.000   0.081
    4        0.049   0.032   0.000   0.081
    5        1.834   1.455   0.152   3.440
    6        1.834   1.455   0.152   3.440
    7        1.835   1.452   0.156   3.443
    8        1.835   1.452   0.156   3.443
    9        1.814   1.528   0.141   3.483
   10        1.814   1.528   0.141   3.483
   11        1.826   1.478   0.147   3.451
   12        1.826   1.478   0.147   3.451
   13        1.477   2.298   0.017   3.792
   14        1.477   2.298   0.017   3.792
   15        1.463   2.336   0.013   3.813
   16        1.463   2.336   0.013   3.813
   17        1.469   2.321   0.018   3.808
   18        1.469   2.321   0.018   3.808
   19        1.470   2.309   0.014   3.793
   20        1.470   2.309   0.014   3.793
   21        1.470   2.313   0.018   3.801
   22        1.470   2.313   0.018   3.801
   23        1.462   2.339   0.013   3.815
   24        1.462   2.339   0.013   3.815
   25        1.462   2.333   0.013   3.808
   26        1.462   2.333   0.013   3.808
--------------------------------------------------
tot         35.354  44.443   1.406  81.202
 

 total amount of memory used by VASP MPI-rank0    43385. kBytes
=======================================================================

   base      :      30000. kBytes
   nonlr-proj:       2890. kBytes
   fftplans  :        947. kBytes
   grid      :       3807. kBytes
   one-center:        210. kBytes
   wavefun   :       5531. kBytes
 
  
  
 General timing and accounting informations for this job:
 ========================================================
  
                  Total CPU time used (sec):      383.306
                            User time (sec):      376.212
                          System time (sec):        7.094
                         Elapsed time (sec):      398.362
  
                   Maximum memory used (kb):      100176.
                   Average memory used (kb):           0.
  
                          Minor page faults:       265575
                          Major page faults:            0
                 Voluntary context switches:         2595
