PROCAR new format
# of k-points:    6         # of bands:   84         # of ions:   26

 k-point     1 :    0.00000000 0.25000000 0.25000000     weight = 0.10000000

band     1 # energy  -10.92305656 # occ.  2.00000000
 
ion      s      p      d    tot
    1  0.000  0.000  0.000  0.000
    2  0.000  0.000  0.000  0.000
    3  0.000  0.000  0.000  0.000
    4  0.000  0.000  0.000  0.000
    5  0.048  0.000  0.000  0.048
    6  0.048  0.000  0.000  0.048
    7  0.040  0.000  0.000  0.040
    8  0.040  0.000  0.000  0.040
    9  0.027  0.000  0.000  0.027
   10  0.027  0.000  0.000  0.027
   11  0.040  0.000  0.000  0.040
   12  0.040  0.000  0.000  0.040
   13  0.011  0.000  0.000  0.011
   14  0.011  0.000  0.000  0.011
   15  0.023  0.000  0.000  0.024
   16  0.023  0.000  0.000  0.024
   17  0.048  0.000  0.000  0.048
   18  0.048  0.000  0.000  0.048
   19  0.020  0.000  0.000  0.021
   20  0.020  0.000  0.000  0.021
   21  0.051  0.000  0.000  0.051
   22  0.051  0.000  0.000  0.051
   23  0.026  0.000  0.000  0.026
   24  0.026  0.000  0.000  0.026
   25  0.023  0.000  0.000  0.023
   26  0.023  0.000  0.000  0.023
tot    0.711  0.005  0.000  0.716
 
band     2 # energy  -10.66262078 # occ.  2.00000000
 
ion      s      p      d    tot
    1  0.000  0.000  0.000  0.000
    2  0.000  0.000  0.000  0.000
    3  0.000  0.000  0.000  0.000
    4  0.000  0.000  0.000  0.000
    5  0.083  0.001  0.000  0.084
    6  0.083  0.001  0.000  0.084
    7  0.027  0.001  0.000  0.028
    8  0.027  0.001  0.000  0.028
    9  0.024  0.001  0.000  0.025
   10  0.024  0.001  0.000  0.025
   11  0.009  0.001  0.000  0.010
   12  0.009  0.001  0.000  0.010
   13  0.015  0.000  0.000  0.015
   14  0.015  0.000  0.000  0.015
   15  0.032  0.000  0.000  0.032
   16  0.032  0.000  0.000  0.032
   17  0.092  0.001  0.000  0.093
   18  0.092  0.001  0.000  0.093
   19  0.001  0.000  0.000  0.001
   20  0.001  0.000  0.000  0.001
   21  0.028  0.000  0.000  0.028
   22  0.028  0.000  0.000  0.028
   23  0.041  0.001  0.000  0.041
   24  0.041  0.001  0.000  0.041
   25  0.004  0.000  0.000  0.004
   26  0.004  0.000  0.000  0.004
tot    0.710  0.012  0.000  0.722
 
band     3 # energy  -10.62271738 # occ.  2.00000000
 
ion      s      p      d    tot
    1  0.000  0.000  0.000  0.000
    2  0.000  0.000  0.000  0.000
    3  0.000  0.000  0.000  0.000
    4  0.000  0.000  0.000  0.000
    5  0.003  0.002  0.000  0.004
    6  0.003  0.002  0.000  0.004
    7  0.087  0.000  0.000  0.088
    8  0.087  0.000  0.000  0.088
    9  0.016  0.000  0.000  0.017
   10  0.016  0.000  0.000  0.017
   11  0.042  0.000  0.000  0.042
   12  0.042  0.000  0.000  0.042
   13  0.007  0.000  0.000  0.007
   14  0.007  0.000  0.000  0.007
   15  0.006  0.000  0.000  0.006
   16  0.006  0.000  0.000  0.006
   17  0.009  0.000  0.000  0.010
   18  0.009  0.000  0.000  0.010
   19  0.029  0.000  0.000  0.030
   20  0.029  0.000  0.000  0.030
   21  0.043  0.000  0.000  0.043
   22  0.043  0.000  0.000  0.043
   23  0.037  0.001  0.000  0.037
   24  0.037  0.001  0.000  0.037
   25  0.076  0.001  0.000  0.077
   26  0.076  0.001  0.000  0.077
tot    0.712  0.011  0.000  0.723
 
band     4 # energy  -10.29534555 # occ.  2.00000000
 
ion      s      p      d    tot
    1  0.000  0.000  0.000  0.000
    2  0.000  0.000  0.000  0.000
    3  0.000  0.000  0.000  0.000
    4  0.000  0.000  0.000  0.000
    5  0.006  0.001  0.000  0.007
    6  0.006  0.001  0.000  0.007
    7  0.001  0.000  0.000  0.001
    8  0.001  0.000  0.000  0.001
    9  0.079  0.002  0.000  0.081
   10  0.079  0.002  0.000  0.081
   11  0.052  0.002  0.000  0.054
   12  0.052  0.002  0.000  0.054
   13  0.084  0.001  0.000  0.085
   14  0.084  0.001  0.000  0.085
   15  0.032  0.000  0.000  0.032
   16  0.032  0.000  0.000  0.032
   17  0.001  0.000  0.000  0.001
   18  0.001  0.000  0.000  0.001
   19  0.100  0.001  0.000  0.101
   20  0.100  0.001  0.000  0.101
   21  0.002  0.001  0.000  0.002
   22  0.002  0.001  0.000  0.002
   23  0.003  0.000  0.000  0.003
   24  0.003  0.000  0.000  0.003
   25  0.000  0.000  0.000  0.000
   26  0.000  0.000  0.000  0.000
tot    0.719  0.016  0.000  0.735
 
band     5 # energy   -9.99012460 # occ.  2.00000000
 
ion      s      p      d    tot
    1  0.000  0.000  0.000  0.000
    2  0.000  0.000  0.000  0.000
    3  0.000  0.000  0.000  0.000
    4  0.000  0.000  0.000  0.000
    5  0.006  0.003  0.000  0.009
    6  0.006  0.003  0.000  0.009
    7  0.028  0.001  0.000  0.029
    8  0.028  0.001  0.000  0.029
    9  0.037  0.002  0.000  0.040
   10  0.037  0.002  0.000  0.040
   11  0.045  0.001  0.000  0.046
   12  0.045  0.001  0.000  0.046
   13  0.084  0.000  0.000  0.085
   14  0.084  0.000  0.000  0.085
   15  0.038  0.000  0.000  0.039
   16  0.038  0.000  0.000  0.039
   17  0.012  0.000  0.000  0.012
   18  0.012  0.000  0.000  0.012
   19  0.027  0.001  0.000  0.028
   20  0.027  0.001  0.000  0.028
   21  0.028  0.000  0.000  0.028
   22  0.028  0.000  0.000  0.028
   23  0.047  0.000  0.000  0.048
   24  0.047  0.000  0.000  0.048
   25  0.006  0.000  0.000  0.006
   26  0.006  0.000  0.000  0.006
tot    0.716  0.020  0.002  0.737
 
band     6 # energy   -9.91530734 # occ.  2.00000000
 
ion      s      p      d    tot
    1  0.000  0.000  0.000  0.000
    2  0.000  0.000  0.000  0.000
    3  0.000  0.000  0.000  0.000
    4  0.000  0.000  0.000  0.000
    5  0.064  0.001  0.000  0.065
    6  0.064  0.001  0.000  0.065
    7  0.022  0.004  0.000  0.026
    8  0.022  0.004  0.000  0.026
    9  0.020  0.001  0.000  0.021
   10  0.020  0.001  0.000  0.021
   11  0.009  0.001  0.000  0.011
   12  0.009  0.001  0.000  0.011
   13  0.021  0.000  0.000  0.021
   14  0.021  0.000  0.000  0.021
   15  0.037  0.000  0.000  0.037
   16  0.037  0.000  0.000  0.037
   17  0.053  0.001  0.000  0.054
   18  0.053  0.001  0.000  0.054
   19  0.034  0.000  0.000  0.034
   20  0.034  0.000  0.000  0.034
   21  0.014  0.000  0.000  0.014
   22  0.014  0.000  0.000  0.014
   23  0.019  0.000  0.000  0.020
   24  0.019  0.000  0.000  0.020
   25  0.065  0.001  0.000  0.066
   26  0.065  0.001  0.000  0.066
tot    0.716  0.022  0.001  0.739
 
band     7 # energy   -9.89422085 # occ.  2.00000000
 
ion      s      p      d    tot
    1  0.000  0.000  0.000  0.000
    2  0.000  0.000  0.000  0.000
    3  0.000  0.000  0.000  0.000
    4  0.000  0.000  0.000  0.000
    5  0.004  0.003  0.000  0.007
    6  0.004  0.003  0.000  0.007
    7  0.019  0.002  0.000  0.021
    8  0.019  0.002  0.000  0.021
    9  0.056  0.003  0.000  0.059
   10  0.056  0.003  0.000  0.059
   11  0.034  0.001  0.000  0.035
   12  0.034  0.001  0.000  0.035
   13  0.080  0.001  0.000  0.082
   14  0.080  0.001  0.000  0.082
   15  0.016  0.000  0.000  0.016
   16  0.016  0.000  0.000  0.016
   17  0.051  0.000  0.000  0.052
   18  0.051  0.000  0.000  0.052
   19  0.010  0.001  0.000  0.011
   20  0.010  0.001  0.000  0.011
   21  0.036  0.001  0.000  0.036
   22  0.036  0.001  0.000  0.036
   23  0.031  0.000  0.000  0.031
   24  0.031  0.000  0.000  0.031
   25  0.019  0.000  0.000  0.020
   26  0.019  0.000  0.000  0.020
tot    0.716  0.024  0.001  0.742
 
band     8 # energy   -9.39156737 # occ.  2.00000000
 
ion      s      p      d    tot
    1  0.000  0.000  0.000  0.000
    2  0.000  0.000  0.000  0.000
    3  0.000  0.000  0.000  0.000
    4  0.000  0.000  0.000  0.000
    5  0.011  0.003  0.000  0.014
    6  0.011  0.003  0.000  0.014
    7  0.007  0.001  0.000  0.009
    8  0.007  0.001  0.000  0.009
    9  0.004  0.004  0.000  0.008
   10  0.004  0.004  0.000  0.008
   11  0.008  0.006  0.000  0.014
   12  0.008  0.006  0.000  0.014
   13  0.047  0.000  0.000  0.047
   14  0.047  0.000  0.000  0.047
   15  0.065  0.000  0.000  0.065
   16  0.065  0.000  0.000  0.065
   17  0.021  0.000  0.000  0.021
   18  0.021  0.000  0.000  0.021
   19  0.088  0.000  0.000  0.089
   20  0.088  0.000  0.000  0.089
   21  0.049  0.000  0.000  0.049
   22  0.049  0.000  0.000  0.049
   23  0.019  0.000  0.000  0.019
   24  0.019  0.000  0.000  0.019
   25  0.030  0.000  0.000  0.030
   26  0.030  0.000  0.000  0.030
tot    0.697  0.030  0.001  0.729
 
band     9 # energy   -9.34458627 # occ.  2.00000000
 
ion      s      p      d    tot
    1  0.000  0.000  0.000  0.000
    2  0.000  0.000  0.000  0.000
    3  0.000  0.000  0.000  0.000
    4  0.000  0.000  0.000  0.000
    5  0.009  0.002  0.000  0.012
    6  0.009  0.002  0.000  0.012
    7  0.008  0.004  0.000  0.012
    8  0.008  0.004  0.000  0.012
    9  0.011  0.003  0.001  0.014
   10  0.011  0.003  0.001  0.014
   11  0.006  0.003  0.000  0.009
   12  0.006  0.003  0.000  0.009
   13  0.057  0.000  0.000  0.057
   14  0.057  0.000  0.000  0.057
   15  0.002  0.000  0.000  0.002
   16  0.002  0.000  0.000  0.002
   17  0.065  0.000  0.000  0.065
   18  0.065  0.000  0.000  0.065
   19  0.045  0.000  0.000  0.045
   20  0.045  0.000  0.000  0.045
   21  0.036  0.000  0.000  0.036
   22  0.036  0.000  0.000  0.036
   23  0.093  0.000  0.000  0.094
   24  0.093  0.000  0.000  0.094
   25  0.022  0.000  0.000  0.022
   26  0.022  0.000  0.000  0.022
tot    0.708  0.027  0.002  0.738
 
band    10 # energy   -9.32775441 # occ.  2.00000000
 
ion      s      p      d    tot
    1  0.000  0.000  0.000  0.000
    2  0.000  0.000  0.000  0.000
    3  0.000  0.000  0.000  0.000
    4  0.000  0.000  0.000  0.000
    5  0.001  0.004  0.000  0.005
    6  0.001  0.004  0.000  0.005
    7  0.000  0.005  0.000  0.005
    8  0.000  0.005  0.000  0.005
    9  0.001  0.003  0.000  0.003
   10  0.001  0.003  0.000  0.003
   11  0.001  0.005  0.000  0.006
   12  0.001  0.005  0.000  0.006
   13  0.006  0.000  0.000  0.006
   14  0.006  0.000  0.000  0.006
   15  0.040  0.000  0.000  0.040
   16  0.040  0.000  0.000  0.040
   17  0.049  0.000  0.000  0.050
   18  0.049  0.000  0.000  0.050
   19  0.064  0.000  0.000  0.064
   20  0.064  0.000  0.000  0.064
   21  0.064  0.000  0.000  0.064
   22  0.064  0.000  0.000  0.064
   23  0.059  0.000  0.000  0.059
   24  0.059  0.000  0.000  0.059
   25  0.060  0.000  0.000  0.060
   26  0.060  0.000  0.000  0.060
tot    0.691  0.034  0.001  0.726
 
band    11 # energy   -9.20750332 # occ.  2.00000000
 
ion      s      p      d    tot
    1  0.000  0.000  0.000  0.000
    2  0.000  0.000  0.000  0.000
    3  0.000  0.000  0.000  0.000
    4  0.000  0.000  0.000  0.000
    5  0.002  0.002  0.001  0.005
    6  0.002  0.002  0.001  0.005
    7  0.001  0.006  0.000  0.007
    8  0.001  0.006  0.000  0.007
    9  0.000  0.001  0.000  0.001
   10  0.000  0.001  0.000  0.001
   11  0.001  0.002  0.000  0.003
   12  0.001  0.002  0.000  0.003
   13  0.003  0.000  0.000  0.003
   14  0.003  0.000  0.000  0.003
   15  0.091  0.000  0.000  0.092
   16  0.091  0.000  0.000  0.092
   17  0.007  0.000  0.000  0.007
   18  0.007  0.000  0.000  0.007
   19  0.001  0.000  0.000  0.001
   20  0.001  0.000  0.000  0.001
   21  0.042  0.000  0.000  0.042
   22  0.042  0.000  0.000  0.042
   23  0.156  0.000  0.000  0.156
   24  0.156  0.000  0.000  0.156
   25  0.048  0.000  0.000  0.048
   26  0.048  0.000  0.000  0.048
tot    0.704  0.023  0.003  0.731
 
band    12 # energy   -9.17870260 # occ.  2.00000000
 
ion      s      p      d    tot
    1  0.000  0.000  0.000  0.000
    2  0.000  0.000  0.000  0.000
    3  0.000  0.000  0.000  0.000
    4  0.000  0.000  0.000  0.000
    5  0.008  0.001  0.001  0.009
    6  0.008  0.001  0.001  0.009
    7  0.012  0.002  0.001  0.015
    8  0.012  0.002  0.001  0.015
    9  0.000  0.001  0.000  0.002
   10  0.000  0.001  0.000  0.002
   11  0.002  0.002  0.000  0.004
   12  0.002  0.002  0.000  0.004
   13  0.006  0.000  0.000  0.006
   14  0.006  0.000  0.000  0.006
   15  0.002  0.000  0.000  0.002
   16  0.002  0.000  0.000  0.002
   17  0.066  0.000  0.000  0.066
   18  0.066  0.000  0.000  0.066
   19  0.015  0.000  0.000  0.015
   20  0.015  0.000  0.000  0.015
   21  0.088  0.000  0.000  0.088
   22  0.088  0.000  0.000  0.088
   23  0.025  0.000  0.000  0.025
   24  0.025  0.000  0.000  0.025
   25  0.137  0.000  0.000  0.138
   26  0.137  0.000  0.000  0.138
tot    0.720  0.015  0.005  0.740
 
band    13 # energy   -9.12900210 # occ.  2.00000000
 
ion      s      p      d    tot
    1  0.000  0.000  0.000  0.000
    2  0.000  0.000  0.000  0.000
    3  0.000  0.000  0.000  0.000
    4  0.000  0.000  0.000  0.000
    5  0.001  0.004  0.000  0.005
    6  0.001  0.004  0.000  0.005
    7  0.000  0.002  0.001  0.003
    8  0.000  0.002  0.001  0.003
    9  0.002  0.001  0.001  0.004
   10  0.002  0.001  0.001  0.004
   11  0.001  0.003  0.001  0.005
   12  0.001  0.003  0.001  0.005
   13  0.021  0.000  0.000  0.021
   14  0.021  0.000  0.000  0.021
   15  0.085  0.000  0.000  0.085
   16  0.085  0.000  0.000  0.085
   17  0.064  0.000  0.000  0.064
   18  0.064  0.000  0.000  0.064
   19  0.074  0.000  0.000  0.075
   20  0.074  0.000  0.000  0.075
   21  0.022  0.000  0.000  0.022
   22  0.022  0.000  0.000  0.022
   23  0.016  0.000  0.000  0.016
   24  0.016  0.000  0.000  0.016
   25  0.070  0.000  0.000  0.070
   26  0.070  0.000  0.000  0.070
tot    0.712  0.021  0.004  0.738
 
band    14 # energy   -9.10632158 # occ.  2.00000000
 
ion      s      p      d    tot
    1  0.000  0.000  0.000  0.000
    2  0.000  0.000  0.000  0.000
    3  0.000  0.000  0.000  0.000
    4  0.000  0.000  0.000  0.000
    5  0.000  0.004  0.000  0.004
    6  0.000  0.004  0.000  0.004
    7  0.000  0.001  0.000  0.002
    8  0.000  0.001  0.000  0.002
    9  0.005  0.003  0.000  0.009
   10  0.005  0.003  0.000  0.009
   11  0.001  0.002  0.001  0.005
   12  0.001  0.002  0.001  0.005
   13  0.052  0.000  0.000  0.052
   14  0.052  0.000  0.000  0.052
   15  0.111  0.000  0.000  0.111
   16  0.111  0.000  0.000  0.111
   17  0.031  0.000  0.000  0.031
   18  0.031  0.000  0.000  0.031
   19  0.042  0.000  0.000  0.042
   20  0.042  0.000  0.000  0.042
   21  0.094  0.000  0.000  0.094
   22  0.094  0.000  0.000  0.094
   23  0.002  0.000  0.000  0.002
   24  0.002  0.000  0.000  0.002
   25  0.018  0.000  0.000  0.018
   26  0.018  0.000  0.000  0.018
tot    0.713  0.023  0.004  0.740
 
band    15 # energy   -7.44263892 # occ.  2.00000000
 
ion      s      p      d    tot
    1  0.000  0.000  0.000  0.000
    2  0.000  0.000  0.000  0.000
    3  0.000  0.000  0.000  0.000
    4  0.000  0.000  0.000  0.000
    5  0.109  0.001  0.000  0.109
    6  0.109  0.001  0.000  0.109
    7  0.190  0.000  0.000  0.190
    8  0.190  0.000  0.000  0.190
    9  0.003  0.000  0.000  0.003
   10  0.003  0.000  0.000  0.003
   11  0.033  0.001  0.000  0.033
   12  0.033  0.001  0.000  0.033
   13  0.003  0.000  0.000  0.003
   14  0.003  0.000  0.000  0.003
   15  0.014  0.002  0.000  0.016
   16  0.014  0.002  0.000  0.016
   17  0.008  0.002  0.000  0.011
   18  0.008  0.002  0.000  0.011
   19  0.013  0.000  0.000  0.013
   20  0.013  0.000  0.000  0.013
   21  0.000  0.000  0.000  0.000
   22  0.000  0.000  0.000  0.000
   23  0.025  0.003  0.000  0.028
   24  0.025  0.003  0.000  0.028
   25  0.016  0.003  0.000  0.019
   26  0.016  0.003  0.000  0.019
tot    0.825  0.024  0.004  0.853
 
band    16 # energy   -7.15049626 # occ.  2.00000000
 
ion      s      p      d    tot
    1  0.000  0.000  0.000  0.000
    2  0.000  0.000  0.000  0.000
    3  0.000  0.000  0.000  0.000
    4  0.000  0.000  0.000  0.000
    5  0.126  0.000  0.000  0.127
    6  0.126  0.000  0.000  0.127
    7  0.031  0.001  0.000  0.032
    8  0.031  0.001  0.000  0.032
    9  0.029  0.002  0.000  0.031
   10  0.029  0.002  0.000  0.031
   11  0.113  0.000  0.000  0.114
   12  0.113  0.000  0.000  0.114
   13  0.015  0.000  0.000  0.016
   14  0.015  0.000  0.000  0.016
   15  0.004  0.003  0.000  0.007
   16  0.004  0.003  0.000  0.007
   17  0.035  0.002  0.000  0.037
   18  0.035  0.002  0.000  0.037
   19  0.022  0.002  0.000  0.024
   20  0.022  0.002  0.000  0.024
   21  0.007  0.004  0.000  0.010
   22  0.007  0.004  0.000  0.010
   23  0.000  0.001  0.000  0.002
   24  0.000  0.001  0.000  0.002
   25  0.021  0.000  0.000  0.022
   26  0.021  0.000  0.000  0.022
tot    0.808  0.033  0.002  0.843
 
band    17 # energy   -6.90949242 # occ.  2.00000000
 
ion      s      p      d    tot
    1  0.000  0.000  0.000  0.000
    2  0.000  0.000  0.000  0.000
    3  0.000  0.000  0.000  0.000
    4  0.000  0.000  0.000  0.000
    5  0.022  0.001  0.000  0.022
    6  0.022  0.001  0.000  0.022
    7  0.070  0.000  0.000  0.071
    8  0.070  0.000  0.000  0.071
    9  0.023  0.000  0.000  0.024
   10  0.023  0.000  0.000  0.024
   11  0.181  0.000  0.000  0.182
   12  0.181  0.000  0.000  0.182
   13  0.012  0.001  0.000  0.012
   14  0.012  0.001  0.000  0.012
   15  0.010  0.002  0.000  0.012
   16  0.010  0.002  0.000  0.012
   17  0.009  0.001  0.000  0.010
   18  0.009  0.001  0.000  0.010
   19  0.042  0.002  0.000  0.045
   20  0.042  0.002  0.000  0.045
   21  0.016  0.002  0.000  0.018
   22  0.016  0.002  0.000  0.018
   23  0.026  0.001  0.000  0.027
   24  0.026  0.001  0.000  0.027
   25  0.004  0.001  0.000  0.005
   26  0.004  0.001  0.000  0.005
tot    0.830  0.022  0.003  0.856
 
band    18 # energy   -6.84241898 # occ.  2.00000000
 
ion      s      p      d    tot
    1  0.000  0.000  0.000  0.000
    2  0.000  0.000  0.000  0.000
    3  0.000  0.000  0.000  0.000
    4  0.000  0.000  0.000  0.000
    5  0.074  0.000  0.000  0.074
    6  0.074  0.000  0.000  0.074
    7  0.017  0.000  0.000  0.017
    8  0.017  0.000  0.000  0.017
    9  0.135  0.002  0.000  0.137
   10  0.135  0.002  0.000  0.137
   11  0.058  0.000  0.000  0.058
   12  0.058  0.000  0.000  0.058
   13  0.057  0.003  0.000  0.060
   14  0.057  0.003  0.000  0.060
   15  0.035  0.001  0.000  0.036
   16  0.035  0.001  0.000  0.036
   17  0.003  0.002  0.000  0.005
   18  0.003  0.002  0.000  0.005
   19  0.015  0.002  0.000  0.017
   20  0.015  0.002  0.000  0.017
   21  0.002  0.003  0.000  0.005
   22  0.002  0.003  0.000  0.005
   23  0.000  0.001  0.000  0.001
   24  0.000  0.001  0.000  0.001
   25  0.009  0.000  0.000  0.009
   26  0.009  0.000  0.000  0.009
tot    0.809  0.029  0.002  0.840
 
band    19 # energy   -6.62025200 # occ.  2.00000000
 
ion      s      p      d    tot
    1  0.000  0.000  0.000  0.000
    2  0.000  0.000  0.000  0.000
    3  0.000  0.000  0.000  0.000
    4  0.000  0.000  0.000  0.000
    5  0.079  0.000  0.000  0.079
    6  0.079  0.000  0.000  0.079
    7  0.021  0.000  0.000  0.022
    8  0.021  0.000  0.000  0.022
    9  0.112  0.003  0.000  0.115
   10  0.112  0.003  0.000  0.115
   11  0.045  0.001  0.000  0.046
   12  0.045  0.001  0.000  0.046
   13  0.061  0.001  0.000  0.062
   14  0.061  0.001  0.000  0.062
   15  0.028  0.001  0.000  0.029
   16  0.028  0.001  0.000  0.029
   17  0.010  0.003  0.000  0.013
   18  0.010  0.003  0.000  0.013
   19  0.025  0.001  0.000  0.027
   20  0.025  0.001  0.000  0.027
   21  0.002  0.004  0.000  0.006
   22  0.002  0.004  0.000  0.006
   23  0.016  0.001  0.000  0.017
   24  0.016  0.001  0.000  0.017
   25  0.001  0.000  0.000  0.002
   26  0.001  0.000  0.000  0.002
tot    0.802  0.034  0.001  0.837
 
band    20 # energy   -6.31002810 # occ.  2.00000000
 
ion      s      p      d    tot
    1  0.000  0.000  0.000  0.000
    2  0.000  0.000  0.000  0.000
    3  0.000  0.000  0.000  0.000
    4  0.000  0.000  0.000  0.000
    5  0.017  0.001  0.000  0.018
    6  0.017  0.001  0.000  0.018
    7  0.189  0.000  0.000  0.190
    8  0.189  0.000  0.000  0.190
    9  0.019  0.001  0.000  0.019
   10  0.019  0.001  0.000  0.019
   11  0.032  0.000  0.000  0.032
   12  0.032  0.000  0.000  0.032
   13  0.006  0.000  0.000  0.007
   14  0.006  0.000  0.000  0.007
   15  0.000  0.001  0.000  0.001
   16  0.000  0.001  0.000  0.001
   17  0.013  0.003  0.000  0.015
   18  0.013  0.003  0.000  0.015
   19  0.011  0.000  0.000  0.012
   20  0.011  0.000  0.000  0.012
   21  0.010  0.001  0.000  0.011
   22  0.010  0.001  0.000  0.011
   23  0.041  0.003  0.000  0.044
   24  0.041  0.003  0.000  0.044
   25  0.075  0.004  0.000  0.079
   26  0.075  0.004  0.000  0.079
tot    0.828  0.027  0.001  0.856
 
band    21 # energy   -6.14082556 # occ.  2.00000000
 
ion      s      p      d    tot
    1  0.000  0.000  0.000  0.000
    2  0.000  0.000  0.000  0.000
    3  0.000  0.000  0.000  0.000
    4  0.000  0.000  0.000  0.000
    5  0.098  0.000  0.000  0.098
    6  0.098  0.000  0.000  0.098
    7  0.033  0.001  0.000  0.034
    8  0.033  0.001  0.000  0.034
    9  0.126  0.001  0.000  0.127
   10  0.126  0.001  0.000  0.127
   11  0.012  0.001  0.000  0.013
   12  0.012  0.001  0.000  0.013
   13  0.043  0.002  0.000  0.046
   14  0.043  0.002  0.000  0.046
   15  0.020  0.001  0.000  0.021
   16  0.020  0.001  0.000  0.021
   17  0.043  0.002  0.000  0.044
   18  0.043  0.002  0.000  0.044
   19  0.001  0.002  0.000  0.003
   20  0.001  0.002  0.000  0.003
   21  0.025  0.001  0.000  0.026
   22  0.025  0.001  0.000  0.026
   23  0.019  0.001  0.000  0.020
   24  0.019  0.001  0.000  0.020
   25  0.002  0.001  0.000  0.003
   26  0.002  0.001  0.000  0.003
tot    0.842  0.026  0.001  0.869
 
band    22 # energy   -5.72496264 # occ.  2.00000000
 
ion      s      p      d    tot
    1  0.000  0.000  0.000  0.000
    2  0.000  0.000  0.000  0.000
    3  0.000  0.000  0.000  0.000
    4  0.000  0.000  0.000  0.000
    5  0.050  0.000  0.000  0.051
    6  0.050  0.000  0.000  0.051
    7  0.019  0.000  0.000  0.019
    8  0.019  0.000  0.000  0.019
    9  0.095  0.000  0.000  0.095
   10  0.095  0.000  0.000  0.095
   11  0.098  0.000  0.000  0.098
   12  0.098  0.000  0.000  0.098
   13  0.027  0.002  0.000  0.029
   14  0.027  0.002  0.000  0.029
   15  0.020  0.002  0.000  0.022
   16  0.020  0.002  0.000  0.022
   17  0.021  0.001  0.000  0.022
   18  0.021  0.001  0.000  0.022
   19  0.033  0.002  0.000  0.035
   20  0.033  0.002  0.000  0.035
   21  0.055  0.000  0.000  0.055
   22  0.055  0.000  0.000  0.055
   23  0.008  0.001  0.000  0.009
   24  0.008  0.001  0.000  0.009
   25  0.005  0.001  0.000  0.006
   26  0.005  0.001  0.000  0.006
tot    0.863  0.019  0.001  0.882
 
band    23 # energy   -1.91322843 # occ.  2.00000000
 
ion      s      p      d    tot
    1  0.000  0.000  0.000  0.000
    2  0.000  0.000  0.000  0.000
    3  0.000  0.000  0.000  0.000
    4  0.000  0.000  0.000  0.000
    5  0.000  0.038  0.000  0.038
    6  0.000  0.038  0.000  0.038
    7  0.000  0.035  0.000  0.035
    8  0.000  0.035  0.000  0.035
    9  0.000  0.023  0.000  0.023
   10  0.000  0.023  0.000  0.023
   11  0.000  0.034  0.000  0.034
   12  0.000  0.034  0.000  0.034
   13  0.000  0.002  0.000  0.002
   14  0.000  0.002  0.000  0.002
   15  0.002  0.013  0.000  0.015
   16  0.002  0.013  0.000  0.015
   17  0.000  0.031  0.000  0.031
   18  0.000  0.031  0.000  0.031
   19  0.001  0.011  0.000  0.012
   20  0.001  0.011  0.000  0.012
   21  0.000  0.036  0.000  0.036
   22  0.000  0.036  0.000  0.036
   23  0.001  0.015  0.000  0.016
   24  0.001  0.015  0.000  0.016
   25  0.001  0.015  0.000  0.016
   26  0.001  0.015  0.000  0.016
tot    0.011  0.505  0.002  0.518
 
band    24 # energy   -1.29636687 # occ.  2.00000000
 
ion      s      p      d    tot
    1  0.000  0.000  0.000  0.000
    2  0.000  0.000  0.000  0.000
    3  0.001  0.000  0.000  0.001
    4  0.001  0.000  0.000  0.001
    5  0.000  0.042  0.000  0.043
    6  0.000  0.042  0.000  0.043
    7  0.001  0.025  0.001  0.028
    8  0.001  0.025  0.001  0.028
    9  0.000  0.048  0.000  0.049
   10  0.000  0.048  0.000  0.049
   11  0.000  0.006  0.001  0.008
   12  0.000  0.006  0.001  0.008
   13  0.000  0.007  0.000  0.007
   14  0.000  0.007  0.000  0.007
   15  0.000  0.003  0.000  0.004
   16  0.000  0.003  0.000  0.004
   17  0.000  0.052  0.000  0.053
   18  0.000  0.052  0.000  0.053
   19  0.001  0.022  0.000  0.023
   20  0.001  0.022  0.000  0.023
   21  0.001  0.021  0.000  0.022
   22  0.001  0.021  0.000  0.022
   23  0.001  0.023  0.000  0.024
   24  0.001  0.023  0.000  0.024
   25  0.001  0.004  0.000  0.005
   26  0.001  0.004  0.000  0.005
tot    0.014  0.511  0.007  0.532
 
band    25 # energy   -1.09138797 # occ.  2.00000000
 
ion      s      p      d    tot
    1  0.001  0.000  0.000  0.001
    2  0.001  0.000  0.000  0.001
    3  0.000  0.000  0.000  0.000
    4  0.000  0.000  0.000  0.000
    5  0.000  0.004  0.002  0.006
    6  0.000  0.004  0.002  0.006
    7  0.000  0.072  0.001  0.073
    8  0.000  0.072  0.001  0.073
    9  0.002  0.002  0.000  0.005
   10  0.002  0.002  0.000  0.005
   11  0.000  0.041  0.000  0.041
   12  0.000  0.041  0.000  0.041
   13  0.000  0.001  0.000  0.001
   14  0.000  0.001  0.000  0.001
   15  0.001  0.019  0.000  0.021
   16  0.001  0.019  0.000  0.021
   17  0.003  0.021  0.000  0.024
   18  0.003  0.021  0.000  0.024
   19  0.000  0.004  0.000  0.004
   20  0.000  0.004  0.000  0.004
   21  0.001  0.030  0.000  0.030
   22  0.001  0.030  0.000  0.030
   23  0.000  0.004  0.000  0.004
   24  0.000  0.004  0.000  0.004
   25  0.001  0.055  0.000  0.057
   26  0.001  0.055  0.000  0.057
tot    0.022  0.507  0.009  0.538
 
band    26 # energy   -0.57136903 # occ.  2.00000000
 
ion      s      p      d    tot
    1  0.000  0.000  0.000  0.001
    2  0.000  0.000  0.000  0.001
    3  0.001  0.000  0.000  0.001
    4  0.001  0.000  0.000  0.001
    5  0.000  0.040  0.000  0.041
    6  0.000  0.040  0.000  0.041
    7  0.000  0.007  0.000  0.007
    8  0.000  0.007  0.000  0.007
    9  0.003  0.021  0.001  0.024
   10  0.003  0.021  0.001  0.024
   11  0.001  0.041  0.002  0.044
   12  0.001  0.041  0.002  0.044
   13  0.001  0.012  0.000  0.012
   14  0.001  0.012  0.000  0.012
   15  0.001  0.049  0.000  0.050
   16  0.001  0.049  0.000  0.050
   17  0.000  0.014  0.000  0.015
   18  0.000  0.014  0.000  0.015
   19  0.000  0.031  0.000  0.032
   20  0.000  0.031  0.000  0.032
   21  0.003  0.008  0.001  0.011
   22  0.003  0.008  0.001  0.011
   23  0.001  0.027  0.000  0.028
   24  0.001  0.027  0.000  0.028
   25  0.001  0.000  0.000  0.002
   26  0.001  0.000  0.000  0.002
tot    0.024  0.501  0.009  0.535
 
band    27 # energy   -0.38942357 # occ.  2.00000000
 
ion      s      p      d    tot
    1  0.000  0.000  0.000  0.000
    2  0.000  0.000  0.000  0.000
    3  0.002  0.000  0.000  0.002
    4  0.002  0.000  0.000  0.002
    5  0.000  0.023  0.000  0.024
    6  0.000  0.023  0.000  0.024
    7  0.000  0.003  0.000  0.003
    8  0.000  0.003  0.000  0.003
    9  0.001  0.035  0.001  0.037
   10  0.001  0.035  0.001  0.037
   11  0.000  0.045  0.000  0.045
   12  0.000  0.045  0.000  0.045
   13  0.001  0.008  0.000  0.010
   14  0.001  0.008  0.000  0.010
   15  0.000  0.028  0.000  0.028
   16  0.000  0.028  0.000  0.028
   17  0.003  0.006  0.000  0.010
   18  0.003  0.006  0.000  0.010
   19  0.001  0.042  0.000  0.043
   20  0.001  0.042  0.000  0.043
   21  0.001  0.050  0.000  0.051
   22  0.001  0.050  0.000  0.051
   23  0.000  0.016  0.000  0.016
   24  0.000  0.016  0.000  0.016
   25  0.000  0.002  0.000  0.002
   26  0.000  0.002  0.000  0.002
tot    0.022  0.517  0.007  0.546
 
band    28 # energy   -0.28489569 # occ.  2.00000000
 
ion      s      p      d    tot
    1  0.000  0.000  0.000  0.001
    2  0.000  0.000  0.000  0.001
    3  0.001  0.000  0.000  0.001
    4  0.001  0.000  0.000  0.001
    5  0.001  0.027  0.001  0.029
    6  0.001  0.027  0.001  0.029
    7  0.000  0.037  0.000  0.038
    8  0.000  0.037  0.000  0.038
    9  0.000  0.035  0.000  0.036
   10  0.000  0.035  0.000  0.036
   11  0.000  0.003  0.001  0.004
   12  0.000  0.003  0.001  0.004
   13  0.000  0.018  0.000  0.018
   14  0.000  0.018  0.000  0.018
   15  0.001  0.014  0.000  0.015
   16  0.001  0.014  0.000  0.015
   17  0.000  0.038  0.000  0.038
   18  0.000  0.038  0.000  0.038
   19  0.001  0.020  0.000  0.022
   20  0.001  0.020  0.000  0.022
   21  0.000  0.004  0.000  0.004
   22  0.000  0.004  0.000  0.004
   23  0.000  0.032  0.000  0.033
   24  0.000  0.032  0.000  0.033
   25  0.002  0.029  0.000  0.031
   26  0.002  0.029  0.000  0.031
tot    0.015  0.517  0.006  0.538
 
band    29 # energy   -0.05679715 # occ.  2.00000000
 
ion      s      p      d    tot
    1  0.000  0.000  0.000  0.000
    2  0.000  0.000  0.000  0.000
    3  0.000  0.000  0.000  0.000
    4  0.000  0.000  0.000  0.000
    5  0.000  0.035  0.000  0.036
    6  0.000  0.035  0.000  0.036
    7  0.000  0.024  0.000  0.024
    8  0.000  0.024  0.000  0.024
    9  0.000  0.032  0.000  0.033
   10  0.000  0.032  0.000  0.033
   11  0.000  0.039  0.000  0.039
   12  0.000  0.039  0.000  0.039
   13  0.000  0.021  0.000  0.021
   14  0.000  0.021  0.000  0.021
   15  0.000  0.017  0.000  0.017
   16  0.000  0.017  0.000  0.017
   17  0.000  0.030  0.000  0.030
   18  0.000  0.030  0.000  0.030
   19  0.000  0.020  0.000  0.020
   20  0.000  0.020  0.000  0.020
   21  0.000  0.045  0.000  0.045
   22  0.000  0.045  0.000  0.045
   23  0.000  0.016  0.000  0.016
   24  0.000  0.016  0.000  0.016
   25  0.000  0.014  0.000  0.014
   26  0.000  0.014  0.000  0.014
tot    0.000  0.586  0.004  0.590
 
band    30 # energy   -0.02865630 # occ.  2.00000000
 
ion      s      p      d    tot
    1  0.001  0.000  0.000  0.001
    2  0.001  0.000  0.000  0.001
    3  0.001  0.000  0.000  0.002
    4  0.001  0.000  0.000  0.002
    5  0.000  0.027  0.000  0.027
    6  0.000  0.027  0.000  0.027
    7  0.000  0.017  0.001  0.018
    8  0.000  0.017  0.001  0.018
    9  0.001  0.025  0.001  0.026
   10  0.001  0.025  0.001  0.026
   11  0.001  0.027  0.001  0.028
   12  0.001  0.027  0.001  0.028
   13  0.001  0.011  0.000  0.012
   14  0.001  0.011  0.000  0.012
   15  0.002  0.030  0.000  0.032
   16  0.002  0.030  0.000  0.032