/etc/profile: 第 79 行:ulimit: stack size: 无法修改 limit 值: 不允许的操作
/home/customer/.bashrc: 第 12 行:ulimit: stack size: 无法修改 limit 值: 不允许的操作
Intel(R) Parallel Studio XE 2018 Update 3 for Linux*
Copyright (C) 2009-2018 Intel Corporation. All rights reserved.
 running on   14 total cores
 distrk:  each k-point on   14 cores,    1 groups
 distr:  one band on    1 cores,   14 groups
 using from now: INCAR     
 vasp.5.4.4.18Apr17-6-g9f103f2a35 (build Oct 27 2022 13:04:57) complex          
  
 POSCAR found type information on POSCAR  Na Bi Se
 POSCAR found :  3 types and      26 ions
 scaLAPACK will be used

 ----------------------------------------------------------------------------- 
|                                                                             |
|           W    W    AA    RRRRR   N    N  II  N    N   GGGG   !!!           |
|           W    W   A  A   R    R  NN   N  II  NN   N  G    G  !!!           |
|           W    W  A    A  R    R  N N  N  II  N N  N  G       !!!           |
|           W WW W  AAAAAA  RRRRR   N  N N  II  N  N N  G  GGG   !            |
|           WW  WW  A    A  R   R   N   NN  II  N   NN  G    G                |
|           W    W  A    A  R    R  N    N  II  N    N   GGGG   !!!           |
|                                                                             |
|      For optimal performance we recommend to set                            |
|        NCORE= 4 - approx SQRT( number of cores)                             |
|      NCORE specifies how many cores store one orbital (NPAR=cpu/NCORE).     |
|      This setting can  greatly improve the performance of VASP for DFT.     |
|      The default,   NCORE=1            might be grossly inefficient         |
|      on modern multi-core architectures or massively parallel machines.     |
|      Do your own testing !!!!                                               |
|      Unfortunately you need to use the default for GW and RPA calculations. |
|      (for HF NCORE is supported but not extensively tested yet)             |
|                                                                             |
 ----------------------------------------------------------------------------- 

 LDA part: xc-table for Pade appr. of Perdew
 POSCAR, INCAR and KPOINTS ok, starting setup
 FFT: planning ...
 WAVECAR not read
 entering main loop
       N       E                     dE             d eps       ncg     rms          rms(c)
DAV:   1     0.561844305398E+03    0.56184E+03   -0.33918E+04  1008   0.782E+02
DAV:   2    -0.342297560703E+02   -0.59607E+03   -0.57513E+03  1330   0.163E+02
DAV:   3    -0.101356197693E+03   -0.67126E+02   -0.66258E+02  1232   0.602E+01
DAV:   4    -0.104240074655E+03   -0.28839E+01   -0.28712E+01  1554   0.133E+01
DAV:   5    -0.104297431374E+03   -0.57357E-01   -0.57319E-01  1414   0.193E+00    0.137E+01
DAV:   6    -0.993914685900E+02    0.49060E+01   -0.10375E+01  1176   0.734E+00    0.737E+00
DAV:   7    -0.993068026163E+02    0.84666E-01   -0.33629E+00  1232   0.383E+00    0.472E+00
DAV:   8    -0.992953931191E+02    0.11409E-01   -0.32680E-01  1512   0.153E+00    0.173E+00
DAV:   9    -0.992972667968E+02   -0.18737E-02   -0.61268E-02  1302   0.834E-01    0.419E-01
DAV:  10    -0.992996304855E+02   -0.23637E-02   -0.15485E-02  1330   0.280E-01    0.248E-01
DAV:  11    -0.993012146893E+02   -0.15842E-02   -0.29821E-03  1274   0.176E-01    0.104E-01
DAV:  12    -0.993021512898E+02   -0.93660E-03   -0.18433E-03  1218   0.113E-01    0.462E-02
DAV:  13    -0.993023777145E+02   -0.22642E-03   -0.46064E-04  1120   0.504E-02    0.300E-02
DAV:  14    -0.993024593716E+02   -0.81657E-04   -0.11658E-04   938   0.271E-02
   1 F= -.99302459E+02 E0= -.99302459E+02  d E =-.993025E+02
 curvature:   0.00 expect dE= 0.000E+00 dE for cont linesearch  0.000E+00
 trial: gam= 0.00000 g(F)=  0.238E-01 g(S)=  0.148E-01 ort = 0.000E+00 (trialstep = 0.100E+01)
 search vector abs. value=  0.386E-01
 bond charge predicted
       N       E                     dE             d eps       ncg     rms          rms(c)
DAV:   1    -0.993437444818E+02   -0.41367E-01   -0.34450E-01  1120   0.139E+00    0.342E-01
DAV:   2    -0.993418978044E+02    0.18467E-02   -0.19147E-02  1176   0.347E-01    0.158E-01
DAV:   3    -0.993408726215E+02    0.10252E-02   -0.18605E-03  1260   0.103E-01    0.906E-02
DAV:   4    -0.993405631327E+02    0.30949E-03   -0.76395E-04  1260   0.623E-02    0.408E-02
DAV:   5    -0.993405425684E+02    0.20564E-04   -0.10582E-04   756   0.257E-02
   2 F= -.99340543E+02 E0= -.99340543E+02  d E =-.380832E-01
 ZBRENT: can't locate minimum, use default step
 trial-energy change:   -0.038083  1 .order   -0.038261   -0.038640   -0.037882
 step:   4.0000(harm= 50.9445)  dis= 0.01986  next Energy=  -100.286719 (dE=-0.984E+00)
 bond charge predicted
       N       E                     dE             d eps       ncg     rms          rms(c)
DAV:   1    -0.994748515294E+02   -0.13429E+00   -0.30933E+00  1008   0.419E+00    0.103E+00
DAV:   2    -0.994575787498E+02    0.17273E-01   -0.17292E-01  1176   0.104E+00    0.466E-01
DAV:   3    -0.994482022820E+02    0.93765E-02   -0.17645E-02  1260   0.317E-01    0.268E-01
DAV:   4    -0.994455482400E+02    0.26540E-02   -0.64648E-03  1260   0.180E-01    0.125E-01
DAV:   5    -0.994453583723E+02    0.18987E-03   -0.11261E-03  1456   0.741E-02    0.612E-02
DAV:   6    -0.994453522684E+02    0.61039E-05   -0.13495E-04   826   0.311E-02
   3 F= -.99445352E+02 E0= -.99445352E+02  d E =-.142893E+00
 curvature:  -2.97 expect dE=-0.856E-01 dE for cont linesearch -0.809E-01
 ZBRENT: increasing intervall
 opt :  10.0000  next Energy=   -99.607407 (dE=-0.305E+00)
 bond charge predicted
       N       E                     dE             d eps       ncg     rms          rms(c)
DAV:   1    -0.997276549502E+02   -0.28230E+00   -0.12524E+01  1008   0.844E+00    0.212E+00
DAV:   2    -0.996562887742E+02    0.71366E-01   -0.70835E-01  1176   0.211E+00    0.934E-01
DAV:   3    -0.996183383298E+02    0.37950E-01   -0.74884E-02  1260   0.656E-01    0.538E-01
DAV:   4    -0.996084127615E+02    0.99256E-02   -0.25258E-02  1260   0.358E-01    0.256E-01
DAV:   5    -0.996076456477E+02    0.76711E-03   -0.41324E-03  1470   0.143E-01    0.123E-01
DAV:   6    -0.996076137783E+02    0.31869E-04   -0.68549E-04  1260   0.646E-02
   4 F= -.99607614E+02 E0= -.99607614E+02  d E =-.305154E+00
 curvature:  -5.95 expect dE=-0.133E+00 dE for cont linesearch -0.743E-01
 ZBRENT: increasing intervall
 opt :  22.0000  next Energy=   -99.745601 (dE=-0.443E+00)
 bond charge predicted
       N       E                     dE             d eps       ncg     rms          rms(c)
DAV:   1    -0.100242829346E+03   -0.63518E+00   -0.51171E+01  1008   0.171E+01    0.453E+00
DAV:   2    -0.999381127720E+02    0.30472E+00   -0.29758E+00  1176   0.432E+00    0.188E+00
DAV:   3    -0.997851209191E+02    0.15299E+00   -0.33077E-01  1260   0.139E+00    0.111E+00
DAV:   4    -0.997497964115E+02    0.35325E-01   -0.97073E-02  1260   0.710E-01    0.562E-01
DAV:   5    -0.997466645935E+02    0.31318E-02   -0.14485E-02  1456   0.268E-01    0.269E-01
DAV:   6    -0.997463657208E+02    0.29887E-03   -0.32568E-03  1288   0.140E-01    0.112E-01
DAV:   7    -0.997465445921E+02   -0.17887E-03   -0.55983E-04  1176   0.579E-02    0.367E-02
DAV:   8    -0.997465851500E+02   -0.40558E-04   -0.64486E-05   840   0.251E-02
   5 F= -.99746585E+02 E0= -.99746585E+02  d E =-.444126E+00
 curvature: -11.04 expect dE=-0.626E+00 dE for cont linesearch -0.204E-04
 trial: gam= 1.45974 g(F)=  0.332E-01 g(S)=  0.235E-01 ort = 0.267E-03 (trialstep = 0.144E+01)
 search vector abs. value=  0.140E+00
 bond charge predicted
       N       E                     dE             d eps       ncg     rms          rms(c)
DAV:   1    -0.998175388217E+02   -0.70994E-01   -0.22557E+00  1036   0.364E+00    0.644E-01
DAV:   2    -0.998267164331E+02   -0.91776E-02   -0.13604E-01  1176   0.912E-01    0.284E-01
DAV:   3    -0.998252910119E+02    0.14254E-02   -0.30018E-03  1302   0.166E-01    0.202E-01
DAV:   4    -0.998245080451E+02    0.78297E-03   -0.21379E-03  1260   0.118E-01    0.718E-02
DAV:   5    -0.998245058471E+02    0.21979E-05   -0.43419E-04  1148   0.533E-02
   6 F= -.99824506E+02 E0= -.99824506E+02  d E =-.779207E-01
 ZBRENT: can't locate minimum, use default step
 trial-energy change:   -0.077921  1 .order   -0.076985   -0.082020   -0.071950
 step:   5.7496(harm= 11.7072)  dis= 0.05750  next Energy=  -100.080601 (dE=-0.334E+00)
 bond charge predicted
       N       E                     dE             d eps       ncg     rms          rms(c)
DAV:   1    -0.999187302114E+02   -0.94222E-01   -0.20210E+01  1008   0.108E+01    0.202E+00
DAV:   2    -0.100002274884E+03   -0.83545E-01   -0.12377E+00  1176   0.274E+00    0.906E-01
DAV:   3    -0.999900640581E+02    0.12211E-01   -0.26977E-02  1302   0.495E-01    0.650E-01
DAV:   4    -0.999834258396E+02    0.66382E-02   -0.18392E-02  1260   0.347E-01    0.223E-01
DAV:   5    -0.999833950283E+02    0.30811E-04   -0.38505E-03  1288   0.158E-01    0.793E-02
DAV:   6    -0.999833733963E+02    0.21632E-04   -0.33699E-04  1092   0.463E-02
   7 F= -.99983373E+02 E0= -.99983373E+02  d E =-.236788E+00
 curvature:  -9.51 expect dE=-0.224E+00 dE for cont linesearch -0.284E-01
 ZBRENT: increasing intervall
 opt :  14.3740  next Energy=   -99.904246 (dE=-0.158E+00)
 bond charge predicted
       N       E                     dE             d eps       ncg     rms          rms(c)
DAV:   1    -0.996541149877E+02    0.32928E+00   -0.79981E+01  1008   0.214E+01    0.465E+00
DAV:   2    -0.999987796693E+02   -0.34466E+00   -0.50849E+00  1176   0.550E+00    0.206E+00
DAV:   3    -0.999533134742E+02    0.45466E-01   -0.10950E-01  1316   0.989E-01    0.152E+00
DAV:   4    -0.999288558879E+02    0.24458E-01   -0.66433E-02  1218   0.665E-01    0.519E-01
DAV:   5    -0.999284365265E+02    0.41936E-03   -0.15369E-02  1288   0.309E-01    0.172E-01
DAV:   6    -0.999284087987E+02    0.27728E-04   -0.10738E-03  1344   0.807E-02    0.108E-01
DAV:   7    -0.999284251394E+02   -0.16341E-04   -0.20550E-04   854   0.427E-02
   8 F= -.99928425E+02 E0= -.99928425E+02  d E =-.181840E+00
 curvature:  26.47 expect dE= 0.250E+01 dE for cont linesearch  0.171E+00
 ZBRENT: bracketing found
 ZBRENT: interpolating
 opt :   9.2430  next Energy=  -100.019076 (dE=-0.272E+00)
 bond charge predicted
       N       E                     dE             d eps       ncg     rms          rms(c)
DAV:   1    -0.999152433269E+02    0.13165E-01   -0.28682E+01  1008   0.130E+01    0.243E+00
DAV:   2    -0.100035699927E+03   -0.12046E+00   -0.17139E+00  1176   0.327E+00    0.923E-01
DAV:   3    -0.100020015419E+03    0.15685E-01   -0.39405E-02  1302   0.588E-01    0.681E-01
DAV:   4    -0.100010836926E+03    0.91785E-02   -0.24227E-02  1246   0.394E-01    0.254E-01
DAV:   5    -0.100010842242E+03   -0.53159E-05   -0.53850E-03  1288   0.180E-01    0.937E-02
DAV:   6    -0.100010809380E+03    0.32862E-04   -0.37476E-04  1120   0.496E-02
   9 F= -.10001081E+03 E0= -.10001081E+03  d E =-.264224E+00
 curvature:  -5.54 expect dE=-0.204E+00 dE for cont linesearch -0.272E-03
 trial: gam= 0.62897 g(F)=  0.235E-01 g(S)=  0.134E-01 ort =-0.262E-02 (trialstep = 0.300E+01)
 search vector abs. value=  0.888E-01
 bond charge predicted
       N       E                     dE             d eps       ncg     rms          rms(c)
DAV:   1    -0.100111093353E+03   -0.10025E+00   -0.44619E+00  1008   0.519E+00    0.111E+00
DAV:   2    -0.100109949965E+03    0.11434E-02   -0.30930E-01  1260   0.137E+00    0.535E-01
DAV:   3    -0.100103642604E+03    0.63074E-02   -0.19759E-02  1232   0.370E-01    0.307E-01
DAV:   4    -0.100100943544E+03    0.26991E-02   -0.66720E-03  1260   0.194E-01    0.146E-01
DAV:   5    -0.100100622345E+03    0.32120E-03   -0.12455E-03  1288   0.914E-02    0.741E-02
DAV:   6    -0.100100596855E+03    0.25490E-04   -0.26056E-04   910   0.385E-02
  10 F= -.10010060E+03 E0= -.10010060E+03  d E =-.897875E-01
 trial-energy change:   -0.089787  1 .order   -0.090359   -0.105490   -0.075229
 step:  10.4528(harm= 10.4528)  dis= 0.08354  next Energy=  -100.194678 (dE=-0.184E+00)
 bond charge predicted
       N       E                     dE             d eps       ncg     rms          rms(c)
DAV:   1    -0.100235694239E+03   -0.13507E+00   -0.27864E+01  1008   0.130E+01    0.291E+00
DAV:   2    -0.100226028680E+03    0.96656E-02   -0.19870E+00  1260   0.345E+00    0.130E+00
DAV:   3    -0.100186324676E+03    0.39704E-01   -0.12729E-01  1232   0.942E-01    0.758E-01
DAV:   4    -0.100171793296E+03    0.14531E-01   -0.37610E-02  1260   0.464E-01    0.392E-01
DAV:   5    -0.100169756407E+03    0.20369E-02   -0.69110E-03  1316   0.217E-01    0.190E-01
DAV:   6    -0.100169560633E+03    0.19577E-03   -0.22347E-03  1302   0.107E-01    0.109E-01
DAV:   7    -0.100169651433E+03   -0.90800E-04   -0.25582E-04   966   0.427E-02
  11 F= -.10016965E+03 E0= -.10016965E+03  d E =-.158842E+00
 curvature: -13.20 expect dE=-0.210E+00 dE for cont linesearch -0.592E-02
 ZBRENT: interpolating
 opt :   8.9547  next Energy=  -100.174378 (dE=-0.164E+00)
 bond charge predicted
       N       E                     dE             d eps       ncg     rms          rms(c)
DAV:   1    -0.100177877314E+03   -0.83167E-02   -0.11146E+00  1008   0.261E+00    0.543E-01
DAV:   2    -0.100177777466E+03    0.99848E-04   -0.78780E-02  1260   0.697E-01    0.291E-01
DAV:   3    -0.100176271226E+03    0.15062E-02   -0.51750E-03  1232   0.188E-01    0.166E-01
DAV:   4    -0.100175465104E+03    0.80612E-03   -0.17063E-03  1260   0.996E-02    0.753E-02
DAV:   5    -0.100175350879E+03    0.11423E-03   -0.36926E-04  1064   0.497E-02    0.382E-02
DAV:   6    -0.100175342618E+03    0.82607E-05   -0.72397E-05   658   0.215E-02
  12 F= -.10017534E+03 E0= -.10017534E+03  d E =-.164533E+00
 curvature: -10.54 expect dE=-0.116E+00 dE for cont linesearch -0.425E-03
 trial: gam= 0.26108 g(F)=  0.766E-02 g(S)=  0.334E-02 ort =-0.189E-02 (trialstep = 0.419E+01)
 search vector abs. value=  0.161E-01
 bond charge predicted
       N       E                     dE             d eps       ncg     rms          rms(c)
DAV:   1    -0.100208857681E+03   -0.33507E-01   -0.16377E+00  1008   0.320E+00    0.535E-01
DAV:   2    -0.100215239283E+03   -0.63816E-02   -0.11228E-01  1232   0.815E-01    0.261E-01
DAV:   3    -0.100214401080E+03    0.83820E-03   -0.42200E-03  1372   0.178E-01    0.170E-01
DAV:   4    -0.100213857866E+03    0.54321E-03   -0.10255E-03  1232   0.812E-02    0.778E-02
DAV:   5    -0.100213732133E+03    0.12573E-03   -0.29811E-04   938   0.520E-02    0.326E-02
DAV:   6    -0.100213734302E+03   -0.21685E-05   -0.85874E-05   686   0.249E-02
  13 F= -.10021373E+03 E0= -.10021373E+03  d E =-.383917E-01
 trial-energy change:   -0.038392  1 .order   -0.037542   -0.044046   -0.031038
 step:   9.4869(harm= 14.1868)  dis= 0.03654  next Energy=  -100.235072 (dE=-0.597E-01)
 bond charge predicted
       N       E                     dE             d eps       ncg     rms          rms(c)
DAV:   1    -0.100231131674E+03   -0.17400E-01   -0.26172E+00  1008   0.405E+00    0.676E-01
DAV:   2    -0.100241451559E+03   -0.10320E-01   -0.17996E-01  1232   0.103E+00    0.329E-01
DAV:   3    -0.100240119232E+03    0.13323E-02   -0.66982E-03  1358   0.226E-01    0.217E-01
DAV:   4    -0.100239253455E+03    0.86578E-03   -0.16411E-03  1232   0.103E-01    0.996E-02
DAV:   5    -0.100239054230E+03    0.19922E-03   -0.52139E-04  1232   0.662E-02    0.424E-02
DAV:   6    -0.100239057074E+03   -0.28444E-05   -0.11163E-04   714   0.281E-02
  14 F= -.10023906E+03 E0= -.10023906E+03  d E =-.637145E-01
 curvature:  -8.45 expect dE=-0.427E-01 dE for cont linesearch -0.397E-02
 ZBRENT: increasing intervall
 opt :  20.0812  next Energy=  -100.218775 (dE=-0.434E-01)
 bond charge predicted
       N       E                     dE             d eps       ncg     rms          rms(c)
DAV:   1    -0.100193103091E+03    0.45951E-01   -0.10418E+01  1008   0.808E+00    0.137E+00
DAV:   2    -0.100234763677E+03   -0.41661E-01   -0.72062E-01  1232   0.207E+00    0.679E-01
DAV:   3    -0.100229485230E+03    0.52784E-02   -0.27124E-02  1372   0.453E-01    0.447E-01
DAV:   4    -0.100225979396E+03    0.35058E-02   -0.65539E-03  1246   0.205E-01    0.206E-01
DAV:   5    -0.100225137123E+03    0.84227E-03   -0.22119E-03  1260   0.136E-01    0.883E-02
DAV:   6    -0.100225160272E+03   -0.23149E-04   -0.55281E-04  1162   0.576E-02
  15 F= -.10022516E+03 E0= -.10022516E+03  d E =-.498177E-01
 curvature:  43.21 expect dE= 0.992E+00 dE for cont linesearch  0.901E-01
 ZBRENT: bracketing found
 ZBRENT: interpolating
 opt :  12.8960  next Energy=  -100.243739 (dE=-0.684E-01)
 bond charge predicted
       N       E                     dE             d eps       ncg     rms          rms(c)
DAV:   1    -0.100230525371E+03   -0.53882E-02   -0.48049E+00  1008   0.549E+00    0.946E-01
DAV:   2    -0.100248775307E+03   -0.18250E-01   -0.32604E-01  1232   0.139E+00    0.425E-01
DAV:   3    -0.100246304926E+03    0.24704E-02   -0.12022E-02  1372   0.301E-01    0.277E-01
DAV:   4    -0.100244890188E+03    0.14147E-02   -0.27607E-03  1232   0.132E-01    0.132E-01
DAV:   5    -0.100244543419E+03    0.34677E-03   -0.86433E-04  1260   0.857E-02    0.541E-02
DAV:   6    -0.100244548930E+03   -0.55114E-05   -0.19205E-04   742   0.376E-02
  16 F= -.10024455E+03 E0= -.10024455E+03  d E =-.692063E-01
 curvature:  -2.25 expect dE=-0.167E-01 dE for cont linesearch -0.603E-05
 trial: gam= 0.66505 g(F)=  0.418E-02 g(S)=  0.327E-02 ort = 0.208E-03 (trialstep = 0.593E+01)
 search vector abs. value=  0.148E-01
 bond charge predicted
       N       E                     dE             d eps       ncg     rms          rms(c)
DAV:   1    -0.100273341392E+03   -0.28798E-01   -0.37859E+00  1008   0.485E+00    0.938E-01
DAV:   2    -0.100282730369E+03   -0.93890E-02   -0.24539E-01  1218   0.121E+00    0.396E-01
DAV:   3    -0.100279366768E+03    0.33636E-02   -0.82209E-03  1330   0.248E-01    0.253E-01
DAV:   4    -0.100277833533E+03    0.15332E-02   -0.30316E-03  1232   0.141E-01    0.107E-01
DAV:   5    -0.100277692584E+03    0.14095E-03   -0.60931E-04  1204   0.642E-02    0.440E-02
DAV:   6    -0.100277689013E+03    0.35711E-05   -0.11325E-04   728   0.286E-02
  17 F= -.10027769E+03 E0= -.10027769E+03  d E =-.331401E-01
 trial-energy change:   -0.033140  1 .order   -0.033406   -0.045013   -0.021800
 step:  11.5007(harm= 11.5007)  dis= 0.03254  next Energy=  -100.288191 (dE=-0.436E-01)
 bond charge predicted
       N       E                     dE             d eps       ncg     rms          rms(c)
DAV:   1    -0.100279471946E+03   -0.17794E-02   -0.33422E+00  1008   0.456E+00    0.887E-01
DAV:   2    -0.100287905712E+03   -0.84338E-02   -0.21709E-01  1218   0.113E+00    0.373E-01
DAV:   3    -0.100284913377E+03    0.29923E-02   -0.72315E-03  1344   0.233E-01    0.237E-01
DAV:   4    -0.100283568341E+03    0.13450E-02   -0.27279E-03  1246   0.133E-01    0.991E-02
DAV:   5    -0.100283449337E+03    0.11900E-03   -0.51505E-04  1176   0.598E-02    0.414E-02
DAV:   6    -0.100283445797E+03    0.35402E-05   -0.10544E-04   714   0.275E-02
  18 F= -.10028345E+03 E0= -.10028345E+03  d E =-.388969E-01
 curvature: -11.24 expect dE=-0.474E-01 dE for cont linesearch -0.239E-02
 ZBRENT: interpolating
 opt :   9.6864  next Energy=  -100.285057 (dE=-0.405E-01)
 bond charge predicted
       N       E                     dE             d eps       ncg     rms          rms(c)
DAV:   1    -0.100284306753E+03   -0.85742E-03   -0.35290E-01  1008   0.148E+00    0.283E-01
DAV:   2    -0.100285183769E+03   -0.87702E-03   -0.22897E-02  1218   0.370E-01    0.131E-01
DAV:   3    -0.100284859953E+03    0.32382E-03   -0.77565E-04  1344   0.758E-02    0.823E-02
DAV:   4    -0.100284686988E+03    0.17296E-03   -0.27754E-04   882   0.445E-02    0.312E-02
DAV:   5    -0.100284667766E+03    0.19222E-04   -0.89381E-05   714   0.266E-02
  19 F= -.10028467E+03 E0= -.10028467E+03  d E =-.401188E-01
 curvature:  -7.58 expect dE=-0.185E-01 dE for cont linesearch -0.690E-04
 trial: gam= 0.32046 g(F)=  0.145E-02 g(S)=  0.980E-03 ort = 0.368E-03 (trialstep = 0.668E+01)
 search vector abs. value=  0.419E-02
 bond charge predicted
       N       E                     dE             d eps       ncg     rms          rms(c)
DAV:   1    -0.100294008119E+03   -0.93211E-02   -0.11549E+00  1008   0.270E+00    0.453E-01
DAV:   2    -0.100298595541E+03   -0.45874E-02   -0.75273E-02  1260   0.678E-01    0.209E-01
DAV:   3    -0.100297950634E+03    0.64491E-03   -0.22552E-03  1442   0.137E-01    0.143E-01
DAV:   4    -0.100297572393E+03    0.37824E-03   -0.65646E-04  1260   0.724E-02    0.587E-02
DAV:   5    -0.100297513470E+03    0.58923E-04   -0.19879E-04   756   0.408E-02
  20 F= -.10029751E+03 E0= -.10029751E+03  d E =-.128457E-01
 trial-energy change:   -0.012846  1 .order   -0.013839   -0.017057   -0.010621
 step:  17.7083(harm= 17.7083)  dis= 0.02709  next Energy=  -100.307269 (dE=-0.226E-01)
 bond charge predicted
       N       E                     dE             d eps       ncg     rms          rms(c)
DAV:   1    -0.100297839795E+03   -0.26740E-03   -0.31350E+00  1008   0.445E+00    0.760E-01
DAV:   2    -0.100310340131E+03   -0.12500E-01   -0.20485E-01  1260   0.112E+00    0.344E-01
DAV:   3    -0.100308597828E+03    0.17423E-02   -0.61235E-03  1456   0.226E-01    0.233E-01
DAV:   4    -0.100307587258E+03    0.10106E-02   -0.17971E-03  1288   0.120E-01    0.932E-02
DAV:   5    -0.100307450679E+03    0.13658E-03   -0.61038E-04  1218   0.662E-02    0.347E-02
DAV:   6    -0.100307455119E+03   -0.44401E-05   -0.85855E-05   714   0.256E-02
  21 F= -.10030746E+03 E0= -.10030746E+03  d E =-.227874E-01
 curvature: -14.55 expect dE=-0.425E-01 dE for cont linesearch -0.660E-03
 trial: gam= 1.08320 g(F)=  0.235E-02 g(S)=  0.570E-03 ort = 0.436E-03 (trialstep = 0.424E+01)
 search vector abs. value=  0.878E-02
 bond charge predicted
       N       E                     dE             d eps       ncg     rms          rms(c)
DAV:   1    -0.100317486667E+03   -0.10036E-01   -0.97601E-01  1008   0.247E+00    0.427E-01
DAV:   2    -0.100321530906E+03   -0.40442E-02   -0.64528E-02  1190   0.624E-01    0.181E-01
DAV:   3    -0.100321027951E+03    0.50296E-03   -0.19287E-03  1386   0.120E-01    0.119E-01
DAV:   4    -0.100320734181E+03    0.29377E-03   -0.57199E-04  1204   0.652E-02    0.502E-02
DAV:   5    -0.100320710844E+03    0.23338E-04   -0.14417E-04   728   0.326E-02
  22 F= -.10032071E+03 E0= -.10032071E+03  d E =-.132557E-01
 ZBRENT: can't locate minimum, use default step
 trial-energy change:   -0.013256  1 .order   -0.013470   -0.014390   -0.012551
 step:  16.9723(harm= 33.2001)  dis= 0.04412  next Energy=  -100.363752 (dE=-0.563E-01)
 bond charge predicted
       N       E                     dE             d eps       ncg     rms          rms(c)
DAV:   1    -0.100296874346E+03    0.23860E-01   -0.87953E+00  1008   0.743E+00    0.130E+00
DAV:   2    -0.100332653971E+03   -0.35780E-01   -0.57937E-01  1204   0.187E+00    0.530E-01
DAV:   3    -0.100328016887E+03    0.46371E-02   -0.16911E-02  1386   0.356E-01    0.352E-01
DAV:   4    -0.100325409698E+03    0.26072E-02   -0.49936E-03  1260   0.192E-01    0.154E-01
DAV:   5    -0.100325190382E+03    0.21932E-03   -0.14237E-03  1260   0.960E-02    0.634E-02
DAV:   6    -0.100325189889E+03    0.49273E-06   -0.15039E-04   756   0.346E-02
  23 F= -.10032519E+03 E0= -.10032519E+03  d E =-.177348E-01
 curvature: -29.50 expect dE=-0.173E+00 dE for cont linesearch -0.251E-02
 ZBRENT: interpolating
 opt :  14.0935  next Energy=  -100.326434 (dE=-0.190E-01)
 bond charge predicted
       N       E                     dE             d eps       ncg     rms          rms(c)
DAV:   1    -0.100325821606E+03   -0.63122E-03   -0.44750E-01  1008   0.167E+00    0.286E-01
DAV:   2    -0.100327652408E+03   -0.18308E-02   -0.29416E-02  1176   0.422E-01    0.130E-01
DAV:   3    -0.100327402229E+03    0.25018E-03   -0.89962E-04  1372   0.820E-02    0.851E-02
DAV:   4    -0.100327240248E+03    0.16198E-03   -0.24614E-04   826   0.445E-02    0.344E-02
DAV:   5    -0.100327219971E+03    0.20277E-04   -0.10654E-04   630   0.280E-02
  24 F= -.10032722E+03 E0= -.10032722E+03  d E =-.197649E-01
 curvature: -14.63 expect dE=-0.637E-01 dE for cont linesearch -0.701E-03
 ZBRENT: bisectioning
 opt :   9.1683  next Energy=  -100.329508 (dE=-0.221E-01)
 bond charge predicted
       N       E                     dE             d eps       ncg     rms          rms(c)
DAV:   1    -0.100323814999E+03    0.34252E-02   -0.13093E+00  1008   0.286E+00    0.495E-01
DAV:   2    -0.100329277433E+03   -0.54624E-02   -0.86526E-02  1190   0.722E-01    0.217E-01
DAV:   3    -0.100328563047E+03    0.71439E-03   -0.25964E-03  1414   0.139E-01    0.142E-01
DAV:   4    -0.100328116271E+03    0.44678E-03   -0.81996E-04  1246   0.776E-02    0.576E-02
DAV:   5    -0.100328069684E+03    0.46587E-04   -0.19881E-04   728   0.385E-02
  25 F= -.10032807E+03 E0= -.10032807E+03  d E =-.206146E-01
 curvature: -47.73 expect dE=-0.120E+00 dE for cont linesearch -0.769E-03
 trial: gam= 0.73467 g(F)=  0.159E-02 g(S)=  0.930E-03 ort = 0.376E-03 (trialstep = 0.523E+01)
 search vector abs. value=  0.781E-02
 bond charge predicted
       N       E                     dE             d eps       ncg     rms          rms(c)
DAV:   1    -0.100332364847E+03   -0.42486E-02   -0.13416E+00  1008   0.288E+00    0.504E-01
DAV:   2    -0.100337510457E+03   -0.51456E-02   -0.86532E-02  1232   0.724E-01    0.236E-01
DAV:   3    -0.100336828990E+03    0.68147E-03   -0.26089E-03  1372   0.138E-01    0.151E-01
DAV:   4    -0.100336410003E+03    0.41899E-03   -0.80052E-04  1260   0.718E-02    0.646E-02
DAV:   5    -0.100336360059E+03    0.49944E-04   -0.17664E-04   686   0.356E-02
  26 F= -.10033636E+03 E0= -.10033636E+03  d E =-.829038E-02
 trial-energy change:   -0.008290  1 .order   -0.009405   -0.014606   -0.004204
 step:   7.3415(harm=  7.3415)  dis= 0.01819  next Energy=  -100.338325 (dE=-0.103E-01)
 bond charge predicted
       N       E                     dE             d eps       ncg     rms          rms(c)
DAV:   1    -0.100336344218E+03    0.65785E-04   -0.21769E-01  1008   0.116E+00    0.207E-01
DAV:   2    -0.100337164719E+03   -0.82050E-03   -0.13972E-02  1232   0.290E-01    0.893E-02
DAV:   3    -0.100337053115E+03    0.11160E-03   -0.40475E-04  1176   0.559E-02    0.554E-02
DAV:   4    -0.100336989136E+03    0.63979E-04   -0.13576E-04   714   0.319E-02
  27 F= -.10033699E+03 E0= -.10033699E+03  d E =-.891945E-02
 curvature: -10.26 expect dE=-0.896E-02 dE for cont linesearch -0.644E-04
 ZBRENT: extrapolating
 opt :   8.1445  next Energy=  -100.337078 (dE=-0.901E-02)
 bond charge predicted
       N       E                     dE             d eps       ncg     rms          rms(c)
DAV:   1    -0.100337020466E+03    0.32649E-04   -0.30757E-02  1008   0.436E-01    0.768E-02
DAV:   2    -0.100337124579E+03   -0.10411E-03   -0.19363E-03  1260   0.108E-01    0.342E-02
DAV:   3    -0.100337106217E+03    0.18362E-04   -0.52992E-05   686   0.217E-02
  28 F= -.10033711E+03 E0= -.10033711E+03  d E =-.903653E-02
 curvature: -14.16 expect dE=-0.151E-01 dE for cont linesearch -0.883E-05
 trial: gam= 0.53193 g(F)=  0.533E-03 g(S)=  0.531E-03 ort = 0.698E-04 (trialstep = 0.581E+01)
 search vector abs. value=  0.335E-02
 bond charge predicted
       N       E                     dE             d eps       ncg     rms          rms(c)
DAV:   1    -0.100341693660E+03   -0.45691E-02   -0.63984E-01  1008   0.199E+00    0.355E-01
DAV:   2    -0.100343398288E+03   -0.17046E-02   -0.39271E-02  1204   0.495E-01    0.167E-01
DAV:   3    -0.100342968840E+03    0.42945E-03   -0.17112E-03  1400   0.109E-01    0.105E-01
DAV:   4    -0.100342742823E+03    0.22602E-03   -0.46232E-04  1162   0.586E-02    0.480E-02
DAV:   5    -0.100342718840E+03    0.23983E-04   -0.12678E-04   714   0.323E-02
  29 F= -.10034272E+03 E0= -.10034272E+03  d E =-.561262E-02
 ZBRENT: can't locate minimum, use default step
 trial-energy change:   -0.005613  1 .order   -0.005699   -0.006404   -0.004994
 step:  23.2456(harm= 26.3997)  dis= 0.03883  next Energy=  -100.351651 (dE=-0.145E-01)
 bond charge predicted
       N       E                     dE             d eps       ncg     rms          rms(c)
DAV:   1    -0.100337542808E+03    0.52000E-02   -0.57845E+00  1008   0.598E+00    0.110E+00
DAV:   2    -0.100352840138E+03   -0.15297E-01   -0.35919E-01  1204   0.149E+00    0.483E-01
DAV:   3    -0.100348837547E+03    0.40026E-02   -0.15557E-02  1372   0.331E-01    0.307E-01
DAV:   4    -0.100346856600E+03    0.19809E-02   -0.40481E-03  1246   0.172E-01    0.147E-01
DAV:   5    -0.100346627229E+03    0.22937E-03   -0.12313E-03  1232   0.952E-02    0.687E-02
DAV:   6    -0.100346635977E+03   -0.87479E-05   -0.21245E-04   756   0.383E-02
  30 F= -.10034664E+03 E0= -.10034664E+03  d E =-.952976E-02
 curvature: -39.18 expect dE=-0.938E-01 dE for cont linesearch -0.275E-02
 ZBRENT: interpolating
 opt :  16.9588  next Energy=  -100.348159 (dE=-0.111E-01)
 bond charge predicted
       N       E                     dE             d eps       ncg     rms          rms(c)
DAV:   1    -0.100346458525E+03    0.16870E-03   -0.74999E-01  1008   0.215E+00    0.384E-01
DAV:   2    -0.100348419692E+03   -0.19612E-02   -0.46046E-02  1148   0.540E-01    0.187E-01
DAV:   3    -0.100347900337E+03    0.51935E-03   -0.21254E-03  1372   0.121E-01    0.115E-01
DAV:   4    -0.100347596370E+03    0.30397E-03   -0.53640E-04  1204   0.637E-02    0.520E-02
DAV:   5    -0.100347552406E+03    0.43964E-04   -0.15983E-04   602   0.358E-02
  31 F= -.10034755E+03 E0= -.10034755E+03  d E =-.104462E-01
 curvature: -21.72 expect dE=-0.256E-01 dE for cont linesearch -0.495E-05
 trial: gam= 1.20141 g(F)=  0.968E-03 g(S)=  0.210E-03 ort = 0.276E-04 (trialstep = 0.443E+01)
 search vector abs. value=  0.608E-02
 bond charge predicted
       N       E                     dE             d eps       ncg     rms          rms(c)
DAV:   1    -0.100349008718E+03   -0.14123E-02   -0.67936E-01  1008   0.204E+00    0.317E-01
DAV:   2    -0.100352631993E+03   -0.36233E-02   -0.43591E-02  1190   0.510E-01    0.135E-01
DAV:   3    -0.100352445877E+03    0.18612E-03   -0.91724E-04  1400   0.901E-02    0.954E-02
DAV:   4    -0.100352317574E+03    0.12830E-03   -0.35119E-04  1008   0.524E-02    0.406E-02
DAV:   5    -0.100352313891E+03    0.36833E-05   -0.87004E-05   630   0.281E-02
  32 F= -.10035231E+03 E0= -.10035231E+03  d E =-.476148E-02
 trial-energy change:   -0.004761  1 .order   -0.004573   -0.005365   -0.003780
 step:  14.9921(harm= 14.9921)  dis= 0.03715  next Energy=  -100.356630 (dE=-0.908E-02)
 bond charge predicted
       N       E                     dE             d eps       ncg     rms          rms(c)
DAV:   1    -0.100338787973E+03    0.13530E-01   -0.38409E+00  1008   0.485E+00    0.771E-01
DAV:   2    -0.100359274347E+03   -0.20486E-01   -0.24788E-01  1204   0.121E+00    0.322E-01
DAV:   3    -0.100358226186E+03    0.10482E-02   -0.51158E-03  1428   0.214E-01    0.228E-01
DAV:   4    -0.100357563264E+03    0.66292E-03   -0.20124E-03  1232   0.123E-01    0.968E-02
DAV:   5    -0.100357548207E+03    0.15057E-04   -0.44758E-04  1176   0.612E-02
  33 F= -.10035755E+03 E0= -.10035755E+03  d E =-.999580E-02
 curvature: -37.63 expect dE=-0.631E-01 dE for cont linesearch -0.995E-04
 trial: gam= 1.34485 g(F)=  0.118E-02 g(S)=  0.501E-03 ort =-0.127E-03 (trialstep = 0.323E+01)
 search vector abs. value=  0.123E-01
 bond charge predicted
       N       E                     dE             d eps       ncg     rms          rms(c)
DAV:   1    -0.100358114808E+03   -0.55154E-03   -0.75736E-01  1008   0.215E+00    0.367E-01
DAV:   2    -0.100360907883E+03   -0.27931E-02   -0.47417E-02  1190   0.538E-01    0.157E-01
DAV:   3    -0.100360481645E+03    0.42624E-03   -0.15297E-03  1372   0.110E-01    0.104E-01
DAV:   4    -0.100360249437E+03    0.23221E-03   -0.54169E-04  1204   0.623E-02    0.451E-02
DAV:   5    -0.100360233125E+03    0.16312E-04   -0.10028E-04   728   0.296E-02
  34 F= -.10036023E+03 E0= -.10036023E+03  d E =-.268492E-02
 trial-energy change:   -0.002685  1 .order   -0.003271   -0.004861   -0.001680
 step:   4.9292(harm=  4.9292)  dis= 0.01357  next Energy=  -100.361263 (dE=-0.371E-02)
 bond charge predicted
       N       E                     dE             d eps       ncg     rms          rms(c)
DAV:   1    -0.100360377733E+03   -0.12830E-03   -0.21155E-01  1008   0.114E+00    0.193E-01
DAV:   2    -0.100361162872E+03   -0.78514E-03   -0.13201E-02  1190   0.284E-01    0.825E-02
DAV:   3    -0.100361039415E+03    0.12346E-03   -0.39563E-04  1148   0.574E-02    0.546E-02
DAV:   4    -0.100360972525E+03    0.66890E-04   -0.15822E-04   728   0.361E-02
  35 F= -.10036097E+03 E0= -.10036097E+03  d E =-.342432E-02
 curvature: -20.16 expect dE=-0.269E-01 dE for cont linesearch -0.453E-03
 ZBRENT: increasing intervall
 opt :   8.3366  next Energy=  -100.362786 (dE=-0.524E-02)
 bond charge predicted
       N       E                     dE             d eps       ncg     rms          rms(c)
DAV:   1    -0.100358646126E+03    0.23933E-02   -0.84728E-01  1008   0.228E+00    0.382E-01
DAV:   2    -0.100361731325E+03   -0.30852E-02   -0.52644E-02  1162   0.569E-01    0.169E-01
DAV:   3    -0.100361242044E+03    0.48928E-03   -0.17683E-03  1386   0.117E-01    0.113E-01
DAV:   4    -0.100360956558E+03    0.28549E-03   -0.63041E-04  1246   0.680E-02    0.482E-02
DAV:   5    -0.100360938502E+03    0.18056E-04   -0.12210E-04   728   0.327E-02
  36 F= -.10036094E+03 E0= -.10036094E+03  d E =-.339029E-02
 curvature: -80.64 expect dE=-0.127E+00 dE for cont linesearch -0.143E-02
 ZBRENT: bracketing found
 ZBRENT: interpolating
 opt :   6.7353  next Energy=  -100.361312 (dE=-0.376E-02)
 bond charge predicted
       N       E                     dE             d eps       ncg     rms          rms(c)
DAV:   1    -0.100361085889E+03   -0.12933E-03   -0.18905E-01  1008   0.108E+00    0.177E-01
DAV:   2    -0.100361797199E+03   -0.71131E-03   -0.11777E-02  1120   0.270E-01    0.846E-02
DAV:   3    -0.100361680545E+03    0.11665E-03   -0.36858E-04  1162   0.544E-02    0.559E-02
DAV:   4    -0.100361601388E+03    0.79157E-04   -0.15418E-04   616   0.361E-02
  37 F= -.10036160E+03 E0= -.10036160E+03  d E =-.405318E-02
 curvature: -21.15 expect dE=-0.310E-01 dE for cont linesearch -0.660E-04
 trial: gam= 0.30302 g(F)=  0.111E-02 g(S)=  0.359E-03 ort =-0.196E-03 (trialstep = 0.393E+01)
 search vector abs. value=  0.248E-02
 bond charge predicted
       N       E                     dE             d eps       ncg     rms          rms(c)
DAV:   1    -0.100366371061E+03   -0.46905E-02   -0.27065E-01  1008   0.129E+00    0.233E-01
DAV:   2    -0.100366615240E+03   -0.24418E-03   -0.15527E-02  1204   0.314E-01    0.111E-01
DAV:   3    -0.100366322136E+03    0.29310E-03   -0.78158E-04  1372   0.748E-02    0.693E-02
DAV:   4    -0.100366168890E+03    0.15325E-03   -0.18619E-04   756   0.399E-02    0.253E-02
DAV:   5    -0.100366152544E+03    0.16345E-04   -0.94035E-05   672   0.277E-02
  38 F= -.10036615E+03 E0= -.10036615E+03  d E =-.455116E-02
 trial-energy change:   -0.004551  1 .order   -0.004535   -0.005530   -0.003541
 step:  10.9198(harm= 10.9198)  dis= 0.01536  next Energy=  -100.369289 (dE=-0.769E-02)
 bond charge predicted
       N       E                     dE             d eps       ncg     rms          rms(c)
DAV:   1    -0.100371325498E+03   -0.51566E-02   -0.85524E-01  1008   0.228E+00    0.417E-01
DAV:   2    -0.100372002921E+03   -0.67742E-03   -0.48968E-02  1218   0.557E-01    0.199E-01
DAV:   3    -0.100371058324E+03    0.94460E-03   -0.24842E-03  1372   0.134E-01    0.124E-01
DAV:   4    -0.100370582254E+03    0.47607E-03   -0.68670E-04  1204   0.720E-02    0.462E-02
DAV:   5    -0.100370528836E+03    0.53418E-04   -0.16808E-04   728   0.376E-02
  39 F= -.10037053E+03 E0= -.10037053E+03  d E =-.892745E-02
 curvature:  -9.62 expect dE=-0.144E-01 dE for cont linesearch -0.653E-03
 ZBRENT: increasing intervall
 opt :  24.9045  next Energy=  -100.369399 (dE=-0.780E-02)
 bond charge predicted
       N       E                     dE             d eps       ncg     rms          rms(c)
DAV:   1    -0.100371550181E+03   -0.96793E-03   -0.34129E+00  1008   0.456E+00    0.835E-01
DAV:   2    -0.100374325802E+03   -0.27756E-02   -0.19506E-01  1218   0.111E+00    0.401E-01
DAV:   3    -0.100370593894E+03    0.37319E-02   -0.98143E-03  1372   0.265E-01    0.250E-01
DAV:   4    -0.100368673396E+03    0.19205E-02   -0.27668E-03  1246   0.144E-01    0.916E-02
DAV:   5    -0.100368474566E+03    0.19883E-03   -0.78881E-04  1260   0.758E-02    0.415E-02
DAV:   6    -0.100368484308E+03   -0.97422E-05   -0.10173E-04   728   0.275E-02
  40 F= -.10036848E+03 E0= -.10036848E+03  d E =-.688292E-02
 curvature:  16.64 expect dE= 0.910E-01 dE for cont linesearch  0.432E-02
 ZBRENT: bracketing found
 ZBRENT: interpolating
 opt :  15.6498  next Energy=  -100.371499 (dE=-0.990E-02)
 bond charge predicted
       N       E                     dE             d eps       ncg     rms          rms(c)
DAV:   1    -0.100373012484E+03   -0.45379E-02   -0.15004E+00  1008   0.303E+00    0.555E-01
DAV:   2    -0.100374110607E+03   -0.10981E-02   -0.85966E-02  1190   0.738E-01    0.261E-01
DAV:   3    -0.100372470707E+03    0.16399E-02   -0.44653E-03  1386   0.180E-01    0.161E-01
DAV:   4    -0.100371683975E+03    0.78673E-03   -0.11810E-03  1232   0.941E-02    0.616E-02
DAV:   5    -0.100371593056E+03    0.90919E-04   -0.29508E-04   896   0.489E-02
  41 F= -.10037159E+03 E0= -.10037159E+03  d E =-.999167E-02
 curvature:  -3.73 expect dE=-0.892E-02 dE for cont linesearch -0.915E-05
 trial: gam= 1.70775 g(F)=  0.134E-02 g(S)=  0.105E-02 ort =-0.780E-04 (trialstep = 0.166E+01)
 search vector abs. value=  0.936E-02
 bond charge predicted
       N       E                     dE             d eps       ncg     rms          rms(c)
DAV:   1    -0.100374460801E+03   -0.27768E-02   -0.18382E-01  1008   0.105E+00    0.159E-01
DAV:   2    -0.100375382966E+03   -0.92216E-03   -0.11224E-02  1190   0.258E-01    0.619E-02
DAV:   3    -0.100375340356E+03    0.42609E-04   -0.24796E-04  1092   0.456E-02
  42 F= -.10037534E+03 E0= -.10037534E+03  d E =-.374730E-02
 ZBRENT: can't locate minimum, use default step
 trial-energy change:   -0.003747  1 .order   -0.003675   -0.003749   -0.003601
 step:   6.6518(harm= 42.1207)  dis= 0.01950  next Energy=  -100.419073 (dE=-0.475E-01)
 bond charge predicted
       N       E                     dE             d eps       ncg     rms          rms(c)
DAV:   1    -0.100371796406E+03    0.35866E-02   -0.16434E+00  1008   0.314E+00    0.470E-01
DAV:   2    -0.100379814892E+03   -0.80185E-02   -0.99478E-02  1218   0.765E-01    0.182E-01
DAV:   3    -0.100379427874E+03    0.38702E-03   -0.23180E-03  1400   0.133E-01    0.136E-01
DAV:   4    -0.100379140043E+03    0.28783E-03   -0.65474E-04  1190   0.704E-02    0.509E-02
DAV:   5    -0.100379138014E+03    0.20287E-05   -0.17565E-04   742   0.357E-02
  43 F= -.10037914E+03 E0= -.10037914E+03  d E =-.754496E-02
 curvature: -20.23 expect dE=-0.239E-01 dE for cont linesearch -0.230E-03
 ZBRENT: interpolating
 opt :   5.9989  next Energy=  -100.379244 (dE=-0.765E-02)
 bond charge predicted
       N       E                     dE             d eps       ncg     rms          rms(c)
DAV:   1    -0.100379250947E+03   -0.11090E-03   -0.28447E-02  1008   0.412E-01    0.549E-02
DAV:   2    -0.100379395076E+03   -0.14413E-03   -0.17219E-03  1218   0.102E-01    0.292E-02
DAV:   3    -0.100379387097E+03    0.79792E-05   -0.30160E-05   602   0.175E-02
  44 F= -.10037939E+03 E0= -.10037939E+03  d E =-.779404E-02
 curvature:  -9.37 expect dE=-0.977E-02 dE for cont linesearch -0.372E-04
 trial: gam= 0.14450 g(F)=  0.747E-03 g(S)=  0.295E-03 ort =-0.193E-03 (trialstep = 0.253E+01)
 search vector abs. value=  0.118E-02
 bond charge predicted
       N       E                     dE             d eps       ncg     rms          rms(c)
DAV:   1    -0.100382213890E+03   -0.28188E-02   -0.50196E-02  1008   0.559E-01    0.148E-01
DAV:   2    -0.100381951269E+03    0.26262E-03   -0.33092E-03  1288   0.147E-01    0.660E-02
DAV:   3    -0.100381843465E+03    0.10780E-03   -0.33858E-04  1050   0.440E-02    0.315E-02
DAV:   4    -0.100381814855E+03    0.28610E-04   -0.49523E-05   588   0.197E-02
  45 F= -.10038181E+03 E0= -.10038181E+03  d E =-.242776E-02
 ZBRENT: can't locate minimum, use default step
 trial-energy change:   -0.002428  1 .order   -0.002398   -0.002567   -0.002228
 step:  10.1206(harm= 19.1545)  dis= 0.00907  next Energy=  -100.389105 (dE=-0.972E-02)
 bond charge predicted
       N       E                     dE             d eps       ncg     rms          rms(c)
DAV:   1    -0.100387508300E+03   -0.56648E-02   -0.44284E-01  1008   0.166E+00    0.441E-01
DAV:   2    -0.100385052924E+03    0.24554E-02   -0.28918E-02  1302   0.434E-01    0.195E-01
DAV:   3    -0.100384056787E+03    0.99614E-03   -0.31373E-03  1232   0.132E-01    0.932E-02
DAV:   4    -0.100383791832E+03    0.26495E-03   -0.38851E-04  1120   0.518E-02    0.494E-02
DAV:   5    -0.100383740078E+03    0.51754E-04   -0.21312E-04   798   0.344E-02
  46 F= -.10038374E+03 E0= -.10038374E+03  d E =-.435298E-02
 curvature:  -7.86 expect dE=-0.815E-02 dE for cont linesearch -0.118E-03
 trial: gam= 1.05553 g(F)=  0.443E-03 g(S)=  0.593E-03 ort =-0.133E-03 (trialstep = 0.231E+01)
 search vector abs. value=  0.207E-02
 bond charge predicted
       N       E                     dE             d eps       ncg     rms          rms(c)
DAV:   1    -0.100385400701E+03   -0.16089E-02   -0.61120E-02  1008   0.617E-01    0.102E-01
DAV:   2    -0.100385670231E+03   -0.26953E-03   -0.40313E-03  1274   0.155E-01    0.480E-02
DAV:   3    -0.100385636177E+03    0.34054E-04   -0.79081E-05   798   0.272E-02
  47 F= -.10038564E+03 E0= -.10038564E+03  d E =-.189610E-02
 ZBRENT: can't locate minimum, use default step
 trial-energy change:   -0.001896  1 .order   -0.002003   -0.002068   -0.001937
 step:   9.2386(harm= 36.4318)  dis= 0.01444  next Energy=  -100.400053 (dE=-0.163E-01)
 bond charge predicted
       N       E                     dE             d eps       ncg     rms          rms(c)
DAV:   1    -0.100385917010E+03   -0.24678E-03   -0.54068E-01  1008   0.183E+00    0.301E-01
DAV:   2    -0.100388265279E+03   -0.23483E-02   -0.35401E-02  1260   0.459E-01    0.133E-01
DAV:   3    -0.100387993631E+03    0.27165E-03   -0.87821E-04  1386   0.811E-02    0.905E-02
DAV:   4    -0.100387811032E+03    0.18260E-03   -0.34176E-04  1078   0.484E-02    0.297E-02
DAV:   5    -0.100387803543E+03    0.74883E-05   -0.79011E-05   714   0.251E-02
  48 F= -.10038780E+03 E0= -.10038780E+03  d E =-.406347E-02
 curvature: -15.38 expect dE=-0.131E-01 dE for cont linesearch -0.284E-03
 ZBRENT: interpolating
 opt :   7.9284  next Energy=  -100.387932 (dE=-0.419E-02)
 bond charge predicted
       N       E                     dE             d eps       ncg     rms          rms(c)
DAV:   1    -0.100387942263E+03   -0.13123E-03   -0.19668E-02  1008   0.349E-01    0.544E-02
DAV:   2    -0.100388028648E+03   -0.86385E-04   -0.12702E-03  1246   0.876E-02    0.279E-02
DAV:   3    -0.100388019728E+03    0.89200E-05   -0.24657E-05   616   0.153E-02
  49 F= -.10038802E+03 E0= -.10038802E+03  d E =-.427965E-02
 curvature:  -6.94 expect dE=-0.461E-02 dE for cont linesearch -0.681E-04
 ZBRENT: interpolating
 opt :   4.9124  next Energy=  -100.388266 (dE=-0.453E-02)
 bond charge predicted
       N       E                     dE             d eps       ncg     rms          rms(c)
DAV:   1    -0.100386982594E+03    0.10461E-02   -0.10211E-01  1008   0.797E-01    0.131E-01
DAV:   2    -0.100387420356E+03   -0.43776E-03   -0.66202E-03  1274   0.198E-01    0.569E-02
DAV:   3    -0.100387370291E+03    0.50065E-04   -0.13642E-04   896   0.352E-02
  50 F= -.10038737E+03 E0= -.10038737E+03  d E =-.363021E-02
 curvature: -25.09 expect dE=-0.108E-01 dE for cont linesearch -0.200E-02
 ZBRENT: interpolating
 opt :   7.1453  next Energy=  -100.388076 (dE=-0.434E-02)
 bond charge predicted
       N       E                     dE             d eps       ncg     rms          rms(c)
DAV:   1    -0.100387755296E+03   -0.33494E-03   -0.59720E-02  1008   0.611E-01    0.104E-01
DAV:   2    -0.100388042015E+03   -0.28672E-03   -0.40042E-03  1232   0.156E-01    0.429E-02
DAV:   3    -0.100388011033E+03    0.30983E-04   -0.72907E-05   672   0.262E-02
  51 F= -.10038801E+03 E0= -.10038801E+03  d E =-.427095E-02
 curvature:  -0.70 expect dE=-0.482E-03 dE for cont linesearch -0.492E-05
 trial: gam= 0.33447 g(F)=  0.515E-03 g(S)=  0.174E-03 ort = 0.121E-03 (trialstep = 0.328E+01)
 search vector abs. value=  0.100E-02
 bond charge predicted
       N       E                     dE             d eps       ncg     rms          rms(c)
DAV:   1    -0.100390331831E+03   -0.22898E-02   -0.59949E-02  1008   0.605E-01    0.161E-01
DAV:   2    -0.100389853963E+03    0.47787E-03   -0.36054E-03  1274   0.152E-01    0.756E-02
DAV:   3    -0.100389653626E+03    0.20034E-03   -0.49365E-04  1162   0.519E-02    0.333E-02
DAV:   4    -0.100389607725E+03    0.45900E-04   -0.57635E-05   672   0.206E-02
  52 F= -.10038961E+03 E0= -.10038961E+03  d E =-.159669E-02
 trial-energy change:   -0.001597  1 .order   -0.001808   -0.002390   -0.001226
 step:   6.7256(harm=  6.7256)  dis= 0.00545  next Energy=  -100.390464 (dE=-0.245E-02)
 bond charge predicted
       N       E                     dE             d eps       ncg     rms          rms(c)
DAV:   1    -0.100391003286E+03   -0.13497E-02   -0.67032E-02  1008   0.640E-01    0.168E-01
DAV:   2    -0.100390485875E+03    0.51741E-03   -0.40022E-03  1274   0.161E-01    0.770E-02
DAV:   3    -0.100390271481E+03    0.21439E-03   -0.54233E-04  1176   0.543E-02    0.348E-02
DAV:   4    -0.100390223492E+03    0.47989E-04   -0.62223E-05   714   0.215E-02
  53 F= -.10039022E+03 E0= -.10039022E+03  d E =-.221246E-02
 curvature:  -4.62 expect dE=-0.198E-02 dE for cont linesearch -0.137E-03
 ZBRENT: increasing intervall
 opt :  13.6234  next Energy=  -100.390020 (dE=-0.201E-02)
 bond charge predicted
       N       E                     dE             d eps       ncg     rms          rms(c)
DAV:   1    -0.100391946890E+03   -0.16754E-02   -0.27079E-01  1008   0.128E+00    0.338E-01
DAV:   2    -0.100389896839E+03    0.20501E-02   -0.16193E-02  1260   0.323E-01    0.156E-01
DAV:   3    -0.100389050422E+03    0.84642E-03   -0.21587E-03  1246   0.108E-01    0.688E-02
DAV:   4    -0.100388861083E+03    0.18934E-03   -0.26221E-04   882   0.431E-02    0.370E-02
DAV:   5    -0.100388824748E+03    0.36335E-04   -0.15652E-04   714   0.318E-02
  54 F= -.10038882E+03 E0= -.10038882E+03  d E =-.813715E-03
 curvature:   6.88 expect dE= 0.112E-01 dE for cont linesearch  0.147E-02
 ZBRENT: bracketing found
 ZBRENT: interpolating
 opt :   8.5973  next Energy=  -100.390385 (dE=-0.237E-02)
 bond charge predicted
       N       E                     dE             d eps       ncg     rms          rms(c)
DAV:   1    -0.100391852561E+03   -0.29915E-02   -0.14736E-01  1008   0.946E-01    0.254E-01
DAV:   2    -0.100390751349E+03    0.11012E-02   -0.88695E-03  1260   0.239E-01    0.119E-01
DAV:   3    -0.100390308318E+03    0.44303E-03   -0.11652E-03  1218   0.797E-02    0.508E-02
DAV:   4    -0.100390216481E+03    0.91837E-04   -0.13734E-04   784   0.316E-02
  55 F= -.10039022E+03 E0= -.10039022E+03  d E =-.220545E-02
 curvature:  -0.75 expect dE=-0.691E-03 dE for cont linesearch -0.322E-04
 ZBRENT: interpolating
 opt :   7.5765  next Energy=  -100.390297 (dE=-0.229E-02)
 bond charge predicted
       N       E                     dE             d eps       ncg     rms          rms(c)
DAV:   1    -0.100390332738E+03   -0.24420E-04   -0.53690E-03  1008   0.182E-01    0.493E-02
DAV:   2    -0.100390281395E+03    0.51342E-04   -0.30256E-04   868   0.456E-02
  56 F= -.10039028E+03 E0= -.10039028E+03  d E =-.227036E-02
 curvature:  -1.72 expect dE=-0.134E-02 dE for cont linesearch -0.240E-04
 trial: gam= 1.15990 g(F)=  0.385E-03 g(S)=  0.395E-03 ort =-0.118E-03 (trialstep = 0.224E+01)
 search vector abs. value=  0.185E-02
 bond charge predicted
       N       E                     dE             d eps       ncg     rms          rms(c)
DAV:   1    -0.100391180913E+03   -0.84818E-03   -0.39725E-02  1008   0.502E-01    0.813E-02
DAV:   2    -0.100391397120E+03   -0.21621E-03   -0.27772E-03  1246   0.133E-01    0.281E-02
DAV:   3    -0.100391392070E+03    0.50503E-05   -0.76118E-05   602   0.265E-02
  57 F= -.10039139E+03 E0= -.10039139E+03  d E =-.111067E-02
 trial-energy change:   -0.001111  1 .order   -0.001182   -0.001437   -0.000926
 step:   6.2870(harm=  6.2870)  dis= 0.00761  next Energy=  -100.392302 (dE=-0.202E-02)
 bond charge predicted
       N       E                     dE             d eps       ncg     rms          rms(c)
DAV:   1    -0.100391912002E+03   -0.51488E-03   -0.12878E-01  1008   0.903E-01    0.139E-01
DAV:   2    -0.100392601036E+03   -0.68903E-03   -0.89521E-03  1260   0.238E-01    0.569E-02
DAV:   3    -0.100392586309E+03    0.14727E-04   -0.30803E-04  1162   0.482E-02
  58 F= -.10039259E+03 E0= -.10039259E+03  d E =-.230491E-02
 curvature:  -9.06 expect dE=-0.462E-02 dE for cont linesearch -0.132E-03
 ZBRENT: increasing intervall
 opt :  14.3890  next Energy=  -100.391891 (dE=-0.161E-02)
 bond charge predicted
       N       E                     dE             d eps       ncg     rms          rms(c)
DAV:   1    -0.100388007036E+03    0.45940E-02   -0.51786E-01  1008   0.181E+00    0.278E-01
DAV:   2    -0.100390725115E+03   -0.27181E-02   -0.35679E-02  1260   0.478E-01    0.118E-01
DAV:   3    -0.100390660151E+03    0.64965E-04   -0.13134E-03  1386   0.971E-02    0.836E-02
DAV:   4    -0.100390584717E+03    0.75434E-04   -0.12010E-04   770   0.353E-02
  59 F= -.10039058E+03 E0= -.10039058E+03  d E =-.303322E-03
 curvature:  47.81 expect dE= 0.874E-01 dE for cont linesearch  0.772E-02
 ZBRENT: bracketing found
 ZBRENT: interpolating
 opt :   8.1571  next Energy=  -100.392740 (dE=-0.246E-02)
 bond charge predicted
       N       E                     dE             d eps       ncg     rms          rms(c)
DAV:   1    -0.100390929608E+03   -0.26946E-03   -0.31315E-01  1008   0.141E+00    0.214E-01
DAV:   2    -0.100392737366E+03   -0.18078E-02   -0.22310E-02  1246   0.376E-01    0.874E-02
DAV:   3    -0.100392684710E+03    0.52656E-04   -0.66202E-04  1330   0.710E-02
  60 F= -.10039268E+03 E0= -.10039268E+03  d E =-.240331E-02
 curvature:  -0.95 expect dE=-0.826E-03 dE for cont linesearch -0.726E-06
 trial: gam= 1.20467 g(F)=  0.773E-03 g(S)=  0.962E-04 ort =-0.376E-04 (trialstep = 0.183E+01)
 search vector abs. value=  0.347E-02
 bond charge predicted
       N       E                     dE             d eps       ncg     rms          rms(c)
DAV:   1    -0.100393563271E+03   -0.82591E-03   -0.50766E-02  1008   0.566E-01    0.102E-01
DAV:   2    -0.100393823493E+03   -0.26022E-03   -0.37148E-03  1232   0.151E-01    0.332E-02
DAV:   3    -0.100393807824E+03    0.15669E-04   -0.89319E-05   742   0.287E-02
  61 F= -.10039381E+03 E0= -.10039381E+03  d E =-.112311E-02
 trial-energy change:   -0.001123  1 .order   -0.001203   -0.001506   -0.000900
 step:   4.5395(harm=  4.5395)  dis= 0.00707  next Energy=  -100.394555 (dE=-0.187E-02)
 bond charge predicted
       N       E                     dE             d eps       ncg     rms          rms(c)
DAV:   1    -0.100394250212E+03   -0.42672E-03   -0.10844E-01  1008   0.824E-01    0.123E-01
DAV:   2    -0.100394759059E+03   -0.50885E-03   -0.72539E-03  1260   0.213E-01    0.563E-02
DAV:   3    -0.100394730484E+03    0.28575E-04   -0.23533E-04   994   0.438E-02
  62 F= -.10039473E+03 E0= -.10039473E+03  d E =-.204577E-02
 curvature:  -9.55 expect dE=-0.630E-02 dE for cont linesearch -0.311E-03
 ZBRENT: increasing intervall
 opt :   9.9634  next Energy=  -100.395708 (dE=-0.302E-02)
 bond charge predicted
       N       E                     dE             d eps       ncg     rms          rms(c)
DAV:   1    -0.100393435846E+03    0.13232E-02   -0.43555E-01  1008   0.165E+00    0.244E-01
DAV:   2    -0.100395449881E+03   -0.20140E-02   -0.28892E-02  1246   0.427E-01    0.118E-01
DAV:   3    -0.100395349161E+03    0.10072E-03   -0.11056E-03  1456   0.883E-02    0.822E-02
DAV:   4    -0.100395262384E+03    0.86776E-04   -0.11031E-04   770   0.320E-02
  63 F= -.10039526E+03 E0= -.10039526E+03  d E =-.257767E-02
 curvature: -29.98 expect dE=-0.235E-01 dE for cont linesearch -0.230E-04
 trial: gam= 0.58888 g(F)=  0.656E-03 g(S)=  0.128E-03 ort = 0.516E-04 (trialstep = 0.345E+01)
 search vector abs. value=  0.205E-02
 bond charge predicted
       N       E                     dE             d eps       ncg     rms          rms(c)
DAV:   1    -0.100396947516E+03   -0.15984E-02   -0.11570E-01  1008   0.858E-01    0.152E-01
DAV:   2    -0.100397238033E+03   -0.29052E-03   -0.73423E-03  1232   0.213E-01    0.677E-02
DAV:   3    -0.100397134212E+03    0.10382E-03   -0.26101E-04   994   0.448E-02    0.432E-02
DAV:   4    -0.100397071066E+03    0.63146E-04   -0.11657E-04   714   0.317E-02
  64 F= -.10039707E+03 E0= -.10039707E+03  d E =-.180868E-02
 trial-energy change:   -0.001809  1 .order   -0.002101   -0.002813   -0.001390
 step:   6.8302(harm=  6.8302)  dis= 0.00883  next Energy=  -100.398043 (dE=-0.278E-02)
 bond charge predicted
       N       E                     dE             d eps       ncg     rms          rms(c)
DAV:   1    -0.100397808312E+03   -0.67410E-03   -0.11163E-01  1008   0.844E-01    0.149E-01
DAV:   2    -0.100398140223E+03   -0.33191E-03   -0.73134E-03  1232   0.212E-01    0.645E-02
DAV:   3    -0.100398041817E+03    0.98406E-04   -0.22211E-04   938   0.431E-02
  65 F= -.10039804E+03 E0= -.10039804E+03  d E =-.277943E-02
 curvature:  -8.59 expect dE=-0.437E-02 dE for cont linesearch -0.384E-03
 ZBRENT: increasing intervall
 opt :  13.5813  next Energy=  -100.399411 (dE=-0.415E-02)
 bond charge predicted
       N       E                     dE             d eps       ncg     rms          rms(c)
DAV:   1    -0.100397334079E+03    0.80614E-03   -0.44427E-01  1008   0.168E+00    0.297E-01
DAV:   2    -0.100398527197E+03   -0.11931E-02   -0.28752E-02  1232   0.421E-01    0.136E-01
DAV:   3    -0.100398116424E+03    0.41077E-03   -0.10190E-03  1372   0.851E-02    0.905E-02
DAV:   4    -0.100397857191E+03    0.25923E-03   -0.38068E-04  1148   0.535E-02    0.290E-02
DAV:   5    -0.100397846801E+03    0.10391E-04   -0.96507E-05   714   0.267E-02
  66 F= -.10039785E+03 E0= -.10039785E+03  d E =-.258442E-02
 curvature: -30.61 expect dE=-0.537E-01 dE for cont linesearch -0.967E-03
 ZBRENT: bracketing found
 ZBRENT: interpolating
 opt :  10.4987  next Energy=  -100.398239 (dE=-0.298E-02)
 bond charge predicted
       N       E                     dE             d eps       ncg     rms          rms(c)
DAV:   1    -0.100398097370E+03   -0.24018E-03   -0.94256E-02  1008   0.775E-01    0.134E-01
DAV:   2    -0.100398373917E+03   -0.27655E-03   -0.61145E-03  1176   0.196E-01    0.640E-02
DAV:   3    -0.100398294762E+03    0.79155E-04   -0.19272E-04   924   0.399E-02
  67 F= -.10039829E+03 E0= -.10039829E+03  d E =-.303238E-02
 curvature: -12.41 expect dE=-0.167E-01 dE for cont linesearch -0.542E-04
 trial: gam= 1.74918 g(F)=  0.472E-03 g(S)=  0.877E-03 ort =-0.946E-04 (trialstep = 0.137E+01)
 search vector abs. value=  0.728E-02
 bond charge predicted
       N       E                     dE             d eps       ncg     rms          rms(c)
DAV:   1    -0.100399458619E+03   -0.10847E-02   -0.62819E-02  1008   0.629E-01    0.107E-01
DAV:   2    -0.100399749998E+03   -0.29138E-03   -0.43099E-03  1176   0.164E-01    0.445E-02
DAV:   3    -0.100399729153E+03    0.20844E-04   -0.11319E-04   798   0.308E-02
  68 F= -.10039973E+03 E0= -.10039973E+03  d E =-.143439E-02
 ZBRENT: can't locate minimum, use default step
 trial-energy change:   -0.001434  1 .order   -0.001449   -0.001619   -0.001279
 step:   5.4691(harm=  6.5097)  dis= 0.01368  next Energy=  -100.402148 (dE=-0.385E-02)
 bond charge predicted
       N       E                     dE             d eps       ncg     rms          rms(c)
DAV:   1    -0.100400389679E+03   -0.63968E-03   -0.54537E-01  1008   0.185E+00    0.302E-01
DAV:   2    -0.100402663335E+03   -0.22737E-02   -0.35885E-02  1176   0.471E-01    0.139E-01
DAV:   3    -0.100402489981E+03    0.17335E-03   -0.12343E-03  1400   0.913E-02    0.910E-02
DAV:   4    -0.100402361436E+03    0.12854E-03   -0.19096E-04   812   0.400E-02    0.435E-02
DAV:   5    -0.100402348480E+03    0.12957E-04   -0.15127E-04   686   0.325E-02
  69 F= -.10040235E+03 E0= -.10040235E+03  d E =-.405372E-02
 curvature: -19.20 expect dE=-0.225E-01 dE for cont linesearch -0.748E-03
 ZBRENT: increasing intervall
 opt :  13.6726  next Energy=  -100.403416 (dE=-0.512E-02)
 bond charge predicted
       N       E                     dE             d eps       ncg     rms          rms(c)
DAV:   1    -0.100387870064E+03    0.14491E-01   -0.22063E+00  1008   0.373E+00    0.623E-01
DAV:   2    -0.100397248279E+03   -0.93782E-02   -0.14616E-01  1176   0.952E-01    0.270E-01
DAV:   3    -0.100396569086E+03    0.67919E-03   -0.49460E-03  1386   0.184E-01    0.173E-01
DAV:   4    -0.100396087281E+03    0.48180E-03   -0.82478E-04  1260   0.787E-02    0.826E-02
DAV:   5    -0.100396026453E+03    0.60828E-04   -0.36234E-04  1148   0.491E-02
  70 F= -.10039603E+03 E0= -.10039603E+03  d E =0.226831E-02
 curvature: -27.40 expect dE=-0.130E+00 dE for cont linesearch -0.106E-01
 ZBRENT: bracketing found
 ZBRENT: interpolating
 opt :   7.4431  next Energy=  -100.402874 (dE=-0.458E-02)
 bond charge predicted
       N       E                     dE             d eps       ncg     rms          rms(c)
DAV:   1    -0.100397751570E+03   -0.16643E-02   -0.12639E+00  1008   0.282E+00    0.463E-01
DAV:   2    -0.100403312655E+03   -0.55611E-02   -0.84056E-02  1176   0.723E-01    0.223E-01
DAV:   3    -0.100402912386E+03    0.40027E-03   -0.28358E-03  1414   0.138E-01    0.144E-01
DAV:   4    -0.100402581893E+03    0.33049E-03   -0.49726E-04  1190   0.607E-02    0.648E-02
DAV:   5    -0.100402525988E+03    0.55905E-04   -0.19528E-04   728   0.375E-02
  71 F= -.10040253E+03 E0= -.10040253E+03  d E =-.423123E-02
 curvature:  -1.36 expect dE=-0.214E-02 dE for cont linesearch -0.245E-04
 ZBRENT: interpolating
 opt :   6.6435  next Energy=  -100.402671 (dE=-0.438E-02)
 bond charge predicted
       N       E                     dE             d eps       ncg     rms          rms(c)
DAV:   1    -0.100402660793E+03   -0.78900E-04   -0.20735E-02  1008   0.362E-01    0.636E-02
DAV:   2    -0.100402746888E+03   -0.86094E-04   -0.13829E-03  1260   0.918E-02    0.258E-02
DAV:   3    -0.100402738021E+03    0.88665E-05   -0.36510E-05   672   0.178E-02
  72 F= -.10040274E+03 E0= -.10040274E+03  d E =-.444326E-02
 curvature:  -8.03 expect dE=-0.109E-01 dE for cont linesearch -0.155E-04
 trial: gam= 0.72658 g(F)=  0.957E-03 g(S)=  0.404E-03 ort =-0.119E-03 (trialstep = 0.242E+01)
 search vector abs. value=  0.503E-02
 bond charge predicted
       N       E                     dE             d eps       ncg     rms          rms(c)
DAV:   1    -0.100404429138E+03   -0.16823E-02   -0.14801E-01  1008   0.964E-01    0.156E-01
DAV:   2    -0.100405137740E+03   -0.70860E-03   -0.97809E-03  1246   0.245E-01    0.644E-02
DAV:   3    -0.100405068698E+03    0.69043E-04   -0.19336E-04   938   0.424E-02
  73 F= -.10040507E+03 E0= -.10040507E+03  d E =-.233068E-02
 trial-energy change:   -0.002331  1 .order   -0.002645   -0.003087   -0.002202
 step:   8.4488(harm=  8.4488)  dis= 0.01633  next Energy=  -100.408121 (dE=-0.538E-02)
 bond charge predicted
       N       E                     dE             d eps       ncg     rms          rms(c)
DAV:   1    -0.100403275054E+03    0.18627E-02   -0.89578E-01  1008   0.237E+00    0.379E-01
DAV:   2    -0.100407379239E+03   -0.41042E-02   -0.58100E-02  1260   0.595E-01    0.165E-01
DAV:   3    -0.100406977733E+03    0.40151E-03   -0.14063E-03  1386   0.104E-01    0.119E-01
DAV:   4    -0.100406677593E+03    0.30014E-03   -0.53512E-04  1232   0.638E-02    0.448E-02
DAV:   5    -0.100406661151E+03    0.16442E-04   -0.14453E-04   714   0.334E-02
  74 F= -.10040666E+03 E0= -.10040666E+03  d E =-.392313E-02
 curvature: -16.68 expect dE=-0.147E-01 dE for cont linesearch -0.994E-05
 trial: gam= 0.39645 g(F)=  0.440E-03 g(S)=  0.440E-03 ort = 0.547E-04 (trialstep = 0.363E+01)
 search vector abs. value=  0.172E-02
 bond charge predicted
       N       E                     dE             d eps       ncg     rms          rms(c)
DAV:   1    -0.100409735598E+03   -0.30580E-02   -0.14134E-01  1036   0.940E-01    0.205E-01
DAV:   2    -0.100409619531E+03    0.11607E-03   -0.88020E-03  1246   0.237E-01    0.931E-02
DAV:   3    -0.100409402708E+03    0.21682E-03   -0.54985E-04  1218   0.600E-02    0.493E-02
DAV:   4    -0.100409314859E+03    0.87849E-04   -0.10459E-04   714   0.290E-02
  75 F= -.10040931E+03 E0= -.10040931E+03  d E =-.265371E-02
 ZBRENT: can't locate minimum, use default step
 trial-energy change:   -0.002654  1 .order   -0.002945   -0.003274   -0.002616
 step:  14.5110(harm= 18.0654)  dis= 0.01543  next Energy=  -100.414812 (dE=-0.815E-02)
 bond charge predicted
       N       E                     dE             d eps       ncg     rms          rms(c)
DAV:   1    -0.100413971204E+03   -0.45685E-02   -0.12643E+00  1008   0.280E+00    0.598E-01
DAV:   2    -0.100412871482E+03    0.10997E-02   -0.78233E-02  1246   0.707E-01    0.286E-01
DAV:   3    -0.100410957017E+03    0.19145E-02   -0.48910E-03  1358   0.178E-01    0.154E-01
DAV:   4    -0.100410159611E+03    0.79741E-03   -0.11022E-03  1260   0.884E-02    0.651E-02
DAV:   5    -0.100410045436E+03    0.11418E-03   -0.31682E-04   924   0.467E-02    0.295E-02
DAV:   6    -0.100410052248E+03   -0.68127E-05   -0.67781E-05   714   0.241E-02
  76 F= -.10041005E+03 E0= -.10041005E+03  d E =-.339110E-02
 curvature: -16.13 expect dE=-0.461E-01 dE for cont linesearch -0.329E-02
 ZBRENT: interpolating
 opt :   9.6088  next Energy=  -100.411501 (dE=-0.484E-02)
 bond charge predicted
       N       E                     dE             d eps       ncg     rms          rms(c)
DAV:   1    -0.100412189454E+03   -0.21440E-02   -0.25972E-01  1008   0.127E+00    0.275E-01
DAV:   2    -0.100411948219E+03    0.24124E-03   -0.16094E-02  1246   0.321E-01    0.129E-01
DAV:   3    -0.100411566056E+03    0.38216E-03   -0.10270E-03  1316   0.816E-02    0.690E-02
DAV:   4    -0.100411417771E+03    0.14828E-03   -0.18898E-04   728   0.392E-02    0.287E-02
DAV:   5    -0.100411399824E+03    0.17947E-04   -0.11242E-04   616   0.286E-02
  77 F= -.10041140E+03 E0= -.10041140E+03  d E =-.473867E-02
 curvature:  -7.11 expect dE=-0.933E-02 dE for cont linesearch -0.138E-04
 trial: gam= 1.65833 g(F)=  0.408E-03 g(S)=  0.903E-03 ort =-0.577E-04 (trialstep = 0.142E+01)
 search vector abs. value=  0.584E-02
 bond charge predicted
       N       E                     dE             d eps       ncg     rms          rms(c)
DAV:   1    -0.100412898997E+03   -0.14812E-02   -0.74580E-02  1008   0.675E-01    0.119E-01
DAV:   2    -0.100413127449E+03   -0.22845E-03   -0.46162E-03  1218   0.168E-01    0.512E-02
DAV:   3    -0.100413079009E+03    0.48440E-04   -0.15313E-04   784   0.362E-02
  78 F= -.10041308E+03 E0= -.10041308E+03  d E =-.167919E-02
 ZBRENT: can't locate minimum, use default step
 trial-energy change:   -0.001679  1 .order   -0.001588   -0.001723   -0.001453
 step:   5.6702(harm=  9.0474)  dis= 0.01083  next Energy=  -100.416899 (dE=-0.550E-02)
 bond charge predicted
       N       E                     dE             d eps       ncg     rms          rms(c)
DAV:   1    -0.100414478437E+03   -0.13510E-02   -0.66650E-01  1008   0.202E+00    0.358E-01
DAV:   2    -0.100416334461E+03   -0.18560E-02   -0.41138E-02  1232   0.501E-01    0.157E-01
DAV:   3    -0.100415878025E+03    0.45644E-03   -0.16857E-03  1372   0.109E-01    0.105E-01
DAV:   4    -0.100415599421E+03    0.27860E-03   -0.42246E-04  1148   0.590E-02    0.437E-02
DAV:   5    -0.100415565360E+03    0.34060E-04   -0.16578E-04   756   0.375E-02
  79 F= -.10041557E+03 E0= -.10041557E+03  d E =-.416554E-02
 curvature: -17.46 expect dE=-0.210E-01 dE for cont linesearch -0.351E-03
 ZBRENT: increasing intervall
 opt :  14.1754  next Energy=  -100.412673 (dE=-0.127E-02)
 bond charge predicted
       N       E                     dE             d eps       ncg     rms          rms(c)
DAV:   1    -0.100405383753E+03    0.10216E-01   -0.27004E+00  1008   0.406E+00    0.731E-01
DAV:   2    -0.100413355780E+03   -0.79720E-02   -0.16770E-01  1232   0.101E+00    0.306E-01
DAV:   3    -0.100411585664E+03    0.17701E-02   -0.66984E-03  1372   0.219E-01    0.204E-01
DAV:   4    -0.100410527813E+03    0.10579E-02   -0.16433E-03  1274   0.116E-01    0.858E-02
DAV:   5    -0.100410392603E+03    0.13521E-03   -0.66788E-04  1190   0.711E-02    0.388E-02
DAV:   6    -0.100410398470E+03   -0.58676E-05   -0.99587E-05   742   0.263E-02
  80 F= -.10041040E+03 E0= -.10041040E+03  d E =0.100135E-02
 curvature: 143.86 expect dE= 0.604E+00 dE for cont linesearch  0.655E-01
 ZBRENT: bracketing found
 ZBRENT: interpolating
 opt :   7.1467  next Energy=  -100.415818 (dE=-0.442E-02)
 bond charge predicted
       N       E                     dE             d eps       ncg     rms          rms(c)
DAV:   1    -0.100412473433E+03   -0.20808E-02   -0.18375E+00  1008   0.335E+00    0.596E-01
DAV:   2    -0.100417995372E+03   -0.55219E-02   -0.11412E-01  1246   0.837E-01    0.265E-01
DAV:   3    -0.100416751791E+03    0.12436E-02   -0.44717E-03  1358   0.179E-01    0.175E-01
DAV:   4    -0.100415960784E+03    0.79101E-03   -0.11461E-03  1260   0.966E-02    0.708E-02
DAV:   5    -0.100415847909E+03    0.11288E-03   -0.47553E-04  1176   0.594E-02    0.316E-02
DAV:   6    -0.100415850564E+03   -0.26556E-05   -0.69026E-05   686   0.219E-02
  81 F= -.10041585E+03 E0= -.10041585E+03  d E =-.445074E-02
 curvature:  -0.56 expect dE=-0.835E-03 dE for cont linesearch -0.622E-06
 trial: gam= 0.67694 g(F)=  0.118E-02 g(S)=  0.328E-03 ort =-0.809E-04 (trialstep = 0.256E+01)
 search vector abs. value=  0.407E-02
 bond charge predicted
       N       E                     dE             d eps       ncg     rms          rms(c)
DAV:   1    -0.100418879827E+03   -0.30319E-02   -0.18833E-01  1008   0.107E+00    0.204E-01
DAV:   2    -0.100419302577E+03   -0.42275E-03   -0.11531E-02  1176   0.263E-01    0.940E-02
DAV:   3    -0.100419151379E+03    0.15120E-03   -0.45380E-04  1246   0.546E-02    0.554E-02
DAV:   4    -0.100419075350E+03    0.76029E-04   -0.14008E-04   700   0.323E-02
  82 F= -.10041908E+03 E0= -.10041908E+03  d E =-.322479E-02
 ZBRENT: can't locate minimum, use default step
 trial-energy change:   -0.003225  1 .order   -0.003260   -0.003715   -0.002806
 step:  10.2535(harm= 10.4820)  dis= 0.01956  next Energy=  -100.423445 (dE=-0.759E-02)
 bond charge predicted
       N       E                     dE             d eps       ncg     rms          rms(c)
DAV:   1    -0.100419556746E+03   -0.40537E-03   -0.16935E+00  1008   0.320E+00    0.622E-01
DAV:   2    -0.100423293032E+03   -0.37363E-02   -0.10382E-01  1176   0.786E-01    0.271E-01
DAV:   3    -0.100421914211E+03    0.13788E-02   -0.42416E-03  1400   0.165E-01    0.161E-01
DAV:   4    -0.100421246822E+03    0.66739E-03   -0.12611E-03  1260   0.905E-02    0.684E-02
DAV:   5    -0.100421206542E+03    0.40281E-04   -0.32841E-04  1036   0.439E-02
  83 F= -.10042121E+03 E0= -.10042121E+03  d E =-.535598E-02
 curvature: -14.70 expect dE=-0.443E-01 dE for cont linesearch -0.726E-04
 trial: gam= 1.90451 g(F)=  0.131E-02 g(S)=  0.170E-02 ort =-0.142E-03 (trialstep = 0.969E+00)
 search vector abs. value=  0.172E-01
 bond charge predicted
       N       E                     dE             d eps       ncg     rms          rms(c)
DAV:   1    -0.100423045629E+03   -0.17988E-02   -0.11269E-01  1008   0.821E-01    0.143E-01
DAV:   2    -0.100423537539E+03   -0.49191E-03   -0.68636E-03  1204   0.201E-01    0.592E-02
DAV:   3    -0.100423497993E+03    0.39546E-04   -0.16907E-04   980   0.378E-02
  84 F= -.10042350E+03 E0= -.10042350E+03  d E =-.229145E-02
 ZBRENT: can't locate minimum, use default step
 trial-energy change:   -0.002291  1 .order   -0.002336   -0.002654   -0.002017
 step:   3.8744(harm=  4.0323)  dis= 0.01710  next Energy=  -100.426732 (dE=-0.552E-02)
 bond charge predicted
       N       E                     dE             d eps       ncg     rms          rms(c)
DAV:   1    -0.100424991503E+03   -0.14540E-02   -0.10004E+00  1008   0.244E+00    0.411E-01
DAV:   2    -0.100429290895E+03   -0.42994E-02   -0.60095E-02  1204   0.594E-01    0.175E-01
DAV:   3    -0.100428959372E+03    0.33152E-03   -0.17170E-03  1414   0.112E-01    0.120E-01
DAV:   4    -0.100428716523E+03    0.24285E-03   -0.49775E-04  1134   0.632E-02    0.445E-02
DAV:   5    -0.100428710023E+03    0.65001E-05   -0.12820E-04   728   0.330E-02
  85 F= -.10042871E+03 E0= -.10042871E+03  d E =-.750348E-02
 curvature: -12.64 expect dE=-0.315E-01 dE for cont linesearch -0.274E-02
 ZBRENT: increasing intervall
 opt :   9.6860  next Energy=  -100.439074 (dE=-0.179E-01)
 bond charge predicted
       N       E                     dE             d eps       ncg     rms          rms(c)
DAV:   1    -0.100420040157E+03    0.86764E-02   -0.40365E+00  1008   0.491E+00    0.847E-01
DAV:   2    -0.100438035050E+03   -0.17995E-01   -0.24611E-01  1204   0.120E+00    0.346E-01
DAV:   3    -0.100436759063E+03    0.12760E-02   -0.68755E-03  1400   0.225E-01    0.236E-01
DAV:   4    -0.100435831163E+03    0.92790E-03   -0.19416E-03  1218   0.124E-01    0.873E-02
DAV:   5    -0.100435808337E+03    0.22825E-04   -0.52365E-04  1162   0.622E-02
  86 F= -.10043581E+03 E0= -.10043581E+03  d E =-.146018E-01
 curvature: -47.80 expect dE=-0.127E+00 dE for cont linesearch -0.124E-02
 ZBRENT: increasing intervall
 opt :  21.3092  next Energy=  -100.428914 (dE=-0.771E-02)
 bond charge predicted
       N       E                     dE             d eps       ncg     rms          rms(c)
DAV:   1    -0.100360071164E+03    0.75760E-01   -0.16106E+01  1008   0.982E+00    0.174E+00
DAV:   2    -0.100433479543E+03   -0.73408E-01   -0.99502E-01  1218   0.241E+00    0.725E-01
DAV:   3    -0.100428354756E+03    0.51248E-02   -0.26844E-02  1414   0.447E-01    0.503E-01
DAV:   4    -0.100424549593E+03    0.38052E-02   -0.78555E-03  1218   0.248E-01    0.182E-01
DAV:   5    -0.100424446721E+03    0.10287E-03   -0.21563E-03  1190   0.126E-01    0.748E-02
DAV:   6    -0.100424481379E+03   -0.34658E-04   -0.36565E-04  1120   0.472E-02
  87 F= -.10042448E+03 E0= -.10042448E+03  d E =-.327484E-02
 curvature: 264.78 expect dE= 0.261E+01 dE for cont linesearch  0.107E+00
 ZBRENT: bracketing found
 ZBRENT: interpolating
 opt :  12.0402  next Energy=  -100.436597 (dE=-0.154E-01)
 bond charge predicted
       N       E                     dE             d eps       ncg     rms          rms(c)
DAV:   1    -0.100396621048E+03    0.27826E-01   -0.10273E+01  1008   0.783E+00    0.135E+00
DAV:   2    -0.100442012222E+03   -0.45391E-01   -0.62286E-01  1190   0.191E+00    0.538E-01
DAV:   3    -0.100438731050E+03    0.32812E-02   -0.17504E-02  1428   0.359E-01    0.369E-01
DAV:   4    -0.100436347561E+03    0.23835E-02   -0.52079E-03  1204   0.202E-01    0.141E-01
DAV:   5    -0.100436307285E+03    0.40276E-04   -0.13906E-03  1190   0.101E-01    0.605E-02
DAV:   6    -0.100436320153E+03   -0.12868E-04   -0.18771E-04   784   0.360E-02
  88 F= -.10043632E+03 E0= -.10043632E+03  d E =-.151136E-01
 curvature:  -1.95 expect dE=-0.649E-02 dE for cont linesearch -0.653E-05
 trial: gam= 1.03890 g(F)=  0.199E-02 g(S)=  0.134E-02 ort =-0.240E-03 (trialstep = 0.256E+01)
 search vector abs. value=  0.214E-01
 bond charge predicted
       N       E                     dE             d eps       ncg     rms          rms(c)
DAV:   1    -0.100442090755E+03   -0.57835E-02   -0.94680E-01  1008   0.239E+00    0.401E-01
DAV:   2    -0.100444354919E+03   -0.22642E-02   -0.52953E-02  1204   0.569E-01    0.188E-01
DAV:   3    -0.100443673673E+03    0.68125E-03   -0.20224E-03  1400   0.121E-01    0.124E-01
DAV:   4    -0.100443243085E+03    0.43059E-03   -0.68314E-04  1190   0.740E-02    0.391E-02
DAV:   5    -0.100443222748E+03    0.20337E-04   -0.15703E-04   700   0.358E-02
  89 F= -.10044322E+03 E0= -.10044322E+03  d E =-.690260E-02
 ZBRENT: can't locate minimum, use default step
 trial-energy change:   -0.006903  1 .order   -0.006915   -0.007869   -0.005962
 step:  10.2408(harm= 10.5618)  dis= 0.04809  next Energy=  -100.452551 (dE=-0.162E-01)
 bond charge predicted
       N       E                     dE             d eps       ncg     rms          rms(c)
DAV:   1    -0.100444165802E+03   -0.92272E-03   -0.85334E+00  1008   0.716E+00    0.124E+00
DAV:   2    -0.100465521777E+03   -0.21356E-01   -0.48316E-01  1204   0.171E+00    0.573E-01
DAV:   3    -0.100459587933E+03    0.59338E-02   -0.18176E-02  1400   0.363E-01    0.382E-01
DAV:   4    -0.100455724705E+03    0.38632E-02   -0.63249E-03  1204   0.225E-01    0.119E-01
DAV:   5    -0.100455586647E+03    0.13806E-03   -0.16652E-03  1232   0.110E-01    0.607E-02
DAV:   6    -0.100455601006E+03   -0.14359E-04   -0.20129E-04   826   0.369E-02
  90 F= -.10045560E+03 E0= -.10045560E+03  d E =-.192809E-01
 curvature: -36.74 expect dE=-0.145E+00 dE for cont linesearch -0.139E-02
 ZBRENT: increasing intervall
 opt :  25.6020  next Energy=  -100.447483 (dE=-0.112E-01)
 bond charge predicted
       N       E                     dE             d eps       ncg     rms          rms(c)
DAV:   1    -0.100374517273E+03    0.81069E-01   -0.33980E+01  1008   0.143E+01    0.262E+00
DAV:   2    -0.100463560079E+03   -0.89043E-01   -0.19567E+00  1190   0.345E+00    0.122E+00
DAV:   3    -0.100440619945E+03    0.22940E-01   -0.73382E-02  1400   0.727E-01    0.835E-01
DAV:   4    -0.100424221992E+03    0.16398E-01   -0.26984E-02  1176   0.463E-01    0.252E-01
DAV:   5    -0.100423603234E+03    0.61876E-03   -0.72049E-03  1274   0.231E-01    0.126E-01
DAV:   6    -0.100423666384E+03   -0.63150E-04   -0.10529E-03  1232   0.778E-02    0.820E-02
DAV:   7    -0.100423703460E+03   -0.37076E-04   -0.93458E-05   742   0.294E-02
  91 F= -.10042370E+03 E0= -.10042370E+03  d E =0.126167E-01
 curvature: 214.64 expect dE= 0.409E+01 dE for cont linesearch  0.126E+00
 ZBRENT: bracketing found
 ZBRENT: interpolating
 opt :  13.3528  next Energy=  -100.457001 (dE=-0.207E-01)
 bond charge predicted
       N       E                     dE             d eps       ncg     rms          rms(c)
DAV:   1    -0.100427823539E+03   -0.41572E-02   -0.21726E+01  1008   0.115E+01    0.203E+00
DAV:   2    -0.100481554322E+03   -0.53731E-01   -0.12466E+00  1190   0.275E+00    0.871E-01
DAV:   3    -0.100466585837E+03    0.14968E-01   -0.48414E-02  1414   0.594E-01    0.586E-01
DAV:   4    -0.100457319869E+03    0.92660E-02   -0.14577E-02  1176   0.349E-01    0.207E-01
DAV:   5    -0.100456842527E+03    0.47734E-03   -0.47513E-03  1260   0.182E-01    0.972E-02
DAV:   6    -0.100456861758E+03   -0.19231E-04   -0.54779E-04  1176   0.591E-02
  92 F= -.10045686E+03 E0= -.10045686E+03  d E =-.205416E-01
 curvature:  -2.39 expect dE=-0.145E-01 dE for cont linesearch -0.625E-05
 trial: gam= 1.63258 g(F)=  0.373E-02 g(S)=  0.234E-02 ort =-0.237E-03 (trialstep = 0.162E+01)
 search vector abs. value=  0.624E-01
 bond charge predicted
       N       E                     dE             d eps       ncg     rms          rms(c)
DAV:   1    -0.100459053398E+03   -0.22109E-02   -0.10400E+00  1008   0.249E+00    0.378E-01
DAV:   2    -0.100463634375E+03   -0.45810E-02   -0.60195E-02  1176   0.600E-01    0.154E-01
DAV:   3    -0.100463407163E+03    0.22721E-03   -0.18065E-03  1414   0.114E-01    0.110E-01
DAV:   4    -0.100463206783E+03    0.20038E-03   -0.31442E-04   994   0.540E-02    0.472E-02
DAV:   5    -0.100463188458E+03    0.18325E-04   -0.16390E-04   686   0.367E-02
  93 F= -.10046319E+03 E0= -.10046319E+03  d E =-.632670E-02
 trial-energy change:   -0.006327  1 .order   -0.005865   -0.009199   -0.002531
 step:   2.0250(harm=  2.2351)  dis= 0.01587  next Energy=  -100.463512 (dE=-0.665E-02)
 bond charge predicted
       N       E                     dE             d eps       ncg     rms          rms(c)
DAV:   1    -0.100463488767E+03   -0.28198E-03   -0.65139E-02  1036   0.624E-01    0.999E-02
DAV:   2    -0.100463774421E+03   -0.28565E-03   -0.38423E-03  1204   0.151E-01    0.364E-02
DAV:   3    -0.100463760280E+03    0.14141E-04   -0.93556E-05   770   0.293E-02
  94 F= -.10046376E+03 E0= -.10046376E+03  d E =-.689852E-02
 curvature: -10.84 expect dE=-0.438E-01 dE for cont linesearch -0.569E-03
 ZBRENT: increasing intervall
 opt :   2.8344  next Energy=  -100.465424 (dE=-0.856E-02)
 bond charge predicted
       N       E                     dE             d eps       ncg     rms          rms(c)
DAV:   1    -0.100464013230E+03   -0.23881E-03   -0.25758E-01  1008   0.124E+00    0.186E-01
DAV:   2    -0.100465135953E+03   -0.11227E-02   -0.14989E-02  1176   0.298E-01    0.801E-02
DAV:   3    -0.100465076690E+03    0.59262E-04   -0.43932E-04  1176   0.571E-02
  95 F= -.10046508E+03 E0= -.10046508E+03  d E =-.821493E-02
 curvature: -31.73 expect dE=-0.124E+00 dE for cont linesearch -0.432E-03
 ZBRENT: increasing intervall
 opt :   4.4532  next Energy=  -100.465134 (dE=-0.827E-02)
 bond charge predicted
       N       E                     dE             d eps       ncg     rms          rms(c)
DAV:   1    -0.100462882995E+03    0.22530E-02   -0.10327E+00  1008   0.248E+00    0.371E-01
DAV:   2    -0.100467270679E+03   -0.43877E-02   -0.59429E-02  1176   0.596E-01    0.164E-01
DAV:   3    -0.100467023705E+03    0.24697E-03   -0.18610E-03  1442   0.115E-01    0.119E-01
DAV:   4    -0.100466805540E+03    0.21816E-03   -0.36717E-04  1050   0.586E-02    0.509E-02
DAV:   5    -0.100466792246E+03    0.13294E-04   -0.19315E-04   742   0.394E-02
  96 F= -.10046679E+03 E0= -.10046679E+03  d E =-.993049E-02
 curvature:  -4.22 expect dE=-0.171E-01 dE for cont linesearch -0.959E-04
 ZBRENT: increasing intervall
 opt :   7.6908  next Energy=  -100.471516 (dE=-0.147E-01)
 bond charge predicted
       N       E                     dE             d eps       ncg     rms          rms(c)
DAV:   1    -0.100455840485E+03    0.10965E-01   -0.41789E+00  1008   0.499E+00    0.775E-01
DAV:   2    -0.100474481481E+03   -0.18641E-01   -0.24544E-01  1162   0.121E+00    0.308E-01
DAV:   3    -0.100473591746E+03    0.88974E-03   -0.73025E-03  1442   0.230E-01    0.223E-01
DAV:   4    -0.100472803448E+03    0.78830E-03   -0.13589E-03  1204   0.111E-01    0.986E-02
DAV:   5    -0.100472743912E+03    0.59536E-04   -0.70127E-04  1162   0.705E-02
  97 F= -.10047274E+03 E0= -.10047274E+03  d E =-.158822E-01
 curvature: ****** expect dE=-0.581E+00 dE for cont linesearch -0.108E-01
 ZBRENT: increasing intervall
 opt :  14.1661  next Energy=  -100.488358 (dE=-0.315E-01)
 bond charge predicted
       N       E                     dE             d eps       ncg     rms          rms(c)
DAV:   1    -0.100401978854E+03    0.70825E-01   -0.16729E+01  1008   0.999E+00    0.162E+00
DAV:   2    -0.100476963580E+03   -0.74985E-01   -0.98888E-01  1176   0.242E+00    0.634E-01
DAV:   3    -0.100473377858E+03    0.35857E-02   -0.29431E-02  1456   0.463E-01    0.466E-01
DAV:   4    -0.100470147507E+03    0.32304E-02   -0.56419E-03  1232   0.223E-01    0.206E-01
DAV:   5    -0.100469886745E+03    0.26076E-03   -0.28046E-03  1190   0.142E-01    0.740E-02
DAV:   6    -0.100469910506E+03   -0.23761E-04   -0.42892E-04  1190   0.503E-02
  98 F= -.10046991E+03 E0= -.10046991E+03  d E =-.130487E-01
 curvature: ****** expect dE=-0.182E+01 dE for cont linesearch -0.312E-01
 ZBRENT: bracketing found
 ZBRENT: interpolating
 opt :  10.3739  next Energy=  -100.475160 (dE=-0.183E-01)
 bond charge predicted
       N       E                     dE             d eps       ncg     rms          rms(c)
DAV:   1    -0.100452709828E+03    0.17177E-01   -0.57208E+00  1008   0.583E+00    0.885E-01
DAV:   2    -0.100478252356E+03   -0.25543E-01   -0.33309E-01  1162   0.141E+00    0.372E-01
DAV:   3    -0.100476896603E+03    0.13558E-02   -0.97964E-03  1456   0.266E-01    0.268E-01
DAV:   4    -0.100475703324E+03    0.11933E-02   -0.19158E-03  1204   0.131E-01    0.114E-01
DAV:   5    -0.100475598204E+03    0.10512E-03   -0.99677E-04  1218   0.821E-02    0.415E-02
DAV:   6    -0.100475598934E+03   -0.73000E-06   -0.10562E-04   714   0.280E-02
  99 F= -.10047560E+03 E0= -.10047560E+03  d E =-.187372E-01
 curvature: -23.26 expect dE=-0.904E-01 dE for cont linesearch -0.728E-03
 ZBRENT: interpolating
 opt :   9.2018  next Energy=  -100.476418 (dE=-0.196E-01)
