<?xml version="1.0" encoding="ISO-8859-1"?>
<modeling>
 <generator>
  <i name="program" type="string">vasp </i>
  <i name="version" type="string">5.4.4.18Apr17-6-g9f103f2a35  </i>
  <i name="subversion" type="string">(build Oct 27 2022 13:04:57) complex            parallel </i>
  <i name="platform" type="string">LinuxIFC </i>
  <i name="date" type="string">2024 06 30 </i>
  <i name="time" type="string">09:16:13 </i>
 </generator>
 <incar>
  <i type="string" name="SYSTEM"> CIS</i>
  <i type="int" name="ISTART">     0</i>
  <i type="string" name="PREC">medium</i>
  <i type="int" name="ICHARG">     2</i>
  <i type="int" name="IBRION">     2</i>
  <i name="EDIFF">      0.00010000</i>
  <i name="EDIFFG">     -0.05000000</i>
  <i type="int" name="NSW">    99</i>
  <i type="int" name="ISIF">     3</i>
  <i name="ENCUT">    300.00000000</i>
  <i name="POTIM">      0.10000000</i>
  <i type="string" name="LREAL"> Auto</i>
  <i type="int" name="ISMEAR">     0</i>
  <i name="SIGMA">      0.05000000</i>
  <i type="int" name="LMAXMIX">     4</i>
  <i type="logical" name="LWAVE"> F  </i>
  <i type="logical" name="LCHARG"> F  </i>
  <i type="int" name="LORBIT">    10</i>
  <i type="logical" name="LASPH"> T  </i>
  <v type="int" name="KPOINT_BSE">    -1     0     0     0</v>
  <i type="logical" name="LASPH"> T  </i>
 </incar>
 <structure name="primitive_cell" >
  <crystal>
   <varray name="basis" >
    <v>       4.18939614       0.00000000       0.00000000 </v>
    <v>       0.00000000      13.60264127      -0.52365176 </v>
    <v>       0.00000000       0.11204640      13.75441232 </v>
   </varray>
   <i name="volume">    784.06647700 </i>
   <varray name="rec_basis" >
    <v>       0.23869789       0.00000000       0.00000000 </v>
    <v>       0.00000000       0.07349209      -0.00059868 </v>
    <v>       0.00000000       0.00279796       0.07268115 </v>
   </varray>
  </crystal>
  <varray name="positions" >
   <v>       0.25000000      -0.44841746      -0.20180977 </v>
   <v>       0.25000000      -0.40459014       0.00433758 </v>
   <v>      -0.25000000      -0.47041809      -0.36708012 </v>
   <v>       0.25000000       0.29932140      -0.24314505 </v>
   <v>      -0.25000000      -0.20576705      -0.17388399 </v>
   <v>       0.25000000       0.38633882      -0.44067628 </v>
   <v>      -0.25000000       0.40459014      -0.00433758 </v>
   <v>      -0.25000000      -0.27071333       0.03093256 </v>
   <v>       0.25000000       0.27071333      -0.03093256 </v>
   <v>      -0.25000000      -0.15547537      -0.37781307 </v>
   <v>       0.25000000      -0.23741320       0.48885304 </v>
   <v>       0.25000000      -0.06004403      -0.13591096 </v>
   <v>      -0.25000000      -0.38633882       0.44067628 </v>
   <v>      -0.25000000       0.15603314      -0.29646884 </v>
   <v>       0.25000000       0.47041809       0.36708012 </v>
   <v>      -0.25000000       0.23741320      -0.48885304 </v>
   <v>       0.25000000      -0.09721703       0.08528515 </v>
   <v>      -0.25000000       0.44841746       0.20180977 </v>
   <v>       0.25000000      -0.00067527      -0.33231421 </v>
   <v>      -0.25000000      -0.29932140       0.24314505 </v>
   <v>      -0.25000000       0.09721703      -0.08528515 </v>
   <v>       0.25000000       0.20576705       0.17388399 </v>
   <v>       0.25000000       0.15547537       0.37781307 </v>
   <v>       0.25000000      -0.15603314       0.29646884 </v>
   <v>      -0.25000000       0.06004403       0.13591096 </v>
   <v>      -0.25000000       0.00067527       0.33231421 </v>
  </varray>
 </structure>
 <varray name="primitive_index" >
  <v type="int" >        1 </v>
  <v type="int" >       13 </v>
  <v type="int" >       26 </v>
  <v type="int" >       18 </v>
  <v type="int" >       19 </v>
  <v type="int" >        8 </v>
  <v type="int" >       14 </v>
  <v type="int" >        9 </v>
  <v type="int" >       10 </v>
  <v type="int" >        3 </v>
  <v type="int" >       23 </v>
  <v type="int" >       11 </v>
  <v type="int" >        7 </v>
  <v type="int" >        6 </v>
  <v type="int" >       25 </v>
  <v type="int" >       24 </v>
  <v type="int" >       21 </v>
  <v type="int" >        2 </v>
  <v type="int" >       16 </v>
  <v type="int" >       17 </v>
  <v type="int" >       22 </v>
  <v type="int" >       20 </v>
  <v type="int" >        4 </v>
  <v type="int" >        5 </v>
  <v type="int" >       12 </v>
  <v type="int" >       15 </v>
 </varray>
 <kpoints>
  <generation param="Monkhorst-Pack">
   <v type="int" name="divisions">       5        2        2 </v>
   <v name="usershift">      0.00000000       0.00000000       0.00000000 </v>
   <v name="genvec1">      0.20000000       0.00000000       0.00000000 </v>
   <v name="genvec2">      0.00000000       0.50000000       0.00000000 </v>
   <v name="genvec3">      0.00000000       0.00000000       0.50000000 </v>
   <v name="shift">      0.00000000       0.50000000       0.50000000 </v>
  </generation>
  <varray name="kpointlist" >
   <v>       0.00000000       0.25000000       0.25000000 </v>
   <v>       0.20000000       0.25000000       0.25000000 </v>
   <v>       0.40000000       0.25000000       0.25000000 </v>
   <v>       0.00000000      -0.25000000       0.25000000 </v>
   <v>       0.20000000      -0.25000000       0.25000000 </v>
   <v>       0.40000000      -0.25000000       0.25000000 </v>
  </varray>
  <varray name="weights" >
   <v>       0.10000000 </v>
   <v>       0.20000000 </v>
   <v>       0.20000000 </v>
   <v>       0.10000000 </v>
   <v>       0.20000000 </v>
   <v>       0.20000000 </v>
  </varray>
 </kpoints>
 <parameters>
  <separator name="general" >
   <i type="string" name="SYSTEM">CIS</i>
   <i type="logical" name="LCOMPAT"> F  </i>
  </separator>
  <separator name="electronic" >
   <i type="string" name="PREC">medium</i>
   <i name="ENMAX">    300.00000000</i>
   <i name="ENAUG">    446.84200000</i>
   <i name="EDIFF">      0.00010000</i>
   <i type="int" name="IALGO">    38</i>
   <i type="int" name="IWAVPR">    11</i>
   <i type="int" name="NBANDS">    84</i>
   <i name="NELECT">    128.00000000</i>
   <i type="int" name="TURBO">     0</i>
   <i type="int" name="IRESTART">     0</i>
   <i type="int" name="NREBOOT">     0</i>
   <i type="int" name="NMIN">     0</i>
   <i name="EREF">      0.00000000</i>
   <separator name="electronic smearing" >
    <i type="int" name="ISMEAR">     0</i>
    <i name="SIGMA">      0.05000000</i>
    <i name="KSPACING">      0.50000000</i>
    <i type="logical" name="KGAMMA"> T  </i>
   </separator>
   <separator name="electronic projectors" >
    <i type="logical" name="LREAL"> T  </i>
    <v name="ROPT">     -0.00200000     -0.00200000     -0.00200000</v>
    <i type="int" name="LMAXPAW">  -100</i>
    <i type="int" name="LMAXMIX">     4</i>
    <i type="logical" name="NLSPLINE"> F  </i>
   </separator>
   <separator name="electronic startup" >
    <i type="int" name="ISTART">     0</i>
    <i type="int" name="ICHARG">     2</i>
    <i type="int" name="INIWAV">     1</i>
   </separator>
   <separator name="electronic spin" >
    <i type="int" name="ISPIN">     1</i>
    <i type="logical" name="LNONCOLLINEAR"> F  </i>
    <v name="MAGMOM">      1.00000000      1.00000000      1.00000000      1.00000000      1.00000000      1.00000000      1.00000000      1.00000000      1.00000000      1.00000000      1.00000000      1.00000000      1.00000000      1.00000000      1.00000000      1.00000000      1.00000000      1.00000000      1.00000000      1.00000000
      1.00000000      1.00000000      1.00000000      1.00000000      1.00000000      1.00000000</v>
    <i name="NUPDOWN">     -1.00000000</i>
    <i type="logical" name="LSORBIT"> F  </i>
    <v name="SAXIS">      0.00000000      0.00000000      1.00000000</v>
    <i type="logical" name="LSPIRAL"> F  </i>
    <v name="QSPIRAL">      0.00000000      0.00000000      0.00000000</v>
    <i type="logical" name="LZEROZ"> F  </i>
   </separator>
   <separator name="electronic exchange-correlation" >
    <i type="logical" name="LASPH"> T  </i>
    <i type="logical" name="LMETAGGA"> F  </i>
   </separator>
   <separator name="electronic convergence" >
    <i type="int" name="NELM">    60</i>
    <i type="int" name="NELMDL">    -5</i>
    <i type="int" name="NELMIN">     2</i>
    <i name="ENINI">    300.00000000</i>
    <separator name="electronic convergence detail" >
     <i type="logical" name="LDIAG"> T  </i>
     <i type="logical" name="LSUBROT"> F  </i>
     <i name="WEIMIN">      0.00100000</i>
     <i name="EBREAK">      0.00000030</i>
     <i name="DEPER">      0.30000000</i>
     <i type="int" name="NRMM">     4</i>
     <i name="TIME">      0.40000000</i>
    </separator>
   </separator>
   <separator name="electronic mixer" >
    <i name="AMIX">      0.40000000</i>
    <i name="BMIX">      1.00000000</i>
    <i name="AMIN">      0.10000000</i>
    <i name="AMIX_MAG">      1.60000000</i>
    <i name="BMIX_MAG">      1.00000000</i>
    <separator name="electronic mixer details" >
     <i type="int" name="IMIX">     4</i>
     <i type="logical" name="MIXFIRST"> F  </i>
     <i type="int" name="MAXMIX">   -45</i>
     <i name="WC">    100.00000000</i>
     <i type="int" name="INIMIX">     1</i>
     <i type="int" name="MIXPRE">     1</i>
     <i type="int" name="MREMOVE">     5</i>
    </separator>
   </separator>
   <separator name="electronic dipolcorrection" >
    <i type="logical" name="LDIPOL"> F  </i>
    <i type="logical" name="LMONO"> F  </i>
    <i type="int" name="IDIPOL">     0</i>
    <i name="EPSILON">      1.00000000</i>
    <v name="DIPOL">   -100.00000000   -100.00000000   -100.00000000</v>
    <i name="EFIELD">      0.00000000</i>
   </separator>
  </separator>
  <separator name="grids" >
   <i type="int" name="NGX">    18</i>
   <i type="int" name="NGY">    60</i>
   <i type="int" name="NGZ">    60</i>
   <i type="int" name="NGXF">    28</i>
   <i type="int" name="NGYF">    96</i>
   <i type="int" name="NGZF">    96</i>
   <i type="logical" name="ADDGRID"> F  </i>
  </separator>
  <separator name="ionic" >
   <i type="int" name="NSW">    99</i>
   <i type="int" name="IBRION">     2</i>
   <i type="int" name="MDALGO">     0</i>
   <i type="int" name="ISIF">     3</i>
   <i name="PSTRESS">      0.00000000</i>
   <i name="EDIFFG">     -0.05000000</i>
   <i type="int" name="NFREE">     1</i>
   <i name="POTIM">      0.10000000</i>
   <i name="SMASS">     -3.00000000</i>
   <i name="SCALEE">      1.00000000</i>
  </separator>
  <separator name="ionic md" >
   <i name="TEBEG">      0.00010000</i>
   <i name="TEEND">      0.00010000</i>
   <i type="int" name="NBLOCK">     1</i>
   <i type="int" name="KBLOCK">    99</i>
   <i type="int" name="NPACO">   256</i>
   <i name="APACO">     16.00000000</i>
  </separator>
  <separator name="symmetry" >
   <i type="int" name="ISYM">     2</i>
   <i name="SYMPREC">      0.00001000</i>
  </separator>
  <separator name="dos" >
   <i type="int" name="LORBIT">    10</i>
   <v name="RWIGS">     -1.00000000     -1.00000000     -1.00000000</v>
   <i type="int" name="NEDOS">   301</i>
   <i name="EMIN">     10.00000000</i>
   <i name="EMAX">    -10.00000000</i>
   <i name="EFERMI">      0.00000000</i>
  </separator>
  <separator name="writing" >
   <i type="int" name="NWRITE">     2</i>
   <i type="logical" name="LWAVE"> F  </i>
   <i type="logical" name="LDOWNSAMPLE"> F  </i>
   <i type="logical" name="LCHARG"> F  </i>
   <i type="logical" name="LPARD"> F  </i>
   <i type="logical" name="LVTOT"> F  </i>
   <i type="logical" name="LVHAR"> F  </i>
   <i type="logical" name="LELF"> F  </i>
   <i type="logical" name="LOPTICS"> F  </i>
   <v name="STM">      0.00000000      0.00000000      0.00000000      0.00000000      0.00000000      0.00000000      0.00000000</v>
  </separator>
  <separator name="performance" >
   <i type="int" name="NPAR">    14</i>
   <i type="int" name="NSIM">     4</i>
   <i type="int" name="NBLK">    -1</i>
   <i type="logical" name="LPLANE"> T  </i>
   <i type="logical" name="LSCALAPACK"> T  </i>
   <i type="logical" name="LSCAAWARE"> F  </i>
   <i type="logical" name="LSCALU"> F  </i>
   <i type="logical" name="LASYNC"> F  </i>
   <i type="logical" name="LORBITALREAL"> F  </i>
  </separator>
  <separator name="miscellaneous" >
   <i type="int" name="IDIOT">     3</i>
   <i type="int" name="ISPECIAL">     0</i>
   <i type="logical" name="LMUSIC"> F  </i>
   <v name="POMASS">     22.99000000    208.98000000     78.96000000</v>
   <v name="DARWINR">      0.00000000      0.00000000      0.00000000</v>
   <v name="DARWINV">      1.00000000      1.00000000      1.00000000</v>
   <i type="logical" name="LCORR"> T  </i>
  </separator>
  <i type="logical" name="GGA_COMPAT"> T  </i>
  <i type="logical" name="LBERRY"> F  </i>
  <i type="int" name="ICORELEVEL">     0</i>
  <i type="logical" name="LDAU"> F  </i>
  <i type="int" name="I_CONSTRAINED_M">     0</i>
  <separator name="electronic exchange-correlation" >
   <i type="string" name="GGA">--</i>
   <i type="int" name="VOSKOWN">     0</i>
   <i type="logical" name="LHFCALC"> F  </i>
   <i type="string" name="PRECFOCK"></i>
   <i type="logical" name="LSYMGRAD"> F  </i>
   <i type="logical" name="LHFONE"> F  </i>
   <i type="logical" name="LRHFCALC"> F  </i>
   <i type="logical" name="LTHOMAS"> F  </i>
   <i type="logical" name="LMODELHF"> F  </i>
   <i name="ENCUT4O">     -1.00000000</i>
   <i type="int" name="EXXOEP">     0</i>
   <i type="int" name="FOURORBIT">     0</i>
   <i name="AEXX">      0.00000000</i>
   <i name="HFALPHA">      0.00000000</i>
   <i name="MCALPHA">      0.00000000</i>
   <i name="ALDAX">      1.00000000</i>
   <i name="AGGAX">      1.00000000</i>
   <i name="ALDAC">      1.00000000</i>
   <i name="AGGAC">      1.00000000</i>
   <i type="int" name="NKREDX">     1</i>
   <i type="int" name="NKREDY">     1</i>
   <i type="int" name="NKREDZ">     1</i>
   <i type="logical" name="SHIFTRED"> F  </i>
   <i type="logical" name="ODDONLY"> F  </i>
   <i type="logical" name="EVENONLY"> F  </i>
   <i type="int" name="LMAXFOCK">     0</i>
   <i type="int" name="NMAXFOCKAE">     0</i>
   <i type="logical" name="LFOCKAEDFT"> F  </i>
   <i name="HFSCREEN">      0.00000000</i>
   <i name="HFSCREENC">      0.00000000</i>
   <i type="int" name="NBANDSGWLOW">     0</i>
  </separator>
  <separator name="vdW DFT" >
   <i type="logical" name="LUSE_VDW"> F  </i>
   <i name="Zab_VDW">     -0.84910000</i>
   <i name="PARAM1">      0.12340000</i>
   <i name="PARAM2">      1.00000000</i>
   <i name="PARAM3">      0.00000000</i>
  </separator>
  <separator name="model GW" >
   <i type="int" name="MODEL_GW">     0</i>
   <i name="MODEL_EPS0">     18.09384178</i>
   <i name="MODEL_ALPHA">      1.00000000</i>
  </separator>
  <separator name="linear response parameters" >
   <i type="logical" name="LEPSILON"> F  </i>
   <i type="logical" name="LRPA"> F  </i>
   <i type="logical" name="LNABLA"> F  </i>
   <i type="logical" name="LVEL"> F  </i>
   <i type="int" name="KINTER">     0</i>
   <i name="CSHIFT">      0.10000000</i>
   <i name="OMEGAMAX">     -1.00000000</i>
   <i name="DEG_THRESHOLD">      0.00200000</i>
   <i name="RTIME">     -0.10000000</i>
   <i name="WPLASMAI">      0.00000000</i>
   <v name="DFIELD">      0.00000000      0.00000000      0.00000000</v>
   <v name="WPLASMA">      0.00000000      0.00000000      0.00000000      0.00000000      0.00000000      0.00000000      0.00000000      0.00000000      0.00000000</v>
  </separator>
  <separator name="orbital magnetization" >
   <i type="logical" name="NUCIND"> F  </i>
   <v name="MAGPOS">      0.00000000      0.00000000      0.00000000</v>
   <i type="logical" name="LNICSALL"> T  </i>
   <i type="logical" name="ORBITALMAG"> F  </i>
   <i type="logical" name="LMAGBLOCH"> F  </i>
   <i type="logical" name="LCHIMAG"> F  </i>
   <i type="logical" name="LGAUGE"> T  </i>
   <i type="int" name="MAGATOM">     0</i>
   <v name="MAGDIPOL">      0.00000000      0.00000000      0.00000000</v>
   <v name="AVECCONST">      0.00000000      0.00000000      0.00000000</v>
  </separator>
  <separator name="response functions" >
   <i type="logical" name="LADDER"> F  </i>
   <i type="logical" name="LRPAFORCE"> F  </i>
   <i type="logical" name="LFXC"> F  </i>
   <i type="logical" name="LHARTREE"> T  </i>
   <i type="int" name="IBSE">     0</i>
   <v type="int" name="KPOINT">    -1     0     0     0</v>
   <i type="logical" name="LTCTE"> F  </i>
   <i type="logical" name="LTETE"> F  </i>
   <i type="logical" name="LTRIPLET"> F  </i>
   <i type="logical" name="LFXCEPS"> F  </i>
   <i type="logical" name="LFXHEG"> F  </i>
   <i type="int" name="NATURALO">     2</i>
   <i type="logical" name="L2ORDER"> F  </i>
   <i type="logical" name="LMP2LT"> F  </i>
   <i type="logical" name="LUSEW"> F  </i>
   <i name="ENCUTGW">     -2.00000000</i>
   <i name="ENCUTGWSOFT">     -2.00000000</i>
   <i name="ENCUTLF">     -1.00000000</i>
   <i type="int" name="LMAXMP2">    -1</i>
   <i name="SCISSOR">      0.00000000</i>
   <i type="int" name="NOMEGA">     0</i>
   <i type="int" name="NOMEGAR">     0</i>
   <i type="int" name="NBANDSGW">    -1</i>
   <i type="int" name="NBANDSO">    -1</i>
   <i type="int" name="NBANDSV">    -1</i>
   <i type="int" name="NELM">     1</i>
   <i type="int" name="NELMHF">     1</i>
   <i type="int" name="DIM">     3</i>
   <i type="int" name="ANTIRES">     0</i>
   <i name="OMEGAMAX">    -30.00000000</i>
   <i name="OMEGAMIN">    -30.00000000</i>
   <i name="OMEGATL">   -200.00000000</i>
   <i type="int" name="OMEGAGRID">   140</i>
   <i name="CSHIFT">     -0.10000000</i>
   <i type="logical" name="SELFENERGY"> F  </i>
   <i type="logical" name="LSPECTRAL"> F  </i>
   <i type="logical" name="LSPECTRALGW"> F  </i>
   <i type="logical" name="LSINGLES"> F  </i>
   <i type="logical" name="LFERMIGW"> F  </i>
   <i type="logical" name="ODDONLYGW"> F  </i>
   <i type="logical" name="EVENONLYGW"> F  </i>
   <i type="int" name="NKREDLFX">     1</i>
   <i type="int" name="NKREDLFY">     1</i>
   <i type="int" name="NKREDLFZ">     1</i>
   <i type="int" name="MAXMEM">  2800</i>
   <i type="int" name="TELESCOPE">     0</i>
   <i type="int" name="TAUPAR">     1</i>
   <i type="int" name="OMEGAPAR">    -1</i>
   <i name="LAMBDA">      1.00000000</i>
  </separator>
  <separator name="External order field" >
   <i name="OFIELD_KAPPA">      0.00000000</i>
   <v name="OFIELD_K">      0.00000000      0.00000000      0.00000000</v>
   <i name="OFIELD_Q6_NEAR">      0.00000000</i>
   <i name="OFIELD_Q6_FAR">      0.00000000</i>
   <i name="OFIELD_A">      0.00000000</i>
  </separator>
 </parameters>
 <atominfo>
  <atoms>      26 </atoms>
  <types>       3 </types>
  <array name="atoms" >
   <dimension dim="1">ion</dimension>
   <field type="string">element</field>
   <field type="int">atomtype</field>
   <set>
    <rc><c>Na</c><c>   1</c></rc>
    <rc><c>Na</c><c>   1</c></rc>
    <rc><c>Na</c><c>   1</c></rc>
    <rc><c>Na</c><c>   1</c></rc>
    <rc><c>Bi</c><c>   2</c></rc>
    <rc><c>Bi</c><c>   2</c></rc>
    <rc><c>Bi</c><c>   2</c></rc>
    <rc><c>Bi</c><c>   2</c></rc>
    <rc><c>Bi</c><c>   2</c></rc>
    <rc><c>Bi</c><c>   2</c></rc>
    <rc><c>Bi</c><c>   2</c></rc>
    <rc><c>Bi</c><c>   2</c></rc>
    <rc><c>Se</c><c>   3</c></rc>
    <rc><c>Se</c><c>   3</c></rc>
    <rc><c>Se</c><c>   3</c></rc>
    <rc><c>Se</c><c>   3</c></rc>
    <rc><c>Se</c><c>   3</c></rc>
    <rc><c>Se</c><c>   3</c></rc>
    <rc><c>Se</c><c>   3</c></rc>
    <rc><c>Se</c><c>   3</c></rc>
    <rc><c>Se</c><c>   3</c></rc>
    <rc><c>Se</c><c>   3</c></rc>
    <rc><c>Se</c><c>   3</c></rc>
    <rc><c>Se</c><c>   3</c></rc>
    <rc><c>Se</c><c>   3</c></rc>
    <rc><c>Se</c><c>   3</c></rc>
   </set>
  </array>
  <array name="atomtypes" >
   <dimension dim="1">type</dimension>
   <field type="int">atomspertype</field>
   <field type="string">element</field>
   <field>mass</field>
   <field>valence</field>
   <field type="string">pseudopotential</field>
   <set>
    <rc><c>   4</c><c>Na</c><c>     22.99000000</c><c>      1.00000000</c><c>  PAW_PBE Na 08Apr2002                  </c></rc>
    <rc><c>   8</c><c>Bi</c><c>    208.98000000</c><c>      5.00000000</c><c>  PAW_PBE Bi 08Apr2002                  </c></rc>
    <rc><c>  14</c><c>Se</c><c>     78.96000000</c><c>      6.00000000</c><c>  PAW_PBE Se 06Sep2000                  </c></rc>
   </set>
  </array>
 </atominfo>
 <structure name="initialpos" >
  <crystal>
   <varray name="basis" >
    <v>       4.18939614       0.00000000       0.00000000 </v>
    <v>       0.00000000      13.60264127      -0.52365176 </v>
    <v>       0.00000000       0.11204640      13.75441232 </v>
   </varray>
   <i name="volume">    784.06647700 </i>
   <varray name="rec_basis" >
    <v>       0.23869789       0.00000000       0.00000000 </v>
    <v>       0.00000000       0.07349209      -0.00059868 </v>
    <v>       0.00000000       0.00279796       0.07268115 </v>
   </varray>
  </crystal>
  <varray name="positions" >
   <v>       0.25000000       0.55158254       0.79819023 </v>
   <v>       0.75000000       0.44841746       0.20180977 </v>
   <v>       0.75000000       0.84452463       0.62218693 </v>
   <v>       0.25000000       0.15547537       0.37781307 </v>
   <v>       0.25000000       0.84396686       0.29646884 </v>
   <v>       0.75000000       0.15603314       0.70353116 </v>
   <v>       0.75000000       0.61366118       0.44067628 </v>
   <v>       0.25000000       0.38633882       0.55932372 </v>
   <v>       0.75000000       0.72928667       0.03093256 </v>
   <v>       0.25000000       0.27071333       0.96906744 </v>
   <v>       0.25000000       0.93995597       0.86408904 </v>
   <v>       0.75000000       0.06004403       0.13591096 </v>
   <v>       0.25000000       0.59540986       0.00433758 </v>
   <v>       0.75000000       0.40459014       0.99566242 </v>
   <v>       0.75000000       0.00067527       0.33231421 </v>
   <v>       0.25000000       0.99932473       0.66768579 </v>
   <v>       0.75000000       0.70067860       0.24314505 </v>
   <v>       0.25000000       0.29932140       0.75685495 </v>
   <v>       0.75000000       0.79423295       0.82611601 </v>
   <v>       0.25000000       0.20576705       0.17388399 </v>
   <v>       0.25000000       0.90278297       0.08528515 </v>
   <v>       0.75000000       0.09721703       0.91471485 </v>
   <v>       0.25000000       0.76258680       0.48885304 </v>
   <v>       0.75000000       0.23741320       0.51114696 </v>
   <v>       0.25000000       0.47041809       0.36708012 </v>
   <v>       0.75000000       0.52958191       0.63291988 </v>
  </varray>
 </structure>
 <calculation>
  <scstep>
   <time name="dav">    1.08    1.11</time>
   <time name="total">    1.35    1.42</time>
   <energy>
    <i name="alphaZ">    136.54231062 </i>
    <i name="ewald">  -4088.78282489 </i>
    <i name="hartreedc">   -852.15379661 </i>
    <i name="XCdc">  -1036.92674461 </i>
    <i name="pawpsdc">   4904.45371565 </i>
    <i name="pawaedc">  -3626.14853555 </i>
    <i name="eentropy">     -0.01032003 </i>
    <i name="bandstr">    288.54530528 </i>
    <i name="atom">   4826.88019477 </i>
    <i name="e_fr_energy">    552.39930463 </i>
    <i name="e_wo_entrp">    552.40962466 </i>
    <i name="e_0_energy">    552.40446464 </i>
   </energy>
  </scstep>
  <scstep>
   <time name="dav">    1.22    1.24</time>
   <time name="total">    1.22    1.24</time>
   <energy>
    <i name="e_fr_energy">    -40.52269387 </i>
    <i name="e_wo_entrp">    -40.52269387 </i>
    <i name="e_0_energy">    -40.52269387 </i>
   </energy>
  </scstep>
  <scstep>
   <time name="dav">    1.21    1.23</time>
   <time name="total">    1.21    1.23</time>
   <energy>
    <i name="e_fr_energy">   -102.75613020 </i>
    <i name="e_wo_entrp">   -102.75613020 </i>
    <i name="e_0_energy">   -102.75613020 </i>
   </energy>
  </scstep>
  <scstep>
   <time name="dav">    1.24    1.26</time>
   <time name="total">    1.24    1.26</time>
   <energy>
    <i name="e_fr_energy">   -105.47026014 </i>
    <i name="e_wo_entrp">   -105.47026014 </i>
    <i name="e_0_energy">   -105.47026014 </i>
   </energy>
  </scstep>
  <scstep>
   <time name="dav">    1.27    1.30</time>
   <time name="total">    1.31    1.33</time>
   <energy>
    <i name="e_fr_energy">   -105.52018634 </i>
    <i name="e_wo_entrp">   -105.52018634 </i>
    <i name="e_0_energy">   -105.52018634 </i>
   </energy>
  </scstep>
  <scstep>
   <time name="dav">    0.85    0.86</time>
   <time name="total">    1.13    1.14</time>
   <energy>
    <i name="e_fr_energy">   -100.34356089 </i>
    <i name="e_wo_entrp">   -100.34356089 </i>
    <i name="e_0_energy">   -100.34356089 </i>
   </energy>
  </scstep>
  <scstep>
   <time name="dav">    1.23    1.25</time>
   <time name="total">    1.52    1.54</time>
   <energy>
    <i name="e_fr_energy">   -100.43347495 </i>
    <i name="e_wo_entrp">   -100.43347495 </i>
    <i name="e_0_energy">   -100.43347495 </i>
   </energy>
  </scstep>
  <scstep>
   <time name="dav">    1.45    1.48</time>
   <time name="total">    1.74    1.77</time>
   <energy>
    <i name="e_fr_energy">   -100.45416400 </i>
    <i name="e_wo_entrp">   -100.45416400 </i>
    <i name="e_0_energy">   -100.45416400 </i>
   </energy>
  </scstep>
  <scstep>
   <time name="dav">    1.22    1.24</time>
   <time name="total">    1.51    1.53</time>
   <energy>
    <i name="e_fr_energy">   -100.46795786 </i>
    <i name="e_wo_entrp">   -100.46795786 </i>
    <i name="e_0_energy">   -100.46795786 </i>
   </energy>
  </scstep>
  <scstep>
   <time name="dav">    1.08    1.09</time>
   <time name="total">    1.36    1.37</time>
   <energy>
    <i name="e_fr_energy">   -100.46916750 </i>
    <i name="e_wo_entrp">   -100.46916750 </i>
    <i name="e_0_energy">   -100.46916750 </i>
   </energy>
  </scstep>
  <scstep>
   <time name="dav">    1.28    1.30</time>
   <time name="total">    1.57    1.59</time>
   <energy>
    <i name="e_fr_energy">   -100.47024527 </i>
    <i name="e_wo_entrp">   -100.47024527 </i>
    <i name="e_0_energy">   -100.47024527 </i>
   </energy>
  </scstep>
  <scstep>
   <time name="dav">    1.13    1.13</time>
   <time name="total">    1.41    1.42</time>
   <energy>
    <i name="e_fr_energy">   -100.47057694 </i>
    <i name="e_wo_entrp">   -100.47057694 </i>
    <i name="e_0_energy">   -100.47057694 </i>
   </energy>
  </scstep>
  <scstep>
   <time name="dav">    0.66    0.67</time>
   <time name="total">    0.94    0.94</time>
   <energy>
    <i name="e_fr_energy">   -100.47068871 </i>
    <i name="e_wo_entrp">   -100.47068871 </i>
    <i name="e_0_energy">   -100.47068871 </i>
   </energy>
  </scstep>
  <scstep>
   <time name="dav">    0.89    0.89</time>
   <time name="total">    1.14    1.15</time>
   <energy>
    <i name="alphaZ">    136.54231062 </i>
    <i name="ewald">  -4088.78282489 </i>
    <i name="hartreedc">   -902.42898053 </i>
    <i name="XCdc">  -1030.95759774 </i>
    <i name="pawpsdc">   6632.33501786 </i>
    <i name="pawaedc">  -5355.04699133 </i>
    <i name="eentropy">     -0.00000000 </i>
    <i name="bandstr">   -319.01184462 </i>
    <i name="atom">   4826.88019477 </i>
    <i name="e_fr_energy">   -100.47071586 </i>
    <i name="e_wo_entrp">   -100.47071586 </i>
    <i name="e_0_energy">   -100.47071586 </i>
   </energy>
  </scstep>
  <structure>
   <crystal>
    <varray name="basis" >
     <v>       4.18939614       0.00000000       0.00000000 </v>
     <v>       0.00000000      13.60264127      -0.52365176 </v>
     <v>       0.00000000       0.11204640      13.75441232 </v>
    </varray>
    <i name="volume">    784.06647700 </i>
    <varray name="rec_basis" >
     <v>       0.23869789       0.00000000       0.00000000 </v>
     <v>       0.00000000       0.07349209      -0.00059868 </v>
     <v>       0.00000000       0.00279796       0.07268115 </v>
    </varray>
   </crystal>
   <varray name="positions" >
    <v>       0.25000000       0.55158254       0.79819023 </v>
    <v>       0.75000000       0.44841746       0.20180977 </v>
    <v>       0.75000000       0.84452463       0.62218693 </v>
    <v>       0.25000000       0.15547537       0.37781307 </v>
    <v>       0.25000000       0.84396686       0.29646884 </v>
    <v>       0.75000000       0.15603314       0.70353116 </v>
    <v>       0.75000000       0.61366118       0.44067628 </v>
    <v>       0.25000000       0.38633882       0.55932372 </v>
    <v>       0.75000000       0.72928667       0.03093256 </v>
    <v>       0.25000000       0.27071333       0.96906744 </v>
    <v>       0.25000000       0.93995597       0.86408904 </v>
    <v>       0.75000000       0.06004403       0.13591096 </v>
    <v>       0.25000000       0.59540986       0.00433758 </v>
    <v>       0.75000000       0.40459014       0.99566242 </v>
    <v>       0.75000000       0.00067527       0.33231421 </v>
    <v>       0.25000000       0.99932473       0.66768579 </v>
    <v>       0.75000000       0.70067860       0.24314505 </v>
    <v>       0.25000000       0.29932140       0.75685495 </v>
    <v>       0.75000000       0.79423295       0.82611601 </v>
    <v>       0.25000000       0.20576705       0.17388399 </v>
    <v>       0.25000000       0.90278297       0.08528515 </v>
    <v>       0.75000000       0.09721703       0.91471485 </v>
    <v>       0.25000000       0.76258680       0.48885304 </v>
    <v>       0.75000000       0.23741320       0.51114696 </v>
    <v>       0.25000000       0.47041809       0.36708012 </v>
    <v>       0.75000000       0.52958191       0.63291988 </v>
   </varray>
  </structure>
  <varray name="forces" >
   <v>       0.00000000      -0.04499603      -0.07358821 </v>
   <v>       0.00000000       0.04499603       0.07358821 </v>
   <v>       0.00000000       0.09630374      -0.10144656 </v>
   <v>      -0.00000000      -0.09630374       0.10144656 </v>
   <v>       0.00000000      -0.05677055      -0.07397101 </v>
   <v>       0.00000000       0.05677055       0.07397101 </v>
   <v>       0.00000000       0.01626497      -0.09430198 </v>
   <v>      -0.00000000      -0.01626497       0.09430198 </v>
   <v>       0.00000000       0.18403291      -0.04341705 </v>
   <v>       0.00000000      -0.18403291       0.04341705 </v>
   <v>       0.00000000       0.15519129      -0.06745592 </v>
   <v>       0.00000000      -0.15519129       0.06745592 </v>
   <v>      -0.00000000      -0.04470836      -0.01003080 </v>
   <v>       0.00000000       0.04470836       0.01003080 </v>
   <v>       0.00000000      -0.05756801       0.11586095 </v>
   <v>       0.00000000       0.05756801      -0.11586095 </v>
   <v>       0.00000000      -0.02703691       0.00694197 </v>
   <v>       0.00000000       0.02703691      -0.00694197 </v>
   <v>       0.00000000      -0.01921677       0.08546278 </v>
   <v>       0.00000000       0.01921677      -0.08546278 </v>
   <v>       0.00000000      -0.02585573       0.03325318 </v>
   <v>       0.00000000       0.02585573      -0.03325318 </v>
   <v>       0.00000000      -0.14234436       0.09778097 </v>
   <v>       0.00000000       0.14234436      -0.09778097 </v>
   <v>       0.00000000       0.05949649       0.08385786 </v>
   <v>       0.00000000      -0.05949649      -0.08385786 </v>
  </varray>
  <varray name="stress" >
   <v>       0.58807042       0.00000000       0.00000000 </v>
   <v>       0.00000000      -0.33715362       0.15533459 </v>
   <v>       0.00000000       0.15533474       2.87066114 </v>
  </varray>
  <energy>
   <i name="e_fr_energy">   -100.47071586 </i>
   <i name="e_wo_entrp">   -100.47071586 </i>
   <i name="e_0_energy">     -0.00000000 </i>
  </energy>
  <time name="totalsc">   20.28   20.63</time>
 </calculation>
 <calculation>
  <scstep>
   <time name="dav">    1.16    1.19</time>
   <time name="total">    1.46    1.53</time>
   <energy>
    <i name="alphaZ">    136.46494678 </i>
    <i name="ewald">  -4087.69254260 </i>
    <i name="hartreedc">   -902.62940733 </i>
    <i name="XCdc">  -1030.97589838 </i>
    <i name="pawpsdc">   6631.40498514 </i>
    <i name="pawaedc">  -5354.11779355 </i>
    <i name="eentropy">     -0.00000000 </i>
    <i name="bandstr">   -319.80925526 </i>
    <i name="atom">   4826.88019477 </i>
    <i name="e_fr_energy">   -100.47477043 </i>
    <i name="e_wo_entrp">   -100.47477043 </i>
    <i name="e_0_energy">   -100.47477043 </i>
   </energy>
  </scstep>
  <scstep>
   <time name="dav">    0.99    1.00</time>
   <time name="total">    1.27    1.29</time>
   <energy>
    <i name="e_fr_energy">   -100.47472716 </i>
    <i name="e_wo_entrp">   -100.47472716 </i>
    <i name="e_0_energy">   -100.47472716 </i>
   </energy>
  </scstep>
  <scstep>
   <time name="dav">    0.87    0.89</time>
   <time name="total">    1.12    1.14</time>
   <energy>
    <i name="alphaZ">    136.46494678 </i>
    <i name="ewald">  -4087.69254260 </i>
    <i name="hartreedc">   -902.95013300 </i>
    <i name="XCdc">  -1030.97260074 </i>
    <i name="pawpsdc">   6628.58262089 </i>
    <i name="pawaedc">  -5351.29321220 </i>
    <i name="eentropy">     -0.00000000 </i>
    <i name="bandstr">   -319.49396392 </i>
    <i name="atom">   4826.88019477 </i>
    <i name="e_fr_energy">   -100.47469001 </i>
    <i name="e_wo_entrp">   -100.47469001 </i>
    <i name="e_0_energy">   -100.47469001 </i>
   </energy>
  </scstep>
  <structure>
   <crystal>
    <varray name="basis" >
     <v>       4.18984356       0.00000000       0.00000000 </v>
     <v>       0.00000000      13.60179362      -0.52354103 </v>
     <v>       0.00000000       0.11242755      13.76158606 </v>
    </varray>
    <i name="volume">    784.51097498 </i>
    <varray name="rec_basis" >
     <v>       0.23867240       0.00000000       0.00000000 </v>
     <v>       0.00000000       0.07349660      -0.00060044 </v>
     <v>       0.00000000       0.00279608       0.07264320 </v>
    </varray>
   </crystal>
   <varray name="positions" >
    <v>       0.25000000       0.55155106       0.79813741 </v>
    <v>       0.75000000       0.44844894       0.20186259 </v>
    <v>       0.75000000       0.84459351       0.62211839 </v>
    <v>       0.25000000       0.15540649       0.37788161 </v>
    <v>       0.25000000       0.84392703       0.29641544 </v>
    <v>       0.75000000       0.15607297       0.70358456 </v>
    <v>       0.75000000       0.61367326       0.44061059 </v>
    <v>       0.25000000       0.38632674       0.55938941 </v>
    <v>       0.75000000       0.72941742       0.03090708 </v>
    <v>       0.25000000       0.27058258       0.96909292 </v>
    <v>       0.25000000       0.94006640       0.86404593 </v>
    <v>       0.75000000       0.05993360       0.13595407 </v>
    <v>       0.25000000       0.59537821       0.00432934 </v>
    <v>       0.75000000       0.40462179       0.99567066 </v>
    <v>       0.75000000       0.00063378       0.33239390 </v>
    <v>       0.25000000       0.99936622       0.66760610 </v>
    <v>       0.75000000       0.70065939       0.24314919 </v>
    <v>       0.25000000       0.29934061       0.75685081 </v>
    <v>       0.75000000       0.79421883       0.82617543 </v>
    <v>       0.25000000       0.20578117       0.17382457 </v>
    <v>       0.25000000       0.90276445       0.08530777 </v>
    <v>       0.75000000       0.09723555       0.91469223 </v>
    <v>       0.25000000       0.76248530       0.48891776 </v>
    <v>       0.75000000       0.23751470       0.51108224 </v>
    <v>       0.25000000       0.47045979       0.36714054 </v>
    <v>       0.75000000       0.52954021       0.63285946 </v>
   </varray>
  </structure>
  <varray name="forces" >
   <v>      -0.00000000      -0.04482687      -0.07264494 </v>
   <v>       0.00000000       0.04482687       0.07264494 </v>
   <v>      -0.00000000       0.09318188      -0.10001824 </v>
   <v>      -0.00000000      -0.09318188       0.10001824 </v>
   <v>      -0.00000000      -0.06419693      -0.06523637 </v>
   <v>      -0.00000000       0.06419693       0.06523637 </v>
   <v>      -0.00000000       0.01126354      -0.08535640 </v>
   <v>      -0.00000000      -0.01126354       0.08535640 </v>
   <v>      -0.00000000       0.17051304      -0.03950715 </v>
   <v>       0.00000000      -0.17051304       0.03950715 </v>
   <v>       0.00000000       0.14089599      -0.07614405 </v>
   <v>      -0.00000000      -0.14089599       0.07614405 </v>
   <v>      -0.00000000      -0.03359625      -0.01218847 </v>
   <v>      -0.00000000       0.03359625       0.01218847 </v>
   <v>      -0.00000000      -0.07306182       0.07302643 </v>
   <v>      -0.00000000       0.07306182      -0.07302643 </v>
   <v>      -0.00000000      -0.02748165       0.00463109 </v>
   <v>       0.00000000       0.02748165      -0.00463109 </v>
   <v>      -0.00000000      -0.01371596       0.09192244 </v>
   <v>      -0.00000000       0.01371596      -0.09192244 </v>
   <v>      -0.00000000      -0.02634311       0.06289369 </v>
   <v>      -0.00000000       0.02634311      -0.06289369 </v>
   <v>      -0.00000000      -0.11999534       0.08075561 </v>
   <v>      -0.00000000       0.11999534      -0.08075561 </v>
   <v>       0.00000000       0.04717132       0.07672960 </v>
   <v>      -0.00000000      -0.04717132      -0.07672960 </v>
  </varray>
  <varray name="stress" >
   <v>       0.43084154       0.00000000       0.00000000 </v>
   <v>       0.00000000      -0.55121516       0.23517955 </v>
   <v>       0.00000000       0.23517940       2.38564489 </v>
  </varray>
  <energy>
   <i name="e_fr_energy">   -100.47469001 </i>
   <i name="e_wo_entrp">   -100.47469001 </i>
   <i name="e_0_energy">     -0.00000000 </i>
  </energy>
  <time name="totalsc">    5.42    5.65</time>
 </calculation>
 <calculation>
  <scstep>
   <time name="dav">    0.78    0.79</time>
   <time name="total">    1.07    1.14</time>
   <energy>
    <i name="alphaZ">    136.23335362 </i>
    <i name="ewald">  -4084.41362392 </i>
    <i name="hartreedc">   -903.45478345 </i>
    <i name="XCdc">  -1031.04592803 </i>
    <i name="pawpsdc">   6627.95038872 </i>
    <i name="pawaedc">  -5350.65891435 </i>
    <i name="eentropy">     -0.00000000 </i>
    <i name="bandstr">   -321.97563315 </i>
    <i name="atom">   4826.88019477 </i>
    <i name="e_fr_energy">   -100.48494579 </i>
    <i name="e_wo_entrp">   -100.48494579 </i>
    <i name="e_0_energy">   -100.48494579 </i>
   </energy>
  </scstep>
  <scstep>
   <time name="dav">    1.28    1.30</time>
   <time name="total">    1.56    1.59</time>
   <energy>
    <i name="e_fr_energy">   -100.48442840 </i>
    <i name="e_wo_entrp">   -100.48442840 </i>
    <i name="e_0_energy">   -100.48442840 </i>
   </energy>
  </scstep>
  <scstep>
   <time name="dav">    1.24    1.27</time>
   <time name="total">    1.53    1.56</time>
   <energy>
    <i name="e_fr_energy">   -100.48410338 </i>
    <i name="e_wo_entrp">   -100.48410338 </i>
    <i name="e_0_energy">   -100.48410338 </i>
   </energy>
  </scstep>
  <scstep>
   <time name="dav">    0.92    0.94</time>
   <time name="total">    1.21    1.23</time>
   <energy>
    <i name="e_fr_energy">   -100.48396213 </i>
    <i name="e_wo_entrp">   -100.48396213 </i>
    <i name="e_0_energy">   -100.48396213 </i>
   </energy>
  </scstep>
  <scstep>
   <time name="dav">    0.68    0.69</time>
   <time name="total">    0.93    0.95</time>
   <energy>
    <i name="alphaZ">    136.23335362 </i>
    <i name="ewald">  -4084.41362392 </i>
    <i name="hartreedc">   -904.74256460 </i>
    <i name="XCdc">  -1031.04825955 </i>
    <i name="pawpsdc">   6618.63267041 </i>
    <i name="pawaedc">  -5341.31894595 </i>
    <i name="eentropy">     -0.00000000 </i>
    <i name="bandstr">   -320.70675066 </i>
    <i name="atom">   4826.88019477 </i>
    <i name="e_fr_energy">   -100.48392590 </i>
    <i name="e_wo_entrp">   -100.48392590 </i>
    <i name="e_0_energy">   -100.48392590 </i>
   </energy>
  </scstep>
  <structure>
   <crystal>
    <varray name="basis" >
     <v>       4.19118580       0.00000000       0.00000000 </v>
     <v>       0.00000000      13.59925067      -0.52320884 </v>
     <v>       0.00000000       0.11357099      13.78310727 </v>
    </varray>
    <i name="volume">    785.84462326 </i>
    <varray name="rec_basis" >
     <v>       0.23859596       0.00000000       0.00000000 </v>
     <v>       0.00000000       0.07351016      -0.00060571 </v>
     <v>       0.00000000       0.00279046       0.07252959 </v>
    </varray>
   </crystal>
   <varray name="positions" >
    <v>       0.25000000       0.55145661       0.79797903 </v>
    <v>       0.75000000       0.44854339       0.20202097 </v>
    <v>       0.75000000       0.84480015       0.62191287 </v>
    <v>       0.25000000       0.15519985       0.37808713 </v>
    <v>       0.25000000       0.84380754       0.29625530 </v>
    <v>       0.75000000       0.15619246       0.70374470 </v>
    <v>       0.75000000       0.61370950       0.44041362 </v>
    <v>       0.25000000       0.38629050       0.55958638 </v>
    <v>       0.75000000       0.72980968       0.03083068 </v>
    <v>       0.25000000       0.27019032       0.96916932 </v>
    <v>       0.25000000       0.94039773       0.86391665 </v>
    <v>       0.75000000       0.05960227       0.13608335 </v>
    <v>       0.25000000       0.59528328       0.00430463 </v>
    <v>       0.75000000       0.40471672       0.99569537 </v>
    <v>       0.75000000       0.00050929       0.33263286 </v>
    <v>       0.25000000       0.99949071       0.66736714 </v>
    <v>       0.75000000       0.70060175       0.24316160 </v>
    <v>       0.25000000       0.29939825       0.75683840 </v>
    <v>       0.75000000       0.79417646       0.82635358 </v>
    <v>       0.25000000       0.20582354       0.17364642 </v>
    <v>       0.25000000       0.90270886       0.08537560 </v>
    <v>       0.75000000       0.09729114       0.91462440 </v>
    <v>       0.25000000       0.76218077       0.48911185 </v>
    <v>       0.75000000       0.23781923       0.51088815 </v>
    <v>       0.25000000       0.47058491       0.36732168 </v>
    <v>       0.75000000       0.52941509       0.63267832 </v>
   </varray>
  </structure>
  <varray name="forces" >
   <v>      -0.00000000      -0.04383842      -0.06549125 </v>
   <v>      -0.00000000       0.04383842       0.06549125 </v>
   <v>      -0.00000000       0.08648553      -0.09191264 </v>
   <v>      -0.00000000      -0.08648553       0.09191264 </v>
   <v>      -0.00000000      -0.07320727      -0.03174637 </v>
   <v>      -0.00000000       0.07320727       0.03174637 </v>
   <v>      -0.00000000      -0.01584523      -0.04302102 </v>
   <v>      -0.00000000       0.01584523       0.04302102 </v>
   <v>      -0.00000000       0.11606201      -0.03817869 </v>
   <v>      -0.00000000      -0.11606201       0.03817869 </v>
   <v>      -0.00000000       0.12851592      -0.09257179 </v>
   <v>      -0.00000000      -0.12851592       0.09257179 </v>
   <v>       0.00000000      -0.00239021      -0.01871519 </v>
   <v>      -0.00000000       0.00239021       0.01871519 </v>
   <v>      -0.00000000      -0.06251130       0.01932973 </v>
   <v>       0.00000000       0.06251130      -0.01932973 </v>
   <v>      -0.00000000      -0.02948534      -0.00295388 </v>
   <v>       0.00000000       0.02948534       0.00295388 </v>
   <v>      -0.00000000       0.00151175       0.11168657 </v>
   <v>       0.00000000      -0.00151175      -0.11168657 </v>
   <v>      -0.00000000      -0.02725935       0.06657347 </v>
   <v>      -0.00000000       0.02725935      -0.06657347 </v>
   <v>      -0.00000000      -0.08316442       0.04806579 </v>
   <v>      -0.00000000       0.08316442      -0.04806579 </v>
   <v>      -0.00000000       0.03466245       0.06519966 </v>
   <v>      -0.00000000      -0.03466245      -0.06519966 </v>
  </varray>
  <varray name="stress" >
   <v>      -0.04585547       0.00000000       0.00000000 </v>
   <v>       0.00000000      -1.15104611       0.54411106 </v>
   <v>       0.00000000       0.54411178       0.19895377 </v>
  </varray>
  <energy>
   <i name="e_fr_energy">   -100.48392590 </i>
   <i name="e_wo_entrp">   -100.48392590 </i>
   <i name="e_0_energy">     -0.00000000 </i>
  </energy>
  <time name="totalsc">    7.82    8.17</time>
 </calculation>
 <calculation>
  <scstep>
   <time name="dav">    1.09    1.10</time>
   <time name="total">    1.39    1.43</time>
   <energy>
    <i name="alphaZ">    135.77239819 </i>
    <i name="ewald">  -4077.81960226 </i>
    <i name="hartreedc">   -905.63791299 </i>
    <i name="XCdc">  -1031.18974821 </i>
    <i name="pawpsdc">   6619.10410533 </i>
    <i name="pawaedc">  -5341.79042175 </i>
    <i name="eentropy">     -0.00000000 </i>
    <i name="bandstr">   -325.81407562 </i>
    <i name="atom">   4826.88019477 </i>
    <i name="e_fr_energy">   -100.49506253 </i>
    <i name="e_wo_entrp">   -100.49506253 </i>
    <i name="e_0_energy">   -100.49506253 </i>
   </energy>
  </scstep>
  <scstep>
   <time name="dav">    1.05    1.05</time>
   <time name="total">    1.34    1.35</time>
   <energy>
    <i name="e_fr_energy">   -100.49341406 </i>
    <i name="e_wo_entrp">   -100.49341406 </i>
    <i name="e_0_energy">   -100.49341406 </i>
   </energy>
  </scstep>
  <scstep>
   <time name="dav">    1.06    1.07</time>
   <time name="total">    1.35    1.36</time>
   <energy>
    <i name="e_fr_energy">   -100.49223070 </i>
    <i name="e_wo_entrp">   -100.49223070 </i>
    <i name="e_0_energy">   -100.49223070 </i>
   </energy>
  </scstep>
  <scstep>
   <time name="dav">    1.27    1.29</time>
   <time name="total">    1.56    1.58</time>
   <energy>
    <i name="e_fr_energy">   -100.49170811 </i>
    <i name="e_wo_entrp">   -100.49170811 </i>
    <i name="e_0_energy">   -100.49170811 </i>
   </energy>
  </scstep>
  <scstep>
   <time name="dav">    1.13    1.14</time>
   <time name="total">    1.42    1.44</time>
   <energy>
    <i name="e_fr_energy">   -100.49157843 </i>
    <i name="e_wo_entrp">   -100.49157843 </i>
    <i name="e_0_energy">   -100.49157843 </i>
   </energy>
  </scstep>
  <scstep>
   <time name="dav">    0.70    0.70</time>
   <time name="total">    0.95    0.96</time>
   <energy>
    <i name="alphaZ">    135.77239819 </i>
    <i name="ewald">  -4077.81960226 </i>
    <i name="hartreedc">   -908.13767370 </i>
    <i name="XCdc">  -1031.19099868 </i>
    <i name="pawpsdc">   6602.41121962 </i>
    <i name="pawaedc">  -5325.05955562 </i>
    <i name="eentropy">     -0.00000000 </i>
    <i name="bandstr">   -323.34756444 </i>
    <i name="atom">   4826.88019477 </i>
    <i name="e_fr_energy">   -100.49158212 </i>
    <i name="e_wo_entrp">   -100.49158212 </i>
    <i name="e_0_energy">   -100.49158212 </i>
   </energy>
  </scstep>
  <structure>
   <crystal>
    <varray name="basis" >
     <v>       4.19387030       0.00000000       0.00000000 </v>
     <v>       0.00000000      13.59416477      -0.52254445 </v>
     <v>       0.00000000       0.11585788      13.82614970 </v>
    </varray>
    <i name="volume">    788.51261285 </i>
    <varray name="rec_basis" >
     <v>       0.23844323       0.00000000       0.00000000 </v>
     <v>       0.00000000       0.07353729      -0.00061621 </v>
     <v>       0.00000000       0.00277926       0.07230343 </v>
    </varray>
   </crystal>
   <varray name="positions" >
    <v>       0.25000000       0.55126771       0.79766278 </v>
    <v>       0.75000000       0.44873229       0.20233722 </v>
    <v>       0.75000000       0.84521354       0.62150247 </v>
    <v>       0.25000000       0.15478646       0.37849753 </v>
    <v>       0.25000000       0.84356855       0.29593554 </v>
    <v>       0.75000000       0.15643145       0.70406446 </v>
    <v>       0.75000000       0.61378202       0.44002029 </v>
    <v>       0.25000000       0.38621798       0.55997971 </v>
    <v>       0.75000000       0.73059437       0.03067811 </v>
    <v>       0.25000000       0.26940563       0.96932189 </v>
    <v>       0.25000000       0.94106052       0.86365849 </v>
    <v>       0.75000000       0.05893948       0.13634151 </v>
    <v>       0.25000000       0.59509337       0.00425529 </v>
    <v>       0.75000000       0.40490663       0.99574471 </v>
    <v>       0.75000000       0.00026024       0.33311004 </v>
    <v>       0.25000000       0.99973976       0.66688996 </v>
    <v>       0.75000000       0.70048645       0.24318638 </v>
    <v>       0.25000000       0.29951355       0.75681362 </v>
    <v>       0.75000000       0.79409169       0.82670931 </v>
    <v>       0.25000000       0.20590831       0.17329069 </v>
    <v>       0.25000000       0.90259766       0.08551105 </v>
    <v>       0.75000000       0.09740234       0.91448895 </v>
    <v>       0.25000000       0.76157158       0.48949942 </v>
    <v>       0.75000000       0.23842842       0.51050058 </v>
    <v>       0.25000000       0.47083516       0.36768339 </v>
    <v>       0.75000000       0.52916484       0.63231661 </v>
   </varray>
  </structure>
  <varray name="forces" >
   <v>      -0.00000000      -0.04061116      -0.05804341 </v>
   <v>       0.00000000       0.04061116       0.05804341 </v>
   <v>       0.00000000       0.07265951      -0.07240679 </v>
   <v>       0.00000000      -0.07265951       0.07240679 </v>
   <v>       0.00000000      -0.09141712       0.03488256 </v>
   <v>       0.00000000       0.09141712      -0.03488256 </v>
   <v>       0.00000000      -0.05713638       0.00379399 </v>
   <v>       0.00000000       0.05713638      -0.00379399 </v>
   <v>       0.00000000       0.00025603      -0.05528357 </v>
   <v>      -0.00000000      -0.00025603       0.05528357 </v>
   <v>       0.00000000       0.06883167      -0.12253480 </v>
   <v>       0.00000000      -0.06883167       0.12253480 </v>
   <v>       0.00000000       0.08798620       0.01563467 </v>
   <v>       0.00000000      -0.08798620      -0.01563467 </v>
   <v>       0.00000000       0.00512233      -0.08740981 </v>
   <v>      -0.00000000      -0.00512233       0.08740981 </v>
   <v>       0.00000000      -0.03424199      -0.01679226 </v>
   <v>       0.00000000       0.03424199       0.01679226 </v>
   <v>       0.00000000       0.05487245       0.13625623 </v>
   <v>      -0.00000000      -0.05487245      -0.13625623 </v>
   <v>       0.00000000       0.00391026       0.02661236 </v>
   <v>       0.00000000      -0.00391026      -0.02661236 </v>
   <v>       0.00000000      -0.04302473       0.00687378 </v>
   <v>       0.00000000       0.04302473      -0.00687378 </v>
   <v>       0.00000000       0.01527344       0.09026753 </v>
   <v>       0.00000000      -0.01527344      -0.09026753 </v>
  </varray>
  <varray name="stress" >
   <v>      -0.76065363       0.00000000       0.00000000 </v>
   <v>       0.00000000      -1.96887912       1.00272988 </v>
   <v>       0.00000000       1.00273011      -3.43858301 </v>
  </varray>
  <energy>
   <i name="e_fr_energy">   -100.49158212 </i>
   <i name="e_wo_entrp">   -100.49158212 </i>
   <i name="e_0_energy">     -0.00000000 </i>
  </energy>
  <time name="totalsc">    9.52    9.72</time>
 </calculation>
 <calculation>
  <scstep>
   <time name="dav">    1.08    1.11</time>
   <time name="total">    1.38    1.44</time>
   <energy>
    <i name="alphaZ">    135.93692399 </i>
    <i name="ewald">  -4078.03260694 </i>
    <i name="hartreedc">   -909.87552819 </i>
    <i name="XCdc">  -1031.12482279 </i>
    <i name="pawpsdc">   6603.94347460 </i>
    <i name="pawaedc">  -5326.59243692 </i>
    <i name="eentropy">     -0.00000000 </i>
    <i name="bandstr">   -321.63333381 </i>
    <i name="atom">   4826.88019477 </i>
    <i name="e_fr_energy">   -100.49813528 </i>
    <i name="e_wo_entrp">   -100.49813528 </i>
    <i name="e_0_energy">   -100.49813528 </i>
   </energy>
  </scstep>
  <scstep>
   <time name="dav">    1.09    1.12</time>
   <time name="total">    1.38    1.40</time>
   <energy>
    <i name="e_fr_energy">   -100.49823821 </i>
    <i name="e_wo_entrp">   -100.49823821 </i>
    <i name="e_0_energy">   -100.49823821 </i>
   </energy>
  </scstep>
  <scstep>
   <time name="dav">    0.90    0.91</time>
   <time name="total">    1.18    1.19</time>
   <energy>
    <i name="e_fr_energy">   -100.49813574 </i>
    <i name="e_wo_entrp">   -100.49813574 </i>
    <i name="e_0_energy">   -100.49813574 </i>
   </energy>
  </scstep>
  <scstep>
   <time name="dav">    0.87    0.89</time>
   <time name="total">    1.12    1.14</time>
   <energy>
    <i name="alphaZ">    135.93692399 </i>
    <i name="ewald">  -4078.03260694 </i>
    <i name="hartreedc">   -909.13625111 </i>
    <i name="XCdc">  -1031.12477184 </i>
    <i name="pawpsdc">   6611.89734435 </i>
    <i name="pawaedc">  -5334.56211456 </i>
    <i name="eentropy">     -0.00000000 </i>
    <i name="bandstr">   -322.35682152 </i>
    <i name="atom">   4826.88019477 </i>
    <i name="e_fr_energy">   -100.49810286 </i>
    <i name="e_wo_entrp">   -100.49810286 </i>
    <i name="e_0_energy">   -100.49810286 </i>
   </energy>
  </scstep>
  <structure>
   <crystal>
    <varray name="basis" >
     <v>       4.19346271       0.00000000       0.00000000 </v>
     <v>       0.00000000      13.58406987      -0.51735681 </v>
     <v>       0.00000000       0.12084509      13.82087069 </v>
    </varray>
    <i name="volume">    787.55826825 </i>
    <varray name="rec_basis" >
     <v>       0.23846641       0.00000000       0.00000000 </v>
     <v>       0.00000000       0.07359113      -0.00064346 </v>
     <v>       0.00000000       0.00275474       0.07233026 </v>
    </varray>
   </crystal>
   <varray name="positions" >
    <v>       0.25000000       0.55117240       0.79751433 </v>
    <v>       0.75000000       0.44882760       0.20248567 </v>
    <v>       0.75000000       0.84540371       0.62131945 </v>
    <v>       0.25000000       0.15459629       0.37868055 </v>
    <v>       0.25000000       0.84339610       0.29589957 </v>
    <v>       0.75000000       0.15660390       0.70410043 </v>
    <v>       0.75000000       0.61372669       0.43992997 </v>
    <v>       0.25000000       0.38627331       0.56007003 </v>
    <v>       0.75000000       0.73078008       0.03057345 </v>
    <v>       0.25000000       0.26921992       0.96942655 </v>
    <v>       0.25000000       0.94130511       0.86344857 </v>
    <v>       0.75000000       0.05869489       0.13655143 </v>
    <v>       0.25000000       0.59515994       0.00426740 </v>
    <v>       0.75000000       0.40484006       0.99573260 </v>
    <v>       0.75000000       0.00020899       0.33311340 </v>
    <v>       0.25000000       0.99979101       0.66688660 </v>
    <v>       0.75000000       0.70041609       0.24316964 </v>
    <v>       0.25000000       0.29958391       0.75683036 </v>
    <v>       0.75000000       0.79413978       0.82696514 </v>
    <v>       0.25000000       0.20586022       0.17303486 </v>
    <v>       0.25000000       0.90257614       0.08557617 </v>
    <v>       0.75000000       0.09742386       0.91442383 </v>
    <v>       0.25000000       0.76137353       0.48959688 </v>
    <v>       0.75000000       0.23862647       0.51040312 </v>
    <v>       0.25000000       0.47091247       0.36788144 </v>
    <v>       0.75000000       0.52908753       0.63211856 </v>
   </varray>
  </structure>
  <varray name="forces" >
   <v>       0.00000000      -0.03902485      -0.05562055 </v>
   <v>      -0.00000000       0.03902485       0.05562055 </v>
   <v>       0.00000000       0.06537694      -0.07024292 </v>
   <v>       0.00000000      -0.06537694       0.07024292 </v>
   <v>       0.00000000      -0.08844137       0.03704399 </v>
   <v>       0.00000000       0.08844137      -0.03704399 </v>
   <v>       0.00000000      -0.05265274       0.00546794 </v>
   <v>       0.00000000       0.05265274      -0.00546794 </v>
   <v>       0.00000000      -0.00250223      -0.06280230 </v>
   <v>      -0.00000000       0.00250223       0.06280230 </v>
   <v>       0.00000000       0.06620960      -0.11530335 </v>
   <v>       0.00000000      -0.06620960       0.11530335 </v>
   <v>       0.00000000       0.09104740       0.01362974 </v>
   <v>       0.00000000      -0.09104740      -0.01362974 </v>
   <v>       0.00000000      -0.00001867      -0.07072945 </v>
   <v>       0.00000000       0.00001867       0.07072945 </v>
   <v>       0.00000000      -0.02675891       0.00018504 </v>
   <v>       0.00000000       0.02675891      -0.00018504 </v>
   <v>       0.00000000       0.05475801       0.13552496 </v>
   <v>       0.00000000      -0.05475801      -0.13552496 </v>
   <v>       0.00000000       0.01816926       0.02143371 </v>
   <v>       0.00000000      -0.01816926      -0.02143371 </v>
   <v>       0.00000000      -0.04745983       0.01922653 </v>
   <v>       0.00000000       0.04745983      -0.01922653 </v>
   <v>       0.00000000       0.01260030       0.08732537 </v>
   <v>       0.00000000      -0.01260030      -0.08732537 </v>
  </varray>
  <varray name="stress" >
   <v>      -0.45189706       0.00000000       0.00000000 </v>
   <v>       0.00000000      -1.57055324       0.92241815 </v>
   <v>       0.00000000       0.92241785      -3.08600709 </v>
  </varray>
  <energy>
   <i name="e_fr_energy">   -100.49810286 </i>
   <i name="e_wo_entrp">   -100.49810286 </i>
   <i name="e_0_energy">     -0.00000000 </i>
  </energy>
  <time name="totalsc">    6.65    6.89</time>
 </calculation>
 <calculation>
  <scstep>
   <time name="dav">    0.85    0.86</time>
   <time name="total">    1.15    1.20</time>
   <energy>
    <i name="alphaZ">    136.43248473 </i>
    <i name="ewald">  -4078.61211088 </i>
    <i name="hartreedc">   -914.25031991 </i>
    <i name="XCdc">  -1030.92747072 </i>
    <i name="pawpsdc">   6611.89591301 </i>
    <i name="pawaedc">  -5334.56470704 </i>
    <i name="eentropy">     -0.00000000 </i>
    <i name="bandstr">   -317.36445270 </i>
    <i name="atom">   4826.88019477 </i>
    <i name="e_fr_energy">   -100.51046874 </i>
    <i name="e_wo_entrp">   -100.51046874 </i>
    <i name="e_0_energy">   -100.51046874 </i>
   </energy>
  </scstep>
  <scstep>
   <time name="dav">    1.18    1.20</time>
   <time name="total">    1.47    1.48</time>
   <energy>
    <i name="e_fr_energy">   -100.51133869 </i>
    <i name="e_wo_entrp">   -100.51133869 </i>
    <i name="e_0_energy">   -100.51133869 </i>
   </energy>
  </scstep>
  <scstep>
   <time name="dav">    1.35    1.36</time>
   <time name="total">    1.64    1.65</time>
   <energy>
    <i name="e_fr_energy">   -100.51041615 </i>
    <i name="e_wo_entrp">   -100.51041615 </i>
    <i name="e_0_energy">   -100.51041615 </i>
   </energy>
  </scstep>
  <scstep>
   <time name="dav">    0.92    0.94</time>
   <time name="total">    1.20    1.22</time>
   <energy>
    <i name="e_fr_energy">   -100.51011499 </i>
    <i name="e_wo_entrp">   -100.51011499 </i>
    <i name="e_0_energy">   -100.51011499 </i>
   </energy>
  </scstep>
  <scstep>
   <time name="dav">    0.89    0.90</time>
   <time name="total">    1.14    1.15</time>
   <energy>
    <i name="alphaZ">    136.43248473 </i>
    <i name="ewald">  -4078.61211088 </i>
    <i name="hartreedc">   -911.89699900 </i>
    <i name="XCdc">  -1030.92227372 </i>
    <i name="pawpsdc">   6631.91702650 </i>
    <i name="pawaedc">  -5354.64030287 </i>
    <i name="eentropy">     -0.00000000 </i>
    <i name="bandstr">   -319.66808904 </i>
    <i name="atom">   4826.88019477 </i>
    <i name="e_fr_energy">   -100.51006951 </i>
    <i name="e_wo_entrp">   -100.51006951 </i>
    <i name="e_0_energy">   -100.51006951 </i>
   </energy>
  </scstep>
  <structure>
   <crystal>
    <varray name="basis" >
     <v>       4.19223997       0.00000000       0.00000000 </v>
     <v>       0.00000000      13.55378516      -0.50179391 </v>
     <v>       0.00000000       0.13580671      13.80503364 </v>
    </varray>
    <i name="volume">    784.69763752 </i>
    <varray name="rec_basis" >
     <v>       0.23853596       0.00000000       0.00000000 </v>
     <v>       0.00000000       0.07375327      -0.00072555 </v>
     <v>       0.00000000       0.00268083       0.07241097 </v>
    </varray>
   </crystal>
   <varray name="positions" >
    <v>       0.25000000       0.55088644       0.79706890 </v>
    <v>       0.75000000       0.44911356       0.20293110 </v>
    <v>       0.75000000       0.84597488       0.62076999 </v>
    <v>       0.25000000       0.15402512       0.37923001 </v>
    <v>       0.25000000       0.84287840       0.29579181 </v>
    <v>       0.75000000       0.15712160       0.70420819 </v>
    <v>       0.75000000       0.61356069       0.43965898 </v>
    <v>       0.25000000       0.38643931       0.56034102 </v>
    <v>       0.75000000       0.73133774       0.03025918 </v>
    <v>       0.25000000       0.26866226       0.96974082 </v>
    <v>       0.25000000       0.94203967       0.86281833 </v>
    <v>       0.75000000       0.05796033       0.13718167 </v>
    <v>       0.25000000       0.59535979       0.00430367 </v>
    <v>       0.75000000       0.40464021       0.99569633 </v>
    <v>       0.75000000       0.00005513       0.33312353 </v>
    <v>       0.25000000       0.99994487       0.66687647 </v>
    <v>       0.75000000       0.70020489       0.24311948 </v>
    <v>       0.25000000       0.29979511       0.75688052 </v>
    <v>       0.75000000       0.79428387       0.82773284 </v>
    <v>       0.25000000       0.20571613       0.17226716 </v>
    <v>       0.25000000       0.90251146       0.08577163 </v>
    <v>       0.75000000       0.09748854       0.91422837 </v>
    <v>       0.25000000       0.76077883       0.48988957 </v>
    <v>       0.75000000       0.23922117       0.51011043 </v>
    <v>       0.25000000       0.47114436       0.36847572 </v>
    <v>       0.75000000       0.52885564       0.63152428 </v>
   </varray>
  </structure>
  <varray name="forces" >
   <v>       0.00000000      -0.03486059      -0.03932173 </v>
   <v>       0.00000000       0.03486059       0.03932173 </v>
   <v>       0.00000000       0.05484884      -0.06302647 </v>
   <v>       0.00000000      -0.05484884       0.06302647 </v>
   <v>       0.00000000      -0.11548614       0.04735845 </v>
   <v>       0.00000000       0.11548614      -0.04735845 </v>
   <v>       0.00000000      -0.02749896       0.02053960 </v>
   <v>       0.00000000       0.02749896      -0.02053960 </v>
   <v>       0.00000000      -0.04747293      -0.02041943 </v>
   <v>       0.00000000       0.04747293       0.02041943 </v>
   <v>      -0.00000000       0.01594706      -0.03723144 </v>
   <v>       0.00000000      -0.01594706       0.03723144 </v>
   <v>      -0.00000000       0.04567509      -0.02673886 </v>
   <v>       0.00000000      -0.04567509       0.02673886 </v>
   <v>       0.00000000      -0.01911900      -0.02007481 </v>
   <v>       0.00000000       0.01911900       0.02007481 </v>
   <v>       0.00000000      -0.05286883      -0.00981201 </v>
   <v>      -0.00000000       0.05286883       0.00981201 </v>
   <v>       0.00000000       0.01902524      -0.03442449 </v>
   <v>      -0.00000000      -0.01902524       0.03442449 </v>
   <v>      -0.00000000       0.03222024      -0.01344136 </v>
   <v>       0.00000000      -0.03222024       0.01344136 </v>
   <v>       0.00000000      -0.01335949       0.05002464 </v>
   <v>      -0.00000000       0.01335949      -0.05002464 </v>
   <v>       0.00000000      -0.01332608       0.04394823 </v>
   <v>       0.00000000       0.01332608      -0.04394823 </v>
  </varray>
  <varray name="stress" >
   <v>       1.01403494       0.00000000       0.00000000 </v>
   <v>       0.00000000       0.89345939       0.56517353 </v>
   <v>       0.00000000       0.56517434      -0.14213723 </v>
  </varray>
  <energy>
   <i name="e_fr_energy">   -100.51006951 </i>
   <i name="e_wo_entrp">   -100.51006951 </i>
   <i name="e_0_energy">     -0.00000000 </i>
  </energy>
  <time name="totalsc">    8.11    8.37</time>
 </calculation>
 <calculation>
  <scstep>
   <time name="dav">    0.94    0.97</time>
   <time name="total">    1.23    1.29</time>
   <energy>
    <i name="alphaZ">    136.62038398 </i>
    <i name="ewald">  -4078.80716809 </i>
    <i name="hartreedc">   -913.84942225 </i>
    <i name="XCdc">  -1030.84849188 </i>
    <i name="pawpsdc">   6630.87793804 </i>
    <i name="pawaedc">  -5353.60202370 </i>
    <i name="eentropy">     -0.00000000 </i>
    <i name="bandstr">   -317.78253321 </i>
    <i name="atom">   4826.88019477 </i>
    <i name="e_fr_energy">   -100.51112235 </i>
    <i name="e_wo_entrp">   -100.51112235 </i>
    <i name="e_0_energy">   -100.51112235 </i>
   </energy>
  </scstep>
  <scstep>
   <time name="dav">    0.85    0.87</time>
   <time name="total">    1.12    1.14</time>
   <energy>
    <i name="e_fr_energy">   -100.51126660 </i>
    <i name="e_wo_entrp">   -100.51126660 </i>
    <i name="e_0_energy">   -100.51126660 </i>
   </energy>
  </scstep>
  <scstep>
   <time name="dav">    0.97    0.97</time>
   <time name="total">    1.25    1.25</time>
   <energy>
    <i name="e_fr_energy">   -100.51113937 </i>
    <i name="e_wo_entrp">   -100.51113937 </i>
    <i name="e_0_energy">   -100.51113937 </i>
   </energy>
  </scstep>
  <scstep>
   <time name="dav">    0.65    0.65</time>
   <time name="total">    0.89    0.89</time>
   <energy>
    <i name="alphaZ">    136.62038398 </i>
    <i name="ewald">  -4078.80716809 </i>
    <i name="hartreedc">   -913.03011859 </i>
    <i name="XCdc">  -1030.85123439 </i>
    <i name="pawpsdc">   6638.38685336 </i>
    <i name="pawaedc">  -5361.12506069 </i>
    <i name="eentropy">     -0.00000000 </i>
    <i name="bandstr">   -318.58495123 </i>
    <i name="atom">   4826.88019477 </i>
    <i name="e_fr_energy">   -100.51110089 </i>
    <i name="e_wo_entrp">   -100.51110089 </i>
    <i name="e_0_energy">   -100.51110089 </i>
   </energy>
  </scstep>
  <structure>
   <crystal>
    <varray name="basis" >
     <v>       4.19177826       0.00000000       0.00000000 </v>
     <v>       0.00000000      13.54234979      -0.49591742 </v>
     <v>       0.00000000       0.14145616      13.79905364 </v>
    </varray>
    <i name="volume">    783.61841279 </i>
    <varray name="rec_basis" >
     <v>       0.23856224       0.00000000       0.00000000 </v>
     <v>       0.00000000       0.07381472      -0.00075669 </v>
     <v>       0.00000000       0.00265279       0.07244154 </v>
    </varray>
   </crystal>
   <varray name="positions" >
    <v>       0.25000000       0.55077840       0.79690063 </v>
    <v>       0.75000000       0.44922160       0.20309937 </v>
    <v>       0.75000000       0.84619126       0.62056206 </v>
    <v>       0.25000000       0.15380874       0.37943794 </v>
    <v>       0.25000000       0.84268253       0.29575128 </v>
    <v>       0.75000000       0.15731747       0.70424872 </v>
    <v>       0.75000000       0.61349798       0.43955661 </v>
    <v>       0.25000000       0.38650202       0.56044339 </v>
    <v>       0.75000000       0.73154892       0.03014015 </v>
    <v>       0.25000000       0.26845108       0.96985985 </v>
    <v>       0.25000000       0.94231792       0.86257981 </v>
    <v>       0.75000000       0.05768208       0.13742019 </v>
    <v>       0.25000000       0.59543541       0.00431730 </v>
    <v>       0.75000000       0.40456459       0.99568270 </v>
    <v>       0.75000000      -0.00000311       0.33312742 </v>
    <v>       0.25000000       0.00000311       0.66687258 </v>
    <v>       0.75000000       0.70012499       0.24310060 </v>
    <v>       0.25000000       0.29987501       0.75689940 </v>
    <v>       0.75000000       0.79433807       0.82802298 </v>
    <v>       0.25000000       0.20566193       0.17197702 </v>
    <v>       0.25000000       0.90248690       0.08584554 </v>
    <v>       0.75000000       0.09751310       0.91415446 </v>
    <v>       0.25000000       0.76055364       0.49000045 </v>
    <v>       0.75000000       0.23944636       0.50999955 </v>
    <v>       0.25000000       0.47123187       0.36870027 </v>
    <v>       0.75000000       0.52876813       0.63129973 </v>
   </varray>
  </structure>
  <varray name="forces" >
   <v>      -0.00000000      -0.03320650      -0.03318406 </v>
   <v>      -0.00000000       0.03320650       0.03318406 </v>
   <v>      -0.00000000       0.05106410      -0.06061560 </v>
   <v>      -0.00000000      -0.05106410       0.06061560 </v>
   <v>       0.00000000      -0.12221167       0.05558318 </v>
   <v>      -0.00000000       0.12221167      -0.05558318 </v>
   <v>      -0.00000000      -0.01115889       0.01308490 </v>
   <v>       0.00000000       0.01115889      -0.01308490 </v>
   <v>      -0.00000000      -0.07722070      -0.01278796 </v>
   <v>       0.00000000       0.07722070       0.01278796 </v>
   <v>       0.00000000       0.01636810      -0.02688950 </v>
   <v>      -0.00000000      -0.01636810       0.02688950 </v>
   <v>      -0.00000000       0.04978209      -0.02719578 </v>
   <v>      -0.00000000      -0.04978209       0.02719578 </v>
   <v>      -0.00000000      -0.00324901       0.01703387 </v>
   <v>      -0.00000000       0.00324901      -0.01703387 </v>
   <v>      -0.00000000      -0.06337199      -0.01369942 </v>
   <v>      -0.00000000       0.06337199       0.01369942 </v>
   <v>      -0.00000000      -0.01555138      -0.05118900 </v>
   <v>      -0.00000000       0.01555138       0.05118900 </v>
   <v>      -0.00000000       0.02898358      -0.00722142 </v>
   <v>      -0.00000000      -0.02898358       0.00722142 </v>
   <v>      -0.00000000       0.01727559       0.02614877 </v>
   <v>      -0.00000000      -0.01727559      -0.02614877 </v>
   <v>      -0.00000000      -0.00927828       0.00912945 </v>
   <v>       0.00000000       0.00927828      -0.00912945 </v>
  </varray>
  <varray name="stress" >
   <v>       1.55871278       0.00000000       0.00000000 </v>
   <v>       0.00000000       1.87162799       0.44970248 </v>
   <v>       0.00000000       0.44970136       0.95060443 </v>
  </varray>
  <energy>
   <i name="e_fr_energy">   -100.51110089 </i>
   <i name="e_wo_entrp">   -100.51110089 </i>
   <i name="e_0_energy">     -0.00000000 </i>
  </energy>
  <time name="totalsc">    5.91    6.13</time>
 </calculation>
 <calculation>
  <scstep>
   <time name="dav">    0.82    0.82</time>
   <time name="total">    1.11    1.14</time>
   <energy>
    <i name="alphaZ">    136.40604674 </i>
    <i name="ewald">  -4076.25228149 </i>
    <i name="hartreedc">   -912.78217254 </i>
    <i name="XCdc">  -1030.90304534 </i>
    <i name="pawpsdc">   6638.14718088 </i>
    <i name="pawaedc">  -5360.88912353 </i>
    <i name="eentropy">     -0.00000000 </i>
    <i name="bandstr">   -321.12329385 </i>
    <i name="atom">   4826.88019477 </i>
    <i name="e_fr_energy">   -100.51649436 </i>
    <i name="e_wo_entrp">   -100.51649436 </i>
    <i name="e_0_energy">   -100.51649436 </i>
   </energy>
  </scstep>
  <scstep>
   <time name="dav">    1.10    1.12</time>
   <time name="total">    1.39    1.41</time>
   <energy>
    <i name="e_fr_energy">   -100.51620933 </i>
    <i name="e_wo_entrp">   -100.51620933 </i>
    <i name="e_0_energy">   -100.51620933 </i>
   </energy>
  </scstep>
  <scstep>
   <time name="dav">    0.75    0.76</time>
   <time name="total">    1.03    1.04</time>
   <energy>
    <i name="e_fr_energy">   -100.51592912 </i>
    <i name="e_wo_entrp">   -100.51592912 </i>
    <i name="e_0_energy">   -100.51592912 </i>
   </energy>
  </scstep>
  <scstep>
   <time name="dav">    0.73    0.73</time>
   <time name="total">    0.98    0.98</time>
   <energy>
    <i name="alphaZ">    136.40604674 </i>
    <i name="ewald">  -4076.25228149 </i>
    <i name="hartreedc">   -913.94256863 </i>
    <i name="XCdc">  -1030.90414754 </i>
    <i name="pawpsdc">   6629.67351096 </i>
    <i name="pawaedc">  -5352.40496662 </i>
    <i name="eentropy">     -0.00000000 </i>
    <i name="bandstr">   -319.97162770 </i>
    <i name="atom">   4826.88019477 </i>
    <i name="e_fr_energy">   -100.51583951 </i>
    <i name="e_wo_entrp">   -100.51583951 </i>
    <i name="e_0_energy">   -100.51583951 </i>
   </energy>
  </scstep>
  <structure>
   <crystal>
    <varray name="basis" >
     <v>       4.19530164       0.00000000       0.00000000 </v>
     <v>       0.00000000      13.54873649      -0.48823613 </v>
     <v>       0.00000000       0.14947284      13.80241479 </v>
    </varray>
    <i name="volume">    784.84972627 </i>
    <varray name="rec_basis" >
     <v>       0.23836188       0.00000000       0.00000000 </v>
     <v>       0.00000000       0.07377883      -0.00079899 </v>
     <v>       0.00000000       0.00260980       0.07242283 </v>
    </varray>
   </crystal>
   <varray name="positions" >
    <v>       0.25000000       0.55062152       0.79669678 </v>
    <v>       0.75000000       0.44937848       0.20330322 </v>
    <v>       0.75000000       0.84647280       0.62027304 </v>
    <v>       0.25000000       0.15352720       0.37972696 </v>
    <v>       0.25000000       0.84225124       0.29583760 </v>
    <v>       0.75000000       0.15774876       0.70416240 </v>
    <v>       0.75000000       0.61342500       0.43950918 </v>
    <v>       0.25000000       0.38657500       0.56049082 </v>
    <v>       0.75000000       0.73152745       0.03001574 </v>
    <v>       0.25000000       0.26847255       0.96998426 </v>
    <v>       0.25000000       0.94256424       0.86234193 </v>
    <v>       0.75000000       0.05743576       0.13765807 </v>
    <v>       0.25000000       0.59560809       0.00426961 </v>
    <v>       0.75000000       0.40439191       0.99573039 </v>
    <v>       0.75000000      -0.00005451       0.33316890 </v>
    <v>       0.25000000       0.00005451       0.66683110 </v>
    <v>       0.75000000       0.69991852       0.24305003 </v>
    <v>       0.25000000       0.30008148       0.75694997 </v>
    <v>       0.75000000       0.79434352       0.82812135 </v>
    <v>       0.25000000       0.20565648       0.17187865 </v>
    <v>       0.25000000       0.90253604       0.08588662 </v>
    <v>       0.75000000       0.09746396       0.91411338 </v>
    <v>       0.25000000       0.76042511       0.49014424 </v>
    <v>       0.75000000       0.23957489       0.50985576 </v>
    <v>       0.25000000       0.47127531       0.36888773 </v>
    <v>       0.75000000       0.52872469       0.63111227 </v>
   </varray>
  </structure>
  <varray name="forces" >
   <v>       0.00000000      -0.02839018      -0.02582933 </v>
   <v>       0.00000000       0.02839018       0.02582933 </v>
   <v>       0.00000000       0.05092330      -0.05631744 </v>
   <v>      -0.00000000      -0.05092330       0.05631744 </v>
   <v>      -0.00000000      -0.11130814       0.04240418 </v>
   <v>       0.00000000       0.11130814      -0.04240418 </v>
   <v>       0.00000000      -0.00484035       0.01824989 </v>
   <v>      -0.00000000       0.00484035      -0.01824989 </v>
   <v>       0.00000000      -0.05427531      -0.01060925 </v>
   <v>       0.00000000       0.05427531       0.01060925 </v>
   <v>       0.00000000       0.01280686      -0.00985101 </v>
   <v>       0.00000000      -0.01280686       0.00985101 </v>
   <v>       0.00000000       0.03953682       0.01910274 </v>
   <v>       0.00000000      -0.03953682      -0.01910274 </v>
   <v>       0.00000000      -0.05536820       0.00869093 </v>
   <v>       0.00000000       0.05536820      -0.00869093 </v>
   <v>       0.00000000      -0.04147810      -0.00383686 </v>
   <v>       0.00000000       0.04147810       0.00383686 </v>
   <v>       0.00000000      -0.03372062      -0.07437331 </v>
   <v>       0.00000000       0.03372062       0.07437331 </v>
   <v>       0.00000000       0.02082162       0.00817423 </v>
   <v>       0.00000000      -0.02082162      -0.00817423 </v>
   <v>       0.00000000      -0.00603535      -0.01807808 </v>
   <v>       0.00000000       0.00603535       0.01807808 </v>
   <v>       0.00000000       0.00395471      -0.01003905 </v>
   <v>       0.00000000      -0.00395471       0.01003905 </v>
  </varray>
  <varray name="stress" >
   <v>       0.85161822       0.00000000       0.00000000 </v>
   <v>       0.00000000       1.16857833      -0.02179495 </v>
   <v>       0.00000000      -0.02179472       0.57945067 </v>
  </varray>
  <energy>
   <i name="e_fr_energy">   -100.51583951 </i>
   <i name="e_wo_entrp">   -100.51583951 </i>
   <i name="e_0_energy">     -0.00000000 </i>
  </energy>
  <time name="totalsc">    6.13    6.28</time>
 </calculation>
 <calculation>
  <scstep>
   <time name="dav">    1.09    1.12</time>
   <time name="total">    1.38    1.45</time>
   <energy>
    <i name="alphaZ">    135.93355612 </i>
    <i name="ewald">  -4070.56644014 </i>
    <i name="hartreedc">   -913.69123502 </i>
    <i name="XCdc">  -1031.02751627 </i>
    <i name="pawpsdc">   6630.19731200 </i>
    <i name="pawaedc">  -5352.92527248 </i>
    <i name="eentropy">     -0.00000000 </i>
    <i name="bandstr">   -325.32486528 </i>
    <i name="atom">   4826.88019477 </i>
    <i name="e_fr_energy">   -100.52426630 </i>
    <i name="e_wo_entrp">   -100.52426630 </i>
    <i name="e_0_energy">   -100.52426630 </i>
   </energy>
  </scstep>
  <scstep>
   <time name="dav">    1.32    1.36</time>
   <time name="total">    1.61    1.65</time>
   <energy>
    <i name="e_fr_energy">   -100.52290632 </i>
    <i name="e_wo_entrp">   -100.52290632 </i>
    <i name="e_0_energy">   -100.52290632 </i>
   </energy>
  </scstep>
  <scstep>
   <time name="dav">    1.30    1.34</time>
   <time name="total">    1.58    1.62</time>
   <energy>
    <i name="e_fr_energy">   -100.52157304 </i>
    <i name="e_wo_entrp">   -100.52157304 </i>
    <i name="e_0_energy">   -100.52157304 </i>
   </energy>
  </scstep>
  <scstep>
   <time name="dav">    1.30    1.34</time>
   <time name="total">    1.59    1.64</time>
   <energy>
    <i name="e_fr_energy">   -100.52116147 </i>
    <i name="e_wo_entrp">   -100.52116147 </i>
    <i name="e_0_energy">   -100.52116147 </i>
   </energy>
  </scstep>
  <scstep>
   <time name="dav">    0.72    0.74</time>
   <time name="total">    0.97    0.99</time>
   <energy>
    <i name="alphaZ">    135.93355612 </i>
    <i name="ewald">  -4070.56644014 </i>
    <i name="hartreedc">   -916.41844745 </i>
    <i name="XCdc">  -1031.03041606 </i>
    <i name="pawpsdc">   6618.40077815 </i>
    <i name="pawaedc">  -5341.10414423 </i>
    <i name="eentropy">     -0.00000000 </i>
    <i name="bandstr">   -322.61619207 </i>
    <i name="atom">   4826.88019477 </i>
    <i name="e_fr_energy">   -100.52111091 </i>
    <i name="e_wo_entrp">   -100.52111091 </i>
    <i name="e_0_energy">   -100.52111091 </i>
   </energy>
  </scstep>
  <structure>
   <crystal>
    <varray name="basis" >
     <v>       4.20310155       0.00000000       0.00000000 </v>
     <v>       0.00000000      13.56287512      -0.47123160 </v>
     <v>       0.00000000       0.16721986      13.80985556 </v>
    </varray>
    <i name="volume">    787.57778065 </i>
    <varray name="rec_basis" >
     <v>       0.23791954       0.00000000       0.00000000 </v>
     <v>       0.00000000       0.07369967      -0.00089241 </v>
     <v>       0.00000000       0.00251484       0.07238160 </v>
    </varray>
   </crystal>
   <varray name="positions" >
    <v>       0.25000000       0.55027466       0.79624581 </v>
    <v>       0.75000000       0.44972534       0.20375419 </v>
    <v>       0.75000000       0.84709615       0.61963302 </v>
[...]
        <r>  0.0018  0.0016  0.0000 </r>
        <r>  0.0007  0.0558  0.0004 </r>
        <r>  0.0007  0.0558  0.0004 </r>
        <r>  0.0002  0.0332  0.0008 </r>
        <r>  0.0002  0.0332  0.0008 </r>
        <r>  0.0005  0.0470  0.0018 </r>
        <r>  0.0005  0.0470  0.0018 </r>
        <r>  0.0005  0.0483  0.0023 </r>
        <r>  0.0005  0.0483  0.0023 </r>
        <r>  0.0014  0.0086  0.0010 </r>
        <r>  0.0014  0.0086  0.0010 </r>
        <r>  0.0026  0.0191  0.0012 </r>
        <r>  0.0026  0.0191  0.0012 </r>
        <r>  0.0028  0.0034  0.0014 </r>
        <r>  0.0028  0.0034  0.0014 </r>
        <r>  0.0019  0.0156  0.0012 </r>
        <r>  0.0019  0.0156  0.0012 </r>
        <r>  0.0041  0.0029  0.0027 </r>
        <r>  0.0041  0.0029  0.0027 </r>
        <r>  0.0062  0.0196  0.0010 </r>
        <r>  0.0062  0.0196  0.0010 </r>
        <r>  0.0001  0.0062  0.0012 </r>
        <r>  0.0001  0.0062  0.0012 </r>
       </set>
       <set comment="band 70">
        <r>  0.0013  0.0012  0.0000 </r>
        <r>  0.0013  0.0012  0.0000 </r>
        <r>  0.0008  0.0006  0.0000 </r>
        <r>  0.0008  0.0006  0.0000 </r>
        <r>  0.0004  0.0357  0.0007 </r>
        <r>  0.0004  0.0357  0.0007 </r>
        <r>  0.0003  0.0255  0.0006 </r>
        <r>  0.0003  0.0255  0.0006 </r>
        <r>  0.0000  0.0190  0.0035 </r>
        <r>  0.0000  0.0190  0.0035 </r>
        <r>  0.0009  0.0874  0.0004 </r>
        <r>  0.0009  0.0874  0.0004 </r>
        <r>  0.0001  0.0138  0.0008 </r>
        <r>  0.0001  0.0138  0.0008 </r>
        <r>  0.0055  0.0095  0.0006 </r>
        <r>  0.0055  0.0095  0.0006 </r>
        <r>  0.0016  0.0116  0.0009 </r>
        <r>  0.0016  0.0116  0.0009 </r>
        <r>  0.0026  0.0261  0.0024 </r>
        <r>  0.0026  0.0261  0.0024 </r>
        <r>  0.0024  0.0067  0.0033 </r>
        <r>  0.0024  0.0067  0.0033 </r>
        <r>  0.0006  0.0068  0.0014 </r>
        <r>  0.0006  0.0068  0.0014 </r>
        <r>  0.0021  0.0102  0.0009 </r>
        <r>  0.0021  0.0102  0.0009 </r>
       </set>
       <set comment="band 71">
        <r>  0.0004  0.0009  0.0000 </r>
        <r>  0.0004  0.0009  0.0000 </r>
        <r>  0.0026  0.0004  0.0000 </r>
        <r>  0.0026  0.0004  0.0000 </r>
        <r>  0.0001  0.0427  0.0010 </r>
        <r>  0.0001  0.0427  0.0010 </r>
        <r>  0.0001  0.0254  0.0002 </r>
        <r>  0.0001  0.0254  0.0002 </r>
        <r>  0.0020  0.0615  0.0020 </r>
        <r>  0.0020  0.0615  0.0020 </r>
        <r>  0.0007  0.0666  0.0019 </r>
        <r>  0.0007  0.0666  0.0019 </r>
        <r>  0.0028  0.0163  0.0017 </r>
        <r>  0.0028  0.0163  0.0017 </r>
        <r>  0.0007  0.0067  0.0015 </r>
        <r>  0.0007  0.0067  0.0015 </r>
        <r>  0.0010  0.0107  0.0011 </r>
        <r>  0.0010  0.0107  0.0011 </r>
        <r>  0.0019  0.0228  0.0019 </r>
        <r>  0.0019  0.0228  0.0019 </r>
        <r>  0.0004  0.0018  0.0043 </r>
        <r>  0.0004  0.0018  0.0043 </r>
        <r>  0.0017  0.0143  0.0010 </r>
        <r>  0.0017  0.0143  0.0010 </r>
        <r>  0.0005  0.0094  0.0008 </r>
        <r>  0.0005  0.0094  0.0008 </r>
       </set>
       <set comment="band 72">
        <r>  0.0003  0.0003  0.0000 </r>
        <r>  0.0003  0.0003  0.0000 </r>
        <r>  0.0023  0.0012  0.0000 </r>
        <r>  0.0023  0.0012  0.0000 </r>
        <r>  0.0005  0.0204  0.0005 </r>
        <r>  0.0005  0.0204  0.0005 </r>
        <r>  0.0002  0.0887  0.0007 </r>
        <r>  0.0002  0.0887  0.0007 </r>
        <r>  0.0010  0.0155  0.0018 </r>
        <r>  0.0010  0.0155  0.0018 </r>
        <r>  0.0001  0.0429  0.0010 </r>
        <r>  0.0001  0.0429  0.0010 </r>
        <r>  0.0001  0.0098  0.0005 </r>
        <r>  0.0001  0.0098  0.0005 </r>
        <r>  0.0016  0.0120  0.0013 </r>
        <r>  0.0016  0.0120  0.0013 </r>
        <r>  0.0002  0.0055  0.0011 </r>
        <r>  0.0002  0.0055  0.0011 </r>
        <r>  0.0017  0.0190  0.0006 </r>
        <r>  0.0017  0.0190  0.0006 </r>
        <r>  0.0016  0.0082  0.0016 </r>
        <r>  0.0016  0.0082  0.0016 </r>
        <r>  0.0061  0.0277  0.0020 </r>
        <r>  0.0061  0.0277  0.0020 </r>
        <r>  0.0037  0.0222  0.0021 </r>
        <r>  0.0037  0.0222  0.0021 </r>
       </set>
       <set comment="band 73">
        <r>  0.0006  0.0013  0.0000 </r>
        <r>  0.0006  0.0013  0.0000 </r>
        <r>  0.0021  0.0019  0.0000 </r>
        <r>  0.0021  0.0019  0.0000 </r>
        <r>  0.0005  0.0955  0.0004 </r>
        <r>  0.0005  0.0955  0.0004 </r>
        <r>  0.0001  0.0229  0.0003 </r>
        <r>  0.0001  0.0229  0.0003 </r>
        <r>  0.0009  0.0370  0.0012 </r>
        <r>  0.0009  0.0370  0.0012 </r>
        <r>  0.0018  0.0197  0.0008 </r>
        <r>  0.0018  0.0197  0.0008 </r>
        <r>  0.0022  0.0142  0.0011 </r>
        <r>  0.0022  0.0142  0.0011 </r>
        <r>  0.0039  0.0299  0.0027 </r>
        <r>  0.0039  0.0299  0.0027 </r>
        <r>  0.0039  0.0250  0.0023 </r>
        <r>  0.0039  0.0250  0.0023 </r>
        <r>  0.0001  0.0052  0.0008 </r>
        <r>  0.0001  0.0052  0.0008 </r>
        <r>  0.0004  0.0030  0.0022 </r>
        <r>  0.0004  0.0030  0.0022 </r>
        <r>  0.0010  0.0081  0.0013 </r>
        <r>  0.0010  0.0081  0.0013 </r>
        <r>  0.0004  0.0085  0.0009 </r>
        <r>  0.0004  0.0085  0.0009 </r>
       </set>
       <set comment="band 74">
        <r>  0.0002  0.0004  0.0000 </r>
        <r>  0.0002  0.0004  0.0000 </r>
        <r>  0.0009  0.0006  0.0000 </r>
        <r>  0.0009  0.0006  0.0000 </r>
        <r>  0.0006  0.0438  0.0004 </r>
        <r>  0.0006  0.0438  0.0004 </r>
        <r>  0.0003  0.0522  0.0004 </r>
        <r>  0.0003  0.0522  0.0004 </r>
        <r>  0.0014  0.0270  0.0035 </r>
        <r>  0.0014  0.0270  0.0035 </r>
        <r>  0.0008  0.0685  0.0015 </r>
        <r>  0.0008  0.0685  0.0015 </r>
        <r>  0.0001  0.0162  0.0003 </r>
        <r>  0.0001  0.0162  0.0003 </r>
        <r>  0.0003  0.0107  0.0011 </r>
        <r>  0.0003  0.0107  0.0011 </r>
        <r>  0.0003  0.0094  0.0019 </r>
        <r>  0.0003  0.0094  0.0019 </r>
        <r>  0.0013  0.0348  0.0016 </r>
        <r>  0.0013  0.0348  0.0016 </r>
        <r>  0.0006  0.0060  0.0040 </r>
        <r>  0.0006  0.0060  0.0040 </r>
        <r>  0.0002  0.0162  0.0020 </r>
        <r>  0.0002  0.0162  0.0020 </r>
        <r>  0.0012  0.0168  0.0012 </r>
        <r>  0.0012  0.0168  0.0012 </r>
       </set>
       <set comment="band 75">
        <r>  0.0003  0.0015  0.0000 </r>
        <r>  0.0003  0.0015  0.0000 </r>
        <r>  0.0031  0.0007  0.0000 </r>
        <r>  0.0031  0.0007  0.0000 </r>
        <r>  0.0005  0.0521  0.0004 </r>
        <r>  0.0005  0.0521  0.0004 </r>
        <r>  0.0001  0.0923  0.0003 </r>
        <r>  0.0001  0.0923  0.0003 </r>
        <r>  0.0009  0.0084  0.0014 </r>
        <r>  0.0009  0.0084  0.0014 </r>
        <r>  0.0001  0.0293  0.0009 </r>
        <r>  0.0001  0.0293  0.0009 </r>
        <r>  0.0002  0.0075  0.0001 </r>
        <r>  0.0002  0.0075  0.0001 </r>
        <r>  0.0003  0.0138  0.0021 </r>
        <r>  0.0003  0.0138  0.0021 </r>
        <r>  0.0026  0.0154  0.0013 </r>
        <r>  0.0026  0.0154  0.0013 </r>
        <r>  0.0005  0.0134  0.0007 </r>
        <r>  0.0005  0.0134  0.0007 </r>
        <r>  0.0007  0.0031  0.0011 </r>
        <r>  0.0007  0.0031  0.0011 </r>
        <r>  0.0019  0.0208  0.0028 </r>
        <r>  0.0019  0.0208  0.0028 </r>
        <r>  0.0029  0.0295  0.0028 </r>
        <r>  0.0029  0.0295  0.0028 </r>
       </set>
       <set comment="band 76">
        <r>  0.0048  0.0003  0.0000 </r>
        <r>  0.0048  0.0003  0.0000 </r>
        <r>  0.0025  0.0005  0.0000 </r>
        <r>  0.0025  0.0005  0.0000 </r>
        <r>  0.0000  0.0350  0.0003 </r>
        <r>  0.0000  0.0350  0.0003 </r>
        <r>  0.0006  0.0259  0.0006 </r>
        <r>  0.0006  0.0259  0.0006 </r>
        <r>  0.0048  0.0333  0.0031 </r>
        <r>  0.0048  0.0333  0.0031 </r>
        <r>  0.0004  0.0755  0.0009 </r>
        <r>  0.0004  0.0755  0.0009 </r>
        <r>  0.0005  0.0381  0.0008 </r>
        <r>  0.0005  0.0381  0.0008 </r>
        <r>  0.0019  0.0087  0.0013 </r>
        <r>  0.0019  0.0087  0.0013 </r>
        <r>  0.0003  0.0144  0.0018 </r>
        <r>  0.0003  0.0144  0.0018 </r>
        <r>  0.0002  0.0215  0.0027 </r>
        <r>  0.0002  0.0215  0.0027 </r>
        <r>  0.0007  0.0092  0.0033 </r>
        <r>  0.0007  0.0092  0.0033 </r>
        <r>  0.0000  0.0068  0.0010 </r>
        <r>  0.0000  0.0068  0.0010 </r>
        <r>  0.0005  0.0068  0.0014 </r>
        <r>  0.0005  0.0068  0.0014 </r>
       </set>
       <set comment="band 77">
        <r>  0.0081  0.0007  0.0000 </r>
        <r>  0.0081  0.0007  0.0000 </r>
        <r>  0.0035  0.0019  0.0000 </r>
        <r>  0.0035  0.0019  0.0000 </r>
        <r>  0.0002  0.0349  0.0003 </r>
        <r>  0.0002  0.0349  0.0003 </r>
        <r>  0.0002  0.0815  0.0012 </r>
        <r>  0.0002  0.0815  0.0012 </r>
        <r>  0.0016  0.0204  0.0028 </r>
        <r>  0.0016  0.0204  0.0028 </r>
        <r>  0.0005  0.0325  0.0005 </r>
        <r>  0.0005  0.0325  0.0005 </r>
        <r>  0.0005  0.0216  0.0003 </r>
        <r>  0.0005  0.0216  0.0003 </r>
        <r>  0.0010  0.0129  0.0015 </r>
        <r>  0.0010  0.0129  0.0015 </r>
        <r>  0.0019  0.0137  0.0017 </r>
        <r>  0.0019  0.0137  0.0017 </r>
        <r>  0.0009  0.0081  0.0011 </r>
        <r>  0.0009  0.0081  0.0011 </r>
        <r>  0.0001  0.0027  0.0019 </r>
        <r>  0.0001  0.0027  0.0019 </r>
        <r>  0.0009  0.0259  0.0026 </r>
        <r>  0.0009  0.0259  0.0026 </r>
        <r>  0.0008  0.0132  0.0040 </r>
        <r>  0.0008  0.0132  0.0040 </r>
       </set>
       <set comment="band 78">
        <r>  0.0045  0.0017  0.0000 </r>
        <r>  0.0045  0.0017  0.0000 </r>
        <r>  0.0050  0.0014  0.0000 </r>
        <r>  0.0050  0.0014  0.0000 </r>
        <r>  0.0001  0.0488  0.0004 </r>
        <r>  0.0001  0.0488  0.0004 </r>
        <r>  0.0000  0.0938  0.0005 </r>
        <r>  0.0000  0.0938  0.0005 </r>
        <r>  0.0002  0.0108  0.0004 </r>
        <r>  0.0002  0.0108  0.0004 </r>
        <r>  0.0000  0.0068  0.0009 </r>
        <r>  0.0000  0.0068  0.0009 </r>
        <r>  0.0009  0.0035  0.0002 </r>
        <r>  0.0009  0.0035  0.0002 </r>
        <r>  0.0010  0.0151  0.0012 </r>
        <r>  0.0010  0.0151  0.0012 </r>
        <r>  0.0010  0.0182  0.0028 </r>
        <r>  0.0010  0.0182  0.0028 </r>
        <r>  0.0007  0.0044  0.0005 </r>
        <r>  0.0007  0.0044  0.0005 </r>
        <r>  0.0000  0.0045  0.0002 </r>
        <r>  0.0000  0.0045  0.0002 </r>
        <r>  0.0020  0.0238  0.0035 </r>
        <r>  0.0020  0.0238  0.0035 </r>
        <r>  0.0032  0.0356  0.0040 </r>
        <r>  0.0032  0.0356  0.0040 </r>
       </set>
       <set comment="band 79">
        <r>  0.0014  0.0004  0.0000 </r>
        <r>  0.0014  0.0004  0.0000 </r>
        <r>  0.0012  0.0034  0.0000 </r>
        <r>  0.0012  0.0034  0.0000 </r>
        <r>  0.0002  0.1447  0.0006 </r>
        <r>  0.0002  0.1447  0.0006 </r>
        <r>  0.0001  0.0266  0.0003 </r>
        <r>  0.0001  0.0266  0.0003 </r>
        <r>  0.0005  0.0106  0.0013 </r>
        <r>  0.0005  0.0106  0.0013 </r>
        <r>  0.0001  0.0079  0.0004 </r>
        <r>  0.0001  0.0079  0.0004 </r>
        <r>  0.0010  0.0091  0.0007 </r>
        <r>  0.0010  0.0091  0.0007 </r>
        <r>  0.0015  0.0246  0.0046 </r>
        <r>  0.0015  0.0246  0.0046 </r>
        <r>  0.0002  0.0411  0.0051 </r>
        <r>  0.0002  0.0411  0.0051 </r>
        <r>  0.0001  0.0034  0.0003 </r>
        <r>  0.0001  0.0034  0.0003 </r>
        <r>  0.0000  0.0039  0.0006 </r>
        <r>  0.0000  0.0039  0.0006 </r>
        <r>  0.0007  0.0129  0.0014 </r>
        <r>  0.0007  0.0129  0.0014 </r>
        <r>  0.0012  0.0067  0.0006 </r>
        <r>  0.0012  0.0067  0.0006 </r>
       </set>
       <set comment="band 80">
        <r>  0.0023  0.0012  0.0000 </r>
        <r>  0.0023  0.0012  0.0000 </r>
        <r>  0.0008  0.0014  0.0000 </r>
        <r>  0.0008  0.0014  0.0000 </r>
        <r>  0.0001  0.0838  0.0006 </r>
        <r>  0.0001  0.0838  0.0006 </r>
        <r>  0.0001  0.0769  0.0012 </r>
        <r>  0.0001  0.0769  0.0012 </r>
        <r>  0.0005  0.0131  0.0012 </r>
        <r>  0.0005  0.0131  0.0012 </r>
        <r>  0.0004  0.0160  0.0003 </r>
        <r>  0.0004  0.0160  0.0003 </r>
        <r>  0.0012  0.0104  0.0001 </r>
        <r>  0.0012  0.0104  0.0001 </r>
        <r>  0.0002  0.0159  0.0027 </r>
        <r>  0.0002  0.0159  0.0027 </r>
        <r>  0.0002  0.0270  0.0032 </r>
        <r>  0.0002  0.0270  0.0032 </r>
        <r>  0.0005  0.0104  0.0005 </r>
        <r>  0.0005  0.0104  0.0005 </r>
        <r>  0.0002  0.0054  0.0007 </r>
        <r>  0.0002  0.0054  0.0007 </r>
        <r>  0.0006  0.0233  0.0024 </r>
        <r>  0.0006  0.0233  0.0024 </r>
        <r>  0.0001  0.0226  0.0033 </r>
        <r>  0.0001  0.0226  0.0033 </r>
       </set>
       <set comment="band 81">
        <r>  0.0001  0.0001  0.0000 </r>
        <r>  0.0001  0.0001  0.0000 </r>
        <r>  0.0000  0.0001  0.0000 </r>
        <r>  0.0000  0.0001  0.0000 </r>
        <r>  0.0003  0.0790  0.0009 </r>
        <r>  0.0003  0.0790  0.0009 </r>
        <r>  0.0000  0.0516  0.0001 </r>
        <r>  0.0000  0.0516  0.0001 </r>
        <r>  0.0001  0.0060  0.0006 </r>
        <r>  0.0001  0.0060  0.0006 </r>
        <r>  0.0001  0.0600  0.0012 </r>
        <r>  0.0001  0.0600  0.0012 </r>
        <r>  0.0000  0.0004  0.0001 </r>
        <r>  0.0000  0.0004  0.0001 </r>
        <r>  0.0009  0.0153  0.0025 </r>
        <r>  0.0009  0.0153  0.0025 </r>
        <r>  0.0006  0.0053  0.0009 </r>
        <r>  0.0006  0.0053  0.0009 </r>
        <r>  0.0000  0.0023  0.0012 </r>
        <r>  0.0000  0.0023  0.0012 </r>
        <r>  0.0002  0.0480  0.0005 </r>
        <r>  0.0002  0.0480  0.0005 </r>
        <r>  0.0002  0.0327  0.0040 </r>
        <r>  0.0002  0.0327  0.0040 </r>
        <r>  0.0008  0.0172  0.0015 </r>
        <r>  0.0008  0.0172  0.0015 </r>
       </set>
       <set comment="band 82">
        <r>  0.0001  0.0013  0.0000 </r>
        <r>  0.0001  0.0013  0.0000 </r>
        <r>  0.0003  0.0008  0.0000 </r>
        <r>  0.0003  0.0008  0.0000 </r>
        <r>  0.0005  0.0199  0.0007 </r>
        <r>  0.0005  0.0199  0.0007 </r>
        <r>  0.0004  0.0848  0.0005 </r>
        <r>  0.0004  0.0848  0.0005 </r>
        <r>  0.0006  0.0519  0.0032 </r>
        <r>  0.0006  0.0519  0.0032 </r>
        <r>  0.0000  0.0278  0.0007 </r>
        <r>  0.0000  0.0278  0.0007 </r>
        <r>  0.0001  0.0042  0.0020 </r>
        <r>  0.0001  0.0042  0.0020 </r>
        <r>  0.0002  0.0153  0.0014 </r>
        <r>  0.0002  0.0153  0.0014 </r>
        <r>  0.0004  0.0526  0.0014 </r>
        <r>  0.0004  0.0526  0.0014 </r>
        <r>  0.0022  0.0081  0.0020 </r>
        <r>  0.0022  0.0081  0.0020 </r>
        <r>  0.0004  0.0171  0.0002 </r>
        <r>  0.0004  0.0171  0.0002 </r>
        <r>  0.0012  0.0021  0.0005 </r>
        <r>  0.0012  0.0021  0.0005 </r>
        <r>  0.0017  0.0151  0.0029 </r>
        <r>  0.0017  0.0151  0.0029 </r>
       </set>
       <set comment="band 83">
        <r>  0.0003  0.0005  0.0000 </r>
        <r>  0.0003  0.0005  0.0000 </r>
        <r>  0.0014  0.0017  0.0000 </r>
        <r>  0.0014  0.0017  0.0000 </r>
        <r>  0.0000  0.0392  0.0006 </r>
        <r>  0.0000  0.0392  0.0006 </r>
        <r>  0.0005  0.0254  0.0006 </r>
        <r>  0.0005  0.0254  0.0006 </r>
        <r>  0.0002  0.0711  0.0017 </r>
        <r>  0.0002  0.0711  0.0017 </r>
        <r>  0.0006  0.0327  0.0015 </r>
        <r>  0.0006  0.0327  0.0015 </r>
        <r>  0.0034  0.0136  0.0032 </r>
        <r>  0.0034  0.0136  0.0032 </r>
        <r>  0.0005  0.0085  0.0024 </r>
        <r>  0.0005  0.0085  0.0024 </r>
        <r>  0.0000  0.0272  0.0017 </r>
        <r>  0.0000  0.0272  0.0017 </r>
        <r>  0.0035  0.0056  0.0015 </r>
        <r>  0.0035  0.0056  0.0015 </r>
        <r>  0.0001  0.0486  0.0004 </r>
        <r>  0.0001  0.0486  0.0004 </r>
        <r>  0.0019  0.0039  0.0007 </r>
        <r>  0.0019  0.0039  0.0007 </r>
        <r>  0.0005  0.0057  0.0013 </r>
        <r>  0.0005  0.0057  0.0013 </r>
       </set>
       <set comment="band 84">
        <r>  0.0021  0.0016  0.0000 </r>
        <r>  0.0021  0.0016  0.0000 </r>
        <r>  0.0014  0.0006  0.0000 </r>
        <r>  0.0014  0.0006  0.0000 </r>
        <r>  0.0002  0.0306  0.0008 </r>
        <r>  0.0002  0.0301  0.0008 </r>
        <r>  0.0007  0.0425  0.0016 </r>
        <r>  0.0007  0.0422  0.0016 </r>
        <r>  0.0013  0.0612  0.0009 </r>
        <r>  0.0013  0.0607  0.0009 </r>
        <r>  0.0002  0.0346  0.0006 </r>
        <r>  0.0002  0.0344  0.0006 </r>
        <r>  0.0022  0.0058  0.0019 </r>
        <r>  0.0022  0.0057  0.0019 </r>
        <r>  0.0015  0.0084  0.0008 </r>
        <r>  0.0015  0.0084  0.0008 </r>
        <r>  0.0002  0.0428  0.0015 </r>
        <r>  0.0002  0.0424  0.0015 </r>
        <r>  0.0014  0.0118  0.0022 </r>
        <r>  0.0014  0.0117  0.0022 </r>
        <r>  0.0000  0.0326  0.0007 </r>
        <r>  0.0000  0.0324  0.0007 </r>
        <r>  0.0017  0.0093  0.0011 </r>
        <r>  0.0017  0.0091  0.0011 </r>
        <r>  0.0013  0.0116  0.0026 </r>
        <r>  0.0013  0.0116  0.0026 </r>
       </set>
      </set>
     </set>
    </set>
   </array>
  </projected>
 </calculation>
 <structure name="finalpos" >
  <crystal>
   <varray name="basis" >
    <v>       4.19539643       0.00000000       0.00000000 </v>
    <v>       0.00000000      13.72367379      -0.47136025 </v>
    <v>       0.00000000       0.16450354      13.68927648 </v>
   </varray>
   <i name="volume">    788.50254550 </i>
   <varray name="rec_basis" >
    <v>       0.23835650       0.00000000       0.00000000 </v>
    <v>       0.00000000       0.07283672      -0.00087528 </v>
    <v>       0.00000000       0.00250797       0.07301974 </v>
   </varray>
  </crystal>
  <varray name="positions" >
   <v>       0.25000000       0.54125626       0.79241076 </v>
   <v>       0.75000000       0.45874374       0.20758924 </v>
   <v>       0.75000000       0.86522778       0.60897804 </v>
   <v>       0.25000000       0.13477222       0.39102196 </v>
   <v>       0.25000000       0.83223358       0.29333402 </v>
   <v>       0.75000000       0.16776642       0.70666598 </v>
   <v>       0.75000000       0.61387837       0.44060070 </v>
   <v>       0.25000000       0.38612163       0.55939930 </v>
   <v>       0.75000000       0.73235963       0.02180505 </v>
   <v>       0.25000000       0.26764037       0.97819495 </v>
   <v>       0.25000000       0.94820309       0.86022432 </v>
   <v>       0.75000000       0.05179691       0.13977568 </v>
   <v>       0.25000000       0.59928801      -0.00383593 </v>
   <v>       0.75000000       0.40071199       0.00383593 </v>
   <v>       0.75000000      -0.01334649       0.33563578 </v>
   <v>       0.25000000       0.01334649       0.66436422 </v>
   <v>       0.75000000       0.69249623       0.23923624 </v>
   <v>       0.25000000       0.30750377       0.76076376 </v>
   <v>       0.75000000       0.80299659       0.82149321 </v>
   <v>       0.25000000       0.19700341       0.17850679 </v>
   <v>       0.25000000       0.90041461       0.08308334 </v>
   <v>       0.75000000       0.09958539       0.91691666 </v>
   <v>       0.25000000       0.75978660       0.49051274 </v>
   <v>       0.75000000       0.24021340       0.50948726 </v>
   <v>       0.25000000       0.47438619       0.36875118 </v>
   <v>       0.75000000       0.52561381       0.63124882 </v>
  </varray>
 </structure>
</modeling>
