CIS                                     
           1
     4.189396    0.000000    0.000000
     0.000000   13.602641   -0.523652
     0.000000    0.112046   13.754412
   Na   Bi   Se
   4   8  14
Direct configuration=     1
   0.25000000  0.55158254  0.79819023
   0.75000000  0.44841746  0.20180977
   0.75000000  0.84452463  0.62218693
   0.25000000  0.15547537  0.37781307
   0.25000000  0.84396686  0.29646884
   0.75000000  0.15603314  0.70353116
   0.75000000  0.61366118  0.44067628
   0.25000000  0.38633882  0.55932372
   0.75000000  0.72928667  0.03093256
   0.25000000  0.27071333  0.96906744
   0.25000000  0.93995597  0.86408904
   0.75000000  0.06004403  0.13591096
   0.25000000  0.59540986  0.00433758
   0.75000000  0.40459014  0.99566242
   0.75000000  0.00067527  0.33231421
   0.25000000  0.99932473  0.66768579
   0.75000000  0.70067860  0.24314505
   0.25000000  0.29932140  0.75685495
   0.75000000  0.79423295  0.82611601
   0.25000000  0.20576705  0.17388399
   0.25000000  0.90278297  0.08528515
   0.75000000  0.09721703  0.91471485
   0.25000000  0.76258680  0.48885304
   0.75000000  0.23741320  0.51114696
   0.25000000  0.47041809  0.36708012
   0.75000000  0.52958191  0.63291988
CIS                                     
           1
     4.189844    0.000000    0.000000
     0.000000   13.601794   -0.523541
     0.000000    0.112428   13.761586
   Na   Bi   Se
   4   8  14
Direct configuration=     2
   0.25000000  0.55155106  0.79813741
   0.75000000  0.44844894  0.20186259
   0.75000000  0.84459351  0.62211839
   0.25000000  0.15540649  0.37788161
   0.25000000  0.84392703  0.29641544
   0.75000000  0.15607297  0.70358456
   0.75000000  0.61367326  0.44061059
   0.25000000  0.38632674  0.55938941
   0.75000000  0.72941742  0.03090708
   0.25000000  0.27058258  0.96909292
   0.25000000  0.94006640  0.86404593
   0.75000000  0.05993360  0.13595407
   0.25000000  0.59537821  0.00432934
   0.75000000  0.40462179  0.99567066
   0.75000000  0.00063378  0.33239390
   0.25000000  0.99936622  0.66760610
   0.75000000  0.70065939  0.24314919
   0.25000000  0.29934061  0.75685081
   0.75000000  0.79421883  0.82617543
   0.25000000  0.20578117  0.17382457
   0.25000000  0.90276445  0.08530777
   0.75000000  0.09723555  0.91469223
   0.25000000  0.76248530  0.48891776
   0.75000000  0.23751470  0.51108224
   0.25000000  0.47045979  0.36714054
   0.75000000  0.52954021  0.63285946
CIS                                     
           1
     4.191186    0.000000    0.000000
     0.000000   13.599251   -0.523209
     0.000000    0.113571   13.783107
   Na   Bi   Se
   4   8  14
Direct configuration=     3
   0.25000000  0.55145661  0.79797903
   0.75000000  0.44854339  0.20202097
   0.75000000  0.84480015  0.62191287
   0.25000000  0.15519985  0.37808713
   0.25000000  0.84380754  0.29625530
   0.75000000  0.15619246  0.70374470
   0.75000000  0.61370950  0.44041362
   0.25000000  0.38629050  0.55958638
   0.75000000  0.72980968  0.03083068
   0.25000000  0.27019032  0.96916932
   0.25000000  0.94039773  0.86391665
   0.75000000  0.05960227  0.13608335
   0.25000000  0.59528328  0.00430463
   0.75000000  0.40471672  0.99569537
   0.75000000  0.00050929  0.33263286
   0.25000000  0.99949071  0.66736714
   0.75000000  0.70060175  0.24316160
   0.25000000  0.29939825  0.75683840
   0.75000000  0.79417646  0.82635358
   0.25000000  0.20582354  0.17364642
   0.25000000  0.90270886  0.08537560
   0.75000000  0.09729114  0.91462440
   0.25000000  0.76218077  0.48911185
   0.75000000  0.23781923  0.51088815
   0.25000000  0.47058491  0.36732168
   0.75000000  0.52941509  0.63267832
CIS                                     
           1
     4.193870    0.000000    0.000000
     0.000000   13.594165   -0.522544
     0.000000    0.115858   13.826150
   Na   Bi   Se
   4   8  14
Direct configuration=     4
   0.25000000  0.55126771  0.79766278
   0.75000000  0.44873229  0.20233722
   0.75000000  0.84521354  0.62150247
   0.25000000  0.15478646  0.37849753
   0.25000000  0.84356855  0.29593554
   0.75000000  0.15643145  0.70406446
   0.75000000  0.61378202  0.44002029
   0.25000000  0.38621798  0.55997971
   0.75000000  0.73059437  0.03067811
   0.25000000  0.26940563  0.96932189
   0.25000000  0.94106052  0.86365849
   0.75000000  0.05893948  0.13634151
   0.25000000  0.59509337  0.00425529
   0.75000000  0.40490663  0.99574471
   0.75000000  0.00026024  0.33311004
   0.25000000  0.99973976  0.66688996
   0.75000000  0.70048645  0.24318638
   0.25000000  0.29951355  0.75681362
   0.75000000  0.79409169  0.82670931
   0.25000000  0.20590831  0.17329069
   0.25000000  0.90259766  0.08551105
   0.75000000  0.09740234  0.91448895
   0.25000000  0.76157158  0.48949942
   0.75000000  0.23842842  0.51050058
   0.25000000  0.47083516  0.36768339
   0.75000000  0.52916484  0.63231661
CIS                                     
           1
     4.193463    0.000000    0.000000
     0.000000   13.584070   -0.517357
     0.000000    0.120845   13.820871
   Na   Bi   Se
   4   8  14
Direct configuration=     5
   0.25000000  0.55117240  0.79751433
   0.75000000  0.44882760  0.20248567
   0.75000000  0.84540371  0.62131945
   0.25000000  0.15459629  0.37868055
   0.25000000  0.84339610  0.29589957
   0.75000000  0.15660390  0.70410043
   0.75000000  0.61372669  0.43992997
   0.25000000  0.38627331  0.56007003
   0.75000000  0.73078008  0.03057345
   0.25000000  0.26921992  0.96942655
   0.25000000  0.94130511  0.86344857
   0.75000000  0.05869489  0.13655143
   0.25000000  0.59515994  0.00426740
   0.75000000  0.40484006  0.99573260
   0.75000000  0.00020899  0.33311340
   0.25000000  0.99979101  0.66688660
   0.75000000  0.70041609  0.24316964
   0.25000000  0.29958391  0.75683036
   0.75000000  0.79413978  0.82696514
   0.25000000  0.20586022  0.17303486
   0.25000000  0.90257614  0.08557617
   0.75000000  0.09742386  0.91442383
   0.25000000  0.76137353  0.48959688
   0.75000000  0.23862647  0.51040312
   0.25000000  0.47091247  0.36788144
   0.75000000  0.52908753  0.63211856
CIS                                     
           1
     4.192240    0.000000    0.000000
     0.000000   13.553785   -0.501794
     0.000000    0.135807   13.805034
   Na   Bi   Se
   4   8  14
Direct configuration=     6
   0.25000000  0.55088644  0.79706890
   0.75000000  0.44911356  0.20293110
   0.75000000  0.84597488  0.62076999
   0.25000000  0.15402512  0.37923001
   0.25000000  0.84287840  0.29579181
   0.75000000  0.15712160  0.70420819
   0.75000000  0.61356069  0.43965898
   0.25000000  0.38643931  0.56034102
   0.75000000  0.73133774  0.03025918
   0.25000000  0.26866226  0.96974082
   0.25000000  0.94203967  0.86281833
   0.75000000  0.05796033  0.13718167
   0.25000000  0.59535979  0.00430367
   0.75000000  0.40464021  0.99569633
   0.75000000  0.00005513  0.33312353
   0.25000000  0.99994487  0.66687647
   0.75000000  0.70020489  0.24311948
   0.25000000  0.29979511  0.75688052
   0.75000000  0.79428387  0.82773284
   0.25000000  0.20571613  0.17226716
   0.25000000  0.90251146  0.08577163
   0.75000000  0.09748854  0.91422837
   0.25000000  0.76077883  0.48988957
   0.75000000  0.23922117  0.51011043
   0.25000000  0.47114436  0.36847572
   0.75000000  0.52885564  0.63152428
CIS                                     
           1
     4.191778    0.000000    0.000000
     0.000000   13.542350   -0.495917
     0.000000    0.141456   13.799054
   Na   Bi   Se
   4   8  14
Direct configuration=     7
   0.25000000  0.55077840  0.79690063
   0.75000000  0.44922160  0.20309937
   0.75000000  0.84619126  0.62056206
   0.25000000  0.15380874  0.37943794
   0.25000000  0.84268253  0.29575128
   0.75000000  0.15731747  0.70424872
   0.75000000  0.61349798  0.43955661
   0.25000000  0.38650202  0.56044339
   0.75000000  0.73154892  0.03014015
   0.25000000  0.26845108  0.96985985
   0.25000000  0.94231792  0.86257981
   0.75000000  0.05768208  0.13742019
   0.25000000  0.59543541  0.00431730
   0.75000000  0.40456459  0.99568270
   0.75000000 -0.00000311  0.33312742
   0.25000000  0.00000311  0.66687258
   0.75000000  0.70012499  0.24310060
   0.25000000  0.29987501  0.75689940
   0.75000000  0.79433807  0.82802298
   0.25000000  0.20566193  0.17197702
   0.25000000  0.90248690  0.08584554
   0.75000000  0.09751310  0.91415446
   0.25000000  0.76055364  0.49000045
   0.75000000  0.23944636  0.50999955
   0.25000000  0.47123187  0.36870027
   0.75000000  0.52876813  0.63129973
CIS                                     
           1
     4.195302    0.000000    0.000000
     0.000000   13.548736   -0.488236
     0.000000    0.149473   13.802415
   Na   Bi   Se
   4   8  14
Direct configuration=     8
   0.25000000  0.55062152  0.79669678
   0.75000000  0.44937848  0.20330322
   0.75000000  0.84647280  0.62027304
   0.25000000  0.15352720  0.37972696
   0.25000000  0.84225124  0.29583760
   0.75000000  0.15774876  0.70416240
   0.75000000  0.61342500  0.43950918
   0.25000000  0.38657500  0.56049082
   0.75000000  0.73152745  0.03001574
   0.25000000  0.26847255  0.96998426
   0.25000000  0.94256424  0.86234193
   0.75000000  0.05743576  0.13765807
   0.25000000  0.59560809  0.00426961
   0.75000000  0.40439191  0.99573039
   0.75000000 -0.00005451  0.33316890
   0.25000000  0.00005451  0.66683110
   0.75000000  0.69991852  0.24305003
   0.25000000  0.30008148  0.75694997
   0.75000000  0.79434352  0.82812135
   0.25000000  0.20565648  0.17187865
   0.25000000  0.90253604  0.08588662
   0.75000000  0.09746396  0.91411338
   0.25000000  0.76042511  0.49014424
   0.75000000  0.23957489  0.50985576
   0.25000000  0.47127531  0.36888773
   0.75000000  0.52872469  0.63111227
CIS                                     
           1
     4.203102    0.000000    0.000000
     0.000000   13.562875   -0.471232
     0.000000    0.167220   13.809856
   Na   Bi   Se
   4   8  14
Direct configuration=     9
   0.25000000  0.55027466  0.79624581
   0.75000000  0.44972534  0.20375419
   0.75000000  0.84709615  0.61963302
   0.25000000  0.15290385  0.38036698
   0.25000000  0.84129681  0.29602921
   0.75000000  0.15870319  0.70397079
   0.75000000  0.61326357  0.43940431
   0.25000000  0.38673643  0.56059569
   0.75000000  0.73148012  0.02974042
   0.25000000  0.26851988  0.97025958
   0.25000000  0.94310958  0.86181514
   0.75000000  0.05689042  0.13818486
   0.25000000  0.59599024  0.00416384
   0.75000000  0.40400976  0.99583616
   0.75000000 -0.00016829  0.33326075
   0.25000000  0.00016829  0.66673925
   0.75000000  0.69946173  0.24293838
   0.25000000  0.30053827  0.75706162
   0.75000000  0.79435545  0.82833906
   0.25000000  0.20564455  0.17166094
   0.25000000  0.90264473  0.08597748
   0.75000000  0.09735527  0.91402252
   0.25000000  0.76014052  0.49046265
   0.75000000  0.23985948  0.50953735
   0.25000000  0.47137120  0.36930256
   0.75000000  0.52862880  0.63069744
CIS                                     
           1
     4.218701    0.000000    0.000000
     0.000000   13.591152   -0.437223
     0.000000    0.202714   13.824737
   Na   Bi   Se
   4   8  14
Direct configuration=    10
   0.25000000  0.54958281  0.79534527
   0.75000000  0.45041719  0.20465473
   0.75000000  0.84834323  0.61835216
   0.25000000  0.15165677  0.38164784
   0.25000000  0.83938941  0.29641461
   0.75000000  0.16061059  0.70358539
   0.75000000  0.61294133  0.43919510
   0.25000000  0.38705867  0.56080490
   0.75000000  0.73138625  0.02919023
   0.25000000  0.26861375  0.97080977
   0.25000000  0.94420052  0.86076081
   0.75000000  0.05579948  0.13923919
   0.25000000  0.59675405  0.00395146
   0.75000000  0.40324595  0.99604854
   0.75000000 -0.00039586  0.33344464
   0.25000000  0.00039586  0.66655536
   0.75000000  0.69854938  0.24271635
   0.25000000  0.30145062  0.75728365
   0.75000000  0.79437871  0.82877418
   0.25000000  0.20562129  0.17122582
   0.25000000  0.90286164  0.08615882
   0.75000000  0.09713836  0.91384118
   0.25000000  0.75957110  0.49109980
   0.75000000  0.24042890  0.50890020
   0.25000000  0.47156170  0.37013149
   0.75000000  0.52843830  0.62986851
CIS                                     
           1
     4.206675    0.000000    0.000000
     0.000000   13.569353   -0.463440
     0.000000    0.175351   13.813265
   Na   Bi   Se
   4   8  14
Direct configuration=    11
   0.25000000  0.55011327  0.79603735
   0.75000000  0.44988673  0.20396265
   0.75000000  0.84738125  0.61934087
   0.25000000  0.15261875  0.38065913
   0.25000000  0.84085760  0.29611413
   0.75000000  0.15914240  0.70388587
   0.75000000  0.61318882  0.43935556
   0.25000000  0.38681118  0.56064444
   0.75000000  0.73145736  0.02961370
   0.25000000  0.26854264  0.97038630
   0.25000000  0.94335913  0.86157478
   0.75000000  0.05664087  0.13842522
   0.25000000  0.59616601  0.00411648
   0.75000000  0.40383399  0.99588352
   0.75000000 -0.00022042  0.33330260
   0.25000000  0.00022042  0.66669740
   0.75000000  0.69925083  0.24288554
   0.25000000  0.30074917  0.75711446
   0.75000000  0.79436169  0.82843918
   0.25000000  0.20563831  0.17156082
   0.25000000  0.90269513  0.08601961
   0.75000000  0.09730487  0.91398039
   0.25000000  0.76001045  0.49060808
   0.75000000  0.23998955  0.50939192
   0.25000000  0.47141680  0.36949358
   0.75000000  0.52858320  0.63050642
CIS                                     
           1
     4.206724    0.000000    0.000000
     0.000000   13.570378   -0.463692
     0.000000    0.175322   13.819527
   Na   Bi   Se
   4   8  14
Direct configuration=    12
   0.25000000  0.54995586  0.79586238
   0.75000000  0.45004414  0.20413762
   0.75000000  0.84769016  0.61905109
   0.25000000  0.15230984  0.38094891
   0.25000000  0.84040514  0.29620188
   0.75000000  0.15959486  0.70379812
   0.75000000  0.61317592  0.43932105
   0.25000000  0.38682408  0.56067895
   0.75000000  0.73141702  0.02946141
   0.25000000  0.26858298  0.97053859
   0.25000000  0.94355659  0.86142514
   0.75000000  0.05644341  0.13857486
   0.25000000  0.59636883  0.00406011
   0.75000000  0.40363117  0.99593989
   0.75000000 -0.00043499  0.33342002
   0.25000000  0.00043499  0.66657998
   0.75000000  0.69899459  0.24284470
   0.25000000  0.30100541  0.75715530
   0.75000000  0.79442569  0.82846106
   0.25000000  0.20557431  0.17153894
   0.25000000  0.90277352  0.08610816
   0.75000000  0.09722648  0.91389184
   0.25000000  0.75985561  0.49065574
   0.75000000  0.24014439  0.50934426
   0.25000000  0.47154416  0.36953698
   0.75000000  0.52845584  0.63046302
CIS                                     
           1
     4.206871    0.000000    0.000000
     0.000000   13.573453   -0.464447
     0.000000    0.175235   13.838315
   Na   Bi   Se
   4   8  14
Direct configuration=    13
   0.25000000  0.54948368  0.79533773
   0.75000000  0.45051632  0.20466227
   0.75000000  0.84861681  0.61818219
   0.25000000  0.15138319  0.38181781
   0.25000000  0.83904785  0.29646500
   0.75000000  0.16095215  0.70353500
   0.75000000  0.61313723  0.43921755
   0.25000000  0.38686277  0.56078245
   0.75000000  0.73129599  0.02900473
   0.25000000  0.26870401  0.97099527
   0.25000000  0.94414892  0.86097641
   0.75000000  0.05585108  0.13902359
   0.25000000  0.59697724  0.00389110
   0.75000000  0.40302276  0.99610890
   0.75000000 -0.00107866  0.33377209
   0.25000000  0.00107866  0.66622791
   0.75000000  0.69822590  0.24272223
   0.25000000  0.30177410  0.75727777
   0.75000000  0.79461770  0.82852668
   0.25000000  0.20538230  0.17147332
   0.25000000  0.90300868  0.08637371
   0.75000000  0.09699132  0.91362629
   0.25000000  0.75939115  0.49079864
   0.75000000  0.24060885  0.50920136
   0.25000000  0.47192622  0.36966713
   0.75000000  0.52807378  0.63033287
CIS                                     
           1
     4.203348    0.000000    0.000000
     0.000000   13.572181   -0.466427
     0.000000    0.173094   13.835240
   Na   Bi   Se
   4   8  14
Direct configuration=    14
   0.25000000  0.54938471  0.79528093
   0.75000000  0.45061529  0.20471907
   0.75000000  0.84887017  0.61802796
   0.25000000  0.15112983  0.38197204
   0.25000000  0.83891871  0.29644512
   0.75000000  0.16108129  0.70355488
   0.75000000  0.61313202  0.43928006
   0.25000000  0.38686798  0.56071994
   0.75000000  0.73147285  0.02884051
   0.25000000  0.26852715  0.97115949
   0.25000000  0.94418703  0.86106498
   0.75000000  0.05581297  0.13893502
   0.25000000  0.59697087  0.00376958
   0.75000000  0.40302913  0.99623042
   0.75000000 -0.00138133  0.33375143
   0.25000000  0.00138133  0.66624857
   0.75000000  0.69799185  0.24272812
   0.25000000  0.30200815  0.75727188
   0.75000000  0.79464269  0.82840677
   0.25000000  0.20535731  0.17159323
   0.25000000  0.90302958  0.08654017
   0.75000000  0.09697042  0.91345983
   0.25000000  0.75945967  0.49064420
   0.75000000  0.24054033  0.50935580
   0.25000000  0.47204368  0.36955180
   0.75000000  0.52795632  0.63044820
CIS                                     
           1
     4.192781    0.000000    0.000000
     0.000000   13.568365   -0.472370
     0.000000    0.166671   13.826016
   Na   Bi   Se
   4   8  14
Direct configuration=    15
   0.25000000  0.54908778  0.79511044
   0.75000000  0.45091222  0.20488956
   0.75000000  0.84963024  0.61756527
   0.25000000  0.15036976  0.38243473
   0.25000000  0.83853124  0.29638541
   0.75000000  0.16146876  0.70361459
   0.75000000  0.61311641  0.43946764
   0.25000000  0.38688359  0.56053236
   0.75000000  0.73200340  0.02834782
   0.25000000  0.26799660  0.97165218
   0.25000000  0.94430143  0.86133076
   0.75000000  0.05569857  0.13866924
   0.25000000  0.59695169  0.00340496
   0.75000000  0.40304831  0.99659504
   0.75000000 -0.00228944  0.33368930
   0.25000000  0.00228944  0.66631070
   0.75000000  0.69728963  0.24274570
   0.25000000  0.30271037  0.75725430
   0.75000000  0.79471764  0.82804698
   0.25000000  0.20528236  0.17195302
   0.25000000  0.90309236  0.08703970
   0.75000000  0.09690764  0.91296030
   0.25000000  0.75966516  0.49018081
   0.75000000  0.24033484  0.50981919
   0.25000000  0.47239606  0.36920580
   0.75000000  0.52760394  0.63079420
CIS                                     
           1
     4.188313    0.000000    0.000000
     0.000000   13.566752   -0.474882
     0.000000    0.163955   13.822115
   Na   Bi   Se
   4   8  14
Direct configuration=    16
   0.25000000  0.54896214  0.79503823
   0.75000000  0.45103786  0.20496177
   0.75000000  0.84995166  0.61736962
   0.25000000  0.15004834  0.38263038
   0.25000000  0.83836733  0.29636007
   0.75000000  0.16163267  0.70363993
   0.75000000  0.61310985  0.43954701
   0.25000000  0.38689015  0.56045299
   0.75000000  0.73222773  0.02813942
   0.25000000  0.26777227  0.97186058
   0.25000000  0.94434987  0.86144325
   0.75000000  0.05565013  0.13855675
   0.25000000  0.59694351  0.00325065
   0.75000000  0.40305649  0.99674935
   0.75000000 -0.00267358  0.33366284
   0.25000000  0.00267358  0.66633716
   0.75000000  0.69699259  0.24275301
   0.25000000  0.30300741  0.75724699
   0.75000000  0.79474927  0.82789474
   0.25000000  0.20525073  0.17210526
   0.25000000  0.90311902  0.08725110
   0.75000000  0.09688098  0.91274890
   0.25000000  0.75975200  0.48998475
   0.75000000  0.24024800  0.51001525
   0.25000000  0.47254504  0.36905944
   0.75000000  0.52745496  0.63094056
CIS                                     
           1
     4.189666    0.000000    0.000000
     0.000000   13.580382   -0.475073
     0.000000    0.163718   13.816174
   Na   Bi   Se
   4   8  14
Direct configuration=    17
   0.25000000  0.54878928  0.79500890
   0.75000000  0.45121072  0.20499110
   0.75000000  0.85040190  0.61716792
   0.25000000  0.14959810  0.38283208
   0.25000000  0.83826287  0.29627034
   0.75000000  0.16173713  0.70372966
   0.75000000  0.61313387  0.43964545
   0.25000000  0.38686613  0.56035455
   0.75000000  0.73249591  0.02791902
   0.25000000  0.26750409  0.97208098
   0.25000000  0.94433398  0.86149730
   0.75000000  0.05566602  0.13850270
   0.25000000  0.59699927  0.00302650
   0.75000000  0.40300073  0.99697350
   0.75000000 -0.00309024  0.33360011
   0.25000000  0.00309024  0.66639989
   0.75000000  0.69654269  0.24271247
   0.25000000  0.30345731  0.75728753
   0.75000000  0.79477527  0.82744469
   0.25000000  0.20522473  0.17255531
   0.25000000  0.90309534  0.08727058
   0.75000000  0.09690466  0.91272942
   0.25000000  0.75988209  0.49005786
   0.75000000  0.24011791  0.50994214
   0.25000000  0.47268198  0.36892534
   0.75000000  0.52731802  0.63107466
CIS                                     
           1
     4.193667    0.000000    0.000000
     0.000000   13.620698   -0.475636
     0.000000    0.163016   13.798602
   Na   Bi   Se
   4   8  14
Direct configuration=    18
   0.25000000  0.54827852  0.79492211
   0.75000000  0.45172148  0.20507789
   0.75000000  0.85173228  0.61657106
   0.25000000  0.14826772  0.38342894
   0.25000000  0.83795421  0.29600480
   0.75000000  0.16204579  0.70399520
   0.75000000  0.61320486  0.43993674
   0.25000000  0.38679514  0.56006326
   0.75000000  0.73328836  0.02726682
   0.25000000  0.26671164  0.97273318
   0.25000000  0.94428706  0.86165726
   0.75000000  0.05571294  0.13834274
   0.25000000  0.59716402  0.00236320
   0.75000000  0.40283598  0.99763680
   0.75000000 -0.00432141  0.33341452
   0.25000000  0.00432141  0.66658548
   0.75000000  0.69521329  0.24259255
   0.25000000  0.30478671  0.75740745
   0.75000000  0.79485210  0.82611295
   0.25000000  0.20514790  0.17388705
   0.25000000  0.90302539  0.08732820
   0.75000000  0.09697461  0.91267180
   0.25000000  0.76026650  0.49027421
   0.75000000  0.23973350  0.50972579
   0.25000000  0.47308660  0.36852849
   0.75000000  0.52691340  0.63147151
CIS                                     
           1
     4.192399    0.000000    0.000000
     0.000000   13.607917   -0.475457
     0.000000    0.163239   13.804173
   Na   Bi   Se
   4   8  14
Direct configuration=    19
   0.25000000  0.54843996  0.79494965
   0.75000000  0.45156004  0.20505035
   0.75000000  0.85131178  0.61676054
   0.25000000  0.14868822  0.38323946
   0.25000000  0.83805177  0.29608908
   0.75000000  0.16194823  0.70391092
   0.75000000  0.61318242  0.43984428
   0.25000000  0.38681758  0.56015572
   0.75000000  0.73303789  0.02747386
   0.25000000  0.26696211  0.97252614
   0.25000000  0.94430189  0.86160649
   0.75000000  0.05569811  0.13839351
   0.25000000  0.59711196  0.00257375
   0.75000000  0.40288804  0.99742625
   0.75000000 -0.00393226  0.33347341
   0.25000000  0.00393226  0.66652659
   0.75000000  0.69563348  0.24263059
   0.25000000  0.30436652  0.75736941
   0.75000000  0.79482783  0.82653567
   0.25000000  0.20517217  0.17346433
   0.25000000  0.90304750  0.08730991
   0.75000000  0.09695250  0.91269009
   0.25000000  0.76014499  0.49020554
   0.75000000  0.23985501  0.50979446
   0.25000000  0.47295871  0.36865447
   0.75000000  0.52704129  0.63134553
CIS                                     
           1
     4.192523    0.000000    0.000000
     0.000000   13.610837   -0.476545
     0.000000    0.161974   13.798547
   Na   Bi   Se
   4   8  14
Direct configuration=    20
   0.25000000  0.54829609  0.79493859
   0.75000000  0.45170391  0.20506141
   0.75000000  0.85166768  0.61660831
   0.25000000  0.14833232  0.38339169
   0.25000000  0.83791134  0.29600776
   0.75000000  0.16208866  0.70399224
   0.75000000  0.61320917  0.43990710
   0.25000000  0.38679083  0.56009290
   0.75000000  0.73307416  0.02730043
   0.25000000  0.26692584  0.97269957
   0.25000000  0.94425552  0.86159142
   0.75000000  0.05574448  0.13840858
   0.25000000  0.59726742  0.00237749
   0.75000000  0.40273258  0.99762251
   0.75000000 -0.00419516  0.33343888
   0.25000000  0.00419516  0.66656112
   0.75000000  0.69533614  0.24257413
   0.25000000  0.30466386  0.75742587
   0.75000000  0.79501995  0.82625967
   0.25000000  0.20498005  0.17374033
   0.25000000  0.90302736  0.08725362
   0.75000000  0.09697264  0.91274638
   0.25000000  0.76017511  0.49027250
   0.75000000  0.23982489  0.50972750
   0.25000000  0.47303901  0.36860914
   0.75000000  0.52696099  0.63139086
CIS                                     
           1
     4.192896    0.000000    0.000000
     0.000000   13.619594   -0.479807
     0.000000    0.158180   13.781670
   Na   Bi   Se
   4   8  14
Direct configuration=    21
   0.25000000  0.54786455  0.79490534
   0.75000000  0.45213545  0.20509466
   0.75000000  0.85273510  0.61615152
   0.25000000  0.14726490  0.38384848
   0.25000000  0.83749009  0.29576367
   0.75000000  0.16250991  0.70423633
   0.75000000  0.61328943  0.44009564
   0.25000000  0.38671057  0.55990436
   0.75000000  0.73318291  0.02677995
   0.25000000  0.26681709  0.97322005
   0.25000000  0.94411646  0.86154619
   0.75000000  0.05588354  0.13845381
   0.25000000  0.59773367  0.00178849
   0.75000000  0.40226633  0.99821151
   0.75000000 -0.00498368  0.33333519
   0.25000000  0.00498368  0.66666481
   0.75000000  0.69444428  0.24240462
   0.25000000  0.30555572  0.75759538
   0.75000000  0.79559613  0.82543138
   0.25000000  0.20440387  0.17456862
   0.25000000  0.90296694  0.08708466
   0.75000000  0.09703306  0.91291534
   0.25000000  0.76026547  0.49047348
   0.75000000  0.23973453  0.50952652
   0.25000000  0.47327985  0.36847311
   0.75000000  0.52672015  0.63152689
CIS                                     
           1
     4.193080    0.000000    0.000000
     0.000000   13.623927   -0.481421
     0.000000    0.156303   13.773320
   Na   Bi   Se
   4   8  14
Direct configuration=    22
   0.25000000  0.54765117  0.79488883
   0.75000000  0.45234883  0.20511117
   0.75000000  0.85326282  0.61592535
   0.25000000  0.14673718  0.38407465
   0.25000000  0.83728178  0.29564270
   0.75000000  0.16271822  0.70435730
   0.75000000  0.61332914  0.44018904
   0.25000000  0.38667086  0.55981096
   0.75000000  0.73323661  0.02652213
   0.25000000  0.26676339  0.97347787
   0.25000000  0.94404769  0.86152377
   0.75000000  0.05595231  0.13847623
   0.25000000  0.59796413  0.00149677
   0.75000000  0.40203587  0.99850323
   0.75000000 -0.00537357  0.33328374
   0.25000000  0.00537357  0.66671626
   0.75000000  0.69400329  0.24232055
   0.25000000  0.30599671  0.75767945
   0.75000000  0.79588091  0.82502112
   0.25000000  0.20411909  0.17497888
   0.25000000  0.90293704  0.08700096
   0.75000000  0.09706296  0.91299904
   0.25000000  0.76031018  0.49057305
   0.75000000  0.23968982  0.50942695
   0.25000000  0.47339891  0.36840575
   0.75000000  0.52660109  0.63159425
CIS                                     
           1
     4.192426    0.000000    0.000000
     0.000000   13.619517   -0.484213
     0.000000    0.153191   13.766562
   Na   Bi   Se
   4   8  14
Direct configuration=    23
   0.25000000  0.54749948  0.79488270
   0.75000000  0.45250052  0.20511730
   0.75000000  0.85361740  0.61577142
   0.25000000  0.14638260  0.38422858
   0.25000000  0.83696687  0.29554011
   0.75000000  0.16303313  0.70445989
   0.75000000  0.61338661  0.44024013
   0.25000000  0.38661339  0.55975987
   0.75000000  0.73303294  0.02642597
   0.25000000  0.26696706  0.97357403
   0.25000000  0.94403303  0.86149304
   0.75000000  0.05596697  0.13850696
   0.25000000  0.59820068  0.00122692
   0.75000000  0.40179932  0.99877308
   0.75000000 -0.00558672  0.33327779
   0.25000000  0.00558672  0.66672221
   0.75000000  0.69415850  0.24213786
   0.25000000  0.30584150  0.75786214
   0.75000000  0.79604473  0.82493564
   0.25000000  0.20395527  0.17506436
   0.25000000  0.90287965  0.08679519
   0.75000000  0.09712035  0.91320481
   0.25000000  0.76023720  0.49061902
   0.75000000  0.23976280  0.50938098
   0.25000000  0.47344847  0.36847889
   0.75000000  0.52655153  0.63152111
CIS                                     
           1
     4.190464    0.000000    0.000000
     0.000000   13.606289   -0.492587
     0.000000    0.143857   13.746287
   Na   Bi   Se
   4   8  14
Direct configuration=    24
   0.25000000  0.54704426  0.79486419
   0.75000000  0.45295574  0.20513581
   0.75000000  0.85468137  0.61530965
   0.25000000  0.14531863  0.38469035
   0.25000000  0.83602177  0.29523196
   0.75000000  0.16397823  0.70476804
   0.75000000  0.61355910  0.44039352
   0.25000000  0.38644090  0.55960648
   0.75000000  0.73242167  0.02613721
   0.25000000  0.26757833  0.97386279
   0.25000000  0.94398899  0.86140079
   0.75000000  0.05601101  0.13859921
   0.25000000  0.59891036  0.00041711
   0.75000000  0.40108964  0.99958289
   0.75000000 -0.00622640  0.33325978
   0.25000000  0.00622640  0.66674022
   0.75000000  0.69462417  0.24158960
   0.25000000  0.30537583  0.75841040
   0.75000000  0.79653631  0.82467918
   0.25000000  0.20346369  0.17532082
   0.25000000  0.90270728  0.08617755
   0.75000000  0.09729272  0.91382245
   0.25000000  0.76001822  0.49075695
   0.75000000  0.23998178  0.50924305
   0.25000000  0.47359723  0.36869844
   0.75000000  0.52640277  0.63130156
CIS                                     
           1
     4.193790    0.000000    0.000000
     0.000000   13.614816   -0.493120
     0.000000    0.143548   13.750127
   Na   Bi   Se
   4   8  14
Direct configuration=    25
   0.25000000  0.54687258  0.79483560
   0.75000000  0.45312742  0.20516440
   0.75000000  0.85510283  0.61514425
   0.25000000  0.14489717  0.38485575
   0.25000000  0.83573166  0.29511074
   0.75000000  0.16426834  0.70488926
   0.75000000  0.61361889  0.44044014
   0.25000000  0.38638111  0.55955986
   0.75000000  0.73234668  0.02605498
   0.25000000  0.26765332  0.97394502
   0.25000000  0.94402206  0.86144165
   0.75000000  0.05597794  0.13855835
   0.25000000  0.59900274  0.00006595
   0.75000000  0.40099726  0.99993405
   0.75000000 -0.00649150  0.33329378
   0.25000000  0.00649150  0.66670622
   0.75000000  0.69476977  0.24134245