  18  18   1   0
  0.1931881E+02  0.3522639E-09  0.9849915E-09  0.1076016E-08  0.1000000E-15
  1.000000000000000E-004
  CAR 
 CIS                                     
      5.58709305    -12.50822812  301      2.21306962      1.00000000
    -12.508  0.0000E+00  0.0000E+00
    -12.448  0.0000E+00  0.0000E+00
    -12.388  0.0000E+00  0.0000E+00
    -12.327  0.0000E+00  0.0000E+00
    -12.267  0.0000E+00  0.0000E+00
    -12.207  0.0000E+00  0.0000E+00
    -12.146  0.0000E+00  0.0000E+00
    -12.086  0.0000E+00  0.0000E+00
    -12.026  0.0000E+00  0.0000E+00
    -11.965  0.2045E-15  0.1234E-16
    -11.905  0.4682E-10  0.2824E-11
    -11.845  0.6202E-06  0.3741E-07
    -11.784  0.5052E-03  0.3051E-04
    -11.724  0.2814E-01  0.1728E-02
    -11.664  0.1348E+00  0.9859E-02
    -11.603  0.1521E+00  0.1903E-01
    -11.543  0.3719E+00  0.4146E-01
    -11.483  0.6767E+00  0.8228E-01
    -11.423  0.5378E+00  0.1147E+00
    -11.362  0.1045E+00  0.1210E+00
    -11.302  0.3118E-02  0.1212E+00
    -11.242  0.8587E-05  0.1212E+00
    -11.181  0.1620E-08  0.1212E+00
    -11.121  0.1859E-13  0.1212E+00
    -11.061  0.0000E+00  0.1212E+00
    -11.000  0.0000E+00  0.1212E+00
    -10.940  0.0000E+00  0.1212E+00
    -10.880  0.2479E-16  0.1212E+00
    -10.819  0.5756E-11  0.1212E+00
    -10.759  0.7893E-07  0.1212E+00
    -10.699  0.6906E-04  0.1212E+00
    -10.638  0.4724E-02  0.1215E+00
    -10.578  0.3859E-01  0.1238E+00
    -10.518  0.5551E-01  0.1272E+00
    -10.457  0.2321E-01  0.1286E+00
    -10.397  0.4124E-01  0.1311E+00
    -10.337  0.6831E-01  0.1352E+00
    -10.276  0.8648E-01  0.1404E+00
    -10.216  0.5349E-01  0.1436E+00
    -10.156  0.4741E-01  0.1465E+00
    -10.096  0.5546E-01  0.1498E+00
    -10.035  0.5608E-01  0.1532E+00
     -9.975  0.1289E+00  0.1610E+00
     -9.915  0.1561E+00  0.1704E+00
     -9.854  0.1530E+00  0.1796E+00
     -9.794  0.1690E+00  0.1898E+00
     -9.734  0.2234E+00  0.2033E+00
     -9.673  0.1602E+00  0.2130E+00
     -9.613  0.1378E+00  0.2213E+00
     -9.553  0.3097E+00  0.2400E+00
     -9.492  0.4400E+00  0.2665E+00
     -9.432  0.3055E+00  0.2849E+00
     -9.372  0.2044E+00  0.2973E+00
     -9.311  0.2173E+00  0.3104E+00
     -9.251  0.1757E+00  0.3210E+00
     -9.191  0.3648E-01  0.3232E+00
     -9.130  0.1086E-02  0.3232E+00
     -9.070  0.2711E-05  0.3232E+00
     -9.010  0.4441E-09  0.3232E+00
     -8.949  0.4357E-14  0.3232E+00
     -8.889  0.0000E+00  0.3232E+00
     -8.829  0.0000E+00  0.3232E+00
     -8.769  0.0000E+00  0.3232E+00
     -8.708  0.0000E+00  0.3232E+00
     -8.648  0.0000E+00  0.3232E+00
     -8.588  0.0000E+00  0.3232E+00
     -8.527  0.0000E+00  0.3232E+00
     -8.467  0.0000E+00  0.3232E+00
     -8.407  0.0000E+00  0.3232E+00
     -8.346  0.0000E+00  0.3232E+00
     -8.286  0.0000E+00  0.3232E+00
     -8.226  0.0000E+00  0.3232E+00
     -8.165  0.0000E+00  0.3232E+00
     -8.105  0.0000E+00  0.3232E+00
     -8.045  0.0000E+00  0.3232E+00
     -7.984  0.0000E+00  0.3232E+00
     -7.924  0.0000E+00  0.3232E+00
     -7.864  0.0000E+00  0.3232E+00
     -7.803  0.0000E+00  0.3232E+00
     -7.743  0.0000E+00  0.3232E+00
     -7.683  0.0000E+00  0.3232E+00
     -7.622  0.0000E+00  0.3232E+00
     -7.562  0.0000E+00  0.3232E+00
     -7.502  0.0000E+00  0.3232E+00
     -7.442  0.0000E+00  0.3232E+00
     -7.381  0.0000E+00  0.3232E+00
     -7.321  0.0000E+00  0.3232E+00
     -7.261  0.0000E+00  0.3232E+00
     -7.200  0.0000E+00  0.3232E+00
     -7.140  0.0000E+00  0.3232E+00
     -7.080  0.0000E+00  0.3232E+00
     -7.019  0.0000E+00  0.3232E+00
     -6.959  0.0000E+00  0.3232E+00
     -6.899  0.0000E+00  0.3232E+00
     -6.838  0.0000E+00  0.3232E+00
     -6.778  0.0000E+00  0.3232E+00
     -6.718  0.0000E+00  0.3232E+00
     -6.657  0.0000E+00  0.3232E+00
     -6.597  0.0000E+00  0.3232E+00
     -6.537  0.0000E+00  0.3232E+00
     -6.476  0.0000E+00  0.3232E+00
     -6.416  0.0000E+00  0.3232E+00
     -6.356  0.0000E+00  0.3232E+00
     -6.296  0.0000E+00  0.3232E+00
     -6.235  0.0000E+00  0.3232E+00
     -6.175  0.0000E+00  0.3232E+00
     -6.115  0.0000E+00  0.3232E+00
     -6.054  0.0000E+00  0.3232E+00
     -5.994  0.0000E+00  0.3232E+00
     -5.934  0.0000E+00  0.3232E+00
     -5.873  0.0000E+00  0.3232E+00
     -5.813  0.0000E+00  0.3232E+00
     -5.753  0.0000E+00  0.3232E+00
     -5.692  0.0000E+00  0.3232E+00
     -5.632  0.0000E+00  0.3232E+00
     -5.572  0.0000E+00  0.3232E+00
     -5.511  0.0000E+00  0.3232E+00
     -5.451  0.0000E+00  0.3232E+00
     -5.391  0.0000E+00  0.3232E+00
     -5.330  0.0000E+00  0.3232E+00
     -5.270  0.0000E+00  0.3232E+00
     -5.210  0.0000E+00  0.3232E+00
     -5.149  0.0000E+00  0.3232E+00
     -5.089  0.0000E+00  0.3232E+00
     -5.029  0.0000E+00  0.3232E+00
     -4.969  0.0000E+00  0.3232E+00
     -4.908  0.0000E+00  0.3232E+00
     -4.848  0.0000E+00  0.3232E+00
     -4.788  0.0000E+00  0.3232E+00
     -4.727  0.0000E+00  0.3232E+00
     -4.667  0.0000E+00  0.3232E+00
     -4.607  0.0000E+00  0.3232E+00
     -4.546  0.0000E+00  0.3232E+00
     -4.486  0.0000E+00  0.3232E+00
     -4.426  0.0000E+00  0.3232E+00
     -4.365  0.0000E+00  0.3232E+00
     -4.305  0.0000E+00  0.3232E+00
     -4.245  0.0000E+00  0.3232E+00
     -4.184  0.0000E+00  0.3232E+00
     -4.124  0.0000E+00  0.3232E+00
     -4.064  0.0000E+00  0.3232E+00
     -4.003  0.0000E+00  0.3232E+00
     -3.943  0.0000E+00  0.3232E+00
     -3.883  0.0000E+00  0.3232E+00
     -3.822  0.0000E+00  0.3232E+00
     -3.762  0.0000E+00  0.3232E+00
     -3.702  0.0000E+00  0.3232E+00
     -3.642  0.0000E+00  0.3232E+00
     -3.581  0.0000E+00  0.3232E+00
     -3.521  0.0000E+00  0.3232E+00
     -3.461  0.0000E+00  0.3232E+00
     -3.400  0.0000E+00  0.3232E+00
     -3.340  0.0000E+00  0.3232E+00
     -3.280  0.0000E+00  0.3232E+00
     -3.219  0.0000E+00  0.3232E+00
     -3.159  0.0000E+00  0.3232E+00
     -3.099  0.0000E+00  0.3232E+00
     -3.038  0.0000E+00  0.3232E+00
     -2.978  0.0000E+00  0.3232E+00
     -2.918  0.0000E+00  0.3232E+00
     -2.857  0.0000E+00  0.3232E+00
     -2.797  0.0000E+00  0.3232E+00
     -2.737  0.0000E+00  0.3232E+00
     -2.676  0.0000E+00  0.3232E+00
     -2.616  0.0000E+00  0.3232E+00
     -2.556  0.0000E+00  0.3232E+00
     -2.495  0.0000E+00  0.3232E+00
     -2.435  0.0000E+00  0.3232E+00
     -2.375  0.0000E+00  0.3232E+00
     -2.315  0.5814E-13  0.3232E+00
     -2.254  0.2443E-08  0.3232E+00
     -2.194  0.6236E-05  0.3232E+00
     -2.134  0.1092E-02  0.3233E+00
     -2.073  0.1785E-01  0.3244E+00
     -2.013  0.6279E-01  0.3282E+00
     -1.953  0.1066E+00  0.3346E+00
     -1.892  0.6947E-01  0.3388E+00
     -1.832  0.6859E-01  0.3429E+00
     -1.772  0.7517E-01  0.3475E+00
     -1.711  0.1204E+00  0.3547E+00
     -1.651  0.8785E-01  0.3600E+00
     -1.591  0.5672E-01  0.3634E+00
     -1.530  0.9171E-01  0.3690E+00
     -1.470  0.9932E-01  0.3750E+00
     -1.410  0.1161E+00  0.3820E+00
     -1.349  0.1542E+00  0.3913E+00
     -1.289  0.2335E+00  0.4053E+00
     -1.229  0.2151E+00  0.4183E+00
     -1.168  0.1325E+00  0.4263E+00
     -1.108  0.1353E+00  0.4345E+00
     -1.048  0.1701E+00  0.4447E+00
     -0.988  0.1346E+00  0.4529E+00
     -0.927  0.1463E+00  0.4617E+00
     -0.867  0.1182E+00  0.4688E+00
     -0.807  0.7586E-01  0.4734E+00
     -0.746  0.1202E+00  0.4806E+00
     -0.686  0.1106E+00  0.4873E+00
     -0.626  0.1014E+00  0.4934E+00
     -0.565  0.7424E-01  0.4979E+00
     -0.505  0.1279E+00  0.5056E+00
     -0.445  0.1350E+00  0.5138E+00
     -0.384  0.1244E+00  0.5213E+00
     -0.324  0.1143E+00  0.5282E+00
     -0.264  0.1311E+00  0.5361E+00
     -0.203  0.1623E+00  0.5459E+00
     -0.143  0.2047E+00  0.5582E+00
     -0.083  0.1877E+00  0.5695E+00
     -0.022  0.1848E+00  0.5807E+00
      0.038  0.2343E+00  0.5948E+00
      0.098  0.2882E+00  0.6122E+00
      0.158  0.2662E+00  0.6282E+00
      0.219  0.2716E+00  0.6446E+00
      0.279  0.2536E+00  0.6599E+00
      0.339  0.3054E+00  0.6784E+00
      0.400  0.2790E+00  0.6952E+00
      0.460  0.2374E+00  0.7095E+00
      0.520  0.2071E+00  0.7220E+00
      0.581  0.2856E+00  0.7392E+00
      0.641  0.3870E+00  0.7626E+00
      0.701  0.3126E+00  0.7814E+00
      0.762  0.2082E+00  0.7940E+00
      0.822  0.1428E+00  0.8026E+00
      0.882  0.1890E+00  0.8140E+00
      0.943  0.2376E+00  0.8283E+00
      1.003  0.1615E+00  0.8381E+00
      1.063  0.1190E+00  0.8452E+00
      1.124  0.1822E+00  0.8562E+00
      1.184  0.1553E+00  0.8656E+00
      1.244  0.1045E+00  0.8719E+00
      1.305  0.1130E+00  0.8787E+00
      1.365  0.1087E+00  0.8853E+00
      1.425  0.1047E+00  0.8916E+00
      1.485  0.1169E+00  0.8986E+00
      1.546  0.8891E-01  0.9040E+00
      1.606  0.6746E-01  0.9081E+00
      1.666  0.7252E-01  0.9124E+00
      1.727  0.5458E-01  0.9157E+00
      1.787  0.3526E-01  0.9179E+00
      1.847  0.3840E-01  0.9202E+00
      1.908  0.5840E-01  0.9237E+00
      1.968  0.5415E-01  0.9270E+00
      2.028  0.3379E-01  0.9290E+00
      2.089  0.4664E-02  0.9293E+00
      2.149  0.5741E-04  0.9293E+00
      2.209  0.4778E-07  0.9293E+00
      2.270  0.2431E-11  0.9293E+00
      2.330  0.6197E-17  0.9293E+00
      2.390  0.0000E+00  0.9293E+00
      2.451  0.0000E+00  0.9293E+00
      2.511  0.0000E+00  0.9293E+00
      2.571  0.0000E+00  0.9293E+00
      2.632  0.0000E+00  0.9293E+00
      2.692  0.0000E+00  0.9293E+00
      2.752  0.0000E+00  0.9293E+00
      2.812  0.0000E+00  0.9293E+00
      2.873  0.0000E+00  0.9293E+00
      2.933  0.0000E+00  0.9293E+00
      2.993  0.0000E+00  0.9293E+00
      3.054  0.2277E-13  0.9293E+00
      3.114  0.1187E-08  0.9293E+00
      3.174  0.3727E-05  0.9293E+00
      3.235  0.7844E-03  0.9293E+00
      3.295  0.1432E-01  0.9302E+00
      3.355  0.4182E-01  0.9327E+00
      3.416  0.9072E-01  0.9382E+00
      3.476  0.8100E-01  0.9431E+00
      3.536  0.8728E-01  0.9483E+00
      3.597  0.1011E+00  0.9544E+00
      3.657  0.1014E+00  0.9606E+00
      3.717  0.1119E+00  0.9673E+00
      3.778  0.1016E+00  0.9734E+00
      3.838  0.1119E+00  0.9802E+00
      3.898  0.1143E+00  0.9871E+00
      3.959  0.1414E+00  0.9956E+00
      4.019  0.1771E+00  0.1006E+01
      4.079  0.2342E+00  0.1020E+01
      4.139  0.2351E+00  0.1035E+01
      4.200  0.2321E+00  0.1049E+01
      4.260  0.2106E+00  0.1061E+01
      4.320  0.2125E+00  0.1074E+01
      4.381  0.2099E+00  0.1087E+01
      4.441  0.1573E+00  0.1096E+01
      4.501  0.1140E+00  0.1103E+01
      4.562  0.1385E+00  0.1112E+01
      4.622  0.1117E+00  0.1118E+01
      4.682  0.8873E-01  0.1124E+01
      4.743  0.7886E-01  0.1128E+01
      4.803  0.4357E-01  0.1131E+01
      4.863  0.5355E-02  0.1131E+01
      4.924  0.8155E-04  0.1131E+01
      4.984  0.9914E-07  0.1131E+01
      5.044  0.7773E-11  0.1131E+01
      5.105  0.3718E-16  0.1131E+01
      5.165  0.0000E+00  0.1131E+01
      5.225  0.0000E+00  0.1131E+01
      5.286  0.0000E+00  0.1131E+01
      5.346  0.0000E+00  0.1131E+01
      5.406  0.0000E+00  0.1131E+01
      5.466  0.0000E+00  0.1131E+01
      5.527  0.0000E+00  0.1131E+01
      5.587  0.0000E+00  0.1131E+01
      5.58709305    -12.50822812  301      2.21306962      1.00000000
    -12.508  0.0000E+00  0.0000E+00  0.0000E+00
    -12.448  0.0000E+00  0.0000E+00  0.0000E+00
    -12.388  0.0000E+00  0.0000E+00  0.0000E+00
    -12.327  0.0000E+00  0.0000E+00  0.0000E+00
    -12.267  0.0000E+00  0.0000E+00  0.0000E+00
    -12.207  0.0000E+00  0.0000E+00  0.0000E+00
    -12.146  0.0000E+00  0.0000E+00  0.0000E+00
    -12.086  0.0000E+00  0.0000E+00  0.0000E+00
    -12.026  0.0000E+00  0.0000E+00  0.0000E+00
    -11.965  0.1971E-18  0.5981E-14  0.9540E-19
    -11.905  0.5150E-13  0.1562E-08  0.2485E-13
    -11.845  0.7566E-09  0.2294E-04  0.3643E-09
    -11.784  0.6777E-06  0.2054E-01  0.3257E-06
    -11.724  0.4111E-04  0.1244E+01  0.1972E-04
    -11.664  0.2269E-03  0.6379E+01  0.1065E-03
    -11.603  0.5842E-03  0.7210E+01  0.2298E-03
    -11.543  0.1101E-02  0.1747E+02  0.4638E-03
    -11.483  0.5449E-03  0.3239E+02  0.4879E-03
    -11.423  0.2361E-03  0.2670E+02  0.3808E-03
    -11.362  0.2483E-04  0.5435E+01  0.6893E-04
    -11.302  0.3345E-06  0.1715E+00  0.1912E-05
    -11.242  0.6153E-09  0.5023E-03  0.5281E-08
    -11.181  0.1094E-12  0.1006E-06  0.1038E-11
    -11.121  0.1293E-17  0.1219E-11  0.1250E-16
    -11.061  0.0000E+00  0.0000E+00  0.0000E+00
    -11.000  0.0000E+00  0.0000E+00  0.0000E+00
    -10.940  0.0000E+00  0.0000E+00  0.0000E+00
    -10.880  0.5301E-18  0.1896E-16  0.1160E-19
    -10.819  0.1228E-12  0.4409E-11  0.2692E-14
    -10.759  0.1676E-08  0.6065E-07  0.3693E-10
    -10.699  0.1445E-05  0.5356E-04  0.3249E-07
    -10.638  0.9535E-04  0.3733E-02  0.2325E-05
    -10.578  0.7440E-03  0.3081E-01  0.2244E-04
    -10.518  0.1059E-02  0.4303E-01  0.4030E-04
    -10.457  0.2826E-03  0.1636E-01  0.1845E-04
    -10.397  0.1647E-03  0.2539E-01  0.3827E-04
    -10.337  0.4815E-03  0.3315E-01  0.1015E-03
    -10.276  0.6505E-03  0.3829E-01  0.1357E-03
    -10.216  0.2960E-03  0.1830E-01  0.7840E-04
    -10.156  0.1606E-03  0.1301E-01  0.7506E-04
    -10.096  0.3979E-03  0.1403E-01  0.7461E-04
    -10.035  0.4309E-03  0.1224E-01  0.9447E-04
     -9.975  0.6466E-03  0.1937E-01  0.2177E-03
     -9.915  0.8489E-03  0.2506E-01  0.2326E-03
     -9.854  0.2194E-02  0.4689E-01  0.3344E-03
     -9.794  0.2491E-02  0.6222E-01  0.4750E-03
     -9.734  0.2894E-02  0.7893E-01  0.8040E-03
     -9.673  0.1977E-02  0.5868E-01  0.8340E-03
     -9.613  0.2514E-02  0.4903E-01  0.9689E-03
     -9.553  0.5214E-02  0.1460E+00  0.2806E-02
     -9.492  0.5975E-02  0.1989E+00  0.4168E-02
     -9.432  0.2226E-02  0.9874E-01  0.2534E-02
     -9.372  0.9658E-03  0.5082E-01  0.1793E-02
     -9.311  0.1483E-02  0.6854E-01  0.2494E-02
     -9.251  0.9016E-03  0.4660E-01  0.2217E-02
     -9.191  0.1033E-03  0.7451E-02  0.4849E-03
     -9.130  0.1875E-05  0.1918E-03  0.1460E-04
     -9.070  0.3742E-08  0.4573E-06  0.3626E-07
     -9.010  0.5691E-12  0.7439E-10  0.5889E-11
     -8.949  0.5401E-17  0.7320E-15  0.5720E-16
     -8.889  0.0000E+00  0.0000E+00  0.0000E+00
     -8.829  0.0000E+00  0.0000E+00  0.0000E+00
     -8.769  0.0000E+00  0.0000E+00  0.0000E+00
     -8.708  0.0000E+00  0.0000E+00  0.0000E+00
     -8.648  0.0000E+00  0.0000E+00  0.0000E+00
     -8.588  0.0000E+00  0.0000E+00  0.0000E+00
     -8.527  0.0000E+00  0.0000E+00  0.0000E+00
     -8.467  0.0000E+00  0.0000E+00  0.0000E+00
     -8.407  0.0000E+00  0.0000E+00  0.0000E+00
     -8.346  0.0000E+00  0.0000E+00  0.0000E+00
     -8.286  0.0000E+00  0.0000E+00  0.0000E+00
     -8.226  0.0000E+00  0.0000E+00  0.0000E+00
     -8.165  0.0000E+00  0.0000E+00  0.0000E+00
     -8.105  0.0000E+00  0.0000E+00  0.0000E+00
     -8.045  0.0000E+00  0.0000E+00  0.0000E+00
     -7.984  0.0000E+00  0.0000E+00  0.0000E+00
     -7.924  0.0000E+00  0.0000E+00  0.0000E+00
     -7.864  0.0000E+00  0.0000E+00  0.0000E+00
     -7.803  0.0000E+00  0.0000E+00  0.0000E+00
     -7.743  0.0000E+00  0.0000E+00  0.0000E+00
     -7.683  0.0000E+00  0.0000E+00  0.0000E+00
     -7.622  0.0000E+00  0.0000E+00  0.0000E+00
     -7.562  0.0000E+00  0.0000E+00  0.0000E+00
     -7.502  0.0000E+00  0.0000E+00  0.0000E+00
     -7.442  0.0000E+00  0.0000E+00  0.0000E+00
     -7.381  0.0000E+00  0.0000E+00  0.0000E+00
     -7.321  0.0000E+00  0.0000E+00  0.0000E+00
     -7.261  0.0000E+00  0.0000E+00  0.0000E+00
     -7.200  0.0000E+00  0.0000E+00  0.0000E+00
     -7.140  0.0000E+00  0.0000E+00  0.0000E+00
     -7.080  0.0000E+00  0.0000E+00  0.0000E+00
     -7.019  0.0000E+00  0.0000E+00  0.0000E+00
     -6.959  0.0000E+00  0.0000E+00  0.0000E+00
     -6.899  0.0000E+00  0.0000E+00  0.0000E+00
     -6.838  0.0000E+00  0.0000E+00  0.0000E+00
     -6.778  0.0000E+00  0.0000E+00  0.0000E+00
     -6.718  0.0000E+00  0.0000E+00  0.0000E+00
     -6.657  0.0000E+00  0.0000E+00  0.0000E+00
     -6.597  0.0000E+00  0.0000E+00  0.0000E+00
     -6.537  0.0000E+00  0.0000E+00  0.0000E+00
     -6.476  0.0000E+00  0.0000E+00  0.0000E+00
     -6.416  0.0000E+00  0.0000E+00  0.0000E+00
     -6.356  0.0000E+00  0.0000E+00  0.0000E+00
     -6.296  0.0000E+00  0.0000E+00  0.0000E+00
     -6.235  0.0000E+00  0.0000E+00  0.0000E+00
     -6.175  0.0000E+00  0.0000E+00  0.0000E+00
     -6.115  0.0000E+00  0.0000E+00  0.0000E+00
     -6.054  0.0000E+00  0.0000E+00  0.0000E+00
     -5.994  0.0000E+00  0.0000E+00  0.0000E+00
     -5.934  0.0000E+00  0.0000E+00  0.0000E+00
     -5.873  0.0000E+00  0.0000E+00  0.0000E+00
     -5.813  0.0000E+00  0.0000E+00  0.0000E+00
     -5.753  0.0000E+00  0.0000E+00  0.0000E+00
     -5.692  0.0000E+00  0.0000E+00  0.0000E+00
     -5.632  0.0000E+00  0.0000E+00  0.0000E+00
     -5.572  0.0000E+00  0.0000E+00  0.0000E+00
     -5.511  0.0000E+00  0.0000E+00  0.0000E+00
     -5.451  0.0000E+00  0.0000E+00  0.0000E+00
     -5.391  0.0000E+00  0.0000E+00  0.0000E+00
     -5.330  0.0000E+00  0.0000E+00  0.0000E+00
     -5.270  0.0000E+00  0.0000E+00  0.0000E+00
     -5.210  0.0000E+00  0.0000E+00  0.0000E+00
     -5.149  0.0000E+00  0.0000E+00  0.0000E+00
     -5.089  0.0000E+00  0.0000E+00  0.0000E+00
     -5.029  0.0000E+00  0.0000E+00  0.0000E+00
     -4.969  0.0000E+00  0.0000E+00  0.0000E+00
     -4.908  0.0000E+00  0.0000E+00  0.0000E+00
     -4.848  0.0000E+00  0.0000E+00  0.0000E+00
     -4.788  0.0000E+00  0.0000E+00  0.0000E+00
     -4.727  0.0000E+00  0.0000E+00  0.0000E+00
     -4.667  0.0000E+00  0.0000E+00  0.0000E+00
     -4.607  0.0000E+00  0.0000E+00  0.0000E+00
     -4.546  0.0000E+00  0.0000E+00  0.0000E+00
     -4.486  0.0000E+00  0.0000E+00  0.0000E+00
     -4.426  0.0000E+00  0.0000E+00  0.0000E+00
     -4.365  0.0000E+00  0.0000E+00  0.0000E+00
     -4.305  0.0000E+00  0.0000E+00  0.0000E+00
     -4.245  0.0000E+00  0.0000E+00  0.0000E+00
     -4.184  0.0000E+00  0.0000E+00  0.0000E+00
     -4.124  0.0000E+00  0.0000E+00  0.0000E+00
     -4.064  0.0000E+00  0.0000E+00  0.0000E+00
     -4.003  0.0000E+00  0.0000E+00  0.0000E+00
     -3.943  0.0000E+00  0.0000E+00  0.0000E+00
     -3.883  0.0000E+00  0.0000E+00  0.0000E+00
     -3.822  0.0000E+00  0.0000E+00  0.0000E+00
     -3.762  0.0000E+00  0.0000E+00  0.0000E+00
     -3.702  0.0000E+00  0.0000E+00  0.0000E+00
     -3.642  0.0000E+00  0.0000E+00  0.0000E+00
     -3.581  0.0000E+00  0.0000E+00  0.0000E+00
     -3.521  0.0000E+00  0.0000E+00  0.0000E+00
     -3.461  0.0000E+00  0.0000E+00  0.0000E+00
     -3.400  0.0000E+00  0.0000E+00  0.0000E+00
     -3.340  0.0000E+00  0.0000E+00  0.0000E+00
     -3.280  0.0000E+00  0.0000E+00  0.0000E+00
     -3.219  0.0000E+00  0.0000E+00  0.0000E+00
     -3.159  0.0000E+00  0.0000E+00  0.0000E+00
     -3.099  0.0000E+00  0.0000E+00  0.0000E+00
     -3.038  0.0000E+00  0.0000E+00  0.0000E+00
     -2.978  0.0000E+00  0.0000E+00  0.0000E+00
     -2.918  0.0000E+00  0.0000E+00  0.0000E+00
     -2.857  0.0000E+00  0.0000E+00  0.0000E+00
     -2.797  0.0000E+00  0.0000E+00  0.0000E+00
     -2.737  0.0000E+00  0.0000E+00  0.0000E+00
     -2.676  0.0000E+00  0.0000E+00  0.0000E+00
     -2.616  0.0000E+00  0.0000E+00  0.0000E+00
     -2.556  0.0000E+00  0.0000E+00  0.0000E+00
     -2.495  0.0000E+00  0.0000E+00  0.0000E+00
     -2.435  0.0000E+00  0.0000E+00  0.0000E+00
     -2.375  0.0000E+00  0.0000E+00  0.0000E+00
     -2.315  0.8135E-15  0.3211E-14  0.6022E-15
     -2.254  0.3411E-10  0.1348E-09  0.2530E-10
     -2.194  0.8641E-07  0.3435E-06  0.6450E-07
     -2.134  0.1475E-04  0.5967E-04  0.1128E-04
     -2.073  0.2268E-03  0.9378E-03  0.1911E-03
     -2.013  0.7508E-03  0.2711E-02  0.8550E-03
     -1.953  0.1342E-02  0.4052E-02  0.1719E-02
     -1.892  0.1579E-02  0.4341E-02  0.1403E-02
     -1.832  0.1932E-02  0.5852E-02  0.1711E-02
     -1.772  0.3467E-02  0.4900E-02  0.2014E-02
     -1.711  0.9741E-02  0.8588E-02  0.2880E-02
     -1.651  0.5798E-02  0.7282E-02  0.1930E-02
     -1.591  0.2177E-02  0.3668E-02  0.1360E-02
     -1.530  0.4959E-02  0.6136E-02  0.2647E-02
     -1.470  0.9018E-02  0.1341E-01  0.3824E-02
     -1.410  0.1388E-01  0.2268E-01  0.6512E-02
     -1.349  0.1651E-01  0.2648E-01  0.7267E-02
     -1.289  0.3829E-01  0.3528E-01  0.8049E-02
     -1.229  0.4034E-01  0.2989E-01  0.7907E-02
     -1.168  0.1556E-01  0.1505E-01  0.6096E-02
     -1.108  0.9683E-02  0.1472E-01  0.6232E-02
     -1.048  0.2076E-01  0.2268E-01  0.7154E-02
     -0.988  0.2250E-01  0.2259E-01  0.6060E-02
     -0.927  0.3625E-01  0.3530E-01  0.6328E-02
     -0.867  0.4060E-01  0.2764E-01  0.4588E-02
     -0.807  0.1788E-01  0.2017E-01  0.3926E-02
     -0.746  0.1902E-01  0.3816E-01  0.6127E-02
     -0.686  0.1314E-01  0.3781E-01  0.6540E-02
     -0.626  0.9668E-02  0.3479E-01  0.8546E-02
     -0.565  0.7174E-02  0.2444E-01  0.6926E-02
     -0.505  0.1650E-01  0.4017E-01  0.9534E-02
     -0.445  0.1525E-01  0.4970E-01  0.1212E-01
     -0.384  0.1740E-01  0.4139E-01  0.1149E-01
     -0.324  0.1845E-01  0.3316E-01  0.7695E-02
     -0.264  0.2176E-01  0.4341E-01  0.9833E-02
     -0.203  0.2658E-01  0.5458E-01  0.1388E-01
     -0.143  0.2480E-01  0.6264E-01  0.2193E-01
     -0.083  0.1862E-01  0.6294E-01  0.2170E-01
     -0.022  0.1474E-01  0.3839E-01  0.2040E-01
      0.038  0.1947E-01  0.4292E-01  0.2582E-01
      0.098  0.2555E-01  0.6463E-01  0.2714E-01
      0.158  0.2351E-01  0.6688E-01  0.2549E-01
      0.219  0.1772E-01  0.6626E-01  0.3168E-01
      0.279  0.1474E-01  0.4027E-01  0.2698E-01
      0.339  0.1740E-01  0.6246E-01  0.3112E-01
      0.400  0.1642E-01  0.5848E-01  0.3162E-01
      0.460  0.3071E-01  0.2495E-01  0.2734E-01
      0.520  0.2433E-01  0.2696E-01  0.2674E-01
      0.581  0.2115E-01  0.5809E-01  0.3679E-01
      0.641  0.2655E-01  0.8287E-01  0.4420E-01
      0.701  0.1646E-01  0.6047E-01  0.4040E-01
      0.762  0.1034E-01  0.3618E-01  0.3096E-01
      0.822  0.9638E-02  0.2119E-01  0.2373E-01
      0.882  0.1167E-01  0.2930E-01  0.2369E-01
      0.943  0.1274E-01  0.3936E-01  0.2807E-01
      1.003  0.5460E-02  0.2437E-01  0.1898E-01
      1.063  0.2894E-02  0.1092E-01  0.1751E-01
      1.124  0.7636E-02  0.1679E-01  0.2239E-01
      1.184  0.9869E-02  0.1577E-01  0.1606E-01
      1.244  0.3818E-02  0.1284E-01  0.1465E-01
      1.305  0.2210E-02  0.1778E-01  0.1466E-01
      1.365  0.2309E-02  0.1780E-01  0.1586E-01
      1.425  0.1854E-02  0.1545E-01  0.1245E-01
      1.485  0.3656E-02  0.1834E-01  0.1141E-01
      1.546  0.8099E-02  0.1722E-01  0.1223E-01
      1.606  0.1133E-01  0.1246E-01  0.1165E-01
      1.666  0.6899E-02  0.1030E-01  0.9382E-02
      1.727  0.5765E-02  0.7608E-02  0.5895E-02
      1.787  0.1517E-02  0.6023E-02  0.3284E-02
      1.847  0.1397E-02  0.7365E-02  0.3035E-02
      1.908  0.3390E-02  0.1402E-01  0.4540E-02
      1.968  0.2662E-02  0.1121E-01  0.4073E-02
      2.028  0.9189E-03  0.2566E-02  0.1584E-02
      2.089  0.1100E-03  0.2226E-03  0.1932E-03
      2.149  0.1310E-05  0.2565E-05  0.2416E-05
      2.209  0.1060E-08  0.2084E-08  0.2066E-08
      2.270  0.5247E-13  0.1038E-12  0.1079E-12
      2.330  0.1081E-18  0.2254E-18  0.3241E-18
      2.390  0.0000E+00  0.0000E+00  0.0000E+00
      2.451  0.0000E+00  0.0000E+00  0.0000E+00
      2.511  0.0000E+00  0.0000E+00  0.0000E+00
      2.571  0.0000E+00  0.0000E+00  0.0000E+00
      2.632  0.0000E+00  0.0000E+00  0.0000E+00
      2.692  0.0000E+00  0.0000E+00  0.0000E+00
      2.752  0.0000E+00  0.0000E+00  0.0000E+00
      2.812  0.0000E+00  0.0000E+00  0.0000E+00
      2.873  0.0000E+00  0.0000E+00  0.0000E+00
      2.933  0.0000E+00  0.0000E+00  0.0000E+00
      2.993  0.0000E+00  0.0000E+00  0.0000E+00
      3.054  0.9117E-15  0.4276E-14  0.5151E-14
      3.114  0.4816E-10  0.2226E-09  0.2686E-09
      3.174  0.1594E-06  0.6937E-06  0.8435E-06
      3.235  0.4003E-04  0.1422E-03  0.1780E-03
      3.295  0.1084E-02  0.2392E-02  0.3262E-02
      3.355  0.6233E-02  0.5225E-02  0.8877E-02
      3.416  0.2038E-01  0.6738E-02  0.1421E-01
      3.476  0.1661E-01  0.6250E-02  0.1113E-01
      3.536  0.1347E-01  0.1095E-01  0.7960E-02
      3.597  0.1232E-01  0.1610E-01  0.9692E-02
      3.657  0.9794E-02  0.1465E-01  0.1478E-01
      3.717  0.1666E-01  0.1530E-01  0.1443E-01
      3.778  0.1338E-01  0.1144E-01  0.1147E-01
      3.838  0.1028E-01  0.1102E-01  0.1086E-01
      3.898  0.4556E-02  0.1510E-01  0.1130E-01
      3.959  0.5681E-02  0.1283E-01  0.1357E-01
      4.019  0.1366E-01  0.1480E-01  0.1866E-01
      4.079  0.1987E-01  0.2015E-01  0.2390E-01
      4.139  0.2059E-01  0.1634E-01  0.2633E-01
      4.200  0.1850E-01  0.1703E-01  0.2800E-01
      4.260  0.1798E-01  0.2215E-01  0.1972E-01
      4.320  0.3015E-01  0.1956E-01  0.2193E-01
      4.381  0.4070E-01  0.1592E-01  0.2345E-01
      4.441  0.2190E-01  0.1714E-01  0.1513E-01
      4.501  0.1063E-01  0.1233E-01  0.1028E-01
      4.562  0.9187E-02  0.1419E-01  0.1195E-01
      4.622  0.5937E-02  0.1230E-01  0.6044E-02
      4.682  0.2863E-02  0.6284E-02  0.4083E-02
      4.743  0.2559E-02  0.2150E-02  0.3375E-02
      4.803  0.1083E-02  0.1109E-02  0.1558E-02
      4.863  0.1226E-03  0.1441E-03  0.1518E-03
      4.924  0.1916E-05  0.2212E-05  0.1909E-05
      4.984  0.2378E-08  0.2688E-08  0.2105E-08
      5.044  0.1879E-12  0.2106E-12  0.1590E-12
      5.105  0.9027E-18  0.1007E-17  0.7468E-18
      5.165  0.0000E+00  0.0000E+00  0.0000E+00
      5.225  0.0000E+00  0.0000E+00  0.0000E+00
      5.286  0.0000E+00  0.0000E+00  0.0000E+00
      5.346  0.0000E+00  0.0000E+00  0.0000E+00
      5.406  0.0000E+00  0.0000E+00  0.0000E+00
      5.466  0.0000E+00  0.0000E+00  0.0000E+00
      5.527  0.0000E+00  0.0000E+00  0.0000E+00
      5.587  0.0000E+00  0.0000E+00  0.0000E+00
      5.58709305    -12.50822812  301      2.21306962      1.00000000
    -12.508  0.0000E+00  0.0000E+00  0.0000E+00
    -12.448  0.0000E+00  0.0000E+00  0.0000E+00
    -12.388  0.0000E+00  0.0000E+00  0.0000E+00
    -12.327  0.0000E+00  0.0000E+00  0.0000E+00
    -12.267  0.0000E+00  0.0000E+00  0.0000E+00
    -12.207  0.0000E+00  0.0000E+00  0.0000E+00
    -12.146  0.0000E+00  0.0000E+00  0.0000E+00
    -12.086  0.0000E+00  0.0000E+00  0.0000E+00
    -12.026  0.0000E+00  0.0000E+00  0.0000E+00
    -11.965  0.4473E-18  0.1365E-13  0.2162E-18
    -11.905  0.9617E-13  0.2932E-08  0.4646E-13
    -11.845  0.1201E-08  0.3660E-04  0.5799E-09
    -11.784  0.9183E-06  0.2795E-01  0.4430E-06
    -11.724  0.4800E-04  0.1457E+01  0.2313E-04
    -11.664  0.2368E-03  0.6561E+01  0.1111E-03
    -11.603  0.6253E-03  0.7418E+01  0.2453E-03
    -11.543  0.1080E-02  0.1830E+02  0.4655E-03
    -11.483  0.5196E-03  0.3299E+02  0.4909E-03
    -11.423  0.2174E-03  0.2543E+02  0.3606E-03
    -11.362  0.2021E-04  0.4721E+01  0.5922E-04
    -11.302  0.2414E-06  0.1319E+00  0.1460E-05
    -11.242  0.3943E-09  0.3339E-03  0.3499E-08
    -11.181  0.6072E-13  0.5722E-07  0.5885E-12
    -11.121  0.6139E-18  0.5918E-12  0.6045E-17
    -11.061  0.0000E+00  0.0000E+00  0.0000E+00
    -11.000  0.0000E+00  0.0000E+00  0.0000E+00
    -10.940  0.0000E+00  0.0000E+00  0.0000E+00
    -10.880  0.5282E-18  0.1873E-16  0.1148E-19
    -10.819  0.1224E-12  0.4355E-11  0.2666E-14
    -10.759  0.1670E-08  0.5990E-07  0.3657E-10
    -10.699  0.1440E-05  0.5290E-04  0.3217E-07
    -10.638  0.9500E-04  0.3688E-02  0.2302E-05
    -10.578  0.7412E-03  0.3044E-01  0.2224E-04
    -10.518  0.1055E-02  0.4253E-01  0.3998E-04
    -10.457  0.2808E-03  0.1617E-01  0.1831E-04
    -10.397  0.1622E-03  0.2508E-01  0.3799E-04
    -10.337  0.4776E-03  0.3276E-01  0.1009E-03
    -10.276  0.6459E-03  0.3786E-01  0.1350E-03
    -10.216  0.2927E-03  0.1805E-01  0.7787E-04
    -10.156  0.1582E-03  0.1279E-01  0.7451E-04
    -10.096  0.3938E-03  0.1381E-01  0.7393E-04
    -10.035  0.4276E-03  0.1208E-01  0.9371E-04
     -9.975  0.6414E-03  0.1912E-01  0.2161E-03
     -9.915  0.8409E-03  0.2463E-01  0.2301E-03
     -9.854  0.2187E-02  0.4630E-01  0.3318E-03
     -9.794  0.2492E-02  0.6179E-01  0.4720E-03
     -9.734  0.2925E-02  0.7898E-01  0.8039E-03
     -9.673  0.2008E-02  0.5904E-01  0.8393E-03
     -9.613  0.2537E-02  0.4948E-01  0.9796E-03
     -9.553  0.5252E-02  0.1470E+00  0.2824E-02
     -9.492  0.5942E-02  0.1984E+00  0.4160E-02
     -9.432  0.2184E-02  0.9836E-01  0.2551E-02
     -9.372  0.9426E-03  0.5067E-01  0.1825E-02
     -9.311  0.1414E-02  0.6648E-01  0.2488E-02
     -9.251  0.8482E-03  0.4397E-01  0.2106E-02
     -9.191  0.9520E-04  0.6793E-02  0.4420E-03
     -9.130  0.1693E-05  0.1716E-03  0.1312E-04
     -9.070  0.3342E-08  0.4070E-06  0.3248E-07
     -9.010  0.5067E-12  0.6618E-10  0.5270E-11
     -8.949  0.4804E-17  0.6517E-15  0.5118E-16
     -8.889  0.0000E+00  0.0000E+00  0.0000E+00
     -8.829  0.0000E+00  0.0000E+00  0.0000E+00
     -8.769  0.0000E+00  0.0000E+00  0.0000E+00
     -8.708  0.0000E+00  0.0000E+00  0.0000E+00
     -8.648  0.0000E+00  0.0000E+00  0.0000E+00
     -8.588  0.0000E+00  0.0000E+00  0.0000E+00
     -8.527  0.0000E+00  0.0000E+00  0.0000E+00
     -8.467  0.0000E+00  0.0000E+00  0.0000E+00
     -8.407  0.0000E+00  0.0000E+00  0.0000E+00
     -8.346  0.0000E+00  0.0000E+00  0.0000E+00
     -8.286  0.0000E+00  0.0000E+00  0.0000E+00
     -8.226  0.0000E+00  0.0000E+00  0.0000E+00
     -8.165  0.0000E+00  0.0000E+00  0.0000E+00
     -8.105  0.0000E+00  0.0000E+00  0.0000E+00
     -8.045  0.0000E+00  0.0000E+00  0.0000E+00
     -7.984  0.0000E+00  0.0000E+00  0.0000E+00
     -7.924  0.0000E+00  0.0000E+00  0.0000E+00
     -7.864  0.0000E+00  0.0000E+00  0.0000E+00
     -7.803  0.0000E+00  0.0000E+00  0.0000E+00
     -7.743  0.0000E+00  0.0000E+00  0.0000E+00
     -7.683  0.0000E+00  0.0000E+00  0.0000E+00
     -7.622  0.0000E+00  0.0000E+00  0.0000E+00
     -7.562  0.0000E+00  0.0000E+00  0.0000E+00
     -7.502  0.0000E+00  0.0000E+00  0.0000E+00
     -7.442  0.0000E+00  0.0000E+00  0.0000E+00
     -7.381  0.0000E+00  0.0000E+00  0.0000E+00
     -7.321  0.0000E+00  0.0000E+00  0.0000E+00
     -7.261  0.0000E+00  0.0000E+00  0.0000E+00
     -7.200  0.0000E+00  0.0000E+00  0.0000E+00
     -7.140  0.0000E+00  0.0000E+00  0.0000E+00