 vasp.5.4.4.18Apr17-6-g9f103f2a35 (build Oct 27 2022 13:04:57) complex          
  
 executed on             LinuxIFC date 2024.06.30  00:56:58
 running on   14 total cores
 distrk:  each k-point on   14 cores,    1 groups
 distr:  one band on NCORES_PER_BAND=   1 cores,   14 groups


--------------------------------------------------------------------------------------------------------


 INCAR:
 POTCAR:    PAW_PBE K_pv 17Jan2003                
 POTCAR:    PAW_PBE Sc 04Feb2005                  
 POTCAR:    PAW_PBE Se 06Sep2000                  

 ----------------------------------------------------------------------------- 
|                                                                             |
|           W    W    AA    RRRRR   N    N  II  N    N   GGGG   !!!           |
|           W    W   A  A   R    R  NN   N  II  NN   N  G    G  !!!           |
|           W    W  A    A  R    R  N N  N  II  N N  N  G       !!!           |
|           W WW W  AAAAAA  RRRRR   N  N N  II  N  N N  G  GGG   !            |
|           WW  WW  A    A  R   R   N   NN  II  N   NN  G    G                |
|           W    W  A    A  R    R  N    N  II  N    N   GGGG   !!!           |
|                                                                             |
|      For optimal performance we recommend to set                            |
|        NCORE= 4 - approx SQRT( number of cores)                             |
|      NCORE specifies how many cores store one orbital (NPAR=cpu/NCORE).     |
|      This setting can  greatly improve the performance of VASP for DFT.     |
|      The default,   NCORE=1            might be grossly inefficient         |
|      on modern multi-core architectures or massively parallel machines.     |
|      Do your own testing !!!!                                               |
|      Unfortunately you need to use the default for GW and RPA calculations. |
|      (for HF NCORE is supported but not extensively tested yet)             |
|                                                                             |
 ----------------------------------------------------------------------------- 

 POTCAR:    PAW_PBE K_pv 17Jan2003                
   VRHFIN =K:  p6s1                                                             
   LEXCH  = PE                                                                  
   EATOM  =   450.4813 eV,   33.1094 Ry                                         
                                                                                
   TITEL  = PAW_PBE K_pv 17Jan2003                                              
   LULTRA =        F    use ultrasoft PP ?                                      
   IUNSCR =        1    unscreen: 0-lin 1-nonlin 2-no                           
   RPACOR =    2.500    partial core radius                                     
   POMASS =   39.098; ZVAL   =    7.000    mass and valenz                      
   RCORE  =    3.100    outmost cutoff radius                                   
   RWIGS  =    4.300; RWIGS  =    2.275    wigner-seitz radius (au A)           
   ENMAX  =  116.731; ENMIN  =   87.548 eV                                      
   RCLOC  =    2.806    cutoff for local pot                                    
   LCOR   =        T    correct aug charges                                     
   LPAW   =        T    paw PP                                                  
   EAUG   =  291.424                                                            
   DEXC   =    0.000                                                            
   RMAX   =    3.171    core radius for proj-oper                               
   RAUG   =    1.300    factor for augmentation sphere                          
   RDEP   =    3.267    radius for radial grids                                 
   RDEPT  =    2.513    core radius for aug-charge                              
                                                                                
   Atomic configuration                                                         
    7 entries                                                                   
     n  l   j            E        occ.                                          
     1  0  0.50     -3522.0595   2.0000                                         
     2  0  0.50      -353.3851   2.0000                                         
     2  1  1.50      -280.0935   6.0000                                         
     3  0  0.50       -35.3419   2.0000                                         
     3  1  1.50       -18.8125   6.0000                                         
     4  0  0.50        -2.3190   1.0000                                         
     3  2  1.50        -1.3606   0.0000                                         
   Description                                                                  
     l       E           TYP  RCUT    TYP  RCUT                                 
     1    -18.8124623     23  3.000                                             
     1    -20.4087390     23  3.000                                             
     0     -2.3190215     23  3.100                                             
     0     20.4087390     23  3.100                                             
     2     -1.3605826     23  3.000                                             
  local pseudopotential read in
  partial core-charges read in
  partial kinetic energy density read in
  atomic valenz-charges read in
  non local Contribution for L=           1  read in
    real space projection operators read in
  non local Contribution for L=           1  read in
    real space projection operators read in
  non local Contribution for L=           0  read in
    real space projection operators read in
  non local Contribution for L=           0  read in
    real space projection operators read in
  non local Contribution for L=           2  read in
    real space projection operators read in
    PAW grid and wavefunctions read in
 
   number of l-projection  operators is LMAX  =           5
   number of lm-projection operators is LMMAX =          13
 
 POTCAR:    PAW_PBE Sc 04Feb2005                  
   VRHFIN =Sc: 3p4s3d                                                           
   LEXCH  = PE                                                                  
   EATOM  =    44.6420 eV,    3.2811 Ry                                         
                                                                                
   TITEL  = PAW_PBE Sc 04Feb2005                                                
   LULTRA =        F    use ultrasoft PP ?                                      
   IUNSCR =        1    unscreen: 0-lin 1-nonlin 2-no                           
   RPACOR =    2.000    partial core radius                                     
   POMASS =   44.956; ZVAL   =    3.000    mass and valenz                      
   RCORE  =    3.000    outmost cutoff radius                                   
   RWIGS  =    3.000; RWIGS  =    1.588    wigner-seitz radius (au A)           
   ENMAX  =  154.763; ENMIN  =  116.072 eV                                      
   RCLOC  =    1.776    cutoff for local pot                                    
   LCOR   =        T    correct aug charges                                     
   LPAW   =        T    paw PP                                                  
   EAUG   =  301.784                                                            
   DEXC   =    0.000                                                            
   RMAX   =    3.066    core radius for proj-oper                               
   RAUG   =    1.300    factor for augmentation sphere                          
   RDEP   =    3.011    radius for radial grids                                 
   RDEPT  =    2.461    core radius for aug-charge                              
                                                                                
   Atomic configuration                                                         
    9 entries                                                                   
     n  l   j            E        occ.                                          
     1  0  0.50     -4394.2533   2.0000                                         
     2  0  0.50      -471.0040   2.0000                                         
     2  1  1.50      -384.9788   6.0000                                         
     3  0  0.50       -52.1410   2.0000                                         
     3  1  1.50       -30.8841   6.0000                                         
     3  2  2.50        -1.3655   2.0000                                         
     4  0  0.50        -3.5584   1.0000                                         
     4  1  0.50        -2.7212   0.0000                                         
     4  3  2.50        -1.3606   0.0000                                         
   Description                                                                  
     l       E           TYP  RCUT    TYP  RCUT                                 
     2     -1.3655439     23  3.000                                             
     2     -2.7261265     23  3.000                                             
     0     -3.5583719     23  3.000                                             
     0     27.2116520     23  3.000                                             
     1     -5.4423304     23  3.000                                             
  local pseudopotential read in
  partial core-charges read in
  partial kinetic energy density read in
  atomic valenz-charges read in
  non local Contribution for L=           2  read in
    real space projection operators read in
  non local Contribution for L=           2  read in
    real space projection operators read in
  non local Contribution for L=           0  read in
    real space projection operators read in
  non local Contribution for L=           0  read in
    real space projection operators read in
  non local Contribution for L=           1  read in
    real space projection operators read in
    PAW grid and wavefunctions read in
 
   number of l-projection  operators is LMAX  =           5
   number of lm-projection operators is LMMAX =          15
 
 POTCAR:    PAW_PBE Se 06Sep2000                  
   VRHFIN =Se: s2p4                                                             
   LEXCH  = PE                                                                  
   EATOM  =   257.1286 eV,   18.8984 Ry                                         
                                                                                
   TITEL  = PAW_PBE Se 06Sep2000                                                
   LULTRA =        F    use ultrasoft PP ?                                      
   IUNSCR =        1    unscreen: 0-lin 1-nonlin 2-no                           
   RPACOR =    1.900    partial core radius                                     
   POMASS =   78.960; ZVAL   =    6.000    mass and valenz                      
   RCORE  =    2.100    outmost cutoff radius                                   
   RWIGS  =    2.200; RWIGS  =    1.164    wigner-seitz radius (au A)           
   ENMAX  =  211.555; ENMIN  =  158.666 eV                                      
   ICORE  =        3    local potential                                         
   LCOR   =        T    correct aug charges                                     
   LPAW   =        T    paw PP                                                  
   EAUG   =  446.842                                                            
   DEXC   =    0.000                                                            
   RMAX   =    2.147    core radius for proj-oper                               
   RAUG   =    1.300    factor for augmentation sphere                          
   RDEP   =    2.177    radius for radial grids                                 
   RDEPT  =    1.928    core radius for aug-charge                              
                                                                                
   Atomic configuration                                                         
   10 entries                                                                   
     n  l   j            E        occ.                                          
     1  0  0.50    -12503.4787   2.0000                                         
     2  0  0.50     -1606.9547   2.0000                                         
     2  1  1.50     -1413.3140   6.0000                                         
     3  0  0.50      -213.4885   2.0000                                         
     3  1  1.50      -152.9538   6.0000                                         
     3  2  2.50       -53.1221  10.0000                                         
     4  0  0.50       -17.2865   2.0000                                         
     4  1  0.50        -6.5110   4.0000                                         
     4  2  2.50        -6.8029   0.0000                                         
     4  3  2.50        -6.8029   0.0000                                         
   Description                                                                  
     l       E           TYP  RCUT    TYP  RCUT                                 
     0    -17.2865377     23  2.100                                             
     0    -15.3094411     23  2.100                                             
     1     -6.5110275     23  2.100                                             
     1     -0.0695192     23  2.100                                             
     2     -6.8029130     23  2.100                                             
     3     -1.3605826      7  2.100                                             
  local pseudopotential read in
  partial core-charges read in
  partial kinetic energy density read in
  atomic valenz-charges read in
  non local Contribution for L=           0  read in
    real space projection operators read in
  non local Contribution for L=           0  read in
    real space projection operators read in
  non local Contribution for L=           1  read in
    real space projection operators read in
  non local Contribution for L=           1  read in
    real space projection operators read in
  non local Contribution for L=           2  read in
    real space projection operators read in
    PAW grid and wavefunctions read in
 
   number of l-projection  operators is LMAX  =           5
   number of lm-projection operators is LMMAX =          13
 
 Optimization of the real space projectors (new method)

 maximal supplied QI-value         = 12.09
 optimisation between [QCUT,QGAM] = [  8.83, 17.66] = [ 21.83, 87.31] Ry 
 Optimized for a Real-space Cutoff    1.69 Angstroem

   l    n(q)    QCUT    max X(q) W(low)/X(q) W(high)/X(q)  e(spline) 
   1      8     8.829    42.457    0.27E-03    0.59E-03    0.25E-06
   1      8     8.829    43.305    0.28E-03    0.61E-03    0.26E-06
   0      9     8.829    47.210    0.17E-02    0.12E-03    0.43E-06
   0      9     8.829    15.951    0.11E-02    0.76E-04    0.28E-06
   2      8     8.829     5.674    0.29E-03    0.69E-04    0.39E-07
 Optimization of the real space projectors (new method)

 maximal supplied QI-value         = 12.47
 optimisation between [QCUT,QGAM] = [  8.86, 17.71] = [ 21.96, 87.83] Ry 
 Optimized for a Real-space Cutoff    1.74 Angstroem

   l    n(q)    QCUT    max X(q) W(low)/X(q) W(high)/X(q)  e(spline) 
   2      8     8.855   127.680    0.85E-03    0.55E-03    0.13E-06
   2      8     8.855   113.778    0.85E-03    0.55E-03    0.13E-06
   0      9     8.855    22.778    0.87E-04    0.17E-03    0.16E-06
   0      9     8.855    11.292    0.61E-04    0.12E-03    0.12E-06
   1      9     8.855    11.256    0.72E-04    0.28E-04    0.22E-07
 Optimization of the real space projectors (new method)

 maximal supplied QI-value         = 17.95
 optimisation between [QCUT,QGAM] = [  8.80, 17.59] = [ 21.67, 86.68] Ry 
 Optimized for a Real-space Cutoff    1.19 Angstroem

   l    n(q)    QCUT    max X(q) W(low)/X(q) W(high)/X(q)  e(spline) 
   0      6     8.797   133.320    0.14E-02    0.11E-02    0.95E-07
   0      6     8.797   111.601    0.15E-02    0.12E-02    0.10E-06
   1      6     8.797    47.222    0.19E-02    0.96E-03    0.11E-06
   1      6     8.797    33.775    0.19E-02    0.99E-03    0.11E-06
   2      5     8.797     3.720    0.16E-02    0.14E-02    0.40E-07
  PAW_PBE K_pv 17Jan2003                :
 energy of atom  1       EATOM= -450.4813
 kinetic energy error for atom=    0.0008 (will be added to EATOM!!)
  PAW_PBE Sc 04Feb2005                  :
 energy of atom  2       EATOM=  -44.6420
 kinetic energy error for atom=    0.0004 (will be added to EATOM!!)
  PAW_PBE Se 06Sep2000                  :
 energy of atom  3       EATOM= -257.1286
 kinetic energy error for atom=    0.0040 (will be added to EATOM!!)
 
 
 POSCAR: K2 Sc6 Se10                             
  positions in direct lattice
  No initial velocities read in
 exchange correlation table for  LEXCH =        8
   RHO(1)=    0.500       N(1)  =     2000
   RHO(2)=  100.500       N(2)  =     4000
 


--------------------------------------------------------------------------------------------------------


 ion  position               nearest neighbor table
   1  0.745  0.334  0.174-  15 3.19  17 3.19  15 3.19  17 3.19  12 3.37   9 3.37  12 3.38  11 3.71
                             5 3.86   4 4.21   7 4.41   7 4.42   8 4.46   3 4.51   3 4.51   2 4.52
   2  0.255  0.666  0.826-  16 3.19  18 3.19  16 3.19  18 3.19  11 3.37  10 3.37  11 3.38  12 3.71
                             6 3.86   4 4.21   8 4.42   8 4.42   7 4.46   3 4.51   3 4.51   1 4.52
   3  0.500  0.000  1.000-   9 2.38  10 2.38  10 2.38   9 2.38  12 2.49  11 2.49   8 3.47   7 3.47
                             8 3.47   7 3.47   2 4.51   1 4.51   2 4.51   1 4.51
   4  0.500  0.500  0.500-  17 2.43  18 2.43  18 2.43  17 2.43  14 2.43  13 2.43   8 3.60   7 3.60
                             8 3.60   7 3.61   1 4.21   2 4.21
   5  0.836  0.940  0.389-  16 2.34  15 2.36  15 2.36   9 2.42  13 2.50  13 2.50   7 3.00   6 3.40
                             6 3.41   1 3.86
   6  0.164  0.060  0.611-  15 2.34  16 2.36  16 2.36  10 2.42  14 2.50  14 2.50   8 3.00   5 3.40
                             5 3.41   2 3.86
   7  0.021  0.732  0.225-  17 2.37  11 2.38  11 2.38   9 2.42  13 2.53  13 2.53   5 3.00   3 3.47
                             3 3.47   4 3.60   4 3.61   1 4.41   1 4.42   2 4.46
   8  0.979  0.268  0.775-  18 2.37  12 2.38  12 2.38  10 2.42  14 2.53  14 2.53   6 3.00   3 3.47
                             3 3.47   4 3.60   4 3.60   2 4.42   2 4.42   1 4.46
   9  0.927  0.993  0.152-   3 2.38   3 2.38   5 2.42   7 2.42   1 3.37
  10  0.073  0.007  0.848-   3 2.38   3 2.38   6 2.42   8 2.42   2 3.37
  11  0.597  0.732  0.074-   7 2.38   7 2.38   3 2.49   2 3.37   2 3.38   1 3.71
  12  0.403  0.268  0.926-   8 2.38   8 2.38   3 2.49   1 3.37   1 3.38   2 3.71
  13  0.427  0.756  0.389-   4 2.43   5 2.50   5 2.50   7 2.53   7 2.53
  14  0.573  0.244  0.611-   4 2.43   6 2.50   6 2.50   8 2.53   8 2.53
  15  0.256  0.104  0.382-   6 2.34   5 2.36   5 2.36   1 3.19   1 3.19
  16  0.743  0.896  0.618-   5 2.34   6 2.36   6 2.36   2 3.19   2 3.19
  17  0.083  0.487  0.347-   7 2.37   4 2.43   4 2.43   1 3.19   1 3.19
  18  0.917  0.513  0.653-   8 2.37   4 2.43   4 2.43   2 3.19   2 3.19
 
  LATTYP: Found a triclinic cell.
 ALAT       =    11.8574682033
 B/A-ratio  =     1.3714984827
 C/A-ratio  =     0.2970818413
 COS(alpha) =     0.0000774490
 COS(beta)  =     0.4456297909
 COS(gamma) =     0.7344375593
  
  Lattice vectors:
  
 A1 = (   2.9965195900,   5.2839992900,  10.1833086000)
 A2 = (  12.6871385200,   0.0006265700,  10.1737608900)
 A3 = (   0.0002148400,   3.5226384800,  -0.0000487600)


Analysis of symmetry for initial positions (statically):
=====================================================================
 Subroutine PRICEL returns:
 Original cell was already a primitive cell.
 

 Routine SETGRP: Setting up the symmetry group for a 
 triclinic supercell.


 Subroutine GETGRP returns: Found  1 space group operations
 (whereof  1 operations were pure point group operations)
 out of a pool of  2 trial point group operations.


The static configuration has the point symmetry C_1 .


Analysis of symmetry for dynamics (positions and initial velocities):
=====================================================================
 Subroutine PRICEL returns:
 Original cell was already a primitive cell.
 

 Routine SETGRP: Setting up the symmetry group for a 
 triclinic supercell.


 Subroutine GETGRP returns: Found  1 space group operations
 (whereof  1 operations were pure point group operations)
 out of a pool of  2 trial point group operations.


The dynamic configuration has the point symmetry C_1 .


 Subroutine INISYM returns: Found  1 space group operations
 (whereof  1 operations are pure point group operations),
 and found     1 'primitive' translations

 
 
 KPOINTS: pymatgen with grid density = 807 / numbe

Automatic generation of k-mesh.
Space group operators:
 irot       det(A)        alpha          n_x          n_y          n_z        tau_x        tau_y        tau_z
    1     1.000000     0.000001     1.000000     0.000000     0.000000     0.000000     0.000000     0.000000
 
 Subroutine IBZKPT returns following result:
 ===========================================
 
 Found     12 irreducible k-points:
 
 Following reciprocal coordinates:
            Coordinates               Weight
  0.083333  0.250000  0.250000      2.000000
  0.250000  0.250000  0.250000      2.000000
  0.416667  0.250000  0.250000      2.000000
 -0.416667  0.250000  0.250000      2.000000
 -0.250000  0.250000  0.250000      2.000000
 -0.083333  0.250000  0.250000      2.000000
  0.083333 -0.250000  0.250000      2.000000
  0.250000 -0.250000  0.250000      2.000000
  0.416667 -0.250000  0.250000      2.000000
 -0.416667 -0.250000  0.250000      2.000000
 -0.250000 -0.250000  0.250000      2.000000
 -0.083333 -0.250000  0.250000      2.000000
 
 Following cartesian coordinates:
            Coordinates               Weight
 -0.021510 -0.023655 -0.014129      2.000000
 -0.012903 -0.070969 -0.008478      2.000000
 -0.004295 -0.118282 -0.002827      2.000000
 -0.047333  0.118285 -0.031082      2.000000
 -0.038725  0.070972 -0.025431      2.000000
 -0.030118  0.023658 -0.019780      2.000000
  0.030069 -0.023659 -0.029305      2.000000
  0.038677 -0.070972 -0.023654      2.000000
  0.047284 -0.118286 -0.018003      2.000000
  0.004246  0.118282 -0.046258      2.000000
  0.012854  0.070968 -0.040607      2.000000
  0.021462  0.023655 -0.034956      2.000000
 


--------------------------------------------------------------------------------------------------------




 Dimension of arrays:
   k-points           NKPTS =     12   k-points in BZ     NKDIM =     12   number of bands    NBANDS=     56
   number of dos      NEDOS =    301   number of ions     NIONS =     18
   non local maximal  LDIM  =      5   non local SUM 2l+1 LMDIM =     15
   total plane-waves  NPLWV =  32256
   max r-space proj   IRMAX =   2103   max aug-charges    IRDMAX=   4199
   dimension x,y,z NGX =    16 NGY =   42 NGZ =   48
   dimension x,y,z NGXF=    24 NGYF=   70 NGZF=   80
   support grid    NGXF=    24 NGYF=   70 NGZF=   80
   ions per type =               2   6  10
   NGX,Y,Z   is equivalent  to a cutoff of   7.55,  7.09,  7.42 a.u.
   NGXF,Y,Z  is equivalent  to a cutoff of  11.33, 11.81, 12.36 a.u.

 SYSTEM =  CIS                                     
 POSCAR =  K2 Sc6 Se10                             

 Startparameter for this run:
   NWRITE =      2    write-flag & timer
   PREC   = medium    normal or accurate (medium, high low for compatibility)
   ISTART =      0    job   : 0-new  1-cont  2-samecut
   ICHARG =      2    charge: 1-file 2-atom 10-const
   ISPIN  =      1    spin polarized calculation?
   LNONCOLLINEAR =      F non collinear calculations
   LSORBIT =      F    spin-orbit coupling
   INIWAV =      1    electr: 0-lowe 1-rand  2-diag
   LASPH  =      T    aspherical Exc in radial PAW
   METAGGA=      F    non-selfconsistent MetaGGA calc.

 Electronic Relaxation 1
   ENCUT  =  300.0 eV  22.05 Ry    4.70 a.u.   4.97 13.91 15.20*2*pi/ulx,y,z
   ENINI  =  300.0     initial cutoff
   ENAUG  =  446.8 eV  augmentation charge cutoff
   NELM   =     60;   NELMIN=  2; NELMDL= -5     # of ELM steps 
   EDIFF  = 0.1E-03   stopping-criterion for ELM
   LREAL  =      T    real-space projection
   NLSPLINE    = F    spline interpolate recip. space projectors
   LCOMPAT=      F    compatible to vasp.4.4
   GGA_COMPAT  = T    GGA compatible to vasp.4.4-vasp.4.6
   LMAXPAW     = -100 max onsite density
   LMAXMIX     =    4 max onsite mixed and CHGCAR
   VOSKOWN=      0    Vosko Wilk Nusair interpolation
   ROPT   =   -0.00200  -0.00200  -0.00200
 Ionic relaxation
   EDIFFG = -.5E-01   stopping-criterion for IOM
   NSW    =     99    number of steps for IOM
   NBLOCK =      1;   KBLOCK =     99    inner block; outer block 
   IBRION =      2    ionic relax: 0-MD 1-quasi-New 2-CG
   NFREE  =      1    steps in history (QN), initial steepest desc. (CG)
   ISIF   =      3    stress and relaxation
   IWAVPR =     11    prediction:  0-non 1-charg 2-wave 3-comb
   ISYM   =      2    0-nonsym 1-usesym 2-fastsym
   LCORR  =      T    Harris-Foulkes like correction to forces

   POTIM  = 0.1000    time-step for ionic-motion
   TEIN   =    0.0    initial temperature
   TEBEG  =    0.0;   TEEND  =   0.0 temperature during run
   SMASS  =  -3.00    Nose mass-parameter (am)
   estimated Nose-frequenzy (Omega)   =  0.10E-29 period in steps =****** mass=  -0.284E-27a.u.
   SCALEE = 1.0000    scale energy and forces
   NPACO  =    256;   APACO  = 16.0  distance and # of slots for P.C.
   PSTRESS=    0.0 pullay stress

  Mass of Ions in am
   POMASS =  39.10 44.96 78.96
  Ionic Valenz
   ZVAL   =   7.00  3.00  6.00
  Atomic Wigner-Seitz radii
   RWIGS  =  -1.00 -1.00 -1.00
  virtual crystal weights 
   VCA    =   1.00  1.00  1.00
   NELECT =      92.0000    total number of electrons
   NUPDOWN=      -1.0000    fix difference up-down

 DOS related values:
   EMIN   =  10.00;   EMAX   =-10.00  energy-range for DOS
   EFERMI =   0.00
   ISMEAR =     0;   SIGMA  =   0.05  broadening in eV -4-tet -1-fermi 0-gaus

 Electronic relaxation 2 (details)
   IALGO  =     38    algorithm
   LDIAG  =      T    sub-space diagonalisation (order eigenvalues)
   LSUBROT=      F    optimize rotation matrix (better conditioning)
   TURBO    =      0    0=normal 1=particle mesh
   IRESTART =      0    0=no restart 2=restart with 2 vectors
   NREBOOT  =      0    no. of reboots
   NMIN     =      0    reboot dimension
   EREF     =   0.00    reference energy to select bands
   IMIX   =      4    mixing-type and parameters
     AMIX     =   0.40;   BMIX     =  1.00
     AMIX_MAG =   1.60;   BMIX_MAG =  1.00
     AMIN     =   0.10
     WC   =   100.;   INIMIX=   1;  MIXPRE=   1;  MAXMIX= -45

 Intra band minimization:
   WEIMIN = 0.0010     energy-eigenvalue tresh-hold
   EBREAK =  0.45E-06  absolut break condition
   DEPER  =   0.30     relativ break condition  

   TIME   =   0.40     timestep for ELM

  volume/ion in A,a.u.               =      19.32       130.37
  Fermi-wavevector in a.u.,A,eV,Ry     =   1.050961  1.986028 15.027885  1.104518
  Thomas-Fermi vector in A             =   2.185985
 
 Write flags
   LWAVE        =      F    write WAVECAR
   LDOWNSAMPLE  =      F    k-point downsampling of WAVECAR
   LCHARG       =      F    write CHGCAR
   LVTOT        =      F    write LOCPOT, total local potential
   LVHAR        =      F    write LOCPOT, Hartree potential only
   LELF         =      F    write electronic localiz. function (ELF)
   LORBIT       =     10    0 simple, 1 ext, 2 COOP (PROOUT), +10 PAW based schemes


 Dipole corrections
   LMONO  =      F    monopole corrections only (constant potential shift)
   LDIPOL =      F    correct potential (dipole corrections)
   IDIPOL =      0    1-x, 2-y, 3-z, 4-all directions 
   EPSILON=  1.0000000 bulk dielectric constant

 Exchange correlation treatment:
   GGA     =    --    GGA type
   LEXCH   =     8    internal setting for exchange type
   VOSKOWN=      0    Vosko Wilk Nusair interpolation
   LHFCALC =     F    Hartree Fock is set to
   LHFONE  =     F    Hartree Fock one center treatment
   AEXX    =    0.0000 exact exchange contribution

 Linear response parameters
   LEPSILON=     F    determine dielectric tensor
   LRPA    =     F    only Hartree local field effects (RPA)
   LNABLA  =     F    use nabla operator in PAW spheres
   LVEL    =     F    velocity operator in full k-point grid
   LINTERFAST=   F  fast interpolation
   KINTER  =     0    interpolate to denser k-point grid
   CSHIFT  =0.1000    complex shift for real part using Kramers Kronig
   OMEGAMAX=  -1.0    maximum frequency
   DEG_THRESHOLD= 0.2000000E-02 threshold for treating states as degnerate
   RTIME   =   -0.100 relaxation time in fs
  (WPLASMAI=    0.000 imaginary part of plasma frequency in eV, 0.658/RTIME)
   DFIELD  = 0.0000000 0.0000000 0.0000000 field for delta impulse in time
 
 Orbital magnetization related:
   ORBITALMAG=     F  switch on orbital magnetization
   LCHIMAG   =     F  perturbation theory with respect to B field
   DQ        =  0.001000  dq finite difference perturbation B field
   LLRAUG    =     F  two centre corrections for induced B field



--------------------------------------------------------------------------------------------------------


 conjugate gradient relaxation of ions
 charge density and potential will be updated during run
 non-spin polarized calculation
 Variant of blocked Davidson
 Davidson routine will perform the subspace rotation
 perform sub-space diagonalisation
    after iterative eigenvector-optimisation
 modified Broyden-mixing scheme, WC =      100.0
 initial mixing is a Kerker type mixing with AMIX =  0.4000 and BMIX =      1.0000
 Hartree-type preconditioning will be used
 using additional bands           10
 real space projection scheme for non local part
 use partial core corrections
 calculate Harris-corrections to forces 
   (improved forces if not selfconsistent)
 use gradient corrections 
 use of overlap-Matrix (Vanderbilt PP)
 Gauss-broadening in eV      SIGMA  =   0.05


--------------------------------------------------------------------------------------------------------


  energy-cutoff  :      300.00
  volume of cell :      347.74
      direct lattice vectors                 reciprocal lattice vectors
    -0.000214840 -3.522638480  0.000048760     0.051645373 -0.283880804  0.033905443
    -9.691048610 -1.761904240  0.009645230    -0.103159020  0.000006712  0.030351880
    -2.996304750 -1.761360810-10.183357360    -0.000097460 -0.000001353 -0.098170531

  length of vectors
     3.522638487  9.849914860 10.760158046     0.290525617  0.107531484  0.098170579


 
 k-points in units of 2pi/SCALE and weight: pymatgen with grid density = 807 / numbe
  -0.02151034 -0.02365539 -0.01412921       0.083
  -0.01290278 -0.07096886 -0.00847830       0.083
  -0.00429521 -0.11828233 -0.00282739       0.083
  -0.04733303  0.11828501 -0.03108193       0.083
  -0.03872546  0.07097154 -0.02543102       0.083
  -0.03011790  0.02365807 -0.01978012       0.083
   0.03006917 -0.02365875 -0.02930515       0.083
   0.03867673 -0.07097222 -0.02365424       0.083
   0.04728430 -0.11828568 -0.01800333       0.083
   0.00424648  0.11828165 -0.04625787       0.083
   0.01285405  0.07096818 -0.04060696       0.083
   0.02146161  0.02365472 -0.03495606       0.083
 
 k-points in reciprocal lattice and weights: pymatgen with grid density = 807 / numbe
   0.08333333  0.25000000  0.25000000       0.083
   0.25000000  0.25000000  0.25000000       0.083
   0.41666667  0.25000000  0.25000000       0.083
  -0.41666667  0.25000000  0.25000000       0.083
  -0.25000000  0.25000000  0.25000000       0.083
  -0.08333333  0.25000000  0.25000000       0.083
   0.08333333 -0.25000000  0.25000000       0.083
   0.25000000 -0.25000000  0.25000000       0.083
   0.41666667 -0.25000000  0.25000000       0.083
  -0.41666667 -0.25000000  0.25000000       0.083
  -0.25000000 -0.25000000  0.25000000       0.083
  -0.08333333 -0.25000000  0.25000000       0.083
 
 position of ions in fractional coordinates (direct lattice) 
   0.74455108  0.33353700  0.17411992
   0.25534513  0.66647325  0.82590821
   0.50000113  0.00001793  0.99998361
   0.50002426  0.49997072  0.50000546
   0.83556095  0.93954560  0.38893368
   0.16443661  0.06047544  0.61108634
   0.02086149  0.73235058  0.22507608
   0.97915636  0.26764474  0.77491120
   0.92745563  0.99291975  0.15220777
   0.07256651  0.00708647  0.84776804
   0.59678182  0.73230746  0.07396941
   0.40324746  0.26768792  0.92599594
   0.42719923  0.75635984  0.38910314
   0.57283425  0.24362068  0.61089441
   0.25648594  0.10421613  0.38235747
   0.74348672  0.89580859  0.61767721
   0.08326070  0.48658975  0.34669514
   0.91674673  0.51338615  0.65330698
 
 position of ions in cartesian coordinates  (Angst):
  -3.75419958 -3.51713254 -1.76987202
  -8.93355221 -3.52847298 -8.40407771
  -2.99653682 -3.52268675-10.18316590
  -6.34351671 -3.52299525 -5.08688757
 -10.27072543 -5.28382107 -3.95154778
  -2.41710666 -1.76214619 -6.22231926
  -7.77164608 -1.76025927 -2.28496545
  -4.91583866 -5.28567649 -7.88856843
 -10.07869368 -5.28461321 -1.54036395
  -2.60886232 -1.76133666 -8.63305302
  -7.31859030 -3.52278904 -0.74616456
  -5.36882931 -3.52314846 -9.42714600
  -8.49588334 -3.52285308 -3.95506023
  -4.19148874 -3.52312975 -6.21857838
  -2.15567819 -1.76059555 -3.89266506
 -10.53223348 -5.28531631 -6.28135123
  -5.75438710 -1.76127712 -3.52582318
  -6.93295390 -5.28461385 -6.64786202
 


--------------------------------------------------------------------------------------------------------


 k-point  1 :   0.0833 0.2500 0.2500  plane waves:    4075
 k-point  2 :   0.2500 0.2500 0.2500  plane waves:    4100
 k-point  3 :   0.4167 0.2500 0.2500  plane waves:    4122
 k-point  4 :  -0.4167 0.2500 0.2500  plane waves:    4112
 k-point  5 :  -0.2500 0.2500 0.2500  plane waves:    4113
 k-point  6 :  -0.0833 0.2500 0.2500  plane waves:    4067
 k-point  7 :   0.0833-0.2500 0.2500  plane waves:    4087
 k-point  8 :   0.2500-0.2500 0.2500  plane waves:    4111
 k-point  9 :   0.4167-0.2500 0.2500  plane waves:    4119
 k-point 10 :  -0.4167-0.2500 0.2500  plane waves:    4130
 k-point 11 :  -0.2500-0.2500 0.2500  plane waves:    4103
 k-point 12 :  -0.0833-0.2500 0.2500  plane waves:    4082

 maximum and minimum number of plane-waves per node :      4130     4067

 maximum number of plane-waves:      4130
 maximum index in each direction: 
   IXMAX=    5   IYMAX=   14   IZMAX=   14
   IXMIN=   -5   IYMIN=  -14   IZMIN=  -15


 serial   3D FFT for wavefunctions
 parallel 3D FFT for charge:
    minimum data exchange during FFTs selected (reduces bandwidth)


 total amount of memory used by VASP MPI-rank0    39468. kBytes
=======================================================================

   base      :      30000. kBytes
   nonlr-proj:       3347. kBytes
   fftplans  :        531. kBytes
   grid      :       2031. kBytes
   one-center:        194. kBytes
   wavefun   :       3365. kBytes
 
     INWAV:  cpu time    0.0001: real time    0.0001
 Broyden mixing: mesh for mixing (old mesh)
   NGX =  9   NGY = 27   NGZ = 31
  (NGX  = 24   NGY  = 70   NGZ  = 80)
  gives a total of   7533 points

 initial charge density was supplied:
 charge density of overlapping atoms calculated
 number of electron      92.0000000 magnetization 
 keeping initial charge density in first step


--------------------------------------------------------------------------------------------------------


 Maximum index for non-local projection operator         2001
 Maximum index for augmentation-charges          431 (set IRDMAX)


--------------------------------------------------------------------------------------------------------


 First call to EWALD:  gamma=   0.252
 Maximum number of real-space cells 5x 2x 2
 Maximum number of reciprocal cells 2x 4x 4

    FEWALD:  cpu time    0.0019: real time    0.0019


--------------------------------------- Iteration      1(   1)  ---------------------------------------


    POTLOK:  cpu time    0.0179: real time    0.1823
    SETDIJ:  cpu time    0.2360: real time    0.2394
     EDDAV:  cpu time    0.4801: real time    0.4881
       DOS:  cpu time    0.0005: real time    0.0005
    --------------------------------------------
      LOOP:  cpu time    0.7345: real time    0.9103

 eigenvalue-minimisations  :  1344
 total energy-change (2. order) : 0.7645439E+03  (-0.2281785E+04)
 number of electron      92.0000000 magnetization 
 augmentation part       92.0000000 magnetization 

 Free energy of the ion-electron system (eV)
  ---------------------------------------------------
  alpha Z        PSCENC =       293.10668335
  Ewald energy   TEWEN  =     -3640.23555371
  -Hartree energ DENC   =      -456.14315858
  -exchange      EXHF   =         0.00000000
  -V(xc)+E(xc)   XCENC  =      -491.41892046
  PAW double counting   =      3541.90257957    -2864.78499625
  entropy T*S    EENTRO =        -0.00810966
  eigenvalues    EBANDS =       642.06912837
  atomic energy  EATOM  =      3740.05621236
  Solvation  Ediel_sol  =         0.00000000
  ---------------------------------------------------
  free energy    TOTEN  =       764.54386498 eV

  energy without entropy =      764.55197465  energy(sigma->0) =      764.54791981


--------------------------------------------------------------------------------------------------------




--------------------------------------- Iteration      1(   2)  ---------------------------------------


     EDDAV:  cpu time    0.6060: real time    0.6148
       DOS:  cpu time    0.0003: real time    0.0003
    --------------------------------------------
      LOOP:  cpu time    0.6063: real time    0.6151

 eigenvalue-minimisations  :  1568
 total energy-change (2. order) :-0.6754451E+03  (-0.6647748E+03)
 number of electron      92.0000000 magnetization 
 augmentation part       92.0000000 magnetization 

 Free energy of the ion-electron system (eV)
  ---------------------------------------------------
  alpha Z        PSCENC =       293.10668335
  Ewald energy   TEWEN  =     -3640.23555371
  -Hartree energ DENC   =      -456.14315858
  -exchange      EXHF   =         0.00000000
  -V(xc)+E(xc)   XCENC  =      -491.41892046
  PAW double counting   =      3541.90257957    -2864.78499625
  entropy T*S    EENTRO =        -0.00784620
  eigenvalues    EBANDS =       -33.37624160
  atomic energy  EATOM  =      3740.05621236
  Solvation  Ediel_sol  =         0.00000000
  ---------------------------------------------------
  free energy    TOTEN  =        89.09875847 eV

  energy without entropy =       89.10660467  energy(sigma->0) =       89.10268157


--------------------------------------------------------------------------------------------------------




--------------------------------------- Iteration      1(   3)  ---------------------------------------


     EDDAV:  cpu time    0.8882: real time    0.8921
       DOS:  cpu time    0.0002: real time    0.0002
    --------------------------------------------
      LOOP:  cpu time    0.8884: real time    0.8923

 eigenvalue-minimisations  :  2338
 total energy-change (2. order) :-0.1759296E+03  (-0.1718564E+03)
 number of electron      92.0000000 magnetization 
 augmentation part       92.0000000 magnetization 

 Free energy of the ion-electron system (eV)
  ---------------------------------------------------
  alpha Z        PSCENC =       293.10668335
  Ewald energy   TEWEN  =     -3640.23555371
  -Hartree energ DENC   =      -456.14315858
  -exchange      EXHF   =         0.00000000
  -V(xc)+E(xc)   XCENC  =      -491.41892046
  PAW double counting   =      3541.90257957    -2864.78499625
  entropy T*S    EENTRO =        -0.00000000
  eigenvalues    EBANDS =      -209.31370871
  atomic energy  EATOM  =      3740.05621236
  Solvation  Ediel_sol  =         0.00000000
  ---------------------------------------------------
  free energy    TOTEN  =       -86.83086243 eV

  energy without entropy =      -86.83086243  energy(sigma->0) =      -86.83086243


--------------------------------------------------------------------------------------------------------




--------------------------------------- Iteration      1(   4)  ---------------------------------------


     EDDAV:  cpu time    0.7474: real time    0.7505
       DOS:  cpu time    0.0002: real time    0.0002
    --------------------------------------------
      LOOP:  cpu time    0.7476: real time    0.7507

 eigenvalue-minimisations  :  2170
 total energy-change (2. order) :-0.1354846E+02  (-0.1350724E+02)
 number of electron      92.0000000 magnetization 
 augmentation part       92.0000000 magnetization 

 Free energy of the ion-electron system (eV)
  ---------------------------------------------------
  alpha Z        PSCENC =       293.10668335
  Ewald energy   TEWEN  =     -3640.23555371
  -Hartree energ DENC   =      -456.14315858
  -exchange      EXHF   =         0.00000000
  -V(xc)+E(xc)   XCENC  =      -491.41892046
  PAW double counting   =      3541.90257957    -2864.78499625
  entropy T*S    EENTRO =        -0.00000000
  eigenvalues    EBANDS =      -222.86216424
  atomic energy  EATOM  =      3740.05621236
  Solvation  Ediel_sol  =         0.00000000
  ---------------------------------------------------
  free energy    TOTEN  =      -100.37931797 eV

  energy without entropy =     -100.37931797  energy(sigma->0) =     -100.37931797


--------------------------------------------------------------------------------------------------------




--------------------------------------- Iteration      1(   5)  ---------------------------------------


     EDDAV:  cpu time    0.8548: real time    0.8557
       DOS:  cpu time    0.0002: real time    0.0002
    CHARGE:  cpu time    0.0143: real time    0.0143
    MIXING:  cpu time    0.0004: real time    0.0004
    --------------------------------------------
      LOOP:  cpu time    0.8697: real time    0.8707

 eigenvalue-minimisations  :  2184
 total energy-change (2. order) :-0.2597293E+00  (-0.2594345E+00)
 number of electron      92.0000016 magnetization 
 augmentation part       -2.7870267 magnetization 

 Broyden mixing:
  rms(total) = 0.44988E+01    rms(broyden)= 0.44988E+01
  rms(prec ) = 0.47066E+01
  weight for this iteration     100.00

 Free energy of the ion-electron system (eV)
  ---------------------------------------------------
  alpha Z        PSCENC =       293.10668335
  Ewald energy   TEWEN  =     -3640.23555371
  -Hartree energ DENC   =      -456.14315858
  -exchange      EXHF   =         0.00000000
  -V(xc)+E(xc)   XCENC  =      -491.41892046
  PAW double counting   =      3541.90257957    -2864.78499625
  entropy T*S    EENTRO =        -0.00000000
  eigenvalues    EBANDS =      -223.12189356
  atomic energy  EATOM  =      3740.05621236
  Solvation  Ediel_sol  =         0.00000000
  ---------------------------------------------------
  free energy    TOTEN  =      -100.63904729 eV

  energy without entropy =     -100.63904729  energy(sigma->0) =     -100.63904729


--------------------------------------------------------------------------------------------------------




--------------------------------------- Iteration      1(   6)  ---------------------------------------


    POTLOK:  cpu time    0.0054: real time    0.0084
    SETDIJ:  cpu time    0.2394: real time    0.2394
     EDDAV:  cpu time    0.8128: real time    0.8173
       DOS:  cpu time    0.0002: real time    0.0002
    CHARGE:  cpu time    0.0138: real time    0.0138
    MIXING:  cpu time    0.0005: real time    0.0005
    --------------------------------------------
      LOOP:  cpu time    1.0721: real time    1.0795

 eigenvalue-minimisations  :  2058
 total energy-change (2. order) : 0.7398776E+01  (-0.2171294E+01)
 number of electron      92.0000021 magnetization 
 augmentation part       -1.0063253 magnetization 

 Broyden mixing:
  rms(total) = 0.19490E+01    rms(broyden)= 0.19490E+01
  rms(prec ) = 0.20152E+01
  weight for this iteration     100.00

 eigenvalues of (default mixing * dielectric matrix)
  average eigenvalue GAMMA=   1.6796
  1.6796

 Free energy of the ion-electron system (eV)
  ---------------------------------------------------
  alpha Z        PSCENC =       293.10668335
  Ewald energy   TEWEN  =     -3640.23555371
  -Hartree energ DENC   =      -482.65340964
  -exchange      EXHF   =         0.00000000
  -V(xc)+E(xc)   XCENC  =      -486.05000449
  PAW double counting   =      4863.38388304    -4188.88399536
  entropy T*S    EENTRO =        -0.00000000
  eigenvalues    EBANDS =      -191.96408638
  atomic energy  EATOM  =      3740.05621236
  Solvation  Ediel_sol  =         0.00000000
  ---------------------------------------------------
  free energy    TOTEN  =       -93.24027084 eV

  energy without entropy =      -93.24027084  energy(sigma->0) =      -93.24027084


--------------------------------------------------------------------------------------------------------




--------------------------------------- Iteration      1(   7)  ---------------------------------------


    POTLOK:  cpu time    0.0054: real time    0.0055
    SETDIJ:  cpu time    0.2399: real time    0.2401
     EDDAV:  cpu time    0.7474: real time    0.7522
       DOS:  cpu time    0.0002: real time    0.0002
    CHARGE:  cpu time    0.0145: real time    0.0145
    MIXING:  cpu time    0.0005: real time    0.0005
    --------------------------------------------
      LOOP:  cpu time    1.0079: real time    1.0130

 eigenvalue-minimisations  :  2184
 total energy-change (2. order) : 0.1182761E+01  (-0.3291603E+00)
 number of electron      92.0000022 magnetization 
 augmentation part       -0.5593061 magnetization 

 Broyden mixing:
  rms(total) = 0.49630E+00    rms(broyden)= 0.49629E+00
  rms(prec ) = 0.51899E+00
  weight for this iteration     100.00

 eigenvalues of (default mixing * dielectric matrix)
  average eigenvalue GAMMA=   1.6963
  1.1461  2.2464

 Free energy of the ion-electron system (eV)
  ---------------------------------------------------
  alpha Z        PSCENC =       293.10668335
  Ewald energy   TEWEN  =     -3640.23555371
  -Hartree energ DENC   =      -498.40012121
  -exchange      EXHF   =         0.00000000
  -V(xc)+E(xc)   XCENC  =      -482.83577188
  PAW double counting   =      6657.25881203    -5985.73300391
  entropy T*S    EENTRO =        -0.00000000
  eigenvalues    EBANDS =      -175.27476731
  atomic energy  EATOM  =      3740.05621236
  Solvation  Ediel_sol  =         0.00000000
  ---------------------------------------------------
  free energy    TOTEN  =       -92.05751029 eV

  energy without entropy =      -92.05751029  energy(sigma->0) =      -92.05751029


--------------------------------------------------------------------------------------------------------




--------------------------------------- Iteration      1(   8)  ---------------------------------------


    POTLOK:  cpu time    0.0056: real time    0.0058
    SETDIJ:  cpu time    0.2425: real time    0.2426
     EDDAV:  cpu time    0.5905: real time    0.5908
       DOS:  cpu time    0.0002: real time    0.0002
    CHARGE:  cpu time    0.0136: real time    0.0136
    MIXING:  cpu time    0.0003: real time    0.0003
    --------------------------------------------
      LOOP:  cpu time    0.8528: real time    0.8533

 eigenvalue-minimisations  :  2002
 total energy-change (2. order) : 0.5789095E-01  (-0.6636813E-01)
 number of electron      92.0000022 magnetization 
 augmentation part       -0.5618926 magnetization 

 Broyden mixing:
  rms(total) = 0.13713E+00    rms(broyden)= 0.13713E+00
  rms(prec ) = 0.15175E+00
  weight for this iteration     100.00

 eigenvalues of (default mixing * dielectric matrix)
  average eigenvalue GAMMA=   1.5410
  2.5007  0.8794  1.2430

 Free energy of the ion-electron system (eV)
  ---------------------------------------------------
  alpha Z        PSCENC =       293.10668335
  Ewald energy   TEWEN  =     -3640.23555371
  -Hartree energ DENC   =      -501.61769691
  -exchange      EXHF   =         0.00000000
  -V(xc)+E(xc)   XCENC  =      -481.81174639
  PAW double counting   =      7532.46315000    -6862.36839243
  entropy T*S    EENTRO =        -0.00000000
  eigenvalues    EBANDS =      -171.59227559
  atomic energy  EATOM  =      3740.05621236
  Solvation  Ediel_sol  =         0.00000000
  ---------------------------------------------------
  free energy    TOTEN  =       -91.99961934 eV

  energy without entropy =      -91.99961934  energy(sigma->0) =      -91.99961934


--------------------------------------------------------------------------------------------------------




--------------------------------------- Iteration      1(   9)  ---------------------------------------


    POTLOK:  cpu time    0.0061: real time    0.0062
    SETDIJ:  cpu time    0.2365: real time    0.2388
     EDDAV:  cpu time    0.7189: real time    0.7194
       DOS:  cpu time    0.0002: real time    0.0002
    CHARGE:  cpu time    0.0145: real time    0.0145
    MIXING:  cpu time    0.0006: real time    0.0005
    --------------------------------------------
      LOOP:  cpu time    0.9768: real time    0.9796

 eigenvalue-minimisations  :  2044
 total energy-change (2. order) : 0.2019801E-02  (-0.8071454E-02)
 number of electron      92.0000023 magnetization 
 augmentation part       -0.5444505 magnetization 

 Broyden mixing:
  rms(total) = 0.63308E-01    rms(broyden)= 0.63307E-01
  rms(prec ) = 0.71518E-01
  weight for this iteration     100.00

 eigenvalues of (default mixing * dielectric matrix)
  average eigenvalue GAMMA=   1.4731
  2.4480  1.3435  1.0505  1.0505

 Free energy of the ion-electron system (eV)
  ---------------------------------------------------
  alpha Z        PSCENC =       293.10668335
  Ewald energy   TEWEN  =     -3640.23555371
  -Hartree energ DENC   =      -501.57607263
  -exchange      EXHF   =         0.00000000
  -V(xc)+E(xc)   XCENC  =      -481.55109792
  PAW double counting   =      7718.05907916    -7048.24672297
  entropy T*S    EENTRO =        -0.00000000
  eigenvalues    EBANDS =      -171.61012718
  atomic energy  EATOM  =      3740.05621236
  Solvation  Ediel_sol  =         0.00000000
  ---------------------------------------------------
  free energy    TOTEN  =       -91.99759954 eV

  energy without entropy =      -91.99759954  energy(sigma->0) =      -91.99759954


--------------------------------------------------------------------------------------------------------




--------------------------------------- Iteration      1(  10)  ---------------------------------------


    POTLOK:  cpu time    0.0056: real time    0.0056
    SETDIJ:  cpu time    0.2360: real time    0.2406
     EDDAV:  cpu time    0.8979: real time    0.9163
       DOS:  cpu time    0.0003: real time    0.0003
    CHARGE:  cpu time    0.0147: real time    0.0149
    MIXING:  cpu time    0.0004: real time    0.0004
    --------------------------------------------
      LOOP:  cpu time    1.1548: real time    1.1782

 eigenvalue-minimisations  :  2184
 total energy-change (2. order) : 0.1327086E-02  (-0.1540090E-02)
 number of electron      92.0000022 magnetization 
 augmentation part       -0.5655884 magnetization 

 Broyden mixing:
  rms(total) = 0.29910E-01    rms(broyden)= 0.29910E-01
  rms(prec ) = 0.34183E-01
  weight for this iteration     100.00

 eigenvalues of (default mixing * dielectric matrix)
  average eigenvalue GAMMA=   1.4819
  2.3178  1.6183  1.6183  1.0850  0.7702

 Free energy of the ion-electron system (eV)
  ---------------------------------------------------
  alpha Z        PSCENC =       293.10668335
  Ewald energy   TEWEN  =     -3640.23555371
  -Hartree energ DENC   =      -501.29336868
  -exchange      EXHF   =         0.00000000
  -V(xc)+E(xc)   XCENC  =      -481.52474152
  PAW double counting   =      7727.01886885    -7057.23310088
  entropy T*S    EENTRO =        -0.00000000
  eigenvalues    EBANDS =      -171.89127221
  atomic energy  EATOM  =      3740.05621236
  Solvation  Ediel_sol  =         0.00000000
  ---------------------------------------------------
  free energy    TOTEN  =       -91.99627245 eV

  energy without entropy =      -91.99627245  energy(sigma->0) =      -91.99627245


--------------------------------------------------------------------------------------------------------




--------------------------------------- Iteration      1(  11)  ---------------------------------------


    POTLOK:  cpu time    0.0061: real time    0.0062
    SETDIJ:  cpu time    0.2394: real time    0.2406
     EDDAV:  cpu time    0.8432: real time    0.8577
       DOS:  cpu time    0.0003: real time    0.0003
    CHARGE:  cpu time    0.0139: real time    0.0143
    MIXING:  cpu time    0.0006: real time    0.0006
    --------------------------------------------
      LOOP:  cpu time    1.1036: real time    1.1197

 eigenvalue-minimisations  :  2170
 total energy-change (2. order) :-0.4682955E-03  (-0.4664785E-03)
 number of electron      92.0000022 magnetization 
 augmentation part       -0.5653058 magnetization 

 Broyden mixing:
  rms(total) = 0.10515E-01    rms(broyden)= 0.10515E-01
  rms(prec ) = 0.13561E-01
  weight for this iteration     100.00

 eigenvalues of (default mixing * dielectric matrix)
  average eigenvalue GAMMA=   1.4159
  2.2652  2.2652  1.3767  0.9221  0.9221  0.7444

 Free energy of the ion-electron system (eV)
  ---------------------------------------------------
  alpha Z        PSCENC =       293.10668335
  Ewald energy   TEWEN  =     -3640.23555371
  -Hartree energ DENC   =      -501.40780136
  -exchange      EXHF   =         0.00000000
  -V(xc)+E(xc)   XCENC  =      -481.48576742
  PAW double counting   =      7722.52144937    -7052.71891374
  entropy T*S    EENTRO =        -0.00000000
  eigenvalues    EBANDS =      -171.83304959
  atomic energy  EATOM  =      3740.05621236
  Solvation  Ediel_sol  =         0.00000000
  ---------------------------------------------------
  free energy    TOTEN  =       -91.99674075 eV

  energy without entropy =      -91.99674075  energy(sigma->0) =      -91.99674075


--------------------------------------------------------------------------------------------------------




--------------------------------------- Iteration      1(  12)  ---------------------------------------


    POTLOK:  cpu time    0.0055: real time    0.0057
    SETDIJ:  cpu time    0.2400: real time    0.2409
     EDDAV:  cpu time    0.4958: real time    0.4959
       DOS:  cpu time    0.0002: real time    0.0002
    CHARGE:  cpu time    0.0132: real time    0.0132
    MIXING:  cpu time    0.0003: real time    0.0003
    --------------------------------------------
      LOOP:  cpu time    0.7550: real time    0.7563

 eigenvalue-minimisations  :  1624
 total energy-change (2. order) :-0.2359516E-03  (-0.4032870E-04)
 number of electron      92.0000022 magnetization 
 augmentation part       -0.5630254 magnetization 

 Broyden mixing:
  rms(total) = 0.71498E-02    rms(broyden)= 0.71498E-02
  rms(prec ) = 0.90816E-02
  weight for this iteration     100.00

 eigenvalues of (default mixing * dielectric matrix)
  average eigenvalue GAMMA=   1.4986
  2.3835  2.3835  1.3919  1.3919  1.0944  1.0944  0.7507

 Free energy of the ion-electron system (eV)
  ---------------------------------------------------
  alpha Z        PSCENC =       293.10668335
  Ewald energy   TEWEN  =     -3640.23555371
  -Hartree energ DENC   =      -501.48286075
  -exchange      EXHF   =         0.00000000
  -V(xc)+E(xc)   XCENC  =      -481.46116657
  PAW double counting   =      7722.28129092    -7052.47767200
  entropy T*S    EENTRO =        -0.00000000
  eigenvalues    EBANDS =      -171.78391029
  atomic energy  EATOM  =      3740.05621236
  Solvation  Ediel_sol  =         0.00000000
  ---------------------------------------------------
  free energy    TOTEN  =       -91.99697670 eV

  energy without entropy =      -91.99697670  energy(sigma->0) =      -91.99697670


--------------------------------------------------------------------------------------------------------




--------------------------------------- Iteration      1(  13)  ---------------------------------------


    POTLOK:  cpu time    0.0045: real time    0.0046
    SETDIJ:  cpu time    0.2360: real time    0.2385
     EDDAV:  cpu time    0.6175: real time    0.6183
       DOS:  cpu time    0.0003: real time    0.0003
    CHARGE:  cpu time    0.0154: real time    0.0154
    MIXING:  cpu time    0.0005: real time    0.0005
    --------------------------------------------
      LOOP:  cpu time    0.8743: real time    0.8775

 eigenvalue-minimisations  :  1568
 total energy-change (2. order) :-0.1303261E-03  (-0.5202735E-04)
 number of electron      92.0000022 magnetization 
 augmentation part       -0.5629949 magnetization 

 Broyden mixing:
  rms(total) = 0.22082E-02    rms(broyden)= 0.22082E-02
  rms(prec ) = 0.30478E-02
  weight for this iteration     100.00

 eigenvalues of (default mixing * dielectric matrix)
  average eigenvalue GAMMA=   1.5152
  2.5928  2.5928  1.5957  1.5957  1.1158  0.9481  0.9481  0.7328

 Free energy of the ion-electron system (eV)
  ---------------------------------------------------
  alpha Z        PSCENC =       293.10668335
  Ewald energy   TEWEN  =     -3640.23555371
  -Hartree energ DENC   =      -501.56209515
  -exchange      EXHF   =         0.00000000
  -V(xc)+E(xc)   XCENC  =      -481.45411317
  PAW double counting   =      7710.37312329    -7040.55587656
  entropy T*S    EENTRO =        -0.00000000
  eigenvalues    EBANDS =      -171.72548742
  atomic energy  EATOM  =      3740.05621236
  Solvation  Ediel_sol  =         0.00000000
  ---------------------------------------------------
  free energy    TOTEN  =       -91.99710702 eV

  energy without entropy =      -91.99710702  energy(sigma->0) =      -91.99710702


--------------------------------------------------------------------------------------------------------




--------------------------------------- Iteration      1(  14)  ---------------------------------------


    POTLOK:  cpu time    0.0091: real time    0.0092
    SETDIJ:  cpu time    0.2423: real time    0.2423
     EDDAV:  cpu time    0.3394: real time    0.3396
       DOS:  cpu time    0.0002: real time    0.0002
    --------------------------------------------
      LOOP:  cpu time    0.5909: real time    0.5912

 eigenvalue-minimisations  :  1176
 total energy-change (2. order) :-0.2955039E-04  (-0.1324940E-04)
 number of electron      92.0000022 magnetization 
 augmentation part       -0.5629949 magnetization 

 Free energy of the ion-electron system (eV)
  ---------------------------------------------------
  alpha Z        PSCENC =       293.10668335
  Ewald energy   TEWEN  =     -3640.23555371
  -Hartree energ DENC   =      -501.60811617
  -exchange      EXHF   =         0.00000000
  -V(xc)+E(xc)   XCENC  =      -481.44693108
  PAW double counting   =      7710.84908797    -7041.03312204
  entropy T*S    EENTRO =        -0.00000000
  eigenvalues    EBANDS =      -171.68539725
  atomic energy  EATOM  =      3740.05621236
  Solvation  Ediel_sol  =         0.00000000
  ---------------------------------------------------
  free energy    TOTEN  =       -91.99713657 eV

  energy without entropy =      -91.99713657  energy(sigma->0) =      -91.99713657


--------------------------------------------------------------------------------------------------------




 average (electrostatic) potential at core
  the test charge radii are     1.3383  1.3152  1.0808
  (the norm of the test charge is              1.0000)
       1  -9.6251       2  -9.6249       3 -40.7029       4 -40.6645       5 -40.5708
       6 -40.5698       7 -40.6920       8 -40.6915       9 -53.1533      10 -53.1537
      11 -52.9766      12 -52.9771      13 -53.2901      14 -53.2908      15 -52.8653
      16 -52.8652      17 -52.7608      18 -52.7609
 
 
 
 E-fermi :   4.8057     XC(G=0): -10.2296     alpha+bet :-11.8178


 k-point     1 :       0.0833    0.2500    0.2500
  band No.  band energies     occupation 
      1      -9.7957      2.00000
      2      -9.4060      2.00000
      3      -9.3104      2.00000
      4      -9.2688      2.00000
      5      -9.2070      2.00000
      6      -9.0324      2.00000
      7      -9.0058      2.00000
      8      -8.9980      2.00000
      9      -8.7835      2.00000
     10      -8.3325      2.00000
     11      -8.1223      2.00000
     12      -8.0200      2.00000
     13      -7.9335      2.00000
     14      -7.7705      2.00000
     15      -7.6790      2.00000
     16      -7.5244      2.00000
     17      -1.0306      2.00000
     18      -0.7016      2.00000
     19      -0.1130      2.00000
     20      -0.0062      2.00000
     21       0.2383      2.00000
     22       0.3406      2.00000
     23       0.4311      2.00000
     24       0.9543      2.00000
     25       1.1348      2.00000
     26       1.2357      2.00000
     27       1.4594      2.00000
     28       1.5588      2.00000
     29       1.6957      2.00000
     30       1.7981      2.00000
     31       1.8248      2.00000
     32       2.0091      2.00000
     33       2.2313      2.00000
     34       2.3296      2.00000
     35       2.3953      2.00000
     36       2.5117      2.00000
     37       2.6907      2.00000
     38       2.7596      2.00000
     39       2.8420      2.00000
     40       3.2343      2.00000
     41       3.4740      2.00000
     42       3.7419      2.00000
     43       4.1726      2.00000
     44       4.2075      2.00000
     45       4.4590      2.00000
     46       4.5731      2.00000
     47       5.7766      0.00000
     48       5.9858      0.00000
     49       6.4267      0.00000
     50       6.5988      0.00000
     51       6.7347      0.00000
     52       6.8022      0.00000
     53       6.8905      0.00000
     54       7.0058      0.00000
     55       7.2448      0.00000
     56       7.4345      0.00000

 k-point     2 :       0.2500    0.2500    0.2500
  band No.  band energies     occupation 
      1      -9.4386      2.00000
      2      -9.2928      2.00000
      3      -9.2397      2.00000
      4      -9.2171      2.00000
      5      -9.1777      2.00000
      6      -9.1506      2.00000
      7      -9.0681      2.00000
      8      -8.7507      2.00000
      9      -8.5285      2.00000
     10      -8.1522      2.00000
     11      -8.0807      2.00000
     12      -7.8794      2.00000
     13      -7.7943      2.00000
     14      -7.7450      2.00000
     15      -7.6539      2.00000
     16      -7.5309      2.00000
     17      -0.5126      2.00000
     18      -0.1982      2.00000
     19      -0.1166      2.00000
     20       0.0445      2.00000
     21       0.1217      2.00000
     22       0.1476      2.00000
     23       0.2431      2.00000
     24       0.3307      2.00000
     25       0.4339      2.00000
     26       0.9135      2.00000
     27       1.0995      2.00000
     28       1.1947      2.00000
     29       1.2633      2.00000
     30       1.6804      2.00000
     31       1.7450      2.00000
     32       1.9846      2.00000
     33       2.0478      2.00000
     34       2.1229      2.00000
     35       2.2105      2.00000
     36       2.2903      2.00000
     37       2.4189      2.00000
     38       2.4887      2.00000
     39       2.5961      2.00000
     40       2.6975      2.00000
     41       2.8680      2.00000
     42       3.0213      2.00000
     43       3.5439      2.00000
     44       3.5906      2.00000
     45       3.7285      2.00000
     46       4.0755      2.00000
     47       6.2181      0.00000
     48       6.3459      0.00000
     49       6.4882      0.00000
     50       6.6957      0.00000
     51       6.9483      0.00000
     52       7.1406      0.00000
     53       7.2136      0.00000
     54       7.3066      0.00000
     55       7.4209      0.00000
     56       7.5364      0.00000

 k-point     3 :       0.4167    0.2500    0.2500
  band No.  band energies     occupation 
      1      -9.5173      2.00000
      2      -9.5106      2.00000
      3      -9.1341      2.00000
      4      -9.1126      2.00000
      5      -9.0683      2.00000
      6      -9.0671      2.00000
      7      -8.5822      2.00000
      8      -8.3723      2.00000
      9      -8.2969      2.00000
     10      -8.1519      2.00000
     11      -7.8877      2.00000
     12      -7.7593      2.00000
     13      -7.7469      2.00000
     14      -7.6506      2.00000
     15      -7.5988      2.00000
     16      -7.5377      2.00000
     17      -0.9848      2.00000
     18      -0.9506      2.00000
     19      -0.5252      2.00000
     20      -0.3831      2.00000
     21      -0.0487      2.00000
     22       0.0301      2.00000
     23       0.1411      2.00000
     24       0.2342      2.00000
     25       0.6804      2.00000
     26       0.7763      2.00000
     27       0.8780      2.00000
     28       1.2405      2.00000
     29       1.3685      2.00000
     30       1.6370      2.00000
     31       1.6888      2.00000
     32       1.9197      2.00000
     33       1.9398      2.00000
     34       2.0536      2.00000
     35       2.0994      2.00000
     36       2.2168      2.00000
     37       2.2767      2.00000
     38       2.4134      2.00000
     39       2.5095      2.00000
     40       2.5406      2.00000
     41       2.6873      2.00000
     42       2.8982      2.00000
     43       2.9239      2.00000
     44       3.2036      2.00000
     45       3.2399      2.00000
     46       3.3609      2.00000
     47       5.5343      0.00000
     48       5.7965      0.00000
     49       6.4013      0.00000
     50       6.8819      0.00000
     51       7.0338      0.00000
     52       7.2107      0.00000
     53       7.4137      0.00000
     54       7.6269      0.00000
     55       7.6891      0.00000
     56       7.9288      0.00000

 k-point     4 :      -0.4167    0.2500    0.2500
  band No.  band energies     occupation 
      1      -9.5130      2.00000
      2      -9.5121      2.00000
      3      -9.1360      2.00000
      4      -9.1214      2.00000
      5      -9.0775      2.00000
      6      -9.0644      2.00000
      7      -8.5461      2.00000
      8      -8.4037      2.00000
      9      -8.2673      2.00000
     10      -8.1693      2.00000
     11      -7.8402      2.00000
     12      -7.8204      2.00000
     13      -7.7153      2.00000
     14      -7.6723      2.00000
     15      -7.5786      2.00000
     16      -7.5588      2.00000
     17      -0.9605      2.00000
     18      -0.9269      2.00000
     19      -0.5332      2.00000
     20      -0.3369      2.00000
     21      -0.0846      2.00000
     22      -0.0013      2.00000
     23       0.1595      2.00000
     24       0.2142      2.00000
     25       0.5005      2.00000
     26       0.8080      2.00000
     27       0.9532      2.00000
     28       1.1574      2.00000
     29       1.5607      2.00000
     30       1.5935      2.00000
     31       1.7926      2.00000
     32       1.9217      2.00000
     33       1.9769      2.00000
     34       2.0121      2.00000
     35       2.0530      2.00000
     36       2.1101      2.00000
     37       2.3374      2.00000
     38       2.3603      2.00000
     39       2.4789      2.00000
     40       2.5745      2.00000
     41       2.7081      2.00000
     42       2.7771      2.00000
     43       3.0489      2.00000
     44       3.1841      2.00000
     45       3.2659      2.00000
     46       3.3810      2.00000
     47       5.5280      0.00000
     48       5.9174      0.00000
     49       6.2140      0.00000
     50       6.9833      0.00000
     51       7.0578      0.00000
     52       7.1209      0.00000
     53       7.4230      0.00000
     54       7.5492      0.00000
     55       7.8150      0.00000
     56       7.8673      0.00000

 k-point     5 :      -0.2500    0.2500    0.2500
  band No.  band energies     occupation 
      1      -9.4021      2.00000
      2      -9.3034      2.00000
      3      -9.2980      2.00000
      4      -9.2529      2.00000
      5      -9.1540      2.00000
      6      -9.1494      2.00000
      7      -8.9538      2.00000
      8      -8.8171      2.00000
      9      -8.5639      2.00000
     10      -8.1612      2.00000
     11      -8.0376      2.00000
     12      -7.8948      2.00000
     13      -7.8009      2.00000
     14      -7.7657      2.00000
     15      -7.6191      2.00000
     16      -7.5190      2.00000
     17      -0.6512      2.00000
     18      -0.2764      2.00000
     19      -0.2447      2.00000
     20       0.0415      2.00000
     21       0.0869      2.00000
     22       0.1460      2.00000
     23       0.3853      2.00000
     24       0.4870      2.00000
     25       0.5875      2.00000
     26       0.8931      2.00000
     27       0.9693      2.00000
     28       1.3237      2.00000
     29       1.4436      2.00000
     30       1.6821      2.00000
     31       1.8277      2.00000
     32       1.8809      2.00000
     33       2.0081      2.00000
     34       2.0883      2.00000
     35       2.1544      2.00000
     36       2.2936      2.00000
     37       2.4440      2.00000
     38       2.5205      2.00000
     39       2.5924      2.00000
     40       2.7613      2.00000
     41       2.8717      2.00000
     42       3.1420      2.00000
     43       3.4140      2.00000
     44       3.5473      2.00000
     45       3.6492      2.00000
     46       3.8467      2.00000
     47       6.1729      0.00000
     48       6.2845      0.00000
     49       6.5913      0.00000
     50       6.7746      0.00000
     51       7.0217      0.00000
     52       7.0515      0.00000
     53       7.1354      0.00000
     54       7.3420      0.00000
     55       7.4591      0.00000
     56       7.6092      0.00000

 k-point     6 :      -0.0833    0.2500    0.2500
  band No.  band energies     occupation 
      1      -9.7822      2.00000
      2      -9.4642      2.00000
      3      -9.2914      2.00000
      4      -9.2570      2.00000
      5      -9.1592      2.00000
      6      -9.0413      2.00000
      7      -9.0070      2.00000
      8      -8.9993      2.00000
      9      -8.8162      2.00000
     10      -8.3420      2.00000
     11      -8.1123      2.00000
     12      -8.0189      2.00000
     13      -7.9554      2.00000
     14      -7.7607      2.00000
     15      -7.6658      2.00000
     16      -7.5096      2.00000
     17      -1.0524      2.00000
     18      -0.7782      2.00000
     19      -0.2028      2.00000
     20      -0.0271      2.00000
     21       0.2711      2.00000
     22       0.3487      2.00000
     23       0.4752      2.00000
     24       0.9823      2.00000
     25       1.2041      2.00000
     26       1.3738      2.00000
     27       1.4843      2.00000
     28       1.5733      2.00000
     29       1.6756      2.00000
     30       1.8311      2.00000
     31       1.8595      2.00000
     32       2.0093      2.00000
     33       2.2384      2.00000
     34       2.3129      2.00000
     35       2.4039      2.00000
     36       2.5130      2.00000
     37       2.6142      2.00000
     38       2.7680      2.00000
     39       2.9156      2.00000
     40       3.2873      2.00000
     41       3.4619      2.00000
     42       3.7130      2.00000
     43       4.0121      2.00000
     44       4.0311      2.00000
     45       4.4033      2.00000
     46       4.5807      2.00000
     47       5.7672      0.00000
     48       5.9329      0.00000
     49       6.4604      0.00000
     50       6.5869      0.00000
     51       6.7259      0.00000
     52       6.8529      0.00000
     53       6.9809      0.00000
     54       7.0884      0.00000
     55       7.2711      0.00000
     56       7.4514      0.00000

 k-point     7 :       0.0833   -0.2500    0.2500
  band No.  band energies     occupation 
      1      -9.7173      2.00000
      2      -9.5644      2.00000
      3      -9.3123      2.00000
      4      -9.2561      2.00000
      5      -9.1788      2.00000
      6      -9.0474      2.00000
      7      -9.0051      2.00000
      8      -8.9996      2.00000
      9      -8.6689      2.00000
     10      -8.3819      2.00000
     11      -8.1276      2.00000
     12      -7.9974      2.00000
     13      -7.9155      2.00000
     14      -7.8294      2.00000
     15      -7.6496      2.00000
     16      -7.5399      2.00000
     17      -0.9044      2.00000
     18      -0.6311      2.00000
     19      -0.2679      2.00000
     20      -0.1330      2.00000
     21       0.0297      2.00000
     22       0.2707      2.00000
     23       0.6419      2.00000
     24       0.9668      2.00000
     25       1.1230      2.00000
     26       1.2798      2.00000
     27       1.4307      2.00000
     28       1.5749      2.00000
     29       1.6627      2.00000
     30       1.7062      2.00000
     31       1.9775      2.00000
     32       2.0685      2.00000
     33       2.2686      2.00000
     34       2.3461      2.00000
     35       2.4611      2.00000
     36       2.5418      2.00000
     37       2.7007      2.00000
     38       2.9642      2.00000
     39       3.0724      2.00000
     40       3.3287      2.00000
     41       3.4324      2.00000
     42       3.5403      2.00000
     43       3.9381      2.00000
     44       4.0414      2.00000
     45       4.2693      2.00000
     46       4.4927      2.00000
     47       5.8071      0.00000
     48       5.9773      0.00000
     49       6.3749      0.00000
     50       6.7066      0.00000
     51       6.7256      0.00000
     52       6.8474      0.00000
     53       6.9726      0.00000
     54       7.1918      0.00000
     55       7.2802      0.00000
     56       7.3661      0.00000

 k-point     8 :       0.2500   -0.2500    0.2500
  band No.  band energies     occupation 
      1      -9.4056      2.00000
      2      -9.3042      2.00000
      3      -9.2825      2.00000
      4      -9.2256      2.00000
      5      -9.1834      2.00000
      6      -9.1572      2.00000
      7      -8.9674      2.00000
      8      -8.8805      2.00000
      9      -8.4092      2.00000
     10      -8.1945      2.00000
     11      -8.0743      2.00000
     12      -7.9040      2.00000
     13      -7.7829      2.00000
     14      -7.7573      2.00000
     15      -7.6215      2.00000
     16      -7.5491      2.00000
     17      -0.4355      2.00000
     18      -0.3555      2.00000
     19      -0.1690      2.00000
     20      -0.1558      2.00000
     21       0.1023      2.00000
     22       0.2103      2.00000
     23       0.3204      2.00000
     24       0.4489      2.00000
     25       0.5516      2.00000
     26       0.9635      2.00000
     27       1.0784      2.00000
     28       1.3111      2.00000
     29       1.3451      2.00000
     30       1.6329      2.00000
     31       1.7237      2.00000
     32       1.9657      2.00000
     33       2.0206      2.00000
     34       2.0400      2.00000
     35       2.1080      2.00000
     36       2.1916      2.00000
     37       2.3778      2.00000
     38       2.4868      2.00000
     39       2.6602      2.00000
     40       2.8558      2.00000
     41       2.9438      2.00000
     42       3.1029      2.00000
     43       3.4863      2.00000
     44       3.6691      2.00000
     45       3.7394      2.00000
     46       3.8093      2.00000
     47       6.1142      0.00000
     48       6.1511      0.00000
     49       6.5881      0.00000
     50       6.6762      0.00000
     51       6.9899      0.00000
     52       7.0978      0.00000
     53       7.2430      0.00000
     54       7.3649      0.00000
     55       7.6013      0.00000
     56       7.6243      0.00000

 k-point     9 :       0.4167   -0.2500    0.2500
  band No.  band energies     occupation 
      1      -9.5153      2.00000
      2      -9.5113      2.00000
      3      -9.1275      2.00000
      4      -9.1274      2.00000
      5      -9.0735      2.00000
      6      -9.0684      2.00000
      7      -8.5310      2.00000
      8      -8.4508      2.00000
      9      -8.2076      2.00000
     10      -8.1775      2.00000
     11      -7.9134      2.00000
     12      -7.7631      2.00000
     13      -7.7184      2.00000
     14      -7.6707      2.00000
     15      -7.5769      2.00000
     16      -7.5636      2.00000
     17      -1.0017      2.00000
     18      -0.7522      2.00000
     19      -0.5012      2.00000
     20      -0.4849      2.00000
     21      -0.2055      2.00000
     22      -0.1374      2.00000
     23       0.0656      2.00000
     24       0.2509      2.00000
     25       0.6141      2.00000
     26       0.9797      2.00000
     27       1.1583      2.00000
     28       1.3183      2.00000
     29       1.4438      2.00000
     30       1.6919      2.00000
     31       1.7388      2.00000
     32       1.8369      2.00000
     33       1.8878      2.00000
     34       2.0133      2.00000
     35       2.0418      2.00000
     36       2.1158      2.00000
     37       2.2719      2.00000
     38       2.4612      2.00000
     39       2.5255      2.00000
     40       2.6413      2.00000
     41       2.6577      2.00000
     42       2.8759      2.00000
     43       2.9194      2.00000
     44       3.0523      2.00000
     45       3.1635      2.00000
     46       3.2454      2.00000
     47       5.7018      0.00000
     48       6.0639      0.00000
     49       6.5068      0.00000
     50       6.5316      0.00000
     51       6.8544      0.00000
     52       7.0475      0.00000
     53       7.5557      0.00000
     54       7.8025      0.00000
     55       7.9388      0.00000
     56       7.9593      0.00000

 k-point    10 :      -0.4167   -0.2500    0.2500
  band No.  band energies     occupation 
      1      -9.5156      2.00000
      2      -9.5122      2.00000
      3      -9.1260      2.00000
      4      -9.1187      2.00000
      5      -9.0702      2.00000
      6      -9.0668      2.00000
      7      -8.5588      2.00000
      8      -8.4286      2.00000
      9      -8.2292      2.00000
     10      -8.2113      2.00000
     11      -7.8225      2.00000
     12      -7.8002      2.00000
     13      -7.7261      2.00000
     14      -7.6861      2.00000
     15      -7.5685      2.00000
     16      -7.5532      2.00000
     17      -0.8635      2.00000
     18      -0.7391      2.00000
     19      -0.6354      2.00000
     20      -0.5881      2.00000
     21      -0.2574      2.00000
     22      -0.1172      2.00000
     23       0.2145      2.00000
     24       0.2424      2.00000
     25       0.6440      2.00000
     26       0.7531      2.00000
     27       1.2496      2.00000
     28       1.3848      2.00000
     29       1.4618      2.00000
     30       1.5316      2.00000
     31       1.8113      2.00000
     32       1.8581      2.00000
     33       1.9167      2.00000
     34       2.0717      2.00000
     35       2.1101      2.00000
     36       2.1422      2.00000
     37       2.3390      2.00000
[...]
      2     -11.6822      2.00000
      3     -11.5052      2.00000
      4     -11.5003      2.00000
      5     -11.4440      2.00000
      6     -11.4404      2.00000
      7      -9.9882      2.00000
      8      -9.9403      2.00000
      9      -9.8093      2.00000
     10      -9.7610      2.00000
     11      -9.5616      2.00000
     12      -9.5157      2.00000
     13      -9.4531      2.00000
     14      -9.4189      2.00000
     15      -9.3342      2.00000
     16      -9.2763      2.00000
     17      -1.9630      2.00000
     18      -1.8332      2.00000
     19      -1.6566      2.00000
     20      -1.5628      2.00000
     21      -1.4086      2.00000
     22      -1.3491      2.00000
     23      -1.0724      2.00000
     24      -1.0105      2.00000
     25      -0.7866      2.00000
     26      -0.6554      2.00000
     27      -0.2613      2.00000
     28      -0.1813      2.00000
     29      -0.1548      2.00000
     30      -0.1272      2.00000
     31       0.0690      2.00000
     32       0.0804      2.00000
     33       0.2021      2.00000
     34       0.2290      2.00000
     35       0.3217      2.00000
     36       0.3874      2.00000
     37       0.4099      2.00000
     38       0.4958      2.00000
     39       0.5245      2.00000
     40       0.5374      2.00000
     41       0.7011      2.00000
     42       0.8160      2.00000
     43       0.9448      2.00000
     44       0.9699      2.00000
     45       1.0302      2.00000
     46       1.1235      2.00000
     47       3.4177      0.00000
     48       3.5778      0.00000
     49       3.8556      0.00000
     50       3.8763      0.00000
     51       4.0882      0.00000
     52       4.1652      0.00000
     53       4.5274      0.00000
     54       4.6149      0.00000
     55       4.6478      0.00000
     56       4.7646      0.00000

 k-point    11 :      -0.2500   -0.2500    0.2500
  band No.  band energies     occupation 
      1     -11.5897      2.00000
      2     -11.5852      2.00000
      3     -11.5304      2.00000
      4     -11.5205      2.00000
      5     -11.4692      2.00000
      6     -11.4639      2.00000
      7     -10.2960      2.00000
      8     -10.2387      2.00000
      9      -9.8872      2.00000
     10      -9.7922      2.00000
     11      -9.6526      2.00000
     12      -9.5389      2.00000
     13      -9.5120      2.00000
     14      -9.5023      2.00000
     15      -9.4347      2.00000
     16      -9.3037      2.00000
     17      -1.7486      2.00000
     18      -1.5118      2.00000
     19      -1.3179      2.00000
     20      -1.2733      2.00000
     21      -1.2031      2.00000
     22      -1.0775      2.00000
     23      -0.9887      2.00000
     24      -0.7717      2.00000
     25      -0.6046      2.00000
     26      -0.4485      2.00000
     27      -0.3749      2.00000
     28      -0.2815      2.00000
     29      -0.1402      2.00000
     30      -0.0998      2.00000
     31       0.0149      2.00000
     32       0.1151      2.00000
     33       0.2056      2.00000
     34       0.3185      2.00000
     35       0.3823      2.00000
     36       0.4342      2.00000
     37       0.4619      2.00000
     38       0.5297      2.00000
     39       0.5771      2.00000
     40       0.6487      2.00000
     41       0.9538      2.00000
     42       1.0515      2.00000
     43       1.1975      2.00000
     44       1.4393      2.00000
     45       1.4896      2.00000
     46       1.5986      2.00000
     47       3.6399      0.00000
     48       3.6718      0.00000
     49       3.8828      0.00000
     50       4.0124      0.00000
     51       4.0626      0.00000
     52       4.2477      0.00000
     53       4.4004      0.00000
     54       4.4113      0.00000
     55       4.4266      0.00000
     56       4.5597      0.00000

 k-point    12 :      -0.0833   -0.2500    0.2500
  band No.  band energies     occupation 
      1     -11.5573      2.00000
      2     -11.5491      2.00000
      3     -11.4971      2.00000
      4     -11.4880      2.00000
      5     -11.4830      2.00000
      6     -11.4793      2.00000
      7     -10.5441      2.00000
      8     -10.4347      2.00000
      9     -10.0068      2.00000
     10      -9.8818      2.00000
     11      -9.7377      2.00000
     12      -9.6092      2.00000
     13      -9.5672      2.00000
     14      -9.5569      2.00000
     15      -9.5165      2.00000
     16      -9.3377      2.00000
     17      -1.9965      2.00000
     18      -1.6696      2.00000
     19      -1.5019      2.00000
     20      -1.3107      2.00000
     21      -1.2502      2.00000
     22      -0.9724      2.00000
     23      -0.6685      2.00000
     24      -0.5199      2.00000
     25      -0.3613      2.00000
     26      -0.1952      2.00000
     27      -0.0609      2.00000
     28      -0.0255      2.00000
     29       0.0682      2.00000
     30       0.1457      2.00000
     31       0.2753      2.00000
     32       0.4241      2.00000
     33       0.4638      2.00000
     34       0.5906      2.00000
     35       0.6415      2.00000
     36       0.6616      2.00000
     37       0.7277      2.00000
     38       0.8750      2.00000
     39       0.9262      2.00000
     40       1.1455      2.00000
     41       1.1994      2.00000
     42       1.2972      2.00000
     43       1.4852      2.00000
     44       1.6779      2.00000
     45       1.7835      2.00000
     46       1.9182      2.00000
     47       3.4032      0.00000
     48       3.5236      0.00000
     49       3.7798      0.00000
     50       4.0232      0.00000
     51       4.0426      0.00000
     52       4.0986      0.00000
     53       4.1549      0.00000
     54       4.2263      0.00000
     55       4.2826      0.00000
     56       4.3419      0.00000


--------------------------------------------------------------------------------------------------------


 soft charge-density along one line, spin component           1
         0         1         2         3         4         5         6         7         8         9
 total charge-density along one line
 
 pseudopotential strength for first ion, spin component:           1
-16.804  -0.000  -0.000 -15.532  -0.000  -0.000   0.000  -0.000
 -0.000 -16.766   0.013  -0.000 -15.498   0.012   0.004  -0.009
 -0.000   0.013 -16.766  -0.000   0.012 -15.498  -0.002   0.004
-15.532  -0.000  -0.000 -14.360  -0.000  -0.000   0.000  -0.000
 -0.000 -15.498   0.012  -0.000 -14.329   0.011   0.004  -0.008
 -0.000   0.012 -15.498  -0.000   0.011 -14.329  -0.002   0.003
  0.000   0.004  -0.002   0.000   0.004  -0.002   1.003  -3.843
 -0.000  -0.009   0.004  -0.000  -0.008   0.003  -3.843  14.952
  0.005   0.000  -0.000   0.005   0.000  -0.000   0.000  -0.000
 -0.013  -0.000   0.000  -0.012  -0.000   0.000   0.000  -0.000
  0.000  -0.013  -0.002   0.000  -0.012  -0.002  -0.002   0.006
  0.000   0.006  -0.012   0.000   0.005  -0.012  -0.003   0.007
  0.000   0.000   0.004   0.000   0.000   0.004  -0.004   0.010
 total augmentation occupancy for first ion, spin component:           1
  2.891  -0.006  -0.002  -0.940   0.006   0.002   0.003  -0.000  -0.014   0.068   0.001   0.001  -0.000
 -0.006   2.997   0.098   0.006  -1.004  -0.086   0.182  -0.004   0.001   0.001   0.004  -0.038  -0.004
 -0.002   0.098   2.938   0.002  -0.086  -0.942  -0.069   0.002   0.000   0.001  -0.008   0.069  -0.011
 -0.940   0.006   0.002   0.994  -0.006  -0.002  -0.003  -0.000   0.011  -0.060  -0.001  -0.001   0.000
  0.006  -1.004  -0.086  -0.006   1.010   0.072  -0.196  -0.005  -0.001  -0.001   0.004   0.034   0.003
  0.002  -0.086  -0.942  -0.002   0.072   0.946   0.074   0.002  -0.000  -0.001   0.009  -0.062   0.008
  0.003   0.182  -0.069  -0.003  -0.196   0.074   0.365   0.009  -0.000  -0.000   0.004   0.006  -0.003
 -0.000  -0.004   0.002  -0.000  -0.005   0.002   0.009   0.000  -0.000  -0.000   0.000   0.000   0.000
 -0.014   0.001   0.000   0.011  -0.001  -0.000  -0.000  -0.000   0.017   0.002  -0.000  -0.000   0.000
  0.068   0.001   0.001  -0.060  -0.001  -0.001  -0.000  -0.000   0.002   0.021  -0.000  -0.000   0.000
  0.001   0.004  -0.008  -0.001   0.004   0.009   0.004   0.000  -0.000  -0.000   0.007  -0.001  -0.003
  0.001  -0.038   0.069  -0.001   0.034  -0.062   0.006   0.000  -0.000  -0.000  -0.001   0.017  -0.000
 -0.000  -0.004  -0.011   0.000   0.003   0.008  -0.003   0.000   0.000   0.000  -0.003  -0.000   0.009


------------------------ aborting loop because EDIFF is reached ----------------------------------------


 


 total charge     
 
# of ion       s       p       d       tot
------------------------------------------
    1        0.058   6.041   0.057   6.156
    2        0.057   6.041   0.057   6.155
    3        0.352   0.566   1.315   2.233
    4        0.344   0.545   1.278   2.167
    5        0.357   0.566   1.346   2.269
    6        0.357   0.566   1.346   2.268
    7        0.346   0.536   1.303   2.186
    8        0.346   0.536   1.303   2.185
    9        1.445   2.477   0.017   3.940
   10        1.445   2.477   0.017   3.939
   11        1.443   2.437   0.011   3.892
   12        1.443   2.437   0.011   3.891
   13        1.441   2.454   0.017   3.912
   14        1.441   2.454   0.017   3.912
   15        1.449   2.460   0.015   3.925
   16        1.449   2.460   0.015   3.924
   17        1.446   2.447   0.013   3.906
   18        1.446   2.447   0.013   3.906
--------------------------------------------------
tot         16.666  39.946   8.153  64.766
 
    CHARGE:  cpu time    0.0151: real time    0.0153
    FORLOC:  cpu time    0.0011: real time    0.0012
    FORNL :  cpu time    0.1607: real time    0.1645
    STRESS:  cpu time    0.4743: real time    0.4864
    FORCOR:  cpu time    0.0060: real time    0.0060
    FORHAR:  cpu time    0.0020: real time    0.0020
    MIXING:  cpu time    0.0003: real time    0.0003
    OFIELD:  cpu time    0.0000: real time    0.0000

  FORCE on cell =-STRESS in cart. coord.  units (eV):
  Direction    XX          YY          ZZ          XY          YZ          ZX
  --------------------------------------------------------------------------------------
  Alpha Z   216.50942   216.50942   216.50942
  Ewald   -1187.69844 -1022.45644 -1115.50663     0.21913    -1.51890    13.04836
  Hartree   156.17584   251.99859   180.39886    -0.00545    -0.35956    15.93123
  E(xc)    -345.98594  -346.48059  -347.08004    -0.01110     0.03247     0.12337
  Local    -146.45251  -403.46736  -242.53406    -0.20625     1.84427   -29.25896
  n-local   420.75991   424.43892   428.12068    -0.03872    -0.14013    -0.34308
  augment     8.60341     7.52413     8.18741    -0.00575    -0.00764     0.25954
  Kinetic   877.93492   871.76241   871.66416    -0.05933     0.14716     0.20950
  Fock        0.00000     0.00000     0.00000     0.00000     0.00000     0.00000
  -------------------------------------------------------------------------------------
  Total      -0.15338    -0.17092    -0.24019    -0.10748    -0.00234    -0.03003
  in kB      -0.52201    -0.58170    -0.81746    -0.36579    -0.00796    -0.10222
  external pressure =       -0.64 kB  Pullay stress =        0.00 kB


 VOLUME and BASIS-vectors are now :
 -----------------------------------------------------------------------------
  energy-cutoff  :      300.00
  volume of cell :      470.76
      direct lattice vectors                 reciprocal lattice vectors
    -0.001356025 -3.896916531 -0.000233112     0.047005315 -0.256631332  0.030635383
   -10.678687046 -1.952244250  0.030944794    -0.093571448  0.000030936  0.027151073
    -3.280632237 -1.950294361-11.303906064    -0.000257124  0.000005377 -0.088391300

  length of vectors
     3.896916774 10.855716108 11.930820939     0.262693104  0.097430989  0.088391675


 FORCES acting on ions
    electron-ion (+dipol)            ewald-force                    non-local-force                 convergence-correction
 -----------------------------------------------------------------------------------------------
   0.397E+02 -.180E+00 -.548E+02   -.392E+02 0.171E+00 0.536E+02   -.526E+00 0.796E-02 0.126E+01   0.716E-02 0.574E-04 -.550E-02
   -.398E+02 0.174E+00 0.547E+02   0.392E+02 -.165E+00 -.534E+02   0.532E+00 -.816E-02 -.126E+01   -.108E-01 -.163E-03 0.619E-02
   -.262E-01 -.104E-02 -.487E-01   0.255E-01 0.461E-03 0.502E-01   0.502E-03 -.105E-02 0.523E-02   0.687E-03 0.103E-03 -.599E-03
   -.528E-01 0.187E-01 0.136E-01   0.511E-01 -.176E-01 -.123E-01   0.291E-02 -.303E-02 0.542E-02   -.542E-04 -.673E-04 0.101E-02
   -.347E+01 0.137E+00 0.463E+00   0.291E+01 -.129E+00 -.642E+00   0.569E+00 -.247E-02 0.161E+00   -.450E-03 0.134E-04 -.785E-03
   0.340E+01 -.189E+00 -.427E+00   -.284E+01 0.180E+00 0.606E+00   -.562E+00 0.120E-01 -.155E+00   0.973E-03 0.479E-03 0.125E-02
   -.186E+02 0.234E+00 -.964E+01   0.190E+02 -.221E+00 0.999E+01   -.354E+00 -.195E-01 -.318E+00   0.441E-02 -.100E-02 0.647E-03
   0.187E+02 -.205E+00 0.958E+01   -.190E+02 0.193E+00 -.993E+01   0.350E+00 0.132E-01 0.323E+00   -.409E-02 0.790E-03 0.163E-03
   0.265E+02 -.192E+00 -.864E+01   -.270E+02 0.189E+00 0.886E+01   0.476E+00 0.771E-02 -.236E+00   -.795E-02 0.235E-03 0.796E-02
   -.266E+02 0.185E+00 0.862E+01   0.271E+02 -.182E+00 -.884E+01   -.460E+00 -.359E-01 0.238E+00   0.132E-01 -.749E-03 -.694E-02
   -.674E+02 -.264E+00 -.248E+02   0.677E+02 0.260E+00 0.248E+02   -.202E+00 0.280E-01 -.694E-01   0.402E-03 -.316E-04 0.651E-02
   0.675E+02 0.233E+00 0.247E+02   -.677E+02 -.231E+00 -.247E+02   0.218E+00 -.204E-01 0.579E-01   -.154E-02 0.388E-03 -.103E-01
   -.105E+02 -.167E+00 0.171E+02   0.107E+02 0.175E+00 -.178E+02   -.185E+00 0.182E-01 0.686E+00   0.696E-02 0.110E-02 -.366E-02
   0.106E+02 0.147E+00 -.171E+02   -.108E+02 -.155E+00 0.177E+02   0.173E+00 0.266E-02 -.689E+00   -.395E-02 -.124E-02 0.661E-02
   0.353E+02 -.873E-02 -.251E+02   -.355E+02 0.216E-01 0.251E+02   0.298E+00 -.374E-01 0.689E-01   -.363E-02 -.107E-03 0.640E-02
   -.352E+02 0.103E+00 0.253E+02   0.355E+02 -.114E+00 -.253E+02   -.290E+00 0.173E-01 -.768E-01   0.207E-02 0.382E-03 -.106E-01
   -.276E+02 0.610E-01 -.323E+02   0.279E+02 -.636E-01 0.325E+02   -.265E+00 -.850E-02 -.125E+00   0.105E-02 -.901E-03 -.583E-03
   0.276E+02 -.850E-01 0.325E+02   -.279E+02 0.870E-01 -.326E+02   0.267E+00 0.419E-02 0.142E+00   -.331E-02 0.787E-03 0.320E-02
 -----------------------------------------------------------------------------------------------
   -.631E-02 0.111E-02 -.167E-02   -.711E-14 -.163E-13 0.142E-13   0.421E-01 -.251E-01 0.236E-01   0.111E-02 0.676E-04 0.965E-03
 
 
 POSITION                                       TOTAL-FORCE (eV/Angst)
 -----------------------------------------------------------------------------------
     -4.09558     -3.90129     -1.99994         0.006410      0.000861      0.002020
     -9.86506     -3.89774     -9.27567        -0.010952      0.002152     -0.003589
     -0.00130     -1.94847     -0.00125        -0.001603     -0.000190      0.004867
     -6.97937     -3.89978     -5.63650        -0.000915     -0.000647      0.006478
    -11.36338     -5.85648     -4.40204         0.009674      0.007441     -0.019888
     -2.59637     -1.94356     -6.87257        -0.008286      0.004478      0.024235
     -8.47185     -1.96424     -2.46706         0.004706     -0.006142      0.033085
     -5.49009     -5.83495     -8.80554        -0.006773      0.003583     -0.035107
    -11.12959     -5.85668     -1.72270        -0.012760      0.006012     -0.003984
     -2.83406     -1.94292     -9.55067         0.025039     -0.032240      0.005246
     -7.98467     -3.91762     -0.70290         0.019285      0.026069     -0.035147
     -5.97689     -3.88263    -10.57004        -0.009430     -0.017077      0.020478
     -9.36876     -3.91316     -4.33168         0.003212      0.028199      0.016036
     -4.58979     -3.88709     -6.94079        -0.021627     -0.005163     -0.019883
     -2.47711     -1.95434     -4.24926         0.019657     -0.023323      0.015005
    -11.48156     -5.84226     -7.02385        -0.013937      0.008295     -0.023815
     -6.24599     -1.94922     -3.89114         0.029091     -0.010637     -0.004246
     -7.71497     -5.85142     -7.37868        -0.030791      0.008330      0.018208
 -----------------------------------------------------------------------------------
    total drift:                                0.036923     -0.023942      0.022899


--------------------------------------------------------------------------------------------------------



  FREE ENERGIE OF THE ION-ELECTRON SYSTEM (eV)
  ---------------------------------------------------
  free  energy   TOTEN  =      -104.41277963 eV

  energy  without entropy=     -104.41277963  energy(sigma->0) =     -104.41277963
 
 d Force = 0.1232813E-02[ 0.725E-03, 0.174E-02]  d Energy = 0.1493142E-02-0.260E-03
 d Force = 0.4793981E+00[ 0.475E+00, 0.484E+00]  d Ewald  = 0.1784684E+01-0.131E+01


--------------------------------------------------------------------------------------------------------


    POTLOK:  cpu time    0.2525: real time    0.2552


--------------------------------------------------------------------------------------------------------


 Conjugate gradient step on ions:
 trial-energy change:   -0.001493  1 .order   -0.001568   -0.002143   -0.000994
  (g-gl).g = 0.274E-03      g.g   = 0.377E-03  gl.gl    = 0.775E-03
 g(Force)  = 0.271E-03   g(Stress)= 0.106E-03 ortho     = 0.371E-04
 gamma     =   0.35317
 trial     =   5.49703
 opt step  =  10.25607  (harmonic =  10.25607) maximal distance =0.00691415
 next E    =  -104.413285   (d E  =  -0.00200)


--------------------------------------------------------------------------------------------------------


  
 reached required accuracy - stopping structural energy minimisation
     LOOP+:  cpu time    5.0845: real time    5.3192
    4ORBIT:  cpu time    0.0000: real time    0.0000
 


 total charge     
 
# of ion       s       p       d       tot
------------------------------------------
    1        0.058   6.041   0.057   6.156
    2        0.057   6.041   0.057   6.155
    3        0.352   0.566   1.315   2.233
    4        0.344   0.545   1.278   2.167
    5        0.357   0.566   1.346   2.269
    6        0.357   0.566   1.346   2.268
    7        0.346   0.536   1.303   2.186
    8        0.346   0.536   1.303   2.185
    9        1.445   2.477   0.017   3.940
   10        1.445   2.477   0.017   3.939
   11        1.443   2.437   0.011   3.892
   12        1.443   2.437   0.011   3.891
   13        1.441   2.454   0.017   3.912
   14        1.441   2.454   0.017   3.912
   15        1.449   2.460   0.015   3.925
   16        1.449   2.460   0.015   3.924
   17        1.446   2.447   0.013   3.906
   18        1.446   2.447   0.013   3.906
--------------------------------------------------
tot         16.666  39.946   8.153  64.766
 

 total amount of memory used by VASP MPI-rank0    39468. kBytes
=======================================================================

   base      :      30000. kBytes
   nonlr-proj:       3347. kBytes
   fftplans  :        531. kBytes
   grid      :       2031. kBytes
   one-center:        194. kBytes
   wavefun   :       3365. kBytes
 
  
  
 General timing and accounting informations for this job:
 ========================================================
  
                  Total CPU time used (sec):      154.232
                            User time (sec):      151.134
                          System time (sec):        3.098
                         Elapsed time (sec):      160.752
  
                   Maximum memory used (kb):       75248.
                   Average memory used (kb):           0.
  
                          Minor page faults:        47044
                          Major page faults:            0
                 Voluntary context switches:         1512
