PROCAR new format
# of k-points:   12         # of bands:   56         # of ions:   18

 k-point     1 :    0.08333333 0.25000000 0.25000000     weight = 0.08333333

band     1 # energy  -11.56242449 # occ.  2.00000000
 
ion      s      p      d    tot
    1  0.000  0.395  0.000  0.395
    2  0.000  0.561  0.000  0.561
    3  0.000  0.000  0.000  0.000
    4  0.000  0.000  0.000  0.000
    5  0.001  0.000  0.000  0.001
    6  0.001  0.000  0.000  0.001
    7  0.000  0.000  0.000  0.000
    8  0.000  0.000  0.000  0.000
    9  0.001  0.000  0.000  0.001
   10  0.001  0.000  0.000  0.001
   11  0.001  0.000  0.000  0.001
   12  0.000  0.000  0.000  0.000
   13  0.000  0.000  0.000  0.000
   14  0.000  0.000  0.000  0.000
   15  0.006  0.000  0.000  0.006
   16  0.008  0.000  0.000  0.008
   17  0.000  0.000  0.000  0.000
   18  0.000  0.000  0.000  0.000
tot    0.019  0.956  0.000  0.975
 
band     2 # energy  -11.54374739 # occ.  2.00000000
 
ion      s      p      d    tot
    1  0.000  0.566  0.000  0.566
    2  0.000  0.401  0.000  0.401
    3  0.000  0.000  0.000  0.000
    4  0.000  0.000  0.000  0.000
    5  0.000  0.000  0.000  0.000
    6  0.000  0.000  0.000  0.000
    7  0.000  0.000  0.000  0.000
    8  0.000  0.000  0.000  0.000
    9  0.001  0.000  0.000  0.001
   10  0.001  0.000  0.000  0.001
   11  0.000  0.000  0.000  0.000
   12  0.000  0.000  0.000  0.000
   13  0.000  0.000  0.000  0.000
   14  0.000  0.000  0.000  0.000
   15  0.006  0.000  0.000  0.006
   16  0.004  0.000  0.000  0.004
   17  0.000  0.000  0.000  0.000
   18  0.000  0.000  0.000  0.000
tot    0.012  0.967  0.000  0.980
 
band     3 # energy  -11.49613896 # occ.  2.00000000
 
ion      s      p      d    tot
    1  0.000  0.270  0.000  0.270
    2  0.000  0.691  0.000  0.691
    3  0.000  0.000  0.000  0.000
    4  0.000  0.000  0.000  0.000
    5  0.000  0.000  0.000  0.000
    6  0.000  0.000  0.000  0.000
    7  0.000  0.000  0.000  0.000
    8  0.000  0.000  0.000  0.000
    9  0.001  0.000  0.000  0.001
   10  0.001  0.000  0.000  0.001
   11  0.003  0.000  0.000  0.003
   12  0.002  0.000  0.000  0.002
   13  0.000  0.000  0.000  0.000
   14  0.000  0.000  0.000  0.000
   15  0.000  0.000  0.000  0.000
   16  0.000  0.000  0.000  0.000
   17  0.002  0.000  0.000  0.002
   18  0.005  0.000  0.000  0.005
tot    0.015  0.961  0.000  0.976
 
band     4 # energy  -11.48880137 # occ.  2.00000000
 
ion      s      p      d    tot
    1  0.000  0.688  0.000  0.688
    2  0.000  0.279  0.000  0.279
    3  0.000  0.000  0.000  0.000
    4  0.000  0.000  0.000  0.000
    5  0.000  0.000  0.000  0.000
    6  0.000  0.000  0.000  0.000
    7  0.000  0.000  0.000  0.000
    8  0.000  0.000  0.000  0.000
    9  0.001  0.000  0.000  0.001
   10  0.000  0.000  0.000  0.001
   11  0.000  0.000  0.000  0.000
   12  0.002  0.000  0.000  0.002
   13  0.000  0.000  0.000  0.000
   14  0.000  0.000  0.000  0.000
   15  0.000  0.000  0.000  0.000
   16  0.000  0.000  0.000  0.000
   17  0.005  0.000  0.000  0.005
   18  0.002  0.000  0.000  0.002
tot    0.011  0.968  0.000  0.979
 
band     5 # energy  -11.48299337 # occ.  2.00000000
 
ion      s      p      d    tot
    1  0.000  0.015  0.000  0.015
    2  0.000  0.975  0.000  0.975
    3  0.000  0.000  0.000  0.000
    4  0.000  0.000  0.000  0.000
    5  0.000  0.000  0.000  0.000
    6  0.000  0.000  0.000  0.000
    7  0.000  0.000  0.000  0.000
    8  0.000  0.000  0.000  0.000
    9  0.000  0.000  0.000  0.000
   10  0.000  0.000  0.000  0.000
   11  0.001  0.000  0.000  0.001
   12  0.000  0.000  0.000  0.000
   13  0.000  0.000  0.000  0.000
   14  0.000  0.000  0.000  0.000
   15  0.000  0.000  0.000  0.000
   16  0.000  0.000  0.000  0.000
   17  0.000  0.000  0.000  0.000
   18  0.000  0.000  0.000  0.000
tot    0.001  0.990  0.000  0.991
 
band     6 # energy  -11.47929427 # occ.  2.00000000
 
ion      s      p      d    tot
    1  0.000  0.981  0.000  0.981
    2  0.000  0.009  0.000  0.009
    3  0.000  0.000  0.000  0.000
    4  0.000  0.000  0.000  0.000
    5  0.000  0.000  0.000  0.000
    6  0.000  0.000  0.000  0.000
    7  0.000  0.000  0.000  0.000
    8  0.000  0.000  0.000  0.000
    9  0.000  0.000  0.000  0.000
   10  0.000  0.000  0.000  0.000
   11  0.000  0.000  0.000  0.000
   12  0.001  0.000  0.000  0.001
   13  0.000  0.000  0.000  0.000
   14  0.000  0.000  0.000  0.000
   15  0.000  0.000  0.000  0.000
   16  0.000  0.000  0.000  0.000
   17  0.000  0.000  0.000  0.000
   18  0.000  0.000  0.000  0.000
tot    0.001  0.990  0.000  0.991
 
band     7 # energy  -10.59834441 # occ.  2.00000000
 
ion      s      p      d    tot
    1  0.000  0.008  0.000  0.008
    2  0.000  0.008  0.000  0.008
    3  0.016  0.000  0.001  0.018
    4  0.008  0.000  0.001  0.009
    5  0.013  0.001  0.000  0.014
    6  0.014  0.001  0.000  0.014
    7  0.010  0.001  0.000  0.011
    8  0.010  0.001  0.000  0.011
    9  0.114  0.000  0.000  0.114
   10  0.114  0.000  0.000  0.114
   11  0.023  0.000  0.000  0.023
   12  0.023  0.000  0.000  0.023
   13  0.127  0.000  0.000  0.127
   14  0.128  0.000  0.000  0.128
   15  0.034  0.000  0.000  0.035
   16  0.035  0.000  0.000  0.035
   17  0.018  0.000  0.000  0.018
   18  0.018  0.000  0.000  0.018
tot    0.705  0.021  0.003  0.729
 
band     8 # energy  -10.32065215 # occ.  2.00000000
 
ion      s      p      d    tot
    1  0.000  0.003  0.000  0.003
    2  0.000  0.003  0.000  0.003
    3  0.002  0.003  0.000  0.006
    4  0.000  0.004  0.000  0.005
    5  0.012  0.002  0.000  0.014
    6  0.012  0.002  0.000  0.014
    7  0.010  0.001  0.000  0.012
    8  0.010  0.001  0.000  0.012
    9  0.075  0.000  0.000  0.076
   10  0.075  0.000  0.000  0.075
   11  0.014  0.000  0.000  0.014
   12  0.014  0.000  0.000  0.014
   13  0.212  0.000  0.000  0.212
   14  0.212  0.000  0.000  0.213
   15  0.026  0.000  0.000  0.026
   16  0.026  0.000  0.000  0.026
   17  0.005  0.000  0.000  0.005
   18  0.005  0.000  0.000  0.005
tot    0.709  0.023  0.002  0.734
 
band     9 # energy  -10.10308046 # occ.  2.00000000
 
ion      s      p      d    tot
    1  0.000  0.004  0.000  0.004
    2  0.000  0.004  0.000  0.004
    3  0.022  0.001  0.003  0.026
    4  0.013  0.000  0.001  0.014
    5  0.000  0.002  0.003  0.005
    6  0.000  0.002  0.003  0.005
    7  0.000  0.004  0.001  0.005
    8  0.000  0.004  0.001  0.005
    9  0.156  0.000  0.000  0.157
   10  0.155  0.000  0.000  0.156
   11  0.015  0.000  0.000  0.015
   12  0.015  0.000  0.000  0.015
   13  0.126  0.000  0.000  0.126
   14  0.125  0.000  0.000  0.125
   15  0.004  0.000  0.000  0.004
   16  0.004  0.000  0.000  0.004
   17  0.038  0.000  0.000  0.039
   18  0.039  0.000  0.000  0.039
tot    0.714  0.022  0.011  0.746
 
band    10 # energy   -9.83850321 # occ.  2.00000000
 
ion      s      p      d    tot
    1  0.000  0.010  0.000  0.010
    2  0.000  0.010  0.000  0.010
    3  0.001  0.001  0.000  0.002
    4  0.003  0.001  0.000  0.005
    5  0.011  0.006  0.001  0.018
    6  0.011  0.006  0.001  0.018
    7  0.006  0.000  0.001  0.007
    8  0.006  0.000  0.001  0.007
    9  0.005  0.000  0.000  0.005
   10  0.005  0.000  0.000  0.006
   11  0.048  0.000  0.000  0.048
   12  0.047  0.000  0.000  0.047
   13  0.047  0.000  0.000  0.047
   14  0.047  0.000  0.000  0.047
   15  0.211  0.001  0.000  0.212
   16  0.211  0.001  0.000  0.212
   17  0.027  0.000  0.000  0.027
   18  0.028  0.000  0.000  0.028
tot    0.713  0.038  0.005  0.756
 
band    11 # energy   -9.75545552 # occ.  2.00000000
 
ion      s      p      d    tot
    1  0.000  0.004  0.000  0.004
    2  0.000  0.004  0.000  0.004
    3  0.000  0.009  0.002  0.011
    4  0.001  0.001  0.001  0.002
    5  0.002  0.005  0.001  0.008
    6  0.002  0.005  0.001  0.008
    7  0.001  0.001  0.003  0.005
    8  0.001  0.001  0.003  0.005
    9  0.209  0.000  0.000  0.210
   10  0.210  0.000  0.000  0.210
   11  0.018  0.000  0.000  0.018
   12  0.018  0.000  0.000  0.018
   13  0.044  0.000  0.000  0.045
   14  0.046  0.000  0.000  0.046
   15  0.068  0.000  0.000  0.068
   16  0.070  0.000  0.000  0.070
   17  0.011  0.000  0.000  0.011
   18  0.012  0.000  0.000  0.012
tot    0.714  0.031  0.012  0.756
 
band    12 # energy   -9.62730612 # occ.  2.00000000
 
ion      s      p      d    tot
    1  0.000  0.001  0.000  0.002
    2  0.000  0.001  0.000  0.002
    3  0.000  0.004  0.002  0.006
    4  0.002  0.001  0.003  0.006
    5  0.001  0.000  0.003  0.004
    6  0.001  0.000  0.003  0.004
    7  0.005  0.005  0.001  0.011
    8  0.005  0.005  0.001  0.011
    9  0.029  0.000  0.000  0.029
   10  0.029  0.000  0.000  0.029
   11  0.208  0.000  0.000  0.208
   12  0.208  0.000  0.000  0.208
   13  0.054  0.000  0.000  0.054
   14  0.055  0.000  0.000  0.055
   15  0.015  0.000  0.000  0.016
   16  0.015  0.000  0.000  0.015
   17  0.046  0.000  0.000  0.046
   18  0.047  0.000  0.000  0.047
tot    0.721  0.019  0.012  0.752
 
band    13 # energy   -9.56756563 # occ.  2.00000000
 
ion      s      p      d    tot
    1  0.000  0.009  0.000  0.009
    2  0.000  0.009  0.000  0.009
    3  0.000  0.003  0.001  0.004
    4  0.001  0.001  0.003  0.004
    5  0.001  0.004  0.007  0.011
    6  0.001  0.004  0.007  0.011
    7  0.001  0.003  0.002  0.005
    8  0.001  0.003  0.002  0.005
    9  0.037  0.000  0.000  0.037
   10  0.038  0.000  0.000  0.038
   11  0.105  0.000  0.000  0.105
   12  0.105  0.000  0.000  0.105
   13  0.032  0.000  0.000  0.032
   14  0.031  0.000  0.000  0.031
   15  0.143  0.000  0.000  0.143
   16  0.147  0.000  0.000  0.147
   17  0.034  0.000  0.000  0.034
   18  0.036  0.000  0.000  0.036
tot    0.711  0.036  0.020  0.766
 
band    14 # energy   -9.54332914 # occ.  2.00000000
 
ion      s      p      d    tot
    1  0.000  0.002  0.000  0.003
    2  0.000  0.002  0.000  0.003
    3  0.000  0.001  0.008  0.009
    4  0.000  0.001  0.001  0.001
    5  0.000  0.002  0.007  0.009
    6  0.000  0.002  0.007  0.009
    7  0.002  0.003  0.002  0.008
    8  0.002  0.003  0.002  0.008
    9  0.047  0.000  0.000  0.047
   10  0.045  0.000  0.000  0.045
   11  0.168  0.000  0.000  0.168
   12  0.166  0.000  0.000  0.166
   13  0.011  0.000  0.000  0.011
   14  0.011  0.000  0.000  0.011
   15  0.118  0.000  0.000  0.118
   16  0.113  0.000  0.000  0.113
   17  0.019  0.000  0.000  0.019
   18  0.019  0.000  0.000  0.019
tot    0.721  0.019  0.027  0.767
 
band    15 # energy   -9.49711124 # occ.  2.00000000
 
ion      s      p      d    tot
    1  0.000  0.005  0.000  0.005
    2  0.000  0.005  0.000  0.005
    3  0.000  0.000  0.004  0.004
    4  0.011  0.001  0.010  0.021
    5  0.000  0.002  0.002  0.003
    6  0.000  0.002  0.002  0.004
    7  0.000  0.002  0.007  0.010
    8  0.000  0.002  0.008  0.010
    9  0.018  0.000  0.000  0.018
   10  0.019  0.000  0.000  0.019
   11  0.075  0.000  0.000  0.075
   12  0.078  0.000  0.000  0.078
   13  0.035  0.000  0.000  0.035
   14  0.035  0.000  0.000  0.035
   15  0.042  0.000  0.000  0.042
   16  0.042  0.000  0.000  0.042
   17  0.179  0.000  0.000  0.179
   18  0.184  0.000  0.000  0.185
tot    0.720  0.020  0.033  0.772
 
band    16 # energy   -9.34162644 # occ.  2.00000000
 
ion      s      p      d    tot
    1  0.000  0.005  0.000  0.006
    2  0.000  0.005  0.000  0.005
    3  0.000  0.000  0.000  0.001
    4  0.000  0.012  0.002  0.014
    5  0.000  0.001  0.001  0.002
    6  0.000  0.001  0.001  0.002
    7  0.001  0.003  0.005  0.009
    8  0.001  0.003  0.005  0.008
    9  0.001  0.000  0.000  0.001
   10  0.001  0.000  0.000  0.001
   11  0.021  0.000  0.000  0.021
   12  0.020  0.000  0.000  0.020
   13  0.005  0.000  0.000  0.005
   14  0.005  0.000  0.000  0.005
   15  0.023  0.000  0.000  0.023
   16  0.023  0.000  0.000  0.023
   17  0.313  0.000  0.000  0.313
   18  0.303  0.000  0.000  0.303
tot    0.716  0.031  0.014  0.761
 
band    17 # energy   -2.04078919 # occ.  2.00000000
 
ion      s      p      d    tot
    1  0.000  0.001  0.000  0.001
    2  0.000  0.001  0.000  0.001
    3  0.057  0.003  0.031  0.091
    4  0.023  0.000  0.010  0.033
    5  0.027  0.009  0.009  0.045
    6  0.027  0.009  0.009  0.045
    7  0.003  0.001  0.012  0.016
    8  0.003  0.001  0.012  0.016
    9  0.000  0.100  0.000  0.101
   10  0.000  0.100  0.000  0.101
   11  0.000  0.009  0.000  0.010
   12  0.000  0.009  0.000  0.010
   13  0.001  0.041  0.000  0.042
   14  0.001  0.041  0.000  0.042
   15  0.002  0.013  0.000  0.015
   16  0.002  0.013  0.000  0.015
   17  0.001  0.009  0.000  0.010
   18  0.001  0.009  0.000  0.010
tot    0.152  0.366  0.085  0.603
 
band    18 # energy   -1.72405886 # occ.  2.00000000
 
ion      s      p      d    tot
    1  0.002  0.001  0.000  0.003
    2  0.002  0.001  0.000  0.003
    3  0.000  0.001  0.010  0.011
    4  0.001  0.006  0.009  0.016
    5  0.026  0.002  0.017  0.045
    6  0.027  0.002  0.017  0.045
    7  0.034  0.002  0.007  0.043
    8  0.034  0.002  0.007  0.043
    9  0.001  0.025  0.000  0.026
   10  0.001  0.025  0.000  0.025
   11  0.001  0.022  0.000  0.024
   12  0.001  0.022  0.000  0.024
   13  0.001  0.065  0.000  0.066
   14  0.001  0.066  0.000  0.066
   15  0.000  0.036  0.000  0.037
   16  0.000  0.037  0.000  0.037
   17  0.001  0.018  0.000  0.019
   18  0.001  0.018  0.000  0.019
tot    0.134  0.349  0.069  0.552
 
band    19 # energy   -1.43369493 # occ.  2.00000000
 
ion      s      p      d    tot
    1  0.001  0.003  0.000  0.004
    2  0.001  0.003  0.000  0.004
    3  0.004  0.003  0.004  0.011
    4  0.001  0.016  0.012  0.030
    5  0.030  0.006  0.018  0.054
    6  0.029  0.006  0.018  0.054
    7  0.013  0.007  0.008  0.028
    8  0.013  0.007  0.007  0.028
    9  0.001  0.019  0.000  0.019
   10  0.001  0.019  0.000  0.019
   11  0.000  0.013  0.000  0.013
   12  0.000  0.013  0.000  0.013
   13  0.000  0.081  0.000  0.081
   14  0.000  0.081  0.000  0.081
   15  0.006  0.044  0.000  0.051
   16  0.006  0.044  0.000  0.050
   17  0.001  0.018  0.000  0.020
   18  0.001  0.018  0.000  0.020
tot    0.110  0.402  0.069  0.582
 
band    20 # energy   -1.28963765 # occ.  2.00000000
 
ion      s      p      d    tot
    1  0.002  0.002  0.000  0.005
    2  0.002  0.002  0.000  0.005
    3  0.030  0.001  0.025  0.056
    4  0.035  0.005  0.009  0.050
    5  0.005  0.009  0.021  0.035
    6  0.005  0.010  0.021  0.035
    7  0.007  0.004  0.006  0.018
    8  0.007  0.004  0.006  0.018
    9  0.004  0.069  0.000  0.073
   10  0.004  0.068  0.000  0.072
   11  0.001  0.018  0.000  0.019
   12  0.001  0.018  0.000  0.019
   13  0.000  0.050  0.000  0.050
   14  0.000  0.050  0.000  0.050
   15  0.000  0.016  0.000  0.017
   16  0.000  0.016  0.000  0.017
   17  0.002  0.025  0.000  0.027
   18  0.002  0.025  0.000  0.027
tot    0.109  0.393  0.091  0.594
 
band    21 # energy   -1.12221018 # occ.  2.00000000
 
ion      s      p      d    tot
    1  0.001  0.001  0.001  0.002
    2  0.001  0.001  0.001  0.002
    3  0.000  0.020  0.004  0.024
    4  0.005  0.002  0.004  0.012
    5  0.001  0.002  0.014  0.017
    6  0.001  0.002  0.014  0.017
    7  0.032  0.012  0.008  0.051
    8  0.032  0.012  0.008  0.051
    9  0.002  0.070  0.000  0.072
   10  0.002  0.070  0.000  0.073
   11  0.005  0.037  0.000  0.042
   12  0.005  0.037  0.000  0.043
   13  0.002  0.058  0.000  0.060
   14  0.002  0.058  0.000  0.060
   15  0.001  0.007  0.000  0.008
   16  0.001  0.007  0.000  0.008
   17  0.002  0.007  0.000  0.009
   18  0.001  0.007  0.000  0.009
tot    0.095  0.409  0.054  0.558
 
band    22 # energy   -0.92127838 # occ.  2.00000000
 
ion      s      p      d    tot
    1  0.008  0.001  0.000  0.009
    2  0.008  0.001  0.000  0.009
    3  0.000  0.001  0.018  0.019
    4  0.028  0.011  0.025  0.064
    5  0.009  0.013  0.015  0.038
    6  0.009  0.013  0.015  0.038
    7  0.001  0.005  0.009  0.015
    8  0.001  0.005  0.009  0.015
    9  0.002  0.028  0.000  0.030
   10  0.002  0.028  0.000  0.030
   11  0.000  0.012  0.000  0.012
   12  0.000  0.012  0.000  0.012
   13  0.003  0.028  0.000  0.031
   14  0.003  0.028  0.000  0.031
   15  0.001  0.052  0.000  0.053
   16  0.001  0.052  0.000  0.053
   17  0.001  0.060  0.000  0.061
   18  0.001  0.060  0.000  0.062
tot    0.078  0.411  0.093  0.582
 
band    23 # energy   -0.74660502 # occ.  2.00000000
 
ion      s      p      d    tot
    1  0.002  0.004  0.000  0.006
    2  0.002  0.004  0.000  0.006
    3  0.002  0.015  0.014  0.032
    4  0.010  0.005  0.022  0.037
    5  0.001  0.006  0.011  0.017
    6  0.001  0.006  0.011  0.017
    7  0.001  0.004  0.038  0.043
    8  0.001  0.004  0.038  0.043
    9  0.001  0.036  0.000  0.037
   10  0.001  0.036  0.000  0.037
   11  0.000  0.044  0.000  0.044
   12  0.000  0.044  0.000  0.044
   13  0.001  0.032  0.000  0.033
   14  0.001  0.032  0.000  0.033
   15  0.000  0.026  0.000  0.027
   16  0.000  0.026  0.000  0.027
   17  0.001  0.042  0.000  0.043
   18  0.001  0.042  0.000  0.043
tot    0.025  0.410  0.136  0.571
 
band    24 # energy   -0.47101975 # occ.  2.00000000
 
ion      s      p      d    tot
    1  0.001  0.004  0.001  0.006
    2  0.001  0.004  0.001  0.006
    3  0.009  0.008  0.024  0.041
    4  0.000  0.001  0.019  0.020
    5  0.006  0.013  0.014  0.033
    6  0.006  0.013  0.014  0.033
    7  0.008  0.010  0.016  0.034
    8  0.008  0.011  0.016  0.035
    9  0.003  0.011  0.000  0.014
   10  0.003  0.011  0.000  0.014
   11  0.000  0.077  0.000  0.077
   12  0.000  0.077  0.000  0.078
   13  0.001  0.022  0.000  0.024
   14  0.001  0.023  0.000  0.024
   15  0.002  0.058  0.000  0.060
   16  0.002  0.058  0.000  0.060
   17  0.001  0.018  0.000  0.019
   18  0.001  0.018  0.000  0.019
tot    0.053  0.436  0.107  0.596
 
band    25 # energy   -0.37464606 # occ.  2.00000000
 
ion      s      p      d    tot
    1  0.001  0.001  0.000  0.002
    2  0.001  0.001  0.000  0.002
    3  0.000  0.003  0.017  0.020
    4  0.000  0.004  0.030  0.034
    5  0.011  0.006  0.024  0.042
    6  0.011  0.006  0.024  0.042
    7  0.016  0.008  0.013  0.037
    8  0.016  0.008  0.013  0.036
    9  0.002  0.036  0.000  0.038
   10  0.002  0.035  0.000  0.038
   11  0.001  0.016  0.000  0.017
   12  0.001  0.015  0.000  0.016
   13  0.006  0.041  0.000  0.047
   14  0.006  0.040  0.000  0.047
   15  0.001  0.042  0.000  0.043
   16  0.001  0.044  0.000  0.045
   17  0.001  0.058  0.000  0.059
   18  0.001  0.058  0.000  0.059
tot    0.077  0.423  0.123  0.622
 
band    26 # energy   -0.27270687 # occ.  2.00000000
 
ion      s      p      d    tot
    1  0.003  0.003  0.000  0.006
    2  0.003  0.003  0.000  0.006
    3  0.008  0.002  0.018  0.028
    4  0.003  0.002  0.019  0.024
    5  0.002  0.006  0.045  0.052
    6  0.002  0.006  0.045  0.053
    7  0.000  0.007  0.014  0.022
    8  0.000  0.007  0.014  0.022
    9  0.002  0.043  0.000  0.045
   10  0.002  0.043  0.000  0.045
   11  0.000  0.018  0.000  0.018
   12  0.000  0.018  0.000  0.018
   13  0.000  0.038  0.000  0.039
   14  0.000  0.039  0.000  0.040
   15  0.001  0.065  0.000  0.066
   16  0.001  0.064  0.000  0.065
   17  0.001  0.028  0.000  0.029
   18  0.001  0.027  0.000  0.028
tot    0.028  0.419  0.159  0.606
 
band    27 # energy   -0.06197890 # occ.  2.00000000
 
ion      s      p      d    tot
    1  0.000  0.002  0.002  0.004
    2  0.000  0.002  0.002  0.004
    3  0.001  0.011  0.017  0.030
    4  0.000  0.009  0.009  0.018
    5  0.001  0.007  0.054  0.061
    6  0.001  0.007  0.053  0.061
    7  0.003  0.010  0.013  0.026
    8  0.003  0.010  0.013  0.026
    9  0.000  0.035  0.000  0.035
   10  0.000  0.035  0.000  0.035
   11  0.000  0.057  0.000  0.058
   12  0.000  0.058  0.000  0.058
   13  0.000  0.038  0.000  0.038
   14  0.000  0.038  0.000  0.038
   15  0.000  0.050  0.000  0.051
   16  0.000  0.050  0.000  0.051
   17  0.000  0.018  0.000  0.019
   18  0.000  0.018  0.000  0.019
tot    0.009  0.456  0.167  0.632
 
band    28 # energy   -0.00169292 # occ.  2.00000000
 
ion      s      p      d    tot
    1  0.000  0.001  0.000  0.001
    2  0.000  0.001  0.000  0.001
    3  0.000  0.007  0.044  0.052
    4  0.000  0.005  0.017  0.022
    5  0.000  0.009  0.040  0.049
    6  0.000  0.009  0.041  0.050
    7  0.000  0.005  0.042  0.047
    8  0.000  0.005  0.042  0.047
    9  0.000  0.039  0.000  0.040
   10  0.000  0.039  0.000  0.040
   11  0.000  0.022  0.000  0.023
   12  0.000  0.022  0.000  0.022
   13  0.000  0.113  0.001  0.114
   14  0.000  0.114  0.001  0.115
   15  0.000  0.016  0.000  0.016
   16  0.000  0.016  0.000  0.016
   17  0.000  0.010  0.000  0.010
   18  0.000  0.010  0.000  0.010
tot    0.002  0.444  0.230  0.677
 
band    29 # energy    0.05971880 # occ.  2.00000000
 
ion      s      p      d    tot
    1  0.001  0.002  0.000  0.003
    2  0.001  0.002  0.000  0.003
    3  0.000  0.013  0.010  0.023
    4  0.002  0.006  0.008  0.016
    5  0.001  0.007  0.055  0.062
    6  0.001  0.007  0.055  0.062
    7  0.000  0.007  0.039  0.046
    8  0.000  0.006  0.038  0.045
    9  0.000  0.038  0.000  0.039
   10  0.000  0.039  0.000  0.039
   11  0.000  0.038  0.000  0.038
   12  0.000  0.037  0.000  0.038
   13  0.000  0.091  0.001  0.092
   14  0.000  0.090  0.000  0.091
   15  0.000  0.021  0.000  0.021
   16  0.000  0.021  0.000  0.021
   17  0.000  0.014  0.000  0.014
   18  0.000  0.014  0.000  0.014
tot    0.008  0.453  0.207  0.668
 
band    30 # energy    0.16020272 # occ.  2.00000000
 
ion      s      p      d    tot
    1  0.001  0.003  0.000  0.004
    2  0.001  0.003  0.000  0.004
    3  0.003  0.004  0.036  0.043
    4  0.009  0.002  0.034  0.045
    5  0.000  0.002  0.026  0.028
    6  0.000  0.002  0.026  0.028
    7  0.002  0.005  0.039  0.046
    8  0.002  0.005  0.039  0.046
    9  0.000  0.016  0.000  0.017
   10  0.000  0.016  0.000  0.016
   11  0.000  0.061  0.000  0.062
   12  0.000  0.060  0.000  0.061
   13  0.001  0.049  0.000  0.050
   14  0.001  0.048  0.000  0.049
   15  0.000  0.015  0.000  0.015
   16  0.000  0.015  0.000  0.015
   17  0.001  0.059  0.000  0.060
   18  0.001  0.059  0.000  0.061
tot    0.023  0.424  0.203  0.649
 
band    31 # energy    0.25629520 # occ.  2.00000000
 
ion      s      p      d    tot
    1  0.000  0.001  0.001  0.001
    2  0.000  0.001  0.001  0.001
    3  0.001  0.002  0.139  0.142
    4  0.000  0.002  0.043  0.046
    5  0.001  0.003  0.023  0.027
    6  0.001  0.003  0.023  0.027
    7  0.004  0.002  0.021  0.027
    8  0.004  0.002  0.021  0.027
    9  0.000  0.089  0.001  0.090
   10  0.000  0.088  0.001  0.089
   11  0.001  0.030  0.000  0.031
   12  0.001  0.031  0.000  0.032
   13  0.000  0.022  0.000  0.022
   14  0.000  0.022  0.000  0.022
   15  0.000  0.025  0.000  0.025
   16  0.000  0.024  0.000  0.025
   17  0.000  0.035  0.000  0.035
   18  0.000  0.035  0.000  0.035
tot    0.014  0.415  0.275  0.705
 
band    32 # energy    0.31871439 # occ.  2.00000000
 
ion      s      p      d    tot
    1  0.001  0.002  0.001  0.004
    2  0.001  0.002  0.001  0.004
    3  0.001  0.005  0.094  0.100
    4  0.001  0.002  0.015  0.018
    5  0.003  0.007  0.028  0.038
    6  0.003  0.007  0.028  0.038
    7  0.000  0.004  0.025  0.029
    8  0.000  0.004  0.025  0.029
    9  0.000  0.047  0.001  0.048
   10  0.000  0.047  0.001  0.047
   11  0.000  0.078  0.000  0.078
   12  0.000  0.078  0.000  0.079
   13  0.000  0.006  0.000  0.006
   14  0.000  0.006  0.000  0.006
   15  0.000  0.050  0.000  0.051
   16  0.000  0.049  0.000  0.050
   17  0.000  0.022  0.000  0.022
   18  0.000  0.021  0.000  0.022
tot    0.012  0.437  0.221  0.671
 
band    33 # energy    0.44652004 # occ.  2.00000000
 
ion      s      p      d    tot
    1  0.005  0.000  0.001  0.006
    2  0.005  0.000  0.001  0.006
    3  0.000  0.010  0.010  0.020
    4  0.001  0.007  0.004  0.012
    5  0.001  0.010  0.021  0.032
    6  0.001  0.010  0.021  0.032
    7  0.001  0.007  0.052  0.060
    8  0.001  0.007  0.053  0.061
    9  0.000  0.047  0.000  0.048
   10  0.000  0.047  0.001  0.048
   11  0.000  0.053  0.000  0.053
   12  0.000  0.053  0.000  0.053
   13  0.000  0.026  0.000  0.026
   14  0.000  0.027  0.000  0.027
   15  0.001  0.053  0.000  0.054
   16  0.001  0.054  0.000  0.055
   17  0.000  0.028  0.000  0.028
   18  0.000  0.028  0.000  0.028
tot    0.018  0.467  0.166  0.651
 
band    34 # energy    0.57410673 # occ.  2.00000000
 
ion      s      p      d    tot
    1  0.001  0.001  0.001  0.003
    2  0.001  0.001  0.001  0.003
    3  0.000  0.003  0.013  0.015
    4  0.001  0.002  0.041  0.044
    5  0.000  0.016  0.054  0.070
    6  0.000  0.016  0.054  0.070
    7  0.001  0.002  0.030  0.032
    8  0.001  0.002  0.030  0.032
    9  0.000  0.020  0.000  0.020
   10  0.000  0.020  0.000  0.021
   11  0.000  0.015  0.000  0.015
   12  0.000  0.016  0.000  0.016
   13  0.000  0.019  0.000  0.019
   14  0.000  0.018  0.000  0.019
   15  0.000  0.106  0.001  0.107
   16  0.000  0.106  0.001  0.107
   17  0.000  0.049  0.000  0.049
   18  0.000  0.048  0.000  0.049
tot    0.006  0.458  0.227  0.692
 
band    35 # energy    0.60187669 # occ.  2.00000000
 
ion      s      p      d    tot
    1  0.001  0.005  0.001  0.007
    2  0.001  0.005  0.001  0.007
    3  0.000  0.006  0.011  0.018
    4  0.000  0.004  0.048  0.052
    5  0.002  0.005  0.009  0.017
    6  0.002  0.005  0.009  0.016
    7  0.001  0.007  0.052  0.060
    8  0.001  0.007  0.051  0.059
    9  0.000  0.026  0.000  0.026
   10  0.000  0.025  0.000  0.025
   11  0.000  0.072  0.000  0.073
   12  0.000  0.072  0.000  0.072
   13  0.001  0.019  0.000  0.020
   14  0.001  0.019  0.000  0.020
   15  0.001  0.033  0.000  0.034
   16  0.001  0.032  0.000  0.033
   17  0.000  0.062  0.000  0.063
   18  0.000  0.062  0.000  0.063
tot    0.013  0.468  0.185  0.665
 
band    36 # energy    0.66934903 # occ.  2.00000000
 
ion      s      p      d    tot
    1  0.000  0.002  0.000  0.002
    2  0.000  0.002  0.000  0.002
    3  0.001  0.026  0.013  0.040
    4  0.002  0.004  0.047  0.052
    5  0.001  0.005  0.016  0.022
    6  0.001  0.005  0.016  0.022
    7  0.003  0.006  0.030  0.040
    8  0.003  0.006  0.031  0.040
    9  0.000  0.083  0.000  0.083
   10  0.000  0.084  0.000  0.084
   11  0.001  0.049  0.000  0.049
   12  0.001  0.050  0.000  0.051
   13  0.000  0.024  0.000  0.025
   14  0.000  0.024  0.000  0.025
   15  0.000  0.029  0.000  0.029
   16  0.000  0.029  0.000  0.030
   17  0.000  0.035  0.000  0.035
   18  0.000  0.036  0.000  0.036
tot    0.014  0.498  0.156  0.668
 
band    37 # energy    0.68469064 # occ.  2.00000000
 
ion      s      p      d    tot
    1  0.001  0.001  0.001  0.003
    2  0.001  0.001  0.001  0.003
    3  0.000  0.003  0.014  0.017
    4  0.002  0.004  0.020  0.025
    5  0.002  0.008  0.042  0.052
    6  0.002  0.008  0.042  0.052
    7  0.000  0.003  0.048  0.051
    8  0.000  0.003  0.048  0.051
    9  0.000  0.018  0.000  0.018
   10  0.000  0.018  0.000  0.018
   11  0.000  0.020  0.000  0.020
   12  0.000  0.020  0.000  0.020
   13  0.000  0.055  0.001  0.056
   14  0.000  0.054  0.001  0.055
   15  0.000  0.079  0.001  0.080
   16  0.000  0.079  0.001  0.080
   17  0.001  0.040  0.000  0.040
   18  0.001  0.040  0.000  0.040
tot    0.012  0.453  0.218  0.683
 
band    38 # energy    0.75420777 # occ.  2.00000000
 
ion      s      p      d    tot
    1  0.001  0.002  0.001  0.005
    2  0.001  0.002  0.001  0.005
    3  0.000  0.008  0.010  0.018
    4  0.000  0.014  0.081  0.096
    5  0.001  0.004  0.012  0.017
    6  0.001  0.004  0.012  0.017
    7  0.002  0.012  0.019  0.033
    8  0.002  0.012  0.019  0.033
    9  0.000  0.021  0.000  0.021
   10  0.000  0.020  0.000  0.021
   11  0.000  0.063  0.000  0.064
   12  0.000  0.063  0.000  0.064
   13  0.000  0.006  0.000  0.006
   14  0.000  0.006  0.000  0.007
   15  0.000  0.036  0.000  0.037
   16  0.000  0.037  0.000  0.037
   17  0.000  0.091  0.001  0.092
   18  0.000  0.092  0.001  0.092
tot    0.011  0.494  0.158  0.663
 
band    39 # energy    0.83272934 # occ.  2.00000000
 
ion      s      p      d    tot
    1  0.000  0.001  0.001  0.002
    2  0.000  0.001  0.001  0.002
    3  0.001  0.006  0.017  0.024
    4  0.003  0.002  0.029  0.035
    5  0.000  0.006  0.040  0.046
    6  0.000  0.006  0.039  0.045
    7  0.001  0.015  0.034  0.049
    8  0.001  0.015  0.034  0.049
    9  0.000  0.020  0.000  0.020
   10  0.000  0.020  0.000  0.020
   11  0.000  0.079  0.001  0.080
   12  0.000  0.079  0.001  0.080
   13  0.000  0.023  0.001  0.024
   14  0.000  0.023  0.001  0.023
   15  0.000  0.073  0.000  0.074
   16  0.000  0.073  0.000  0.074
   17  0.000  0.020  0.000  0.020
   18  0.000  0.020  0.000  0.020
tot    0.008  0.481  0.199  0.688
 
band    40 # energy    1.12639756 # occ.  2.00000000
 
ion      s      p      d    tot
    1  0.000  0.000  0.001  0.001
    2  0.000  0.000  0.001  0.001
    3  0.000  0.004  0.036  0.040
    4  0.001  0.004  0.034  0.039
    5  0.001  0.010  0.016  0.027
    6  0.001  0.010  0.016  0.027
    7  0.000  0.014  0.028  0.042
    8  0.000  0.014  0.028  0.042
    9  0.000  0.026  0.000  0.026
   10  0.000  0.026  0.000  0.026
   11  0.000  0.083  0.000  0.084
   12  0.000  0.082  0.000  0.082
   13  0.000  0.053  0.000  0.054
   14  0.000  0.053  0.001  0.054
   15  0.000  0.035  0.000  0.036
   16  0.000  0.035  0.000  0.036
   17  0.000  0.033  0.000  0.033
   18  0.000  0.034  0.000  0.034
tot    0.003  0.515  0.163  0.682
 
band    41 # energy    1.29246964 # occ.  2.00000000
 
ion      s      p      d    tot
    1  0.000  0.002  0.001  0.003
    2  0.000  0.002  0.001  0.003
    3  0.000  0.008  0.005  0.013
    4  0.003  0.017  0.009  0.030
    5  0.000  0.006  0.017  0.023
    6  0.000  0.006  0.017  0.023
    7  0.002  0.015  0.022  0.039
    8  0.002  0.015  0.022  0.039
    9  0.000  0.050  0.000  0.050
   10  0.000  0.050  0.000  0.050