 running on   14 total cores
 distrk:  each k-point on   14 cores,    1 groups
 distr:  one band on    1 cores,   14 groups
 using from now: INCAR     
 vasp.5.4.4.18Apr17-6-g9f103f2a35 (build Oct 27 2022 13:04:57) complex          
  
 POSCAR found type information on POSCAR  K  Sc Se
 POSCAR found :  3 types and      18 ions
 scaLAPACK will be used

 ----------------------------------------------------------------------------- 
|                                                                             |
|           W    W    AA    RRRRR   N    N  II  N    N   GGGG   !!!           |
|           W    W   A  A   R    R  NN   N  II  NN   N  G    G  !!!           |
|           W    W  A    A  R    R  N N  N  II  N N  N  G       !!!           |
|           W WW W  AAAAAA  RRRRR   N  N N  II  N  N N  G  GGG   !            |
|           WW  WW  A    A  R   R   N   NN  II  N   NN  G    G                |
|           W    W  A    A  R    R  N    N  II  N    N   GGGG   !!!           |
|                                                                             |
|      For optimal performance we recommend to set                            |
|        NCORE= 4 - approx SQRT( number of cores)                             |
|      NCORE specifies how many cores store one orbital (NPAR=cpu/NCORE).     |
|      This setting can  greatly improve the performance of VASP for DFT.     |
|      The default,   NCORE=1            might be grossly inefficient         |
|      on modern multi-core architectures or massively parallel machines.     |
|      Do your own testing !!!!                                               |
|      Unfortunately you need to use the default for GW and RPA calculations. |
|      (for HF NCORE is supported but not extensively tested yet)             |
|                                                                             |
 ----------------------------------------------------------------------------- 

 LDA part: xc-table for Pade appr. of Perdew
 POSCAR, INCAR and KPOINTS ok, starting setup
 FFT: planning ...
 WAVECAR not read
 entering main loop
       N       E                     dE             d eps       ncg     rms          rms(c)
DAV:   1     0.764543864983E+03    0.76454E+03   -0.22818E+04  1344   0.997E+02
DAV:   2     0.890987584714E+02   -0.67545E+03   -0.66477E+03  1568   0.336E+02
DAV:   3    -0.868308624314E+02   -0.17593E+03   -0.17186E+03  2338   0.158E+02
DAV:   4    -0.100379317967E+03   -0.13548E+02   -0.13507E+02  2170   0.506E+01
DAV:   5    -0.100639047286E+03   -0.25973E+00   -0.25943E+00  2184   0.944E+00    0.450E+01
DAV:   6    -0.932402708411E+02    0.73988E+01   -0.21713E+01  2058   0.281E+01    0.195E+01
DAV:   7    -0.920575102888E+02    0.11828E+01   -0.32916E+00  2184   0.107E+01    0.496E+00
DAV:   8    -0.919996193372E+02    0.57891E-01   -0.66368E-01  2002   0.398E+00    0.137E+00
DAV:   9    -0.919975995367E+02    0.20198E-02   -0.80715E-02  2044   0.157E+00    0.633E-01
DAV:  10    -0.919962724508E+02    0.13271E-02   -0.15401E-02  2184   0.648E-01    0.299E-01
DAV:  11    -0.919967407463E+02   -0.46830E-03   -0.46648E-03  2170   0.322E-01    0.105E-01
DAV:  12    -0.919969766979E+02   -0.23595E-03   -0.40329E-04  1624   0.122E-01    0.715E-02
DAV:  13    -0.919971070240E+02   -0.13033E-03   -0.52027E-04  1568   0.106E-01    0.221E-02
DAV:  14    -0.919971365744E+02   -0.29550E-04   -0.13249E-04  1176   0.702E-02
   1 F= -.91997137E+02 E0= -.91997137E+02  d E =-.919971E+02
 curvature:   0.00 expect dE= 0.000E+00 dE for cont linesearch  0.000E+00
 trial: gam= 0.00000 g(F)=  0.137E+01 g(S)=  0.109E+02 ort = 0.000E+00 (trialstep = 0.100E+01)
 search vector abs. value=  0.123E+02
 bond charge predicted
       N       E                     dE             d eps       ncg     rms          rms(c)
DAV:   1    -0.105907264485E+03   -0.13910E+02   -0.11067E+02  1806   0.424E+01    0.146E+01
DAV:   2    -0.101618810397E+03    0.42885E+01   -0.17575E+01  2142   0.243E+01    0.111E+01
DAV:   3    -0.100946823109E+03    0.67199E+00   -0.12486E+00  1932   0.540E+00    0.522E+00
DAV:   4    -0.100773829291E+03    0.17299E+00   -0.61535E-01  2002   0.315E+00    0.149E+00
DAV:   5    -0.100773441666E+03    0.38763E-03   -0.34554E-02  2016   0.986E-01    0.101E+00
DAV:   6    -0.100772494078E+03    0.94759E-03   -0.79115E-03  2184   0.518E-01    0.306E-01
DAV:   7    -0.100772405269E+03    0.88809E-04   -0.28435E-03  2184   0.293E-01    0.979E-02
DAV:   8    -0.100772369206E+03    0.36063E-04   -0.10082E-04  1176   0.600E-02
   2 F= -.10077237E+03 E0= -.10077237E+03  d E =-.877523E+01
 trial-energy change:   -8.775233  1 .order   -9.086980  -12.284958   -5.889003
 step:   1.9207(harm=  1.9207)  dis= 0.06803  next Energy=  -103.795233 (dE=-0.118E+02)
 bond charge predicted
       N       E                     dE             d eps       ncg     rms          rms(c)
DAV:   1    -0.108018279935E+03   -0.72459E+01   -0.90258E+01  1778   0.367E+01    0.114E+01
DAV:   2    -0.104630596924E+03    0.33877E+01   -0.15490E+01  2128   0.211E+01    0.777E+00
DAV:   3    -0.104102387093E+03    0.52821E+00   -0.10580E+00  1904   0.596E+00    0.353E+00
DAV:   4    -0.103941705851E+03    0.16068E+00   -0.57588E-01  2002   0.277E+00    0.124E+00
DAV:   5    -0.103941644902E+03    0.60948E-04   -0.25890E-02  2016   0.879E-01    0.925E-01
DAV:   6    -0.103940412237E+03    0.12327E-02   -0.80957E-03  2100   0.491E-01    0.281E-01
DAV:   7    -0.103940284450E+03    0.12779E-03   -0.32551E-03  2142   0.307E-01    0.932E-02
DAV:   8    -0.103940230587E+03    0.53863E-04   -0.12790E-04  1176   0.654E-02
   3 F= -.10394023E+03 E0= -.10394023E+03  d E =-.119431E+02
 curvature:  -0.96 expect dE=-0.233E+00 dE for cont linesearch -0.198E+00
 ZBRENT: extrapolating
 opt :   2.2618  next Energy=  -104.211665 (dE=-0.122E+02)
 bond charge predicted
       N       E                     dE             d eps       ncg     rms          rms(c)
DAV:   1    -0.104779962556E+03   -0.83968E+00   -0.12297E+01  1778   0.133E+01    0.404E+00
DAV:   2    -0.104331971558E+03    0.44799E+00   -0.23034E+00  2142   0.802E+00    0.253E+00
DAV:   3    -0.104259517863E+03    0.72454E-01   -0.17686E-01  1904   0.254E+00    0.110E+00
DAV:   4    -0.104235913456E+03    0.23604E-01   -0.76674E-02  2002   0.103E+00    0.465E-01
DAV:   5    -0.104235853489E+03    0.59966E-04   -0.34914E-03  2184   0.326E-01    0.356E-01
DAV:   6    -0.104235598023E+03    0.25547E-03   -0.14280E-03  2016   0.204E-01    0.716E-02
DAV:   7    -0.104235546467E+03    0.51556E-04   -0.48513E-04  1638   0.125E-01
   4 F= -.10423555E+03 E0= -.10423555E+03  d E =-.122384E+02
 curvature:  -1.32 expect dE=-0.596E-01 dE for cont linesearch -0.984E-02
 ZBRENT: extrapolating
 opt :   2.3463  next Energy=  -104.247664 (dE=-0.123E+02)
 bond charge predicted
       N       E                     dE             d eps       ncg     rms          rms(c)
DAV:   1    -0.104279668888E+03   -0.44071E-01   -0.75191E-01  1764   0.329E+00    0.997E-01
DAV:   2    -0.104252459450E+03    0.27209E-01   -0.14490E-01  2156   0.201E+00    0.605E-01
DAV:   3    -0.104247914521E+03    0.45449E-02   -0.11624E-02  1932   0.648E-01    0.260E-01
DAV:   4    -0.104246428881E+03    0.14856E-02   -0.46296E-03  2002   0.259E-01    0.118E-01
DAV:   5    -0.104246408285E+03    0.20597E-04   -0.14637E-04  1176   0.829E-02
   5 F= -.10424641E+03 E0= -.10424641E+03  d E =-.122493E+02
 curvature:  -1.62 expect dE=-0.619E-01 dE for cont linesearch -0.143E-04
 ZBRENT: extrapolating
 opt :   2.3494  next Energy=  -104.246424 (dE=-0.122E+02)
 bond charge predicted
       N       E                     dE             d eps       ncg     rms          rms(c)
DAV:   1    -0.104246380751E+03    0.48131E-04   -0.69262E-04  1624   0.102E-01    0.284E-02
DAV:   2    -0.104246348611E+03    0.32140E-04   -0.67791E-05   910   0.556E-02
   6 F= -.10424635E+03 E0= -.10424635E+03  d E =-.122492E+02
 curvature:  -1.77 expect dE=-0.681E-01 dE for cont linesearch -0.513E-05
 trial: gam= 0.00264 g(F)=  0.364E-01 g(S)=  0.198E-02 ort = 0.596E-02 (trialstep = 0.127E+01)
 search vector abs. value=  0.385E-01
 bond charge predicted
       N       E                     dE             d eps       ncg     rms          rms(c)
DAV:   1    -0.104291409656E+03   -0.45029E-01   -0.20769E-01  1344   0.152E+00    0.236E-01
DAV:   2    -0.104291256403E+03    0.15325E-03   -0.14914E-02  2184   0.643E-01    0.144E-01
DAV:   3    -0.104290756232E+03    0.50017E-03   -0.12480E-03  2002   0.161E-01    0.824E-02
DAV:   4    -0.104290532823E+03    0.22341E-03   -0.49746E-04  1722   0.948E-02    0.343E-02
DAV:   5    -0.104290508314E+03    0.24509E-04   -0.58287E-05  1176   0.521E-02
   7 F= -.10429051E+03 E0= -.10429051E+03  d E =-.441597E-01
 ZBRENT: can't locate minimum, use default step
 trial-energy change:   -0.044160  1 .order   -0.044270   -0.048793   -0.039748
 step:   5.0795(harm=  6.8501)  dis= 0.04615  next Energy=  -104.377951 (dE=-0.132E+00)
 bond charge predicted
       N       E                     dE             d eps       ncg     rms          rms(c)
DAV:   1    -0.104377228729E+03   -0.86696E-01   -0.18885E+00  1344   0.465E+00    0.709E-01
DAV:   2    -0.104376761548E+03    0.46718E-03   -0.14004E-01  2184   0.194E+00    0.426E-01
DAV:   3    -0.104372406836E+03    0.43547E-02   -0.11218E-02  2114   0.479E-01    0.250E-01
DAV:   4    -0.104370392031E+03    0.20148E-02   -0.46963E-03  2030   0.286E-01    0.103E-01
DAV:   5    -0.104370187662E+03    0.20437E-03   -0.82406E-04  2016   0.159E-01    0.637E-02
DAV:   6    -0.104370150645E+03    0.37017E-04   -0.99543E-05  1176   0.602E-02
   8 F= -.10437015E+03 E0= -.10437015E+03  d E =-.123802E+00
 curvature:  -3.09 expect dE=-0.139E-01 dE for cont linesearch -0.898E-02
 ZBRENT: increasing intervall
 opt :  12.6988  next Energy=  -104.292975 (dE=-0.466E-01)
 bond charge predicted
       N       E                     dE             d eps       ncg     rms          rms(c)
DAV:   1    -0.104325459359E+03    0.44728E-01   -0.75897E+00  1372   0.957E+00    0.143E+00
DAV:   2    -0.104325439653E+03    0.19706E-04   -0.55943E-01  2184   0.365E+00    0.827E-01
DAV:   3    -0.104307637900E+03    0.17802E-01   -0.48310E-02  2072   0.992E-01    0.493E-01
DAV:   4    -0.104300028739E+03    0.76092E-02   -0.17932E-02  2016   0.562E-01    0.196E-01
DAV:   5    -0.104299127050E+03    0.90169E-03   -0.33427E-03  2184   0.316E-01    0.132E-01
DAV:   6    -0.104298981576E+03    0.14547E-03   -0.56085E-04  1708   0.116E-01    0.699E-02
DAV:   7    -0.104298974121E+03    0.74545E-05   -0.29608E-04  1344   0.862E-02
   9 F= -.10429897E+03 E0= -.10429897E+03  d E =-.526255E-01
 curvature:  26.53 expect dE= 0.783E+00 dE for cont linesearch  0.580E+00
 ZBRENT: bracketing found
 ZBRENT: interpolating
 opt :   7.1166  next Energy=  -104.380933 (dE=-0.135E+00)
 bond charge predicted
       N       E                     dE             d eps       ncg     rms          rms(c)
DAV:   1    -0.104395028614E+03   -0.96047E-01   -0.40390E+00  1344   0.666E+00    0.106E+00
DAV:   2    -0.104394681129E+03    0.34749E-03   -0.27873E-01  2184   0.260E+00    0.600E-01
DAV:   3    -0.104384796360E+03    0.98848E-02   -0.22166E-02  2072   0.702E-01    0.341E-01
DAV:   4    -0.104381281982E+03    0.35144E-02   -0.81614E-03  2100   0.326E-01    0.141E-01
DAV:   5    -0.104380935416E+03    0.34657E-03   -0.10935E-03  2072   0.180E-01    0.881E-02
DAV:   6    -0.104380871655E+03    0.63761E-04   -0.18865E-04  1176   0.776E-02
  10 F= -.10438087E+03 E0= -.10438087E+03  d E =-.134523E+00
 curvature:  -0.49 expect dE=-0.123E-02 dE for cont linesearch -0.632E-06
 trial: gam= 0.06837 g(F)=  0.212E-02 g(S)=  0.378E-03 ort =-0.222E-03 (trialstep = 0.244E+01)
 search vector abs. value=  0.265E-02
 bond charge predicted
       N       E                     dE             d eps       ncg     rms          rms(c)
DAV:   1    -0.104385665412E+03   -0.47300E-02   -0.12540E-01  1372   0.118E+00    0.168E-01
DAV:   2    -0.104386360877E+03   -0.69547E-03   -0.11866E-02  2114   0.543E-01    0.895E-02
DAV:   3    -0.104386262494E+03    0.98383E-04   -0.25107E-04  1288   0.106E-01
  11 F= -.10438626E+03 E0= -.10438626E+03  d E =-.539084E-02
 ZBRENT: can't locate minimum, use default step
 trial-energy change:   -0.005391  1 .order   -0.005672   -0.006050   -0.005294
 step:   9.7569(harm= 19.5264)  dis= 0.01675  next Energy=  -104.405086 (dE=-0.242E-01)
 bond charge predicted
       N       E                     dE             d eps       ncg     rms          rms(c)
DAV:   1    -0.104391462977E+03   -0.51021E-02   -0.11044E+00  1344   0.349E+00    0.492E-01
DAV:   2    -0.104397251962E+03   -0.57890E-02   -0.10510E-01  2044   0.162E+00    0.283E-01
DAV:   3    -0.104396429256E+03    0.82271E-03   -0.33995E-03  2156   0.336E-01    0.190E-01
DAV:   4    -0.104395895978E+03    0.53328E-03   -0.11633E-03  1918   0.128E-01    0.888E-02
DAV:   5    -0.104395841053E+03    0.54925E-04   -0.32750E-04  1386   0.100E-01
  12 F= -.10439584E+03 E0= -.10439584E+03  d E =-.149694E-01
 curvature:  -7.01 expect dE=-0.825E-02 dE for cont linesearch -0.123E-02
 ZBRENT: extrapolating
 opt :  13.0963  next Energy=  -104.396977 (dE=-0.161E-01)
 bond charge predicted
       N       E                     dE             d eps       ncg     rms          rms(c)
DAV:   1    -0.104395979851E+03   -0.83873E-04   -0.23284E-01  1344   0.161E+00    0.235E-01
DAV:   2    -0.104397215156E+03   -0.12353E-02   -0.22402E-02  2030   0.746E-01    0.124E-01
DAV:   3    -0.104397049997E+03    0.16516E-03   -0.71824E-04  1792   0.155E-01    0.815E-02
DAV:   4    -0.104396943388E+03    0.10661E-03   -0.26526E-04  1246   0.677E-02    0.343E-02
DAV:   5    -0.104396940244E+03    0.31439E-05   -0.10701E-04  1162   0.662E-02
  13 F= -.10439694E+03 E0= -.10439694E+03  d E =-.160686E-01
 curvature:  -6.49 expect dE=-0.935E-02 dE for cont linesearch -0.858E-04
 trial: gam= 0.48392 g(F)=  0.697E-03 g(S)=  0.743E-03 ort = 0.187E-03 (trialstep = 0.457E+01)
 search vector abs. value=  0.224E-02
 bond charge predicted
       N       E                     dE             d eps       ncg     rms          rms(c)
DAV:   1    -0.104403102493E+03   -0.61591E-02   -0.43492E-01  1344   0.225E+00    0.417E-01
DAV:   2    -0.104401824897E+03    0.12776E-02   -0.42952E-02  2184   0.112E+00    0.271E-01
DAV:   3    -0.104401140611E+03    0.68429E-03   -0.13422E-03  2128   0.191E-01    0.154E-01
DAV:   4    -0.104400799887E+03    0.34072E-03   -0.76427E-04  1722   0.123E-01    0.460E-02
DAV:   5    -0.104400786777E+03    0.13110E-04   -0.65916E-05  1106   0.457E-02
  14 F= -.10440079E+03 E0= -.10440079E+03  d E =-.384653E-02
 trial-energy change:   -0.003847  1 .order   -0.003993   -0.006996   -0.000990
 step:   5.3242(harm=  5.3242)  dis= 0.00783  next Energy=  -104.401015 (dE=-0.407E-02)
 bond charge predicted
       N       E                     dE             d eps       ncg     rms          rms(c)
DAV:   1    -0.104400913871E+03   -0.11398E-03   -0.11576E-02  1428   0.369E-01    0.686E-02
DAV:   2    -0.104400881655E+03    0.32216E-04   -0.11094E-03  2058   0.179E-01    0.412E-02
DAV:   3    -0.104400861005E+03    0.20650E-04   -0.29552E-05   980   0.352E-02
  15 F= -.10440086E+03 E0= -.10440086E+03  d E =-.392076E-02
 curvature:  -3.90 expect dE=-0.180E-02 dE for cont linesearch -0.302E-04
 ZBRENT: increasing intervall
 opt :   6.8313  next Energy=  -104.400932 (dE=-0.399E-02)
 bond charge predicted
       N       E                     dE             d eps       ncg     rms          rms(c)
DAV:   1    -0.104400966631E+03   -0.84976E-04   -0.45636E-02  1372   0.727E-01    0.133E-01
DAV:   2    -0.104400835606E+03    0.13102E-03   -0.45250E-03  2184   0.363E-01    0.877E-02
DAV:   3    -0.104400756068E+03    0.79539E-04   -0.94121E-05  1106   0.635E-02
  16 F= -.10440076E+03 E0= -.10440076E+03  d E =-.381582E-02
 curvature:  -9.12 expect dE=-0.533E-02 dE for cont linesearch -0.295E-05
 trial: gam= 0.37989 g(F)=  0.508E-03 g(S)=  0.764E-04 ort = 0.269E-04 (trialstep = 0.502E+01)
 search vector abs. value=  0.928E-03
 bond charge predicted
       N       E                     dE             d eps       ncg     rms          rms(c)
DAV:   1    -0.104401725821E+03   -0.89021E-03   -0.20804E-01  1344   0.146E+00    0.177E-01
DAV:   2    -0.104403019370E+03   -0.12935E-02   -0.15635E-02  2170   0.657E-01    0.896E-02
DAV:   3    -0.104402946452E+03    0.72917E-04   -0.21107E-04  1218   0.993E-02
  17 F= -.10440295E+03 E0= -.10440295E+03  d E =-.219038E-02
 trial-energy change:   -0.002190  1 .order   -0.002426   -0.002987   -0.001866
 step:  13.3809(harm= 13.3809)  dis= 0.01301  next Energy=  -104.404734 (dE=-0.398E-02)
 bond charge predicted
       N       E                     dE             d eps       ncg     rms          rms(c)
DAV:   1    -0.104401100924E+03    0.19184E-02   -0.56926E-01  1344   0.241E+00    0.286E-01
DAV:   2    -0.104404519744E+03   -0.34188E-02   -0.41952E-02  2114   0.108E+00    0.152E-01
DAV:   3    -0.104404359351E+03    0.16039E-03   -0.96819E-04  1932   0.173E-01    0.113E-01
DAV:   4    -0.104404206218E+03    0.15313E-03   -0.33849E-04  1456   0.784E-02    0.489E-02
DAV:   5    -0.104404196344E+03    0.98742E-05   -0.14586E-04  1176   0.687E-02
  18 F= -.10440420E+03 E0= -.10440420E+03  d E =-.344028E-02
 curvature: -10.44 expect dE=-0.794E-02 dE for cont linesearch -0.726E-04
 trial: gam= 1.08241 g(F)=  0.441E-03 g(S)=  0.319E-03 ort =-0.804E-04 (trialstep = 0.371E+01)
 search vector abs. value=  0.167E-02
 bond charge predicted
       N       E                     dE             d eps       ncg     rms          rms(c)
DAV:   1    -0.104406336079E+03   -0.21299E-02   -0.19993E-01  1386   0.149E+00    0.245E-01
DAV:   2    -0.104406153111E+03    0.18297E-03   -0.16393E-02  2184   0.684E-01    0.154E-01
DAV:   3    -0.104405903882E+03    0.24923E-03   -0.41721E-04  1512   0.122E-01    0.865E-02
DAV:   4    -0.104405790439E+03    0.11344E-03   -0.52069E-04  1540   0.899E-02    0.286E-02
DAV:   5    -0.104405797900E+03   -0.74607E-05   -0.58170E-05  1008   0.470E-02
  19 F= -.10440580E+03 E0= -.10440580E+03  d E =-.160156E-02
 trial-energy change:   -0.001602  1 .order   -0.001721   -0.002499   -0.000943
 step:   5.9635(harm=  5.9635)  dis= 0.00638  next Energy=  -104.406203 (dE=-0.201E-02)
 bond charge predicted
       N       E                     dE             d eps       ncg     rms          rms(c)
DAV:   1    -0.104406269793E+03   -0.47935E-03   -0.72965E-02  1386   0.892E-01    0.142E-01
DAV:   2    -0.104406204106E+03    0.65688E-04   -0.60491E-03  2170   0.424E-01    0.911E-02
DAV:   3    -0.104406119940E+03    0.84166E-04   -0.11872E-04  1148   0.732E-02
  20 F= -.10440612E+03 E0= -.10440612E+03  d E =-.192360E-02
 curvature:  -7.41 expect dE=-0.310E-02 dE for cont linesearch -0.110E-03
 ZBRENT: increasing intervall
 opt :  10.4647  next Energy=  -104.406396 (dE=-0.220E-02)
 bond charge predicted
       N       E                     dE             d eps       ncg     rms          rms(c)
DAV:   1    -0.104405518930E+03    0.68518E-03   -0.28665E-01  1372   0.178E+00    0.284E-01
DAV:   2    -0.104405272585E+03    0.24635E-03   -0.23398E-02  2170   0.813E-01    0.189E-01
DAV:   3    -0.104404921431E+03    0.35115E-03   -0.66802E-04  1764   0.146E-01    0.112E-01
DAV:   4    -0.104404744942E+03    0.17649E-03   -0.55706E-04  1624   0.100E-01    0.366E-02
DAV:   5    -0.104404751473E+03   -0.65311E-05   -0.62706E-05  1050   0.446E-02
  21 F= -.10440475E+03 E0= -.10440475E+03  d E =-.555129E-03
 curvature: -18.58 expect dE=-0.334E-01 dE for cont linesearch -0.292E-02
 ZBRENT: bracketing found
 ZBRENT: interpolating
 opt :   7.0222  next Energy=  -104.406203 (dE=-0.201E-02)
 bond charge predicted
       N       E                     dE             d eps       ncg     rms          rms(c)
DAV:   1    -0.104406506490E+03   -0.17615E-02   -0.17421E-01  1386   0.139E+00    0.224E-01
DAV:   2    -0.104406363615E+03    0.14288E-03   -0.14066E-02  2170   0.627E-01    0.148E-01
DAV:   3    -0.104406124079E+03    0.23954E-03   -0.27495E-04  1190   0.110E-01    0.837E-02
DAV:   4    -0.104406007919E+03    0.11616E-03   -0.80845E-04  1582   0.985E-02    0.356E-02
DAV:   5    -0.104406007926E+03   -0.67866E-08   -0.46085E-05   812   0.357E-02
  22 F= -.10440601E+03 E0= -.10440601E+03  d E =-.181158E-02
 curvature:  -0.53 expect dE=-0.382E-03 dE for cont linesearch -0.550E-05
 trial: gam= 0.91061 g(F)=  0.439E-03 g(S)=  0.280E-03 ort =-0.132E-03 (trialstep = 0.392E+01)
 search vector abs. value=  0.187E-02
 bond charge predicted
       N       E                     dE             d eps       ncg     rms          rms(c)
DAV:   1    -0.104406934881E+03   -0.92696E-03   -0.21034E-01  1344   0.146E+00    0.166E-01
DAV:   2    -0.104408003404E+03   -0.10685E-02   -0.13761E-02  2184   0.618E-01    0.836E-02
DAV:   3    -0.104407929718E+03    0.73687E-04   -0.17626E-04  1176   0.926E-02
  23 F= -.10440793E+03 E0= -.10440793E+03  d E =-.192179E-02
 trial-energy change:   -0.001922  1 .order   -0.001892   -0.002350   -0.001435
 step:  10.0668(harm= 10.0668)  dis= 0.01109  next Energy=  -104.409025 (dE=-0.302E-02)
 bond charge predicted
       N       E                     dE             d eps       ncg     rms          rms(c)
DAV:   1    -0.104406667114E+03    0.13363E-02   -0.50806E-01  1344   0.226E+00    0.244E-01
DAV:   2    -0.104409146169E+03   -0.24791E-02   -0.32629E-02  2184   0.948E-01    0.138E-01
DAV:   3    -0.104408984451E+03    0.16172E-03   -0.58918E-04  1722   0.144E-01    0.102E-01
DAV:   4    -0.104408834599E+03    0.14985E-03   -0.32654E-04  1372   0.808E-02    0.344E-02
DAV:   5    -0.104408830614E+03    0.39849E-05   -0.10405E-04  1162   0.646E-02
  24 F= -.10440883E+03 E0= -.10440883E+03  d E =-.282269E-02
 curvature: -15.68 expect dE=-0.121E-01 dE for cont linesearch -0.217E-04
 trial: gam= 0.66713 g(F)=  0.571E-03 g(S)=  0.204E-03 ort = 0.509E-04 (trialstep = 0.515E+01)
 search vector abs. value=  0.167E-02
 bond charge predicted
       N       E                     dE             d eps       ncg     rms          rms(c)
DAV:   1    -0.104411613941E+03   -0.27793E-02   -0.32962E-01  1372   0.188E+00    0.281E-01
DAV:   2    -0.104411735483E+03   -0.12154E-03   -0.25808E-02  2184   0.880E-01    0.191E-01
DAV:   3    -0.104411413388E+03    0.32210E-03   -0.63089E-04  1792   0.136E-01    0.116E-01
DAV:   4    -0.104411207524E+03    0.20586E-03   -0.45110E-04  1596   0.102E-01    0.304E-02
DAV:   5    -0.104411202390E+03    0.51338E-05   -0.57017E-05  1064   0.442E-02
  25 F= -.10441120E+03 E0= -.10441120E+03  d E =-.237178E-02
 trial-energy change:   -0.002372  1 .order   -0.002607   -0.004164   -0.001049
 step:   6.8850(harm=  6.8850)  dis= 0.00885  next Energy=  -104.411614 (dE=-0.278E-02)
 bond charge predicted
       N       E                     dE             d eps       ncg     rms          rms(c)
DAV:   1    -0.104411313254E+03   -0.10573E-03   -0.37054E-02  1386   0.628E-01    0.951E-02
DAV:   2    -0.104411326153E+03   -0.12899E-04   -0.29251E-03  2184   0.302E-01    0.621E-02
DAV:   3    -0.104411286493E+03    0.39660E-04   -0.49910E-05  1050   0.475E-02
  26 F= -.10441129E+03 E0= -.10441129E+03  d E =-.245588E-02
 curvature:  -7.13 expect dE=-0.268E-02 dE for cont linesearch -0.585E-05
 trial: gam= 0.35317 g(F)=  0.271E-03 g(S)=  0.106E-03 ort = 0.371E-04 (trialstep = 0.550E+01)
 search vector abs. value=  0.612E-03
 bond charge predicted
       N       E                     dE             d eps       ncg     rms          rms(c)
DAV:   1    -0.104412496614E+03   -0.11705E-02   -0.13420E-01  1344   0.121E+00    0.180E-01
DAV:   2    -0.104413008517E+03   -0.51190E-03   -0.11776E-02  2184   0.563E-01    0.103E-01
DAV:   3    -0.104412857383E+03    0.15113E-03   -0.20664E-04  1176   0.105E-01    0.649E-02
DAV:   4    -0.104412779635E+03    0.77749E-04   -0.61525E-04  1624   0.841E-02
  27 F= -.10441278E+03 E0= -.10441278E+03  d E =-.149314E-02
 trial-energy change:   -0.001493  1 .order   -0.001568   -0.002143   -0.000994
 step:  10.2561(harm= 10.2561)  dis= 0.00691  next Energy=  -104.413285 (dE=-0.200E-02)
 reached required accuracy - stopping structural energy minimisation
