<?xml version="1.0" encoding="ISO-8859-1"?>
<modeling>
 <generator>
  <i name="program" type="string">vasp </i>
  <i name="version" type="string">5.4.4.18Apr17-6-g9f103f2a35  </i>
  <i name="subversion" type="string">(build Oct 27 2022 13:04:57) complex            parallel </i>
  <i name="platform" type="string">LinuxIFC </i>
  <i name="date" type="string">2024 06 30 </i>
  <i name="time" type="string">00:56:58 </i>
 </generator>
 <incar>
  <i type="string" name="SYSTEM"> CIS</i>
  <i type="int" name="ISTART">     0</i>
  <i type="string" name="PREC">medium</i>
  <i type="int" name="ICHARG">     2</i>
  <i type="int" name="IBRION">     2</i>
  <i name="EDIFF">      0.00010000</i>
  <i name="EDIFFG">     -0.05000000</i>
  <i type="int" name="NSW">    99</i>
  <i type="int" name="ISIF">     3</i>
  <i name="ENCUT">    300.00000000</i>
  <i name="POTIM">      0.10000000</i>
  <i type="string" name="LREAL"> Auto</i>
  <i type="int" name="ISMEAR">     0</i>
  <i name="SIGMA">      0.05000000</i>
  <i type="int" name="LMAXMIX">     4</i>
  <i type="logical" name="LWAVE"> F  </i>
  <i type="logical" name="LCHARG"> F  </i>
  <i type="int" name="LORBIT">    10</i>
  <i type="logical" name="LASPH"> T  </i>
  <v type="int" name="KPOINT_BSE">    -1     0     0     0</v>
  <i type="logical" name="LASPH"> T  </i>
 </incar>
 <structure name="primitive_cell" >
  <crystal>
   <varray name="basis" >
    <v>      -0.00021484      -3.52263848       0.00004876 </v>
    <v>      -9.69104861      -1.76190424       0.00964523 </v>
    <v>      -2.99630475      -1.76136081     -10.18335736 </v>
   </varray>
   <i name="volume">    347.73859313 </i>
   <varray name="rec_basis" >
    <v>       0.05164537      -0.28388080       0.03390544 </v>
    <v>      -0.10315902       0.00000671       0.03035188 </v>
    <v>      -0.00009746      -0.00000135      -0.09817053 </v>
   </varray>
  </crystal>
  <varray name="positions" >
   <v>      -0.25544892       0.33353700       0.17411992 </v>
   <v>       0.25648594       0.10421613       0.38235747 </v>
   <v>       0.08326070       0.48658975       0.34669514 </v>
   <v>       0.40324746       0.26768792      -0.07400406 </v>
   <v>      -0.07254437      -0.00708025       0.15220777 </v>
   <v>      -0.40321818      -0.26769254       0.07396941 </v>
   <v>      -0.16443905      -0.06045440       0.38893368 </v>
   <v>      -0.49997574       0.49997072      -0.49999454 </v>
   <v>       0.02086149      -0.26764942       0.22507608 </v>
   <v>      -0.02084364       0.26764474      -0.22508880 </v>
   <v>      -0.42716575       0.24362068      -0.38910559 </v>
   <v>      -0.49999887       0.00001793      -0.00001639 </v>
   <v>       0.25534513      -0.33352675      -0.17409179 </v>
   <v>       0.16443661       0.06047544      -0.38891366 </v>
   <v>       0.42719923      -0.24364016       0.38910314 </v>
   <v>       0.07256651       0.00708647      -0.15223196 </v>
   <v>      -0.08325327      -0.48661385      -0.34669302 </v>
   <v>      -0.25651328      -0.10419141      -0.38232279 </v>
  </varray>
 </structure>
 <varray name="primitive_index" >
  <v type="int" >        1 </v>
  <v type="int" >       15 </v>
  <v type="int" >       17 </v>
  <v type="int" >       12 </v>
  <v type="int" >        9 </v>
  <v type="int" >       11 </v>
  <v type="int" >        5 </v>
  <v type="int" >        4 </v>
  <v type="int" >        7 </v>
  <v type="int" >        8 </v>
  <v type="int" >       14 </v>
  <v type="int" >        3 </v>
  <v type="int" >        2 </v>
  <v type="int" >        6 </v>
  <v type="int" >       13 </v>
  <v type="int" >       10 </v>
  <v type="int" >       18 </v>
  <v type="int" >       16 </v>
 </varray>
 <kpoints>
  <generation param="Monkhorst-Pack">
   <v type="int" name="divisions">       6        2        2 </v>
   <v name="usershift">      0.00000000       0.00000000       0.00000000 </v>
   <v name="genvec1">      0.16666667      -0.00000000       0.00000000 </v>
   <v name="genvec2">      0.00000000       0.50000000       0.00000000 </v>
   <v name="genvec3">      0.00000000       0.00000000       0.50000000 </v>
   <v name="shift">      0.50000000       0.50000000       0.50000000 </v>
  </generation>
  <varray name="kpointlist" >
   <v>       0.08333333       0.25000000       0.25000000 </v>
   <v>       0.25000000       0.25000000       0.25000000 </v>
   <v>       0.41666667       0.25000000       0.25000000 </v>
   <v>      -0.41666667       0.25000000       0.25000000 </v>
   <v>      -0.25000000       0.25000000       0.25000000 </v>
   <v>      -0.08333333       0.25000000       0.25000000 </v>
   <v>       0.08333333      -0.25000000       0.25000000 </v>
   <v>       0.25000000      -0.25000000       0.25000000 </v>
   <v>       0.41666667      -0.25000000       0.25000000 </v>
   <v>      -0.41666667      -0.25000000       0.25000000 </v>
   <v>      -0.25000000      -0.25000000       0.25000000 </v>
   <v>      -0.08333333      -0.25000000       0.25000000 </v>
  </varray>
  <varray name="weights" >
   <v>       0.08333333 </v>
   <v>       0.08333333 </v>
   <v>       0.08333333 </v>
   <v>       0.08333333 </v>
   <v>       0.08333333 </v>
   <v>       0.08333333 </v>
   <v>       0.08333333 </v>
   <v>       0.08333333 </v>
   <v>       0.08333333 </v>
   <v>       0.08333333 </v>
   <v>       0.08333333 </v>
   <v>       0.08333333 </v>
  </varray>
 </kpoints>
 <parameters>
  <separator name="general" >
   <i type="string" name="SYSTEM">CIS</i>
   <i type="logical" name="LCOMPAT"> F  </i>
  </separator>
  <separator name="electronic" >
   <i type="string" name="PREC">medium</i>
   <i name="ENMAX">    300.00000000</i>
   <i name="ENAUG">    446.84200000</i>
   <i name="EDIFF">      0.00010000</i>
   <i type="int" name="IALGO">    38</i>
   <i type="int" name="IWAVPR">    11</i>
   <i type="int" name="NBANDS">    56</i>
   <i name="NELECT">     92.00000000</i>
   <i type="int" name="TURBO">     0</i>
   <i type="int" name="IRESTART">     0</i>
   <i type="int" name="NREBOOT">     0</i>
   <i type="int" name="NMIN">     0</i>
   <i name="EREF">      0.00000000</i>
   <separator name="electronic smearing" >
    <i type="int" name="ISMEAR">     0</i>
    <i name="SIGMA">      0.05000000</i>
    <i name="KSPACING">      0.50000000</i>
    <i type="logical" name="KGAMMA"> T  </i>
   </separator>
   <separator name="electronic projectors" >
    <i type="logical" name="LREAL"> T  </i>
    <v name="ROPT">     -0.00200000     -0.00200000     -0.00200000</v>
    <i type="int" name="LMAXPAW">  -100</i>
    <i type="int" name="LMAXMIX">     4</i>
    <i type="logical" name="NLSPLINE"> F  </i>
   </separator>
   <separator name="electronic startup" >
    <i type="int" name="ISTART">     0</i>
    <i type="int" name="ICHARG">     2</i>
    <i type="int" name="INIWAV">     1</i>
   </separator>
   <separator name="electronic spin" >
    <i type="int" name="ISPIN">     1</i>
    <i type="logical" name="LNONCOLLINEAR"> F  </i>
    <v name="MAGMOM">      1.00000000      1.00000000      1.00000000      1.00000000      1.00000000      1.00000000      1.00000000      1.00000000      1.00000000      1.00000000      1.00000000      1.00000000      1.00000000      1.00000000      1.00000000      1.00000000      1.00000000      1.00000000</v>
    <i name="NUPDOWN">     -1.00000000</i>
    <i type="logical" name="LSORBIT"> F  </i>
    <v name="SAXIS">      0.00000000      0.00000000      1.00000000</v>
    <i type="logical" name="LSPIRAL"> F  </i>
    <v name="QSPIRAL">      0.00000000      0.00000000      0.00000000</v>
    <i type="logical" name="LZEROZ"> F  </i>
   </separator>
   <separator name="electronic exchange-correlation" >
    <i type="logical" name="LASPH"> T  </i>
    <i type="logical" name="LMETAGGA"> F  </i>
   </separator>
   <separator name="electronic convergence" >
    <i type="int" name="NELM">    60</i>
    <i type="int" name="NELMDL">    -5</i>
    <i type="int" name="NELMIN">     2</i>
    <i name="ENINI">    300.00000000</i>
    <separator name="electronic convergence detail" >
     <i type="logical" name="LDIAG"> T  </i>
     <i type="logical" name="LSUBROT"> F  </i>
     <i name="WEIMIN">      0.00100000</i>
     <i name="EBREAK">      0.00000045</i>
     <i name="DEPER">      0.30000000</i>
     <i type="int" name="NRMM">     4</i>
     <i name="TIME">      0.40000000</i>
    </separator>
   </separator>
   <separator name="electronic mixer" >
    <i name="AMIX">      0.40000000</i>
    <i name="BMIX">      1.00000000</i>
    <i name="AMIN">      0.10000000</i>
    <i name="AMIX_MAG">      1.60000000</i>
    <i name="BMIX_MAG">      1.00000000</i>
    <separator name="electronic mixer details" >
     <i type="int" name="IMIX">     4</i>
     <i type="logical" name="MIXFIRST"> F  </i>
     <i type="int" name="MAXMIX">   -45</i>
     <i name="WC">    100.00000000</i>
     <i type="int" name="INIMIX">     1</i>
     <i type="int" name="MIXPRE">     1</i>
     <i type="int" name="MREMOVE">     5</i>
    </separator>
   </separator>
   <separator name="electronic dipolcorrection" >
    <i type="logical" name="LDIPOL"> F  </i>
    <i type="logical" name="LMONO"> F  </i>
    <i type="int" name="IDIPOL">     0</i>
    <i name="EPSILON">      1.00000000</i>
    <v name="DIPOL">   -100.00000000   -100.00000000   -100.00000000</v>
    <i name="EFIELD">      0.00000000</i>
   </separator>
  </separator>
  <separator name="grids" >
   <i type="int" name="NGX">    16</i>
   <i type="int" name="NGY">    42</i>
   <i type="int" name="NGZ">    48</i>
   <i type="int" name="NGXF">    24</i>
   <i type="int" name="NGYF">    70</i>
   <i type="int" name="NGZF">    80</i>
   <i type="logical" name="ADDGRID"> F  </i>
  </separator>
  <separator name="ionic" >
   <i type="int" name="NSW">    99</i>
   <i type="int" name="IBRION">     2</i>
   <i type="int" name="MDALGO">     0</i>
   <i type="int" name="ISIF">     3</i>
   <i name="PSTRESS">      0.00000000</i>
   <i name="EDIFFG">     -0.05000000</i>
   <i type="int" name="NFREE">     1</i>
   <i name="POTIM">      0.10000000</i>
   <i name="SMASS">     -3.00000000</i>
   <i name="SCALEE">      1.00000000</i>
  </separator>
  <separator name="ionic md" >
   <i name="TEBEG">      0.00010000</i>
   <i name="TEEND">      0.00010000</i>
   <i type="int" name="NBLOCK">     1</i>
   <i type="int" name="KBLOCK">    99</i>
   <i type="int" name="NPACO">   256</i>
   <i name="APACO">     16.00000000</i>
  </separator>
  <separator name="symmetry" >
   <i type="int" name="ISYM">     2</i>
   <i name="SYMPREC">      0.00001000</i>
  </separator>
  <separator name="dos" >
   <i type="int" name="LORBIT">    10</i>
   <v name="RWIGS">     -1.00000000     -1.00000000     -1.00000000</v>
   <i type="int" name="NEDOS">   301</i>
   <i name="EMIN">     10.00000000</i>
   <i name="EMAX">    -10.00000000</i>
   <i name="EFERMI">      0.00000000</i>
  </separator>
  <separator name="writing" >
   <i type="int" name="NWRITE">     2</i>
   <i type="logical" name="LWAVE"> F  </i>
   <i type="logical" name="LDOWNSAMPLE"> F  </i>
   <i type="logical" name="LCHARG"> F  </i>
   <i type="logical" name="LPARD"> F  </i>
   <i type="logical" name="LVTOT"> F  </i>
   <i type="logical" name="LVHAR"> F  </i>
   <i type="logical" name="LELF"> F  </i>
   <i type="logical" name="LOPTICS"> F  </i>
   <v name="STM">      0.00000000      0.00000000      0.00000000      0.00000000      0.00000000      0.00000000      0.00000000</v>
  </separator>
  <separator name="performance" >
   <i type="int" name="NPAR">    14</i>
   <i type="int" name="NSIM">     4</i>
   <i type="int" name="NBLK">    -1</i>
   <i type="logical" name="LPLANE"> T  </i>
   <i type="logical" name="LSCALAPACK"> T  </i>
   <i type="logical" name="LSCAAWARE"> F  </i>
   <i type="logical" name="LSCALU"> F  </i>
   <i type="logical" name="LASYNC"> F  </i>
   <i type="logical" name="LORBITALREAL"> F  </i>
  </separator>
  <separator name="miscellaneous" >
   <i type="int" name="IDIOT">     3</i>
   <i type="int" name="ISPECIAL">     0</i>
   <i type="logical" name="LMUSIC"> F  </i>
   <v name="POMASS">     39.09800000     44.95600000     78.96000000</v>
   <v name="DARWINR">      0.00000000      0.00000000      0.00000000</v>
   <v name="DARWINV">      1.00000000      1.00000000      1.00000000</v>
   <i type="logical" name="LCORR"> T  </i>
  </separator>
  <i type="logical" name="GGA_COMPAT"> T  </i>
  <i type="logical" name="LBERRY"> F  </i>
  <i type="int" name="ICORELEVEL">     0</i>
  <i type="logical" name="LDAU"> F  </i>
  <i type="int" name="I_CONSTRAINED_M">     0</i>
  <separator name="electronic exchange-correlation" >
   <i type="string" name="GGA">--</i>
   <i type="int" name="VOSKOWN">     0</i>
   <i type="logical" name="LHFCALC"> F  </i>
   <i type="string" name="PRECFOCK"></i>
   <i type="logical" name="LSYMGRAD"> F  </i>
   <i type="logical" name="LHFONE"> F  </i>
   <i type="logical" name="LRHFCALC"> F  </i>
   <i type="logical" name="LTHOMAS"> F  </i>
   <i type="logical" name="LMODELHF"> F  </i>
   <i name="ENCUT4O">     -1.00000000</i>
   <i type="int" name="EXXOEP">     0</i>
   <i type="int" name="FOURORBIT">     0</i>
   <i name="AEXX">      0.00000000</i>
   <i name="HFALPHA">      0.00000000</i>
   <i name="MCALPHA">      0.00000000</i>
   <i name="ALDAX">      1.00000000</i>
   <i name="AGGAX">      1.00000000</i>
   <i name="ALDAC">      1.00000000</i>
   <i name="AGGAC">      1.00000000</i>
   <i type="int" name="NKREDX">     1</i>
   <i type="int" name="NKREDY">     1</i>
   <i type="int" name="NKREDZ">     1</i>
   <i type="logical" name="SHIFTRED"> F  </i>
   <i type="logical" name="ODDONLY"> F  </i>
   <i type="logical" name="EVENONLY"> F  </i>
   <i type="int" name="LMAXFOCK">     0</i>
   <i type="int" name="NMAXFOCKAE">     0</i>
   <i type="logical" name="LFOCKAEDFT"> F  </i>
   <i name="HFSCREEN">      0.00000000</i>
   <i name="HFSCREENC">      0.00000000</i>
   <i type="int" name="NBANDSGWLOW">     0</i>
  </separator>
  <separator name="vdW DFT" >
   <i type="logical" name="LUSE_VDW"> F  </i>
   <i name="Zab_VDW">     -0.84910000</i>
   <i name="PARAM1">      0.12340000</i>
   <i name="PARAM2">      1.00000000</i>
   <i name="PARAM3">      0.00000000</i>
  </separator>
  <separator name="model GW" >
   <i type="int" name="MODEL_GW">     0</i>
   <i name="MODEL_EPS0">     11.59128644</i>
   <i name="MODEL_ALPHA">      1.00000000</i>
  </separator>
  <separator name="linear response parameters" >
   <i type="logical" name="LEPSILON"> F  </i>
   <i type="logical" name="LRPA"> F  </i>
   <i type="logical" name="LNABLA"> F  </i>
   <i type="logical" name="LVEL"> F  </i>
   <i type="int" name="KINTER">     0</i>
   <i name="CSHIFT">      0.10000000</i>
   <i name="OMEGAMAX">     -1.00000000</i>
   <i name="DEG_THRESHOLD">      0.00200000</i>
   <i name="RTIME">     -0.10000000</i>
   <i name="WPLASMAI">      0.00000000</i>
   <v name="DFIELD">      0.00000000      0.00000000      0.00000000</v>
   <v name="WPLASMA">      0.00000000      0.00000000      0.00000000      0.00000000      0.00000000      0.00000000      0.00000000      0.00000000      0.00000000</v>
  </separator>
  <separator name="orbital magnetization" >
   <i type="logical" name="NUCIND"> F  </i>
   <v name="MAGPOS">      0.00000000      0.00000000      0.00000000</v>
   <i type="logical" name="LNICSALL"> T  </i>
   <i type="logical" name="ORBITALMAG"> F  </i>
   <i type="logical" name="LMAGBLOCH"> F  </i>
   <i type="logical" name="LCHIMAG"> F  </i>
   <i type="logical" name="LGAUGE"> T  </i>
   <i type="int" name="MAGATOM">     0</i>
   <v name="MAGDIPOL">      0.00000000      0.00000000      0.00000000</v>
   <v name="AVECCONST">      0.00000000      0.00000000      0.00000000</v>
  </separator>
  <separator name="response functions" >
   <i type="logical" name="LADDER"> F  </i>
   <i type="logical" name="LRPAFORCE"> F  </i>
   <i type="logical" name="LFXC"> F  </i>
   <i type="logical" name="LHARTREE"> T  </i>
   <i type="int" name="IBSE">     0</i>
   <v type="int" name="KPOINT">    -1     0     0     0</v>
   <i type="logical" name="LTCTE"> F  </i>
   <i type="logical" name="LTETE"> F  </i>
   <i type="logical" name="LTRIPLET"> F  </i>
   <i type="logical" name="LFXCEPS"> F  </i>
   <i type="logical" name="LFXHEG"> F  </i>
   <i type="int" name="NATURALO">     2</i>
   <i type="logical" name="L2ORDER"> F  </i>
   <i type="logical" name="LMP2LT"> F  </i>
   <i type="logical" name="LUSEW"> F  </i>
   <i name="ENCUTGW">     -2.00000000</i>
   <i name="ENCUTGWSOFT">     -2.00000000</i>
   <i name="ENCUTLF">     -1.00000000</i>
   <i type="int" name="LMAXMP2">    -1</i>
   <i name="SCISSOR">      0.00000000</i>
   <i type="int" name="NOMEGA">     0</i>
   <i type="int" name="NOMEGAR">     0</i>
   <i type="int" name="NBANDSGW">    -1</i>
   <i type="int" name="NBANDSO">    -1</i>
   <i type="int" name="NBANDSV">    -1</i>
   <i type="int" name="NELM">     1</i>
   <i type="int" name="NELMHF">     1</i>
   <i type="int" name="DIM">     3</i>
   <i type="int" name="ANTIRES">     0</i>
   <i name="OMEGAMAX">    -30.00000000</i>
   <i name="OMEGAMIN">    -30.00000000</i>
   <i name="OMEGATL">   -200.00000000</i>
   <i type="int" name="OMEGAGRID">   140</i>
   <i name="CSHIFT">     -0.10000000</i>
   <i type="logical" name="SELFENERGY"> F  </i>
   <i type="logical" name="LSPECTRAL"> F  </i>
   <i type="logical" name="LSPECTRALGW"> F  </i>
   <i type="logical" name="LSINGLES"> F  </i>
   <i type="logical" name="LFERMIGW"> F  </i>
   <i type="logical" name="ODDONLYGW"> F  </i>
   <i type="logical" name="EVENONLYGW"> F  </i>
   <i type="int" name="NKREDLFX">     1</i>
   <i type="int" name="NKREDLFY">     1</i>
   <i type="int" name="NKREDLFZ">     1</i>
   <i type="int" name="MAXMEM">  2800</i>
   <i type="int" name="TELESCOPE">     0</i>
   <i type="int" name="TAUPAR">     1</i>
   <i type="int" name="OMEGAPAR">    -1</i>
   <i name="LAMBDA">      1.00000000</i>
  </separator>
  <separator name="External order field" >
   <i name="OFIELD_KAPPA">      0.00000000</i>
   <v name="OFIELD_K">      0.00000000      0.00000000      0.00000000</v>
   <i name="OFIELD_Q6_NEAR">      0.00000000</i>
   <i name="OFIELD_Q6_FAR">      0.00000000</i>
   <i name="OFIELD_A">      0.00000000</i>
  </separator>
 </parameters>
 <atominfo>
  <atoms>      18 </atoms>
  <types>       3 </types>
  <array name="atoms" >
   <dimension dim="1">ion</dimension>
   <field type="string">element</field>
   <field type="int">atomtype</field>
   <set>
    <rc><c>K </c><c>   1</c></rc>
    <rc><c>K </c><c>   1</c></rc>
    <rc><c>Sc</c><c>   2</c></rc>
    <rc><c>Sc</c><c>   2</c></rc>
    <rc><c>Sc</c><c>   2</c></rc>
    <rc><c>Sc</c><c>   2</c></rc>
    <rc><c>Sc</c><c>   2</c></rc>
    <rc><c>Sc</c><c>   2</c></rc>
    <rc><c>Se</c><c>   3</c></rc>
    <rc><c>Se</c><c>   3</c></rc>
    <rc><c>Se</c><c>   3</c></rc>
    <rc><c>Se</c><c>   3</c></rc>
    <rc><c>Se</c><c>   3</c></rc>
    <rc><c>Se</c><c>   3</c></rc>
    <rc><c>Se</c><c>   3</c></rc>
    <rc><c>Se</c><c>   3</c></rc>
    <rc><c>Se</c><c>   3</c></rc>
    <rc><c>Se</c><c>   3</c></rc>
   </set>
  </array>
  <array name="atomtypes" >
   <dimension dim="1">type</dimension>
   <field type="int">atomspertype</field>
   <field type="string">element</field>
   <field>mass</field>
   <field>valence</field>
   <field type="string">pseudopotential</field>
   <set>
    <rc><c>   2</c><c>K </c><c>     39.09800000</c><c>      7.00000000</c><c>  PAW_PBE K_pv 17Jan2003                </c></rc>
    <rc><c>   6</c><c>Sc</c><c>     44.95600000</c><c>      3.00000000</c><c>  PAW_PBE Sc 04Feb2005                  </c></rc>
    <rc><c>  10</c><c>Se</c><c>     78.96000000</c><c>      6.00000000</c><c>  PAW_PBE Se 06Sep2000                  </c></rc>
   </set>
  </array>
 </atominfo>
 <structure name="initialpos" >
  <crystal>
   <varray name="basis" >
    <v>      -0.00021484      -3.52263848       0.00004876 </v>
    <v>      -9.69104861      -1.76190424       0.00964523 </v>
    <v>      -2.99630475      -1.76136081     -10.18335736 </v>
   </varray>
   <i name="volume">    347.73859313 </i>
   <varray name="rec_basis" >
    <v>       0.05164537      -0.28388080       0.03390544 </v>
    <v>      -0.10315902       0.00000671       0.03035188 </v>
    <v>      -0.00009746      -0.00000135      -0.09817053 </v>
   </varray>
  </crystal>
  <varray name="positions" >
   <v>       0.74455108       0.33353700       0.17411992 </v>
   <v>       0.25534513       0.66647325       0.82590821 </v>
   <v>       0.50000113       0.00001793       0.99998361 </v>
   <v>       0.50002426       0.49997072       0.50000546 </v>
   <v>       0.83556095       0.93954560       0.38893368 </v>
   <v>       0.16443661       0.06047544       0.61108634 </v>
   <v>       0.02086149       0.73235058       0.22507608 </v>
   <v>       0.97915636       0.26764474       0.77491120 </v>
   <v>       0.92745563       0.99291975       0.15220777 </v>
   <v>       0.07256651       0.00708647       0.84776804 </v>
   <v>       0.59678182       0.73230746       0.07396941 </v>
   <v>       0.40324746       0.26768792       0.92599594 </v>
   <v>       0.42719923       0.75635984       0.38910314 </v>
   <v>       0.57283425       0.24362068       0.61089441 </v>
   <v>       0.25648594       0.10421613       0.38235747 </v>
   <v>       0.74348672       0.89580859       0.61767721 </v>
   <v>       0.08326070       0.48658975       0.34669514 </v>
   <v>       0.91674673       0.51338615       0.65330698 </v>
  </varray>
 </structure>
 <calculation>
  <scstep>
   <time name="dav">    0.48    0.49</time>
   <time name="total">    0.73    0.91</time>
   <energy>
    <i name="alphaZ">    293.10668335 </i>
    <i name="ewald">  -3640.23555371 </i>
    <i name="hartreedc">   -456.14315858 </i>
    <i name="XCdc">   -491.41892046 </i>
    <i name="pawpsdc">   3541.90257957 </i>
    <i name="pawaedc">  -2864.78499625 </i>
    <i name="eentropy">     -0.00810966 </i>
    <i name="bandstr">    642.06912837 </i>
    <i name="atom">   3740.05621236 </i>
    <i name="e_fr_energy">    764.54386498 </i>
    <i name="e_wo_entrp">    764.55197465 </i>
    <i name="e_0_energy">    764.54791981 </i>
   </energy>
  </scstep>
  <scstep>
   <time name="dav">    0.61    0.61</time>
   <time name="total">    0.61    0.62</time>
   <energy>
    <i name="e_fr_energy">     89.09875847 </i>
    <i name="e_wo_entrp">     89.10660467 </i>
    <i name="e_0_energy">     89.10268157 </i>
   </energy>
  </scstep>
  <scstep>
   <time name="dav">    0.89    0.89</time>
   <time name="total">    0.89    0.89</time>
   <energy>
    <i name="e_fr_energy">    -86.83086243 </i>
    <i name="e_wo_entrp">    -86.83086243 </i>
    <i name="e_0_energy">    -86.83086243 </i>
   </energy>
  </scstep>
  <scstep>
   <time name="dav">    0.75    0.75</time>
   <time name="total">    0.75    0.75</time>
   <energy>
    <i name="e_fr_energy">   -100.37931797 </i>
    <i name="e_wo_entrp">   -100.37931797 </i>
    <i name="e_0_energy">   -100.37931797 </i>
   </energy>
  </scstep>
  <scstep>
   <time name="dav">    0.85    0.86</time>
   <time name="total">    0.87    0.87</time>
   <energy>
    <i name="e_fr_energy">   -100.63904729 </i>
    <i name="e_wo_entrp">   -100.63904729 </i>
    <i name="e_0_energy">   -100.63904729 </i>
   </energy>
  </scstep>
  <scstep>
   <time name="dav">    0.81    0.82</time>
   <time name="total">    1.07    1.08</time>
   <energy>
    <i name="e_fr_energy">    -93.24027084 </i>
    <i name="e_wo_entrp">    -93.24027084 </i>
    <i name="e_0_energy">    -93.24027084 </i>
   </energy>
  </scstep>
  <scstep>
   <time name="dav">    0.75    0.75</time>
   <time name="total">    1.01    1.01</time>
   <energy>
    <i name="e_fr_energy">    -92.05751029 </i>
    <i name="e_wo_entrp">    -92.05751029 </i>
    <i name="e_0_energy">    -92.05751029 </i>
   </energy>
  </scstep>
  <scstep>
   <time name="dav">    0.59    0.59</time>
   <time name="total">    0.85    0.85</time>
   <energy>
    <i name="e_fr_energy">    -91.99961934 </i>
    <i name="e_wo_entrp">    -91.99961934 </i>
    <i name="e_0_energy">    -91.99961934 </i>
   </energy>
  </scstep>
  <scstep>
   <time name="dav">    0.72    0.72</time>
   <time name="total">    0.98    0.98</time>
   <energy>
    <i name="e_fr_energy">    -91.99759954 </i>
    <i name="e_wo_entrp">    -91.99759954 </i>
    <i name="e_0_energy">    -91.99759954 </i>
   </energy>
  </scstep>
  <scstep>
   <time name="dav">    0.90    0.92</time>
   <time name="total">    1.15    1.18</time>
   <energy>
    <i name="e_fr_energy">    -91.99627245 </i>
    <i name="e_wo_entrp">    -91.99627245 </i>
    <i name="e_0_energy">    -91.99627245 </i>
   </energy>
  </scstep>
  <scstep>
   <time name="dav">    0.84    0.86</time>
   <time name="total">    1.10    1.12</time>
   <energy>
    <i name="e_fr_energy">    -91.99674075 </i>
    <i name="e_wo_entrp">    -91.99674075 </i>
    <i name="e_0_energy">    -91.99674075 </i>
   </energy>
  </scstep>
  <scstep>
   <time name="dav">    0.50    0.50</time>
   <time name="total">    0.75    0.76</time>
   <energy>
    <i name="e_fr_energy">    -91.99697670 </i>
    <i name="e_wo_entrp">    -91.99697670 </i>
    <i name="e_0_energy">    -91.99697670 </i>
   </energy>
  </scstep>
  <scstep>
   <time name="dav">    0.62    0.62</time>
   <time name="total">    0.87    0.88</time>
   <energy>
    <i name="e_fr_energy">    -91.99710702 </i>
    <i name="e_wo_entrp">    -91.99710702 </i>
    <i name="e_0_energy">    -91.99710702 </i>
   </energy>
  </scstep>
  <scstep>
   <time name="dav">    0.34    0.34</time>
   <time name="total">    0.59    0.59</time>
   <energy>
    <i name="alphaZ">    293.10668335 </i>
    <i name="ewald">  -3640.23555371 </i>
    <i name="hartreedc">   -501.60811617 </i>
    <i name="XCdc">   -481.44693108 </i>
    <i name="pawpsdc">   7710.84908797 </i>
    <i name="pawaedc">  -7041.03312204 </i>
    <i name="eentropy">     -0.00000000 </i>
    <i name="bandstr">   -171.68539725 </i>
    <i name="atom">   3740.05621236 </i>
    <i name="e_fr_energy">    -91.99713657 </i>
    <i name="e_wo_entrp">    -91.99713657 </i>
    <i name="e_0_energy">    -91.99713657 </i>
   </energy>
  </scstep>
  <structure>
   <crystal>
    <varray name="basis" >
     <v>      -0.00021484      -3.52263848       0.00004876 </v>
     <v>      -9.69104861      -1.76190424       0.00964523 </v>
     <v>      -2.99630475      -1.76136081     -10.18335736 </v>
    </varray>
    <i name="volume">    347.73859313 </i>
    <varray name="rec_basis" >
     <v>       0.05164537      -0.28388080       0.03390544 </v>
     <v>      -0.10315902       0.00000671       0.03035188 </v>
     <v>      -0.00009746      -0.00000135      -0.09817053 </v>
    </varray>
   </crystal>
   <varray name="positions" >
    <v>       0.74455108       0.33353700       0.17411992 </v>
    <v>       0.25534513       0.66647325       0.82590821 </v>
    <v>       0.50000113       0.00001793       0.99998361 </v>
    <v>       0.50002426       0.49997072       0.50000546 </v>
    <v>       0.83556095       0.93954560       0.38893368 </v>
    <v>       0.16443661       0.06047544       0.61108634 </v>
    <v>       0.02086149       0.73235058       0.22507608 </v>
    <v>       0.97915636       0.26764474       0.77491120 </v>
    <v>       0.92745563       0.99291975       0.15220777 </v>
    <v>       0.07256651       0.00708647       0.84776804 </v>
    <v>       0.59678182       0.73230746       0.07396941 </v>
    <v>       0.40324746       0.26768792       0.92599594 </v>
    <v>       0.42719923       0.75635984       0.38910314 </v>
    <v>       0.57283425       0.24362068       0.61089441 </v>
    <v>       0.25648594       0.10421613       0.38235747 </v>
    <v>       0.74348672       0.89580859       0.61767721 </v>
    <v>       0.08326070       0.48658975       0.34669514 </v>
    <v>       0.91674673       0.51338615       0.65330698 </v>
   </varray>
  </structure>
  <varray name="forces" >
   <v>      -0.07337951      -0.00937150       0.28701070 </v>
   <v>       0.07399272       0.01006006      -0.28527626 </v>
   <v>       0.00205526       0.00008463      -0.00114765 </v>
   <v>      -0.00325967       0.00122986       0.00183283 </v>
   <v>       0.57595484      -0.00484800      -0.02422090 </v>
   <v>      -0.57169183       0.00621741       0.02801547 </v>
   <v>       0.65042450      -0.02471971      -0.34791738 </v>
   <v>      -0.65057061       0.02540816       0.34923716 </v>
   <v>      -3.04833605       0.00180554      -0.90642961 </v>
   <v>       3.06036845      -0.00077783       0.90046175 </v>
   <v>       3.01354761       0.02015724       3.06206040 </v>
   <v>      -3.02842522      -0.02699450      -3.06782719 </v>
   <v>      -0.71071969       0.00760180      -1.11426829 </v>
   <v>       0.71099395      -0.00671479       1.11453585 </v>
   <v>      -3.60728114       0.04384715       3.32633458 </v>
   <v>       3.60810283      -0.04332834      -3.32478154 </v>
   <v>       3.67111872       0.00886788       1.47440005 </v>
   <v>      -3.67289517      -0.00852506      -1.47201998 </v>
  </varray>
  <varray name="stress" >
   <v>     358.97166011       0.30806822      -0.40437491 </v>
   <v>       0.30806824     383.58249788       0.09833008 </v>
   <v>      -0.40415098       0.09833082     395.19826109 </v>
  </varray>
  <energy>
   <i name="e_fr_energy">    -91.99713657 </i>
   <i name="e_wo_entrp">    -91.99713657 </i>
   <i name="e_0_energy">     -0.00000000 </i>
  </energy>
  <time name="totalsc">   13.35   13.76</time>
 </calculation>
 <calculation>
  <scstep>
   <time name="dav">    0.56    0.56</time>
   <time name="total">    0.83    0.86</time>
   <energy>
    <i name="alphaZ">    257.49780720 </i>
    <i name="ewald">  -3507.98987437 </i>
    <i name="hartreedc">   -462.71893599 </i>
    <i name="XCdc">   -487.37341058 </i>
    <i name="pawpsdc">   7709.05781923 </i>
    <i name="pawaedc">  -7039.24069980 </i>
    <i name="eentropy">     -0.00000000 </i>
    <i name="bandstr">   -315.19618255 </i>
    <i name="atom">   3740.05621236 </i>
    <i name="e_fr_energy">   -105.90726449 </i>
    <i name="e_wo_entrp">   -105.90726449 </i>
    <i name="e_0_energy">   -105.90726449 </i>
   </energy>
  </scstep>
  <scstep>
   <time name="dav">    0.76    0.76</time>
   <time name="total">    1.02    1.02</time>
   <energy>
    <i name="e_fr_energy">   -101.61881040 </i>
    <i name="e_wo_entrp">   -101.61881040 </i>
    <i name="e_0_energy">   -101.61881040 </i>
   </energy>
  </scstep>
  <scstep>
   <time name="dav">    0.73    0.73</time>
   <time name="total">    0.99    0.99</time>
   <energy>
    <i name="e_fr_energy">   -100.94682311 </i>
    <i name="e_wo_entrp">   -100.94682311 </i>
    <i name="e_0_energy">   -100.94682311 </i>
   </energy>
  </scstep>
  <scstep>
   <time name="dav">    0.66    0.66</time>
   <time name="total">    0.92    0.92</time>
   <energy>
    <i name="e_fr_energy">   -100.77382929 </i>
    <i name="e_wo_entrp">   -100.77382929 </i>
    <i name="e_0_energy">   -100.77382929 </i>
   </energy>
  </scstep>
  <scstep>
   <time name="dav">    0.66    0.66</time>
   <time name="total">    0.92    0.92</time>
   <energy>
    <i name="e_fr_energy">   -100.77344167 </i>
    <i name="e_wo_entrp">   -100.77344167 </i>
    <i name="e_0_energy">   -100.77344167 </i>
   </energy>
  </scstep>
  <scstep>
   <time name="dav">    0.79    0.79</time>
   <time name="total">    1.05    1.05</time>
   <energy>
    <i name="e_fr_energy">   -100.77249408 </i>
    <i name="e_wo_entrp">   -100.77249408 </i>
    <i name="e_0_energy">   -100.77249408 </i>
   </energy>
  </scstep>
  <scstep>
   <time name="dav">    0.76    0.76</time>
   <time name="total">    1.02    1.02</time>
   <energy>
    <i name="e_fr_energy">   -100.77240527 </i>
    <i name="e_wo_entrp">   -100.77240527 </i>
    <i name="e_0_energy">   -100.77240527 </i>
   </energy>
  </scstep>
  <scstep>
   <time name="dav">    0.45    0.45</time>
   <time name="total">    0.70    0.70</time>
   <energy>
    <i name="alphaZ">    257.49780720 </i>
    <i name="ewald">  -3507.98987437 </i>
    <i name="hartreedc">   -531.70879658 </i>
    <i name="XCdc">   -484.58532328 </i>
    <i name="pawpsdc">   6411.27151016 </i>
    <i name="pawaedc">  -5738.98096994 </i>
    <i name="eentropy">     -0.00000000 </i>
    <i name="bandstr">   -246.33293476 </i>
    <i name="atom">   3740.05621236 </i>
    <i name="e_fr_energy">   -100.77236921 </i>
    <i name="e_wo_entrp">   -100.77236921 </i>
    <i name="e_0_energy">   -100.77236921 </i>
   </energy>
  </scstep>
  <structure>
   <crystal>
    <varray name="basis" >
     <v>      -0.00035007      -3.67984041       0.00001071 </v>
     <v>     -10.09583898      -1.84087853       0.01052446 </v>
     <v>      -3.12102359      -1.84018751     -10.65144258 </v>
    </varray>
    <i name="volume">    395.82669387 </i>
    <varray name="rec_basis" >
     <v>       0.04958579      -0.27175554       0.03242028 </v>
     <v>      -0.09902220       0.00000950       0.02901326 </v>
     <v>      -0.00009779      -0.00000026      -0.09385530 </v>
    </varray>
   </crystal>
   <varray name="positions" >
    <v>       0.74463408       0.33369409       0.17384813 </v>
    <v>       0.25526112       0.66631606       0.82617835 </v>
    <v>       0.50000155       0.00001555       0.99998470 </v>
    <v>       0.50001987       0.49997450       0.50000373 </v>
    <v>       0.83585330       0.93896524       0.38895608 </v>
    <v>       0.16414387       0.06105267       0.61106034 </v>
    <v>       0.02113949       0.73160130       0.22540502 </v>
    <v>       0.97887683       0.26839455       0.77458101 </v>
    <v>       0.92563517       0.99568841       0.15306921 </v>
    <v>       0.07438820       0.00430409       0.84691224 </v>
    <v>       0.59922998       0.73020471       0.07106619 </v>
    <v>       0.40080873       0.26980379       0.92890464 </v>
    <v>       0.42645974       0.75674093       0.39015924 </v>
    <v>       0.57357154       0.24323940       0.60983805 </v>
    <v>       0.25565650       0.10878070       0.37921015 </v>
    <v>       0.74431566       0.89124366       0.62082306 </v>
    <v>       0.08554807       0.48336754       0.34529513 </v>
    <v>       0.91445832       0.51661082       0.65470473 </v>
   </varray>
  </structure>
  <varray name="forces" >
   <v>      -0.00643486      -0.00849085       0.10269153 </v>
   <v>       0.00696057       0.00808631      -0.10207547 </v>
   <v>       0.00035243      -0.00012146      -0.00082648 </v>
   <v>      -0.00196767       0.00037081       0.00078151 </v>
   <v>      -0.34397327      -0.00065362      -0.50205643 </v>
   <v>       0.34652788       0.00092299       0.50332362 </v>
   <v>       0.51958351      -0.00163705       0.13563283 </v>
   <v>      -0.51958154       0.00120521      -0.13623244 </v>
   <v>      -1.39646589       0.05106678      -0.43724893 </v>
   <v>       1.39678648      -0.05107362       0.43528786 </v>
   <v>       1.35878060       0.00304246       1.23474139 </v>
   <v>      -1.35947951      -0.00273113      -1.23440271 </v>
   <v>      -0.32741243       0.00263060      -0.38352609 </v>
   <v>       0.32702221      -0.00271064       0.38305579 </v>
   <v>      -1.59194989       0.05771942       1.40565144 </v>
   <v>       1.59156328      -0.05766688      -1.40580895 </v>
   <v>       1.67100684      -0.03689791       0.64916630 </v>
   <v>      -1.67131873       0.03693857      -0.64815478 </v>
  </varray>
  <varray name="stress" >
   <v>     159.43021900      -0.47966860       0.37638343 </v>
   <v>      -0.47966884     159.78938830       0.19296610 </v>
   <v>       0.37658307       0.19296678     166.11537309 </v>
  </varray>
  <energy>
   <i name="e_fr_energy">   -100.77236921 </i>
   <i name="e_wo_entrp">   -100.77236921 </i>
   <i name="e_0_energy">     -0.00000000 </i>
  </energy>
  <time name="totalsc">    8.52    8.69</time>
 </calculation>
 <calculation>
  <scstep>
   <time name="dav">    0.70    0.71</time>
   <time name="total">    0.96    1.06</time>
   <energy>
    <i name="alphaZ">    229.63936065 </i>
    <i name="ewald">  -3392.84864199 </i>
    <i name="hartreedc">   -498.30032357 </i>
    <i name="XCdc">   -489.90740047 </i>
    <i name="pawpsdc">   6408.50092055 </i>
    <i name="pawaedc">  -5736.22229442 </i>
    <i name="eentropy">     -0.00000000 </i>
    <i name="bandstr">   -368.93611304 </i>
    <i name="atom">   3740.05621236 </i>
    <i name="e_fr_energy">   -108.01827994 </i>
    <i name="e_wo_entrp">   -108.01827994 </i>
    <i name="e_0_energy">   -108.01827994 </i>
   </energy>
  </scstep>
  <scstep>
   <time name="dav">    0.49    0.49</time>
   <time name="total">    0.75    0.76</time>
   <energy>
    <i name="e_fr_energy">   -104.63059692 </i>
    <i name="e_wo_entrp">   -104.63059692 </i>
    <i name="e_0_energy">   -104.63059692 </i>
   </energy>
  </scstep>
  <scstep>
   <time name="dav">    0.72    0.73</time>
   <time name="total">    0.98    0.99</time>
   <energy>
    <i name="e_fr_energy">   -104.10238709 </i>
    <i name="e_wo_entrp">   -104.10238709 </i>
    <i name="e_0_energy">   -104.10238709 </i>
   </energy>
  </scstep>
  <scstep>
   <time name="dav">    0.73    0.74</time>
   <time name="total">    0.99    0.99</time>
   <energy>
    <i name="e_fr_energy">   -103.94170585 </i>
    <i name="e_wo_entrp">   -103.94170585 </i>
    <i name="e_0_energy">   -103.94170585 </i>
   </energy>
  </scstep>
  <scstep>
   <time name="dav">    0.69    0.70</time>
   <time name="total">    0.96    0.96</time>
   <energy>
    <i name="e_fr_energy">   -103.94164490 </i>
    <i name="e_wo_entrp">   -103.94164490 </i>
    <i name="e_0_energy">   -103.94164490 </i>
   </energy>
  </scstep>
  <scstep>
   <time name="dav">    0.55    0.55</time>
   <time name="total">    0.81    0.81</time>
   <energy>
    <i name="e_fr_energy">   -103.94041224 </i>
    <i name="e_wo_entrp">   -103.94041224 </i>
    <i name="e_0_energy">   -103.94041224 </i>
   </energy>
  </scstep>
  <scstep>
   <time name="dav">    0.69    0.69</time>
   <time name="total">    0.94    0.95</time>
   <energy>
    <i name="e_fr_energy">   -103.94028445 </i>
    <i name="e_wo_entrp">   -103.94028445 </i>
    <i name="e_0_energy">   -103.94028445 </i>
   </energy>
  </scstep>
  <scstep>
   <time name="dav">    0.35    0.35</time>
   <time name="total">    0.59    0.60</time>
   <energy>
    <i name="alphaZ">    229.63936065 </i>
    <i name="ewald">  -3392.84864199 </i>
    <i name="hartreedc">   -562.42502721 </i>
    <i name="XCdc">   -487.45206943 </i>
    <i name="pawpsdc">   5686.41626832 </i>
    <i name="pawaedc">  -5012.49578873 </i>
    <i name="eentropy">     -0.00000000 </i>
    <i name="bandstr">   -304.83054456 </i>
    <i name="atom">   3740.05621236 </i>
    <i name="e_fr_energy">   -103.94023059 </i>
    <i name="e_wo_entrp">   -103.94023059 </i>
    <i name="e_0_energy">   -103.94023059 </i>
   </energy>
  </scstep>
  <structure>
   <crystal>
    <varray name="basis" >
     <v>      -0.00047458      -3.82458229      -0.00002432 </v>
     <v>     -10.46854509      -1.91359321       0.01133399 </v>
     <v>      -3.23585703      -1.91276630     -11.08242669 </v>
    </varray>
    <i name="volume">    443.84597403 </i>
    <varray name="rec_basis" >
     <v>       0.04782951      -0.26147260       0.03116344 </v>
     <v>      -0.09549621       0.00001167       0.02788105 </v>
     <v>      -0.00009777       0.00000059      -0.09020450 </v>
    </varray>
   </crystal>
   <varray name="positions" >
    <v>       0.74470704       0.33383261       0.17360889 </v>
    <v>       0.25518726       0.66617744       0.82641615 </v>
    <v>       0.50000192       0.00001344       0.99998565 </v>
    <v>       0.50001599       0.49997784       0.50000220 </v>
    <v>       0.83611175       0.93845233       0.38897578 </v>
    <v>       0.16388509       0.06156280       0.61103748 </v>
    <v>       0.02138548       0.73093945       0.22569454 </v>
    <v>       0.97862950       0.26905687       0.77429039 </v>
    <v>       0.92402692       0.99813637       0.15382763 </v>
    <v>       0.07599755       0.00184400       0.84615879 </v>
    <v>       0.60139073       0.72834295       0.06851046 </v>
    <v>       0.39865627       0.27167714       0.93146519 </v>
    <v>       0.42580738       0.75707894       0.39108893 </v>
    <v>       0.57422195       0.24290121       0.60890815 </v>
    <v>       0.25491963       0.11281135       0.37643982 </v>
    <v>       0.74505208       0.88721269       0.62359209 </v>
    <v>       0.08756847       0.48051812       0.34406261 </v>
    <v>       0.91243699       0.51946242       0.65593528 </v>
   </varray>
  </structure>
  <varray name="forces" >
   <v>       0.03772377      -0.00496427      -0.02298746 </v>
   <v>      -0.03909418       0.00555472       0.02342263 </v>
   <v>      -0.00090839       0.00023006      -0.00034905 </v>
   <v>      -0.00189350       0.00048096       0.00054034 </v>
   <v>      -0.80333257       0.00417348      -0.64434444 </v>
   <v>       0.80364252      -0.00338914       0.64507805 </v>
   <v>       0.49237978      -0.00638318       0.38126101 </v>
   <v>      -0.49409335       0.00667792      -0.38194122 </v>
   <v>      -0.27833250      -0.01585593      -0.09160267 </v>
   <v>       0.27686266       0.01624638       0.09096024 </v>
   <v>       0.27596493      -0.00977646       0.13319253 </v>
   <v>      -0.26428512       0.00497625      -0.13364427 </v>
   <v>      -0.06176900       0.00963524       0.04865198 </v>
   <v>       0.06039969      -0.00923404      -0.04855453 </v>
   <v>      -0.36383291      -0.00169880       0.28595548 </v>
   <v>       0.36137983       0.00253742      -0.28638642 </v>
   <v>       0.39403393      -0.02268486       0.11747047 </v>
   <v>      -0.39484558       0.02347425      -0.11672266 </v>
  </varray>
  <varray name="stress" >
   <v>      44.37153004      -0.09025268       0.96649661 </v>
   <v>      -0.09025316      37.56263634      -0.07423323 </v>
   <v>       0.96665315      -0.07423250      39.48433608 </v>
  </varray>
  <energy>
   <i name="e_fr_energy">   -103.94023059 </i>
   <i name="e_wo_entrp">   -103.94023059 </i>
   <i name="e_0_energy">     -0.00000000 </i>
  </energy>
  <time name="totalsc">    8.04    8.31</time>
 </calculation>
 <calculation>
  <scstep>
   <time name="dav">    0.57    0.57</time>
   <time name="total">    0.84    0.87</time>
   <energy>
    <i name="alphaZ">    220.34274139 </i>
    <i name="ewald">  -3351.66732351 </i>
    <i name="hartreedc">   -550.37586391 </i>
    <i name="XCdc">   -489.38813988 </i>
    <i name="pawpsdc">   5683.86949700 </i>
    <i name="pawaedc">  -5009.96159591 </i>
    <i name="eentropy">     -0.00000000 </i>
    <i name="bandstr">   -347.65549010 </i>
    <i name="atom">   3740.05621236 </i>
    <i name="e_fr_energy">   -104.77996256 </i>
    <i name="e_wo_entrp">   -104.77996256 </i>
    <i name="e_0_energy">   -104.77996256 </i>
   </energy>
  </scstep>
  <scstep>
   <time name="dav">    0.77    0.77</time>
   <time name="total">    1.03    1.03</time>
   <energy>
    <i name="e_fr_energy">   -104.33197156 </i>
    <i name="e_wo_entrp">   -104.33197156 </i>
    <i name="e_0_energy">   -104.33197156 </i>
   </energy>
  </scstep>
  <scstep>
   <time name="dav">    0.57    0.58</time>
   <time name="total">    0.83    0.84</time>
   <energy>
    <i name="e_fr_energy">   -104.25951786 </i>
    <i name="e_wo_entrp">   -104.25951786 </i>
    <i name="e_0_energy">   -104.25951786 </i>
   </energy>
  </scstep>
  <scstep>
   <time name="dav">    0.72    0.72</time>
   <time name="total">    0.98    0.98</time>
   <energy>
    <i name="e_fr_energy">   -104.23591346 </i>
    <i name="e_wo_entrp">   -104.23591346 </i>
    <i name="e_0_energy">   -104.23591346 </i>
   </energy>
  </scstep>
  <scstep>
   <time name="dav">    0.59    0.59</time>
   <time name="total">    0.84    0.84</time>
   <energy>
    <i name="e_fr_energy">   -104.23585349 </i>
    <i name="e_wo_entrp">   -104.23585349 </i>
    <i name="e_0_energy">   -104.23585349 </i>
   </energy>
  </scstep>
  <scstep>
   <time name="dav">    0.62    0.62</time>
   <time name="total">    0.88    0.88</time>
   <energy>
    <i name="e_fr_energy">   -104.23559802 </i>
    <i name="e_wo_entrp">   -104.23559802 </i>
    <i name="e_0_energy">   -104.23559802 </i>
   </energy>
  </scstep>
  <scstep>
   <time name="dav">    0.58    0.58</time>
   <time name="total">    0.83    0.83</time>
   <energy>
    <i name="alphaZ">    220.34274139 </i>
    <i name="ewald">  -3351.66732351 </i>
    <i name="hartreedc">   -574.47166811 </i>
    <i name="XCdc">   -488.48956429 </i>
    <i name="pawpsdc">   5488.81745294 </i>
    <i name="pawaedc">  -4814.42124322 </i>
    <i name="eentropy">     -0.00000000 </i>
    <i name="bandstr">   -324.40215402 </i>
    <i name="atom">   3740.05621236 </i>
    <i name="e_fr_energy">   -104.23554647 </i>
    <i name="e_wo_entrp">   -104.23554647 </i>
    <i name="e_0_energy">   -104.23554647 </i>
   </energy>
  </scstep>
  <structure>
   <crystal>
    <varray name="basis" >
     <v>      -0.00052070      -3.87819623      -0.00003729 </v>
     <v>     -10.60659941      -1.94052750       0.01163385 </v>
     <v>      -3.27839257      -1.93965025     -11.24206781 </v>
    </varray>
    <i name="volume">    462.57255882 </i>
    <varray name="rec_basis" >
     <v>       0.04721012      -0.25785847       0.03072228 </v>
     <v>      -0.09425305       0.00001239       0.02748377 </v>
     <v>      -0.00009769       0.00000087      -0.08892327 </v>
    </varray>
   </crystal>
   <varray name="positions" >
    <v>       0.74473299       0.33388201       0.17352372 </v>
    <v>       0.25516100       0.66612802       0.82650081 </v>
    <v>       0.50000205       0.00001269       0.99998599 </v>
    <v>       0.50001461       0.49997903       0.50000166 </v>
    <v>       0.83620408       0.93826912       0.38898278 </v>
    <v>       0.16379264       0.06174502       0.61102935 </v>
    <v>       0.02147344       0.73070314       0.22579760 </v>
    <v>       0.97854106       0.26929335       0.77418693 </v>
    <v>       0.92345264       0.99901113       0.15409766 </v>
    <v>       0.07657223       0.00096491       0.84589052 </v>
    <v>       0.60216170       0.72767690       0.06760057 </v>
    <v>       0.39788825       0.27234735       0.93237679 </v>
    <v>       0.42557471       0.75720005       0.39141991 </v>
    <v>       0.57445392       0.24278004       0.60857709 </v>
    <v>       0.25465526       0.11425010       0.37545363 </v>
    <v>       0.74531629       0.88577382       0.62457783 </v>
    <v>       0.08828983       0.47949976       0.34362378 </v>
    <v>       0.91171530       0.52048156       0.65637340 </v>
   </varray>
  </structure>
  <varray name="forces" >
   <v>       0.05179304      -0.00528835      -0.05770502 </v>
   <v>      -0.05202000       0.00718285       0.05649764 </v>
   <v>      -0.00033660       0.00087659      -0.00109197 </v>
   <v>      -0.00107784       0.00108378      -0.00035308 </v>
   <v>      -0.91267254       0.00402131      -0.64973870 </v>
   <v>       0.91399268      -0.00198870       0.64868490 </v>
   <v>       0.50133823       0.00128060       0.43796802 </v>
   <v>      -0.50200764       0.00037622      -0.44026662 </v>
   <v>      -0.00453079      -0.02385434       0.01016992 </v>
   <v>      -0.00597394       0.01305343      -0.01070179 </v>
   <v>      -0.05954270      -0.04216065      -0.09141080 </v>
   <v>       0.05809531       0.04312918       0.09159866 </v>
   <v>      -0.05250496      -0.01074879       0.14537685 </v>
   <v>       0.05264794       0.01229051      -0.14660155 </v>
   <v>      -0.01744341       0.02197885      -0.03413557 </v>
   <v>       0.02989956      -0.02314009       0.04256757 </v>
   <v>      -0.01455388      -0.00930639      -0.08776837 </v>
   <v>       0.01489754       0.01121400       0.08690991 </v>
  </varray>
  <varray name="stress" >
   <v>      12.98551391      -0.06710658       1.23701762 </v>
   <v>      -0.06710703       6.44203405      -0.30553147 </v>
   <v>       1.23715752      -0.30553086       6.49202047 </v>
  </varray>
  <energy>
   <i name="e_fr_energy">   -104.23554647 </i>
   <i name="e_wo_entrp">   -104.23554647 </i>
   <i name="e_0_energy">     -0.00000000 </i>
  </energy>
  <time name="totalsc">    7.31    7.52</time>
 </calculation>
 <calculation>
  <scstep>
   <time name="dav">    0.61    0.62</time>
   <time name="total">    0.88    0.98</time>
   <energy>
    <i name="alphaZ">    218.11580538 </i>
    <i name="ewald">  -3341.57592735 </i>
    <i name="hartreedc">   -571.52101614 </i>
    <i name="XCdc">   -488.96494028 </i>
    <i name="pawpsdc">   5489.14762274 </i>
    <i name="pawaedc">  -4814.75097513 </i>
    <i name="eentropy">     -0.00000000 </i>
    <i name="bandstr">   -334.78645046 </i>
    <i name="atom">   3740.05621236 </i>
    <i name="e_fr_energy">   -104.27966889 </i>
    <i name="e_wo_entrp">   -104.27966889 </i>
    <i name="e_0_energy">   -104.27966889 </i>
   </energy>
  </scstep>
  <scstep>
   <time name="dav">    0.62    0.63</time>
   <time name="total">    0.89    0.89</time>
   <energy>
    <i name="e_fr_energy">   -104.25245945 </i>
    <i name="e_wo_entrp">   -104.25245945 </i>
    <i name="e_0_energy">   -104.25245945 </i>
   </energy>
  </scstep>
  <scstep>
   <time name="dav">    0.65    0.65</time>
   <time name="total">    0.90    0.90</time>
   <energy>
    <i name="e_fr_energy">   -104.24791452 </i>
    <i name="e_wo_entrp">   -104.24791452 </i>
    <i name="e_0_energy">   -104.24791452 </i>
   </energy>
  </scstep>
  <scstep>
   <time name="dav">    0.75    0.75</time>
   <time name="total">    1.01    1.01</time>
   <energy>
    <i name="e_fr_energy">   -104.24642888 </i>
    <i name="e_wo_entrp">   -104.24642888 </i>
    <i name="e_0_energy">   -104.24642888 </i>
   </energy>
  </scstep>
  <scstep>
   <time name="dav">    0.43    0.43</time>
   <time name="total">    0.67    0.68</time>
   <energy>
    <i name="alphaZ">    218.11580538 </i>
    <i name="ewald">  -3341.57592735 </i>
    <i name="hartreedc">   -577.42874695 </i>
    <i name="XCdc">   -488.74134054 </i>
    <i name="pawpsdc">   5436.02994483 </i>
    <i name="pawaedc">  -4761.55904313 </i>
    <i name="eentropy">     -0.00000000 </i>
    <i name="bandstr">   -329.14331287 </i>
    <i name="atom">   3740.05621236 </i>
    <i name="e_fr_energy">   -104.24640828 </i>
    <i name="e_wo_entrp">   -104.24640828 </i>
    <i name="e_0_energy">   -104.24640828 </i>
   </energy>
  </scstep>
  <structure>
   <crystal>
    <varray name="basis" >
     <v>      -0.00053213      -3.89148844      -0.00004051 </v>
     <v>     -10.64082647      -1.94720517       0.01170820 </v>
     <v>      -3.28893817      -1.94631545     -11.28164677 </v>
    </varray>
    <i name="volume">    467.29536875 </i>
    <varray name="rec_basis" >
     <v>       0.04705903      -0.25697784       0.03061483 </v>
     <v>      -0.09394983       0.00001256       0.02738702 </v>
     <v>      -0.00009767       0.00000094      -0.08861123 </v>
    </varray>
   </crystal>
   <varray name="positions" >
    <v>       0.74473932       0.33389408       0.17350290 </v>
    <v>       0.25515458       0.66611593       0.82652150 </v>
    <v>       0.50000208       0.00001251       0.99998607 </v>
    <v>       0.50001427       0.49997933       0.50000153 </v>
    <v>       0.83622668       0.93822429       0.38898449 </v>
    <v>       0.16377001       0.06178961       0.61102736 </v>
    <v>       0.02149497       0.73064532       0.22582279 </v>
    <v>       0.97851941       0.26935121       0.77416165 </v>
    <v>       0.92331213       0.99922521       0.15416367 </v>
    <v>       0.07671283       0.00074977       0.84582495 </v>
    <v>       0.60235027       0.72751383       0.06737819 </v>
    <v>       0.39770040       0.27251143       0.93259959 </v>
    <v>       0.42551781       0.75722972       0.39150080 </v>
    <v>       0.57451066       0.24275036       0.60849618 </v>
    <v>       0.25459048       0.11460206       0.37521260 </v>
    <v>       0.74538104       0.88542183       0.62481874 </v>
    <v>       0.08846632       0.47925053       0.34351652 </v>
    <v>       0.91153873       0.52073098       0.65648048 </v>
   </varray>
  </structure>
  <varray name="forces" >
   <v>       0.05552203      -0.00727405      -0.06806713 </v>
   <v>      -0.05528175       0.00718876       0.06839494 </v>
   <v>      -0.00025794       0.00001333      -0.00050923 </v>
   <v>      -0.00094759       0.00020581       0.00019836 </v>
   <v>      -0.94004094      -0.00133420      -0.64776270 </v>
   <v>       0.94148566       0.00162586       0.64780108 </v>
   <v>       0.50493991       0.00086795       0.44990586 </v>
   <v>      -0.50548244      -0.00092034      -0.45106524 </v>
   <v>       0.06052618      -0.03385338       0.02343950 </v>
   <v>      -0.06058267       0.03385865      -0.02402987 </v>
   <v>      -0.11587078      -0.03960728      -0.15895924 </v>
   <v>       0.12421826       0.02964501       0.14909414 </v>
   <v>       0.00168222       0.00319703       0.16506200 </v>
   <v>      -0.00140177      -0.00338813      -0.16513776 </v>
   <v>       0.06686510      -0.03279542      -0.08170902 </v>
   <v>      -0.06766566       0.03316725       0.08084873 </v>
   <v>      -0.09251501      -0.01638342      -0.10918054 </v>
   <v>       0.08480719       0.02578656       0.12167611 </v>
  </varray>
  <varray name="stress" >
   <v>       6.24350016      -0.13141625       1.34743881 </v>
   <v>      -0.13141669      -0.36347800      -0.36650307 </v>
   <v>       1.34757520      -0.36650253      -0.77974508 </v>
  </varray>
  <energy>
   <i name="e_fr_energy">   -104.24640828 </i>
   <i name="e_wo_entrp">   -104.24640828 </i>
   <i name="e_0_energy">     -0.00000000 </i>
  </energy>
  <time name="totalsc">    5.41    5.76</time>
 </calculation>
 <calculation>
  <scstep>
   <time name="dav">    0.49    0.49</time>
   <time name="total">    0.75    0.79</time>
   <energy>
    <i name="alphaZ">    218.03583714 </i>
    <i name="ewald">  -3341.21184762 </i>
    <i name="hartreedc">   -577.44864662 </i>
    <i name="XCdc">   -488.75831581 </i>
    <i name="pawpsdc">   5444.28492649 </i>
    <i name="pawaedc">  -4769.78109952 </i>
    <i name="eentropy">     -0.00000000 </i>
    <i name="bandstr">   -329.42344717 </i>
    <i name="atom">   3740.05621236 </i>
    <i name="e_fr_energy">   -104.24638075 </i>
    <i name="e_wo_entrp">   -104.24638075 </i>
    <i name="e_0_energy">   -104.24638075 </i>
   </energy>
  </scstep>
  <scstep>
   <time name="dav">    0.21    0.21</time>
   <time name="total">    0.46    0.46</time>
   <energy>
    <i name="alphaZ">    218.03583714 </i>
    <i name="ewald">  -3341.21184762 </i>
    <i name="hartreedc">   -577.57528654 </i>
    <i name="XCdc">   -488.75058729 </i>
    <i name="pawpsdc">   5443.98656105 </i>
    <i name="pawaedc">  -4769.48272977 </i>
    <i name="eentropy">     -0.00000000 </i>
    <i name="bandstr">   -329.30450794 </i>
    <i name="atom">   3740.05621236 </i>
    <i name="e_fr_energy">   -104.24634861 </i>
    <i name="e_wo_entrp">   -104.24634861 </i>
    <i name="e_0_energy">   -104.24634861 </i>
   </energy>
  </scstep>
  <structure>
   <crystal>
    <varray name="basis" >
     <v>      -0.00053255      -3.89196912      -0.00004063 </v>
     <v>     -10.64206421      -1.94744666       0.01171089 </v>
     <v>      -3.28931953      -1.94655648     -11.28307805 </v>
    </varray>
    <i name="volume">    467.46675703 </i>
    <varray name="rec_basis" >
     <v>       0.04705359      -0.25694610       0.03061096 </v>
     <v>      -0.09393890       0.00001257       0.02738354 </v>
     <v>      -0.00009767       0.00000094      -0.08859999 </v>
    </varray>
   </crystal>
   <varray name="positions" >
    <v>       0.74473955       0.33389452       0.17350215 </v>
    <v>       0.25515435       0.66611549       0.82652224 </v>
    <v>       0.50000208       0.00001250       0.99998608 </v>
    <v>       0.50001426       0.49997934       0.50000152 </v>
    <v>       0.83622749       0.93822267       0.38898455 </v>
    <v>       0.16376920       0.06179122       0.61102729 </v>
    <v>       0.02149575       0.73064324       0.22582370 </v>
    <v>       0.97851863       0.26935329       0.77416074 </v>
    <v>       0.92330707       0.99923293       0.15416604 </v>
    <v>       0.07671790       0.00074202       0.84582259 </v>
    <v>       0.60235707       0.72750795       0.06737018 </v>
    <v>       0.39769363       0.27251734       0.93260762 </v>
    <v>       0.42551576       0.75723079       0.39150371 </v>
    <v>       0.57451270       0.24274929       0.60849326 </v>
    <v>       0.25458814       0.11461475       0.37520391 </v>
    <v>       0.74538338       0.88540914       0.62482742 </v>
    <v>       0.08847268       0.47924155       0.34351266 </v>
    <v>       0.91153237       0.52073997       0.65648434 </v>
   </varray>
  </structure>
  <varray name="forces" >
   <v>       0.05531511      -0.00727348      -0.06711748 </v>
   <v>      -0.05517602       0.00741605       0.06715885 </v>
   <v>      -0.00015813       0.00000875      -0.00043285 </v>
   <v>      -0.00084718       0.00020166       0.00027441 </v>
   <v>      -0.94156003      -0.00135240      -0.64897017 </v>
   <v>       0.94320781       0.00163649       0.64915934 </v>
   <v>       0.50499648       0.00088249       0.45055621 </v>
   <v>      -0.50533651      -0.00094042      -0.45155932 </v>
   <v>       0.06614451      -0.03411524       0.02649822 </v>
   <v>      -0.06601526       0.03411001      -0.02693467 </v>
   <v>      -0.12929756      -0.03074097      -0.14871878 </v>
   <v>       0.12819631       0.02985115       0.15031138 </v>
   <v>       0.00341627       0.00294098       0.16593845 </v>
   <v>      -0.00293922      -0.00314973      -0.16589274 </v>
   <v>       0.07179607      -0.03287419      -0.08698197 </v>
   <v>      -0.07239562       0.03324681       0.08627274 </v>
   <v>      -0.08975632      -0.02552892      -0.12549747 </v>
   <v>       0.09040929       0.02568096       0.12593585 </v>
  </varray>
  <varray name="stress" >
   <v>       6.18104556      -0.09440931       1.39769283 </v>
   <v>      -0.09440968      -0.41176692      -0.41679287 </v>
   <v>       1.39782889      -0.41679223      -0.87975832 </v>
  </varray>
  <energy>
   <i name="e_fr_energy">   -104.24634861 </i>
   <i name="e_wo_entrp">   -104.24634861 </i>
   <i name="e_0_energy">     -0.00000000 </i>
  </energy>
  <time name="totalsc">    2.14    2.27</time>
 </calculation>
 <calculation>
  <scstep>
   <time name="dav">    0.41    0.42</time>
   <time name="total">    0.68    0.75</time>
   <energy>
    <i name="alphaZ">    217.72774412 </i>
    <i name="ewald">  -3339.15551492 </i>
    <i name="hartreedc">   -577.78518702 </i>
    <i name="XCdc">   -488.80475567 </i>
    <i name="pawpsdc">   5443.53148033 </i>
    <i name="pawaedc">  -4769.02779139 </i>
    <i name="eentropy">     -0.00000000 </i>
    <i name="bandstr">   -330.83359746 </i>
    <i name="atom">   3740.05621236 </i>
    <i name="e_fr_energy">   -104.29140966 </i>
    <i name="e_wo_entrp">   -104.29140966 </i>
    <i name="e_0_energy">   -104.29140966 </i>
   </energy>
  </scstep>
  <scstep>
   <time name="dav">    0.77    0.77</time>
   <time name="total">    1.03    1.04</time>
   <energy>
    <i name="e_fr_energy">   -104.29125640 </i>
    <i name="e_wo_entrp">   -104.29125640 </i>
    <i name="e_0_energy">   -104.29125640 </i>
   </energy>
  </scstep>
  <scstep>
   <time name="dav">    0.64    0.64</time>
   <time name="total">    0.90    0.90</time>
   <energy>
    <i name="e_fr_energy">   -104.29075623 </i>
    <i name="e_wo_entrp">   -104.29075623 </i>
    <i name="e_0_energy">   -104.29075623 </i>
   </energy>
  </scstep>
  <scstep>
   <time name="dav">    0.53    0.53</time>
   <time name="total">    0.79    0.79</time>
   <energy>
    <i name="e_fr_energy">   -104.29053282 </i>
    <i name="e_wo_entrp">   -104.29053282 </i>
    <i name="e_0_energy">   -104.29053282 </i>
   </energy>
  </scstep>
  <scstep>
   <time name="dav">    0.48    0.48</time>
   <time name="total">    0.73    0.73</time>
   <energy>
    <i name="alphaZ">    217.72774412 </i>
    <i name="ewald">  -3339.15551492 </i>
    <i name="hartreedc">   -578.81600783 </i>
    <i name="XCdc">   -488.76443524 </i>
    <i name="pawpsdc">   5440.75396082 </i>
    <i name="pawaedc">  -4766.24129342 </i>
    <i name="eentropy">     -0.00000000 </i>
    <i name="bandstr">   -329.85117420 </i>
    <i name="atom">   3740.05621236 </i>
    <i name="e_fr_energy">   -104.29050831 </i>
    <i name="e_wo_entrp">   -104.29050831 </i>
    <i name="e_0_energy">   -104.29050831 </i>
   </energy>
  </scstep>
  <structure>
   <crystal>
    <varray name="basis" >
     <v>      -0.00046078      -3.89223338       0.00028125 </v>
     <v>     -10.65657949      -1.94738160       0.00891933 </v>
     <v>      -3.29691255      -1.94569382     -11.28359812 </v>
    </varray>
    <i name="volume">    468.12824023 </i>
    <varray name="rec_basis" >
     <v>       0.04697607      -0.25692525       0.03057729 </v>
     <v>      -0.09381819       0.00001309       0.02741013 </v>
     <v>      -0.00007299      -0.00000639      -0.08860178 </v>
    </varray>
   </crystal>
   <varray name="positions" >
    <v>       0.74476942       0.33380881       0.17357413 </v>
    <v>       0.25512413       0.66620106       0.82645022 </v>
    <v>       0.50000180       0.00001253       0.99998655 </v>
    <v>       0.50001322       0.49998041       0.50000122 </v>
    <v>       0.83544641       0.93908688       0.38969025 </v>
    <v>       0.16455041       0.06092517       0.61032137 </v>
    <v>       0.02195395       0.73021088       0.22533498 </v>
    <v>       0.97806003       0.26978571       0.77465054 </v>
    <v>       0.92345699       0.99917415       0.15413981 </v>
    <v>       0.07656791       0.00080046       0.84584932 </v>
    <v>       0.60233098       0.72760042       0.06752299 </v>
    <v>       0.39772251       0.27242672       0.93245310 </v>
    <v>       0.42556846       0.75728371       0.39132677 </v>
    <v>       0.57446095       0.24269584       0.60867015 </v>
    <v>       0.25469784       0.11451684       0.37528873 </v>
    <v>       0.74527189       0.88550750       0.62474337 </v>
    <v>       0.08846121       0.47929289       0.34364476 </v>
    <v>       0.91154389       0.52068803       0.65635176 </v>
   </varray>
  </structure>
  <varray name="forces" >
   <v>       0.05239809      -0.00843999      -0.06447461 </v>
   <v>      -0.05324080       0.00631953       0.06653577 </v>
   <v>      -0.00026366      -0.00134029       0.00003953 </v>
   <v>      -0.00165238      -0.00066075       0.00199497 </v>
   <v>      -0.76612541       0.00051502      -0.52651482 </v>
   <v>       0.76646050      -0.00248711       0.52853185 </v>
   <v>       0.41706620      -0.00159154       0.37718165 </v>
   <v>      -0.41822298      -0.00076840      -0.37596170 </v>
   <v>       0.07575499      -0.02249417      -0.00340816 </v>
   <v>      -0.07663714       0.02019852       0.00494775 </v>
   <v>      -0.12515657      -0.03283154      -0.12654243 </v>
   <v>       0.12840397       0.04066281       0.11963989 </v>
   <v>      -0.03366814       0.00297391       0.15647788 </v>
   <v>       0.02183470       0.00108502      -0.16535297 </v>
   <v>       0.02899146      -0.02794844      -0.07178264 </v>
   <v>      -0.01556249       0.02891792       0.07617453 </v>
   <v>      -0.09284526      -0.01540241      -0.10967898 </v>
   <v>       0.09246492       0.01329192       0.11219251 </v>
  </varray>
  <varray name="stress" >
   <v>       4.24769143      -0.02842960       0.97821737 </v>
   <v>      -0.02843016      -0.94255297      -0.15583938 </v>
   <v>       0.97835363      -0.15583897      -1.31104960 </v>
  </varray>
  <energy>
   <i name="e_fr_energy">   -104.29050831 </i>
   <i name="e_wo_entrp">   -104.29050831 </i>
   <i name="e_0_energy">     -0.00000000 </i>
  </energy>
  <time name="totalsc">    5.17    5.35</time>
 </calculation>
 <calculation>
  <scstep>
   <time name="dav">    0.46    0.47</time>
   <time name="total">    0.73    0.77</time>
   <energy>
    <i name="alphaZ">    216.80872104 </i>
    <i name="ewald">  -3332.81077548 </i>
    <i name="hartreedc">   -579.34552190 </i>
    <i name="XCdc">   -488.93529701 </i>
    <i name="pawpsdc">   5441.63119660 </i>
    <i name="pawaedc">  -4767.11656084 </i>
    <i name="eentropy">     -0.00000000 </i>
    <i name="bandstr">   -334.66520349 </i>
    <i name="atom">   3740.05621236 </i>
    <i name="e_fr_energy">   -104.37722873 </i>
    <i name="e_wo_entrp">   -104.37722873 </i>
    <i name="e_0_energy">   -104.37722873 </i>
   </energy>
  </scstep>
  <scstep>
   <time name="dav">    0.56    0.56</time>
   <time name="total">    0.82    0.82</time>
   <energy>
    <i name="e_fr_energy">   -104.37676155 </i>
    <i name="e_wo_entrp">   -104.37676155 </i>
    <i name="e_0_energy">   -104.37676155 </i>
   </energy>
  </scstep>
  <scstep>
   <time name="dav">    0.58    0.58</time>
   <time name="total">    0.84    0.84</time>
   <energy>
    <i name="e_fr_energy">   -104.37240684 </i>
    <i name="e_wo_entrp">   -104.37240684 </i>
    <i name="e_0_energy">   -104.37240684 </i>
   </energy>
  </scstep>
  <scstep>
   <time name="dav">    0.55    0.55</time>
   <time name="total">    0.81    0.81</time>
   <energy>
    <i name="e_fr_energy">   -104.37039203 </i>
    <i name="e_wo_entrp">   -104.37039203 </i>
    <i name="e_0_energy">   -104.37039203 </i>
   </energy>
  </scstep>
  <scstep>
   <time name="dav">    0.55    0.55</time>
   <time name="total">    0.81    0.81</time>
   <energy>
    <i name="e_fr_energy">   -104.37018766 </i>
    <i name="e_wo_entrp">   -104.37018766 </i>
    <i name="e_0_energy">   -104.37018766 </i>
   </energy>
  </scstep>
  <scstep>
   <time name="dav">    0.38    0.38</time>
   <time name="total">    0.64    0.64</time>
   <energy>
    <i name="alphaZ">    216.80872104 </i>
    <i name="ewald">  -3332.81077548 </i>
    <i name="hartreedc">   -582.33419721 </i>
    <i name="XCdc">   -488.81594685 </i>
    <i name="pawpsdc">   5436.83577724 </i>
    <i name="pawaedc">  -4762.30178885 </i>
    <i name="eentropy">     -0.00000000 </i>
    <i name="bandstr">   -331.80815289 </i>
    <i name="atom">   3740.05621236 </i>
    <i name="e_fr_energy">   -104.37015065 </i>
    <i name="e_wo_entrp">   -104.37015065 </i>
    <i name="e_0_energy">   -104.37015065 </i>
   </energy>
  </scstep>
  <structure>
   <crystal>
    <varray name="basis" >
     <v>      -0.00024547      -3.89302615       0.00124686 </v>
     <v>     -10.70012534      -1.94718643       0.00054465 </v>
     <v>      -3.31969163      -1.94310586     -11.28515835 </v>
    </varray>
    <i name="volume">    470.11257303 </i>
    <varray name="rec_basis" >
     <v>       0.04674490      -0.25686277       0.03047657 </v>
     <v>      -0.09345812       0.00001470       0.02748952 </v>
     <v>       0.00000065      -0.00002838      -0.08860727 </v>
    </varray>
   </crystal>
   <varray name="positions" >
    <v>       0.74485894       0.33355186       0.17379010 </v>
    <v>       0.25503354       0.66645757       0.82623410 </v>
    <v>       0.50000097       0.00001262       0.99998797 </v>
    <v>       0.50001012       0.49998365       0.50000031 </v>
    <v>       0.83310664       0.94167470       0.39180653 </v>
    <v>       0.16689055       0.05833183       0.60820444 </v>
    <v>       0.02332655       0.72891649       0.22386925 </v>
    <v>       0.97668625       0.27108027       0.77611953 </v>
    <v>       0.92390653       0.99899808       0.15406116 </v>
    <v>       0.07611817       0.00097552       0.84592944 </v>
    <v>       0.60225322       0.72787715       0.06798132 </v>
    <v>       0.39780865       0.27215551       0.93198963 </v>
    <v>       0.42572635       0.75744262       0.39079592 </v>
    <v>       0.57430588       0.24253532       0.60920085 </v>
    <v>       0.25502684       0.11422330       0.37554323 </v>
    <v>       0.74493753       0.88580239       0.62449116 </v>
    <v>       0.08842717       0.47944645       0.34404102 </v>
    <v>       0.91157811       0.52053268       0.65595405 </v>
   </varray>
  </structure>
  <varray name="forces" >
   <v>       0.04501130      -0.00662322      -0.06076493 </v>
   <v>      -0.04687852       0.00754862       0.06012929 </v>
   <v>      -0.00072387       0.00009773      -0.00117595 </v>
   <v>      -0.00125298       0.00074979      -0.00015132 </v>
   <v>      -0.25117157       0.00252938      -0.16975559 </v>
   <v>       0.24951853      -0.00108965       0.16881233 </v>
   <v>       0.17565876      -0.00764000       0.14906480 </v>
   <v>      -0.17736833       0.00853524      -0.14963279 </v>
   <v>       0.07883599       0.01277069      -0.07726078 </v>
   <v>      -0.08080606      -0.01173080       0.07625528 </v>
   <v>      -0.07435238      -0.01344566      -0.00041999 </v>
   <v>       0.07057778       0.01339269       0.00161577 </v>
   <v>      -0.10351093       0.01551726       0.17213057 </v>
   <v>       0.10182604      -0.01469492      -0.17236601 </v>
   <v>      -0.06222356      -0.02980049       0.01900379 </v>
   <v>       0.07837299       0.02263695      -0.01571503 </v>
   <v>      -0.06183466      -0.00745178      -0.08081080 </v>
   <v>       0.06032145       0.00869817       0.08104136 </v>
  </varray>
  <varray name="stress" >
   <v>      -0.50603416       0.16238586      -0.12202964 </v>
   <v>       0.16238619      -0.71422252       0.24216267 </v>
   <v>      -0.12189478       0.24216250      -1.46849330 </v>
  </varray>
  <energy>
   <i name="e_fr_energy">   -104.37015065 </i>
   <i name="e_wo_entrp">   -104.37015065 </i>
   <i name="e_0_energy">     -0.00000000 </i>
  </energy>
  <time name="totalsc">    5.62    5.77</time>
 </calculation>
 <calculation>
  <scstep>
   <time name="dav">    0.60    0.61</time>
   <time name="total">    0.87    0.98</time>
   <energy>
    <i name="alphaZ">    214.99399527 </i>
    <i name="ewald">  -3319.32737420 </i>
    <i name="hartreedc">   -583.78255419 </i>
    <i name="XCdc">   -489.16060165 </i>
    <i name="pawpsdc">   5439.04527376 </i>
    <i name="pawaedc">  -4764.50830208 </i>
    <i name="eentropy">     -0.00000000 </i>
    <i name="bandstr">   -341.64210863 </i>
    <i name="atom">   3740.05621236 </i>
    <i name="e_fr_energy">   -104.32545936 </i>
    <i name="e_wo_entrp">   -104.32545936 </i>
    <i name="e_0_energy">   -104.32545936 </i>
   </energy>
  </scstep>
  <scstep>
   <time name="dav">    0.84    0.85</time>
   <time name="total">    1.10    1.11</time>
   <energy>
    <i name="e_fr_energy">   -104.32543965 </i>
    <i name="e_wo_entrp">   -104.32543965 </i>
    <i name="e_0_energy">   -104.32543965 </i>
   </energy>
  </scstep>
  <scstep>
   <time name="dav">    0.85    0.85</time>
   <time name="total">    1.11    1.12</time>
   <energy>
    <i name="e_fr_energy">   -104.30763790 </i>
    <i name="e_wo_entrp">   -104.30763790 </i>
    <i name="e_0_energy">   -104.30763790 </i>
   </energy>
  </scstep>
  <scstep>
   <time name="dav">    0.68    0.68</time>
   <time name="total">    0.94    0.94</time>
   <energy>
    <i name="e_fr_energy">   -104.30002874 </i>
    <i name="e_wo_entrp">   -104.30002874 </i>
    <i name="e_0_energy">   -104.30002874 </i>
   </energy>
  </scstep>
  <scstep>
   <time name="dav">    0.76    0.76</time>
   <time name="total">    1.02    1.02</time>
   <energy>
    <i name="e_fr_energy">   -104.29912705 </i>
    <i name="e_wo_entrp">   -104.29912705 </i>
    <i name="e_0_energy">   -104.29912705 </i>
   </energy>
  </scstep>
  <scstep>
   <time name="dav">    0.46    0.46</time>
   <time name="total">    0.73    0.73</time>
   <energy>
    <i name="e_fr_energy">   -104.29898158 </i>
    <i name="e_wo_entrp">   -104.29898158 </i>
    <i name="e_0_energy">   -104.29898158 </i>
   </energy>
  </scstep>
  <scstep>
   <time name="dav">    0.58    0.58</time>
   <time name="total">    0.83    0.83</time>
   <energy>
    <i name="alphaZ">    214.99399527 </i>
    <i name="ewald">  -3319.32737420 </i>
    <i name="hartreedc">   -589.66391653 </i>
    <i name="XCdc">   -488.93101895 </i>
    <i name="pawpsdc">   5438.93491637 </i>
    <i name="pawaedc">  -4764.38355692 </i>
    <i name="eentropy">     -0.00000000 </i>
    <i name="bandstr">   -335.97823152 </i>
    <i name="atom">   3740.05621236 </i>
    <i name="e_fr_energy">   -104.29897412 </i>
    <i name="e_wo_entrp">   -104.29897412 </i>
    <i name="e_0_energy">   -104.29897412 </i>
   </energy>
  </scstep>
  <structure>
   <crystal>
    <varray name="basis" >
     <v>       0.00018513      -3.89461170       0.00317808 </v>
     <v>     -10.78721704      -1.94679608      -0.01620471 </v>
     <v>      -3.36524979      -1.93792993     -11.28827880 </v>
    </varray>
    <i name="volume">    474.08070899 </i>
    <varray name="rec_basis" >
     <v>       0.04628869      -0.25673810       0.03027631 </v>
     <v>      -0.09274712       0.00001815       0.02764656 </v>
     <v>       0.00014617      -0.00007231      -0.08861863 </v>
    </varray>
   </crystal>
   <varray name="positions" >
    <v>       0.74503750       0.33303903       0.17422238 </v>
    <v>       0.25485284       0.66696952       0.82580152 </v>
    <v>       0.49999930       0.00001279       0.99999081 </v>
    <v>       0.50000394       0.49999009       0.49999849 </v>
    <v>       0.82844788       0.94682167       0.39603427 </v>
    <v>       0.17155002       0.05317386       0.60397541 </v>
    <v>       0.02605982       0.72634374       0.22094036 </v>
    <v>       0.97395063       0.27365333       0.77905493 </v>
    <v>       0.92480428       0.99864762       0.15390422 </v>
    <v>       0.07522000       0.00132396       0.84608932 </v>
    <v>       0.60210065       0.72842658       0.06889745 </v>
    <v>       0.39797798       0.27161710       0.93106324 </v>
    <v>       0.42604091       0.75776145       0.38973417 </v>
    <v>       0.57399696       0.24221331       0.61026229 </v>
    <v>       0.25568421       0.11363742       0.37605267 </v>
    <v>       0.74426947       0.88639095       0.62398632 </v>
    <v>       0.08836122       0.47975073       0.34483318 </v>
    <v>       0.91164439       0.52022484       0.65515899 </v>
   </varray>
  </structure>
  <varray name="forces" >
   <v>       0.03032369      -0.00626955      -0.05003853 </v>
   <v>      -0.03006321       0.00655757       0.04989010 </v>
   <v>       0.00016801       0.00002483       0.00016383 </v>
   <v>       0.00060619       0.00023646      -0.00027746 </v>
   <v>       0.73121848      -0.00687475       0.56867363 </v>
   <v>      -0.73244953       0.00744805      -0.57033896 </v>
   <v>      -0.24062410      -0.02415521      -0.29259998 </v>
   <v>       0.24188832       0.02373996       0.29353684 </v>
   <v>       0.12185260      -0.00014729      -0.19305339 </v>
   <v>      -0.12184662       0.00019716       0.19200969 </v>
   <v>       0.03226723      -0.00281821       0.24178548 </v>
   <v>      -0.03493631       0.00149772      -0.24032033 </v>
   <v>      -0.19363410       0.03285343       0.14668162 </v>
   <v>       0.19395606      -0.03312051      -0.14651163 </v>
   <v>      -0.27785387       0.01938455       0.26947916 </v>
   <v>       0.27865697      -0.01885367      -0.26993184 </v>
   <v>      -0.01701814       0.00884072       0.00233911 </v>
   <v>       0.01748832      -0.00854128      -0.00148732 </v>
  </varray>
  <varray name="stress" >
   <v>      -7.91546598       0.04830771      -2.28278420 </v>
   <v>       0.04830847       2.58561626       0.77945097 </v>
   <v>      -2.28265306       0.77944909       0.95753850 </v>
  </varray>
  <energy>
   <i name="e_fr_energy">   -104.29897412 </i>
   <i name="e_wo_entrp">   -104.29897412 </i>
   <i name="e_0_energy">     -0.00000000 </i>
  </energy>
  <time name="totalsc">    7.74    7.97</time>
 </calculation>
 <calculation>
  <scstep>
   <time name="dav">    0.55    0.55</time>
   <time name="total">    0.82    0.85</time>
   <energy>
    <i name="alphaZ">    216.32050883 </i>
    <i name="ewald">  -3329.30147717 </i>
    <i name="hartreedc">   -588.59385171 </i>
    <i name="XCdc">   -488.67534538 </i>
    <i name="pawpsdc">   5440.25756931 </i>
    <i name="pawaedc">  -4765.70567044 </i>
    <i name="eentropy">     -0.00000000 </i>
    <i name="bandstr">   -328.75297440 </i>
    <i name="atom">   3740.05621236 </i>
    <i name="e_fr_energy">   -104.39502861 </i>
    <i name="e_wo_entrp">   -104.39502861 </i>
    <i name="e_0_energy">   -104.39502861 </i>
   </energy>
  </scstep>
  <scstep>
   <time name="dav">    0.83    0.83</time>
   <time name="total">    1.10    1.10</time>
   <energy>
    <i name="e_fr_energy">   -104.39468113 </i>
    <i name="e_wo_entrp">   -104.39468113 </i>
    <i name="e_0_energy">   -104.39468113 </i>
   </energy>
  </scstep>
  <scstep>
   <time name="dav">    0.68    0.68</time>
   <time name="total">    0.94    0.94</time>
   <energy>
    <i name="e_fr_energy">   -104.38479636 </i>
    <i name="e_wo_entrp">   -104.38479636 </i>
    <i name="e_0_energy">   -104.38479636 </i>
   </energy>
  </scstep>
  <scstep>
   <time name="dav">    0.69    0.69</time>
   <time name="total">    0.94    0.94</time>
   <energy>
    <i name="e_fr_energy">   -104.38128198 </i>
    <i name="e_wo_entrp">   -104.38128198 </i>
    <i name="e_0_energy">   -104.38128198 </i>
   </energy>
  </scstep>
  <scstep>
   <time name="dav">    0.73    0.73</time>
   <time name="total">    0.99    0.99</time>
   <energy>
    <i name="e_fr_energy">   -104.38093542 </i>
    <i name="e_wo_entrp">   -104.38093542 </i>
    <i name="e_0_energy">   -104.38093542 </i>
   </energy>
  </scstep>
  <scstep>
   <time name="dav">    0.54    0.54</time>
   <time name="total">    0.79    0.79</time>
   <energy>
    <i name="alphaZ">    216.32050883 </i>
    <i name="ewald">  -3329.30147717 </i>
    <i name="hartreedc">   -584.16052834 </i>
    <i name="XCdc">   -488.83911737 </i>
    <i name="pawpsdc">   5441.91359043 </i>
    <i name="pawaedc">  -4767.36974015 </i>
    <i name="eentropy">     -0.00000000 </i>
    <i name="bandstr">   -333.00032024 </i>
    <i name="atom">   3740.05621236 </i>
    <i name="e_fr_energy">   -104.38087165 </i>
    <i name="e_wo_entrp">   -104.38087165 </i>
    <i name="e_0_energy">   -104.38087165 </i>
   </energy>
  </scstep>
  <structure>
   <crystal>
    <varray name="basis" >
     <v>      -0.00013035      -3.89345007       0.00176319 </v>
     <v>     -10.72341025      -1.94708206      -0.00393347 </v>
     <v>      -3.33187210      -1.94172202     -11.28599264 </v>
    </varray>
    <i name="volume">    471.17356674 </i>
    <varray name="rec_basis" >
     <v>       0.04662213      -0.25682940       0.03042287 </v>
     <v>      -0.09326685       0.00001559       0.02753173 </v>
     <v>       0.00003979      -0.00004013      -0.08861025 </v>
    </varray>
   </crystal>
   <varray name="positions" >
    <v>       0.74490737       0.33341320       0.17390518 </v>
    <v>       0.25498455       0.66659599       0.82611893 </v>
    <v>       0.50000051       0.00001267       0.99998873 </v>
[...]
        <r>  0.0003  0.0588  0.0004 </r>
        <r>  0.0002  0.0559  0.0003 </r>
        <r>  0.0002  0.0557  0.0003 </r>
       </set>
       <set comment="band 34">
        <r>  0.0018  0.0013  0.0011 </r>
        <r>  0.0018  0.0013  0.0011 </r>
        <r>  0.0007  0.0029  0.0083 </r>
        <r>  0.0000  0.0016  0.0485 </r>
        <r>  0.0028  0.0147  0.0467 </r>
        <r>  0.0027  0.0147  0.0465 </r>
        <r>  0.0003  0.0019  0.0316 </r>
        <r>  0.0003  0.0018  0.0314 </r>
        <r>  0.0004  0.0339  0.0002 </r>
        <r>  0.0004  0.0337  0.0002 </r>
        <r>  0.0000  0.0289  0.0002 </r>
        <r>  0.0000  0.0291  0.0002 </r>
        <r>  0.0002  0.0068  0.0003 </r>
        <r>  0.0002  0.0070  0.0003 </r>
        <r>  0.0008  0.1024  0.0007 </r>
        <r>  0.0008  0.1023  0.0007 </r>
        <r>  0.0001  0.0388  0.0003 </r>
        <r>  0.0001  0.0394  0.0003 </r>
       </set>
       <set comment="band 35">
        <r>  0.0002  0.0025  0.0004 </r>
        <r>  0.0003  0.0025  0.0004 </r>
        <r>  0.0014  0.0244  0.0062 </r>
        <r>  0.0001  0.0042  0.0239 </r>
        <r>  0.0022  0.0008  0.0079 </r>
        <r>  0.0023  0.0009  0.0080 </r>
        <r>  0.0029  0.0125  0.0522 </r>
        <r>  0.0029  0.0125  0.0526 </r>
        <r>  0.0003  0.0400  0.0004 </r>
        <r>  0.0003  0.0407  0.0004 </r>
        <r>  0.0002  0.1137  0.0007 </r>
        <r>  0.0002  0.1141  0.0007 </r>
        <r>  0.0005  0.0248  0.0002 </r>
        <r>  0.0005  0.0243  0.0002 </r>
        <r>  0.0003  0.0123  0.0001 </r>
        <r>  0.0003  0.0129  0.0001 </r>
        <r>  0.0000  0.0267  0.0001 </r>
        <r>  0.0000  0.0265  0.0001 </r>
       </set>
       <set comment="band 36">
        <r>  0.0000  0.0013  0.0009 </r>
        <r>  0.0000  0.0013  0.0009 </r>
        <r>  0.0000  0.0093  0.0205 </r>
        <r>  0.0001  0.0035  0.1570 </r>
        <r>  0.0024  0.0053  0.0093 </r>
        <r>  0.0024  0.0053  0.0091 </r>
        <r>  0.0005  0.0017  0.0153 </r>
        <r>  0.0005  0.0017  0.0153 </r>
        <r>  0.0001  0.0319  0.0002 </r>
        <r>  0.0001  0.0318  0.0002 </r>
        <r>  0.0002  0.0175  0.0001 </r>
        <r>  0.0002  0.0174  0.0001 </r>
        <r>  0.0003  0.0152  0.0003 </r>
        <r>  0.0003  0.0154  0.0003 </r>
        <r>  0.0005  0.0243  0.0001 </r>
        <r>  0.0005  0.0238  0.0001 </r>
        <r>  0.0002  0.1199  0.0009 </r>
        <r>  0.0002  0.1218  0.0009 </r>
       </set>
       <set comment="band 37">
        <r>  0.0003  0.0031  0.0012 </r>
        <r>  0.0002  0.0032  0.0012 </r>
        <r>  0.0013  0.0152  0.0220 </r>
        <r>  0.0002  0.0022  0.0054 </r>
        <r>  0.0003  0.0048  0.0350 </r>
        <r>  0.0003  0.0049  0.0350 </r>
        <r>  0.0000  0.0116  0.0334 </r>
        <r>  0.0000  0.0118  0.0334 </r>
        <r>  0.0003  0.0474  0.0004 </r>
        <r>  0.0003  0.0475  0.0004 </r>
        <r>  0.0001  0.0631  0.0003 </r>
        <r>  0.0001  0.0633  0.0003 </r>
        <r>  0.0004  0.0168  0.0004 </r>
        <r>  0.0004  0.0169  0.0004 </r>
        <r>  0.0002  0.0547  0.0004 </r>
        <r>  0.0002  0.0551  0.0004 </r>
        <r>  0.0002  0.0350  0.0002 </r>
        <r>  0.0002  0.0350  0.0002 </r>
       </set>
       <set comment="band 38">
        <r>  0.0013  0.0028  0.0011 </r>
        <r>  0.0013  0.0028  0.0011 </r>
        <r>  0.0001  0.0080  0.0038 </r>
        <r>  0.0013  0.0136  0.0555 </r>
        <r>  0.0009  0.0128  0.0131 </r>
        <r>  0.0009  0.0128  0.0130 </r>
        <r>  0.0024  0.0061  0.0209 </r>
        <r>  0.0024  0.0062  0.0210 </r>
        <r>  0.0001  0.0246  0.0002 </r>
        <r>  0.0001  0.0243  0.0002 </r>
        <r>  0.0003  0.0371  0.0001 </r>
        <r>  0.0003  0.0377  0.0001 </r>
        <r>  0.0000  0.0300  0.0004 </r>
        <r>  0.0000  0.0298  0.0004 </r>
        <r>  0.0006  0.0537  0.0002 </r>
        <r>  0.0006  0.0538  0.0002 </r>
        <r>  0.0004  0.0787  0.0004 </r>
        <r>  0.0004  0.0783  0.0004 </r>
       </set>
       <set comment="band 39">
        <r>  0.0014  0.0007  0.0009 </r>
        <r>  0.0014  0.0007  0.0009 </r>
        <r>  0.0021  0.0049  0.0293 </r>
        <r>  0.0011  0.0055  0.0026 </r>
        <r>  0.0008  0.0027  0.0105 </r>
        <r>  0.0008  0.0027  0.0105 </r>
        <r>  0.0039  0.0235  0.0301 </r>
        <r>  0.0038  0.0231  0.0301 </r>
        <r>  0.0014  0.0220  0.0004 </r>
        <r>  0.0013  0.0224  0.0004 </r>
        <r>  0.0003  0.1419  0.0007 </r>
        <r>  0.0003  0.1403  0.0007 </r>
        <r>  0.0003  0.0353  0.0002 </r>
        <r>  0.0003  0.0350  0.0002 </r>
        <r>  0.0001  0.0123  0.0001 </r>
        <r>  0.0001  0.0121  0.0001 </r>
        <r>  0.0002  0.0161  0.0001 </r>
        <r>  0.0002  0.0155  0.0001 </r>
       </set>
       <set comment="band 40">
        <r>  0.0022  0.0008  0.0007 </r>
        <r>  0.0022  0.0008  0.0007 </r>
        <r>  0.0063  0.0030  0.0220 </r>
        <r>  0.0037  0.0099  0.0100 </r>
        <r>  0.0022  0.0045  0.0146 </r>
        <r>  0.0022  0.0045  0.0145 </r>
        <r>  0.0090  0.0091  0.0061 </r>
        <r>  0.0090  0.0090  0.0061 </r>
        <r>  0.0026  0.0360  0.0004 </r>
        <r>  0.0026  0.0363  0.0004 </r>
        <r>  0.0022  0.0399  0.0001 </r>
        <r>  0.0022  0.0397  0.0001 </r>
        <r>  0.0022  0.0599  0.0002 </r>
        <r>  0.0022  0.0602  0.0002 </r>
        <r>  0.0008  0.0474  0.0002 </r>
        <r>  0.0007  0.0476  0.0002 </r>
        <r>  0.0016  0.0492  0.0002 </r>
        <r>  0.0016  0.0489  0.0002 </r>
       </set>
       <set comment="band 41">
        <r>  0.0008  0.0012  0.0016 </r>
        <r>  0.0008  0.0012  0.0016 </r>
        <r>  0.0001  0.0008  0.0254 </r>
        <r>  0.0006  0.0167  0.0135 </r>
        <r>  0.0013  0.0121  0.0203 </r>
        <r>  0.0014  0.0122  0.0203 </r>
        <r>  0.0002  0.0083  0.0178 </r>
        <r>  0.0002  0.0083  0.0177 </r>
        <r>  0.0004  0.0237  0.0003 </r>
        <r>  0.0004  0.0238  0.0003 </r>
        <r>  0.0003  0.0391  0.0002 </r>
        <r>  0.0003  0.0394  0.0002 </r>
        <r>  0.0001  0.0276  0.0002 </r>
        <r>  0.0001  0.0277  0.0002 </r>
        <r>  0.0003  0.0796  0.0004 </r>
        <r>  0.0003  0.0799  0.0004 </r>
        <r>  0.0005  0.0659  0.0002 </r>
        <r>  0.0005  0.0659  0.0002 </r>
       </set>
       <set comment="band 42">
        <r>  0.0004  0.0016  0.0008 </r>
        <r>  0.0004  0.0016  0.0008 </r>
        <r>  0.0016  0.0033  0.0098 </r>
        <r>  0.0177  0.0213  0.0094 </r>
        <r>  0.0003  0.0039  0.0101 </r>
        <r>  0.0003  0.0038  0.0101 </r>
        <r>  0.0018  0.0064  0.0242 </r>
        <r>  0.0018  0.0064  0.0241 </r>
        <r>  0.0004  0.0496  0.0003 </r>
        <r>  0.0004  0.0496  0.0003 </r>
        <r>  0.0008  0.0410  0.0002 </r>
        <r>  0.0008  0.0413  0.0002 </r>
        <r>  0.0009  0.0315  0.0006 </r>
        <r>  0.0009  0.0318  0.0005 </r>
        <r>  0.0000  0.0233  0.0002 </r>
        <r>  0.0000  0.0230  0.0002 </r>
        <r>  0.0021  0.0880  0.0003 </r>
        <r>  0.0021  0.0871  0.0003 </r>
       </set>
       <set comment="band 43">
        <r>  0.0012  0.0016  0.0011 </r>
        <r>  0.0012  0.0016  0.0011 </r>
        <r>  0.0005  0.0129  0.0200 </r>
        <r>  0.0000  0.0074  0.0070 </r>
        <r>  0.0023  0.0087  0.0228 </r>
        <r>  0.0023  0.0087  0.0229 </r>
        <r>  0.0003  0.0086  0.0143 </r>
        <r>  0.0003  0.0086  0.0144 </r>
        <r>  0.0006  0.0734  0.0003 </r>
        <r>  0.0006  0.0738  0.0003 </r>
        <r>  0.0001  0.0507  0.0003 </r>
        <r>  0.0001  0.0507  0.0003 </r>
        <r>  0.0002  0.0314  0.0002 </r>
        <r>  0.0002  0.0313  0.0002 </r>
        <r>  0.0008  0.0380  0.0005 </r>
        <r>  0.0008  0.0380  0.0005 </r>
        <r>  0.0002  0.0531  0.0002 </r>
        <r>  0.0002  0.0533  0.0002 </r>
       </set>
       <set comment="band 44">
        <r>  0.0002  0.0010  0.0008 </r>
        <r>  0.0002  0.0010  0.0008 </r>
        <r>  0.0000  0.0025  0.0100 </r>
        <r>  0.0000  0.0315  0.0490 </r>
        <r>  0.0007  0.0058  0.0065 </r>
        <r>  0.0007  0.0057  0.0065 </r>
        <r>  0.0004  0.0037  0.0191 </r>
        <r>  0.0004  0.0037  0.0192 </r>
        <r>  0.0002  0.0273  0.0002 </r>
        <r>  0.0002  0.0275  0.0003 </r>
        <r>  0.0001  0.0348  0.0001 </r>
        <r>  0.0001  0.0347  0.0001 </r>
        <r>  0.0001  0.0417  0.0008 </r>
        <r>  0.0001  0.0415  0.0007 </r>
        <r>  0.0004  0.0126  0.0000 </r>
        <r>  0.0004  0.0129  0.0000 </r>
        <r>  0.0002  0.1306  0.0006 </r>
        <r>  0.0002  0.1296  0.0007 </r>
       </set>
       <set comment="band 45">
        <r>  0.0003  0.0015  0.0008 </r>
        <r>  0.0003  0.0015  0.0007 </r>
        <r>  0.0003  0.0225  0.0241 </r>
        <r>  0.0000  0.0059  0.0060 </r>
        <r>  0.0001  0.0070  0.0119 </r>
        <r>  0.0001  0.0071  0.0119 </r>
        <r>  0.0003  0.0105  0.0152 </r>
        <r>  0.0002  0.0105  0.0152 </r>
        <r>  0.0002  0.0828  0.0006 </r>
        <r>  0.0002  0.0830  0.0005 </r>
        <r>  0.0001  0.0397  0.0003 </r>
        <r>  0.0001  0.0397  0.0003 </r>
        <r>  0.0000  0.0599  0.0002 </r>
        <r>  0.0000  0.0601  0.0002 </r>
        <r>  0.0001  0.0513  0.0002 </r>
        <r>  0.0001  0.0513  0.0002 </r>
        <r>  0.0002  0.0289  0.0002 </r>
        <r>  0.0002  0.0289  0.0002 </r>
       </set>
       <set comment="band 46">
        <r>  0.0002  0.0039  0.0013 </r>
        <r>  0.0002  0.0039  0.0013 </r>
        <r>  0.0003  0.0014  0.0069 </r>
        <r>  0.0002  0.0086  0.0090 </r>
        <r>  0.0005  0.0098  0.0155 </r>
        <r>  0.0005  0.0097  0.0153 </r>
        <r>  0.0006  0.0086  0.0034 </r>
        <r>  0.0006  0.0086  0.0034 </r>
        <r>  0.0002  0.0260  0.0002 </r>
        <r>  0.0002  0.0258  0.0002 </r>
        <r>  0.0000  0.0323  0.0001 </r>
        <r>  0.0000  0.0323  0.0001 </r>
        <r>  0.0005  0.0772  0.0003 </r>
        <r>  0.0005  0.0768  0.0003 </r>
        <r>  0.0002  0.0633  0.0003 </r>
        <r>  0.0002  0.0630  0.0003 </r>
        <r>  0.0001  0.0732  0.0001 </r>
        <r>  0.0001  0.0724  0.0001 </r>
       </set>
       <set comment="band 47">
        <r>  0.0034  0.0005  0.0017 </r>
        <r>  0.0033  0.0005  0.0017 </r>
        <r>  0.0005  0.0004  0.1352 </r>
        <r>  0.0003  0.0007  0.0197 </r>
        <r>  0.0069  0.0048  0.1178 </r>
        <r>  0.0069  0.0048  0.1196 </r>
        <r>  0.0019  0.0014  0.1169 </r>
        <r>  0.0019  0.0014  0.1187 </r>
        <r>  0.0000  0.0020  0.0035 </r>
        <r>  0.0000  0.0020  0.0035 </r>
        <r>  0.0000  0.0084  0.0018 </r>
        <r>  0.0000  0.0085  0.0018 </r>
        <r>  0.0012  0.0068  0.0044 </r>
        <r>  0.0012  0.0069  0.0044 </r>
        <r>  0.0000  0.0118  0.0023 </r>
        <r>  0.0000  0.0119  0.0023 </r>
        <r>  0.0004  0.0007  0.0003 </r>
        <r>  0.0004  0.0007  0.0003 </r>
       </set>
       <set comment="band 48">
        <r>  0.0021  0.0018  0.0004 </r>
        <r>  0.0022  0.0018  0.0004 </r>
        <r>  0.0003  0.0003  0.0292 </r>
        <r>  0.0012  0.0019  0.0387 </r>
        <r>  0.0010  0.0015  0.1286 </r>
        <r>  0.0010  0.0015  0.1275 </r>
        <r>  0.0031  0.0011  0.1683 </r>
        <r>  0.0030  0.0011  0.1664 </r>
        <r>  0.0002  0.0021  0.0009 </r>
        <r>  0.0002  0.0022  0.0009 </r>
        <r>  0.0000  0.0108  0.0023 </r>
        <r>  0.0000  0.0107  0.0023 </r>
        <r>  0.0007  0.0066  0.0053 </r>
        <r>  0.0007  0.0065  0.0052 </r>
        <r>  0.0001  0.0076  0.0014 </r>
        <r>  0.0001  0.0075  0.0014 </r>
        <r>  0.0000  0.0037  0.0009 </r>
        <r>  0.0000  0.0037  0.0009 </r>
       </set>
       <set comment="band 49">
        <r>  0.0017  0.0004  0.0011 </r>
        <r>  0.0017  0.0004  0.0011 </r>
        <r>  0.0039  0.0004  0.2019 </r>
        <r>  0.0004  0.0015  0.0482 </r>
        <r>  0.0004  0.0042  0.1883 </r>
        <r>  0.0004  0.0042  0.1899 </r>
        <r>  0.0001  0.0010  0.0537 </r>
        <r>  0.0001  0.0010  0.0544 </r>
        <r>  0.0001  0.0061  0.0048 </r>
        <r>  0.0001  0.0061  0.0048 </r>
        <r>  0.0001  0.0017  0.0010 </r>
        <r>  0.0001  0.0017  0.0010 </r>
        <r>  0.0001  0.0014  0.0021 </r>
        <r>  0.0001  0.0014  0.0021 </r>
        <r>  0.0001  0.0038  0.0031 </r>
        <r>  0.0001  0.0038  0.0032 </r>
        <r>  0.0003  0.0009  0.0007 </r>
        <r>  0.0003  0.0009  0.0007 </r>
       </set>
       <set comment="band 50">
        <r>  0.0028  0.0006  0.0022 </r>
        <r>  0.0027  0.0006  0.0022 </r>
        <r>  0.0014  0.0008  0.1771 </r>
        <r>  0.0019  0.0001  0.1134 </r>
        <r>  0.0004  0.0010  0.1042 </r>
        <r>  0.0004  0.0010  0.1049 </r>
        <r>  0.0007  0.0007  0.1248 </r>
        <r>  0.0007  0.0007  0.1268 </r>
        <r>  0.0000  0.0028  0.0027 </r>
        <r>  0.0000  0.0027  0.0027 </r>
        <r>  0.0001  0.0017  0.0020 </r>
        <r>  0.0001  0.0018  0.0020 </r>
        <r>  0.0005  0.0039  0.0019 </r>
        <r>  0.0005  0.0039  0.0019 </r>
        <r>  0.0000  0.0034  0.0017 </r>
        <r>  0.0000  0.0033  0.0017 </r>
        <r>  0.0003  0.0046  0.0019 </r>
        <r>  0.0003  0.0046  0.0019 </r>
       </set>
       <set comment="band 51">
        <r>  0.0020  0.0003  0.0005 </r>
        <r>  0.0021  0.0003  0.0005 </r>
        <r>  0.0001  0.0013  0.0826 </r>
        <r>  0.0000  0.0016  0.1075 </r>
        <r>  0.0002  0.0011  0.2361 </r>
        <r>  0.0002  0.0011  0.2353 </r>
        <r>  0.0000  0.0007  0.0639 </r>
        <r>  0.0000  0.0006  0.0630 </r>
        <r>  0.0002  0.0008  0.0026 </r>
        <r>  0.0002  0.0008  0.0026 </r>
        <r>  0.0002  0.0014  0.0008 </r>
        <r>  0.0002  0.0014  0.0008 </r>
        <r>  0.0001  0.0037  0.0016 </r>
        <r>  0.0001  0.0038  0.0016 </r>
        <r>  0.0001  0.0020  0.0036 </r>
        <r>  0.0001  0.0020  0.0036 </r>
        <r>  0.0000  0.0030  0.0013 </r>
        <r>  0.0000  0.0031  0.0013 </r>
       </set>
       <set comment="band 52">
        <r>  0.0006  0.0006  0.0010 </r>
        <r>  0.0006  0.0006  0.0010 </r>
        <r>  0.0001  0.0010  0.0075 </r>
        <r>  0.0035  0.0020  0.4805 </r>
        <r>  0.0001  0.0013  0.0167 </r>
        <r>  0.0001  0.0013  0.0167 </r>
        <r>  0.0005  0.0006  0.1157 </r>
        <r>  0.0005  0.0006  0.1212 </r>
        <r>  0.0000  0.0016  0.0003 </r>
        <r>  0.0000  0.0015  0.0003 </r>
        <r>  0.0002  0.0063  0.0015 </r>
        <r>  0.0002  0.0064  0.0016 </r>
        <r>  0.0004  0.0010  0.0009 </r>
        <r>  0.0004  0.0010  0.0010 </r>
        <r>  0.0000  0.0005  0.0002 </r>
        <r>  0.0000  0.0005  0.0002 </r>
        <r>  0.0002  0.0104  0.0061 </r>
        <r>  0.0002  0.0103  0.0062 </r>
       </set>
       <set comment="band 53">
        <r>  0.0004  0.0003  0.0005 </r>
        <r>  0.0004  0.0003  0.0005 </r>
        <r>  0.0003  0.0041  0.3296 </r>
        <r>  0.0019  0.0007  0.0278 </r>
        <r>  0.0007  0.0023  0.0192 </r>
        <r>  0.0007  0.0023  0.0182 </r>
        <r>  0.0006  0.0003  0.1857 </r>
        <r>  0.0006  0.0003  0.1786 </r>
        <r>  0.0002  0.0088  0.0040 </r>
        <r>  0.0002  0.0089  0.0040 </r>
        <r>  0.0000  0.0040  0.0026 </r>
        <r>  0.0000  0.0039  0.0025 </r>
        <r>  0.0006  0.0056  0.0016 </r>
        <r>  0.0006  0.0054  0.0015 </r>
        <r>  0.0002  0.0035  0.0003 </r>
        <r>  0.0002  0.0035  0.0003 </r>
        <r>  0.0002  0.0034  0.0008 </r>
        <r>  0.0002  0.0035  0.0008 </r>
       </set>
       <set comment="band 54">
        <r>  0.0003  0.0006  0.0002 </r>
        <r>  0.0003  0.0006  0.0002 </r>
        <r>  0.0032  0.0084  0.1480 </r>
        <r>  0.0001  0.0018  0.0772 </r>
        <r>  0.0001  0.0018  0.1840 </r>
        <r>  0.0001  0.0017  0.1843 </r>
        <r>  0.0018  0.0004  0.0794 </r>
        <r>  0.0018  0.0004  0.0813 </r>
        <r>  0.0007  0.0126  0.0027 </r>
        <r>  0.0007  0.0126  0.0028 </r>
        <r>  0.0003  0.0031  0.0011 </r>
        <r>  0.0003  0.0031  0.0012 </r>
        <r>  0.0002  0.0031  0.0014 </r>
        <r>  0.0002  0.0030  0.0014 </r>
        <r>  0.0003  0.0067  0.0026 </r>
        <r>  0.0003  0.0067  0.0026 </r>
        <r>  0.0001  0.0016  0.0009 </r>
        <r>  0.0001  0.0016  0.0009 </r>
       </set>
       <set comment="band 55">
        <r>  0.0007  0.0006  0.0016 </r>
        <r>  0.0008  0.0006  0.0016 </r>
        <r>  0.0004  0.0002  0.1384 </r>
        <r>  0.0032  0.0022  0.0111 </r>
        <r>  0.0048  0.0026  0.2304 </r>
        <r>  0.0047  0.0026  0.2299 </r>
        <r>  0.0001  0.0024  0.0658 </r>
        <r>  0.0001  0.0024  0.0651 </r>
        <r>  0.0000  0.0003  0.0016 </r>
        <r>  0.0000  0.0003  0.0016 </r>
        <r>  0.0002  0.0055  0.0014 </r>
        <r>  0.0002  0.0055  0.0014 </r>
        <r>  0.0000  0.0041  0.0022 </r>
        <r>  0.0000  0.0041  0.0022 </r>
        <r>  0.0010  0.0123  0.0033 </r>
        <r>  0.0010  0.0123  0.0033 </r>
        <r>  0.0002  0.0036  0.0002 </r>
        <r>  0.0002  0.0035  0.0001 </r>
       </set>
       <set comment="band 56">
        <r>  0.0038  0.0008  0.0003 </r>
        <r>  0.0038  0.0008  0.0003 </r>
        <r>  0.0001  0.0009  0.0607 </r>
        <r>  0.0008  0.0013  0.2496 </r>
        <r>  0.0014  0.0008  0.0732 </r>
        <r>  0.0014  0.0008  0.0736 </r>
        <r>  0.0013  0.0008  0.1583 </r>
        <r>  0.0013  0.0008  0.1582 </r>
        <r>  0.0002  0.0034  0.0013 </r>
        <r>  0.0002  0.0034  0.0013 </r>
        <r>  0.0021  0.0013  0.0013 </r>
        <r>  0.0021  0.0013  0.0013 </r>
        <r>  0.0001  0.0047  0.0020 </r>
        <r>  0.0001  0.0047  0.0020 </r>
        <r>  0.0009  0.0029  0.0009 </r>
        <r>  0.0009  0.0029  0.0009 </r>
        <r>  0.0004  0.0038  0.0017 </r>
        <r>  0.0004  0.0038  0.0017 </r>
       </set>
      </set>
     </set>
    </set>
   </array>
  </projected>
 </calculation>
 <structure name="finalpos" >
  <crystal>
   <varray name="basis" >
    <v>      -0.00135603      -3.89691653      -0.00023311 </v>
    <v>     -10.67868705      -1.95224425       0.03094479 </v>
    <v>      -3.28063224      -1.95029436     -11.30390606 </v>
   </varray>
   <i name="volume">    470.76244581 </i>
   <varray name="rec_basis" >
    <v>       0.04700532      -0.25663133       0.03063538 </v>
    <v>      -0.09357145       0.00003094       0.02715107 </v>
    <v>      -0.00025712       0.00000538      -0.08839130 </v>
   </varray>
  </crystal>
  <varray name="positions" >
   <v>       0.74740915       0.32880802       0.17780927 </v>
   <v>       0.25240737       0.67112284       0.82240394 </v>
   <v>       0.49993876       0.00002778       0.00010019 </v>
   <v>       0.50006121       0.49991195       0.49999145 </v>
   <v>       0.83395895       0.94358664       0.39199215 </v>
   <v>       0.16619242       0.05628834       0.60813218 </v>
   <v>       0.03028556       0.72567919       0.22023413 </v>
   <v>       0.96960686       0.27445524       0.77971325 </v>
   <v>       0.92708172       0.99445786       0.15510176 </v>
   <v>       0.07280907       0.00581581       0.84491443 </v>
   <v>       0.60852834       0.72793169       0.06416235 </v>
   <v>       0.39164093       0.27215839       0.93581565 </v>
   <v>       0.43115413       0.75891730       0.38527087 </v>
   <v>       0.56917012       0.24090353       0.61466428 </v>
   <v>       0.25492916       0.11635438       0.37622434 </v>
   <v>       0.74443543       0.88346033       0.62376770 </v>
   <v>       0.08742933       0.47873779       0.34553862 </v>
   <v>       0.91296349       0.52138091       0.65416346 </v>
  </varray>
 </structure>
</modeling>
