CIS                                     
           1
    -0.000215   -3.522638    0.000049
    -9.691049   -1.761904    0.009645
    -2.996305   -1.761361  -10.183357
   K    Sc   Se
   2   6  10
Direct configuration=     1
   0.74455108  0.33353700  0.17411992
   0.25534513  0.66647325  0.82590821
   0.50000113  0.00001793  0.99998361
   0.50002426  0.49997072  0.50000546
   0.83556095  0.93954560  0.38893368
   0.16443661  0.06047544  0.61108634
   0.02086149  0.73235058  0.22507608
   0.97915636  0.26764474  0.77491120
   0.92745563  0.99291975  0.15220777
   0.07256651  0.00708647  0.84776804
   0.59678182  0.73230746  0.07396941
   0.40324746  0.26768792  0.92599594
   0.42719923  0.75635984  0.38910314
   0.57283425  0.24362068  0.61089441
   0.25648594  0.10421613  0.38235747
   0.74348672  0.89580859  0.61767721
   0.08326070  0.48658975  0.34669514
   0.91674673  0.51338615  0.65330698
CIS                                     
           1
    -0.000350   -3.679840    0.000011
   -10.095839   -1.840879    0.010524
    -3.121024   -1.840188  -10.651443
   K    Sc   Se
   2   6  10
Direct configuration=     2
   0.74463408  0.33369409  0.17384813
   0.25526112  0.66631606  0.82617835
   0.50000155  0.00001555  0.99998470
   0.50001987  0.49997450  0.50000373
   0.83585330  0.93896524  0.38895608
   0.16414387  0.06105267  0.61106034
   0.02113949  0.73160130  0.22540502
   0.97887683  0.26839455  0.77458101
   0.92563517  0.99568841  0.15306921
   0.07438820  0.00430409  0.84691224
   0.59922998  0.73020471  0.07106619
   0.40080873  0.26980379  0.92890464
   0.42645974  0.75674093  0.39015924
   0.57357154  0.24323940  0.60983805
   0.25565650  0.10878070  0.37921015
   0.74431566  0.89124366  0.62082306
   0.08554807  0.48336754  0.34529513
   0.91445832  0.51661082  0.65470473
CIS                                     
           1
    -0.000475   -3.824582   -0.000024
   -10.468545   -1.913593    0.011334
    -3.235857   -1.912766  -11.082427
   K    Sc   Se
   2   6  10
Direct configuration=     3
   0.74470704  0.33383261  0.17360889
   0.25518726  0.66617744  0.82641615
   0.50000192  0.00001344  0.99998565
   0.50001599  0.49997784  0.50000220
   0.83611175  0.93845233  0.38897578
   0.16388509  0.06156280  0.61103748
   0.02138548  0.73093945  0.22569454
   0.97862950  0.26905687  0.77429039
   0.92402692  0.99813637  0.15382763
   0.07599755  0.00184400  0.84615879
   0.60139073  0.72834295  0.06851046
   0.39865627  0.27167714  0.93146519
   0.42580738  0.75707894  0.39108893
   0.57422195  0.24290121  0.60890815
   0.25491963  0.11281135  0.37643982
   0.74505208  0.88721269  0.62359209
   0.08756847  0.48051812  0.34406261
   0.91243699  0.51946242  0.65593528
CIS                                     
           1
    -0.000521   -3.878196   -0.000037
   -10.606599   -1.940528    0.011634
    -3.278393   -1.939650  -11.242068
   K    Sc   Se
   2   6  10
Direct configuration=     4
   0.74473299  0.33388201  0.17352372
   0.25516100  0.66612802  0.82650081
   0.50000205  0.00001269  0.99998599
   0.50001461  0.49997903  0.50000166
   0.83620408  0.93826912  0.38898278
   0.16379264  0.06174502  0.61102935
   0.02147344  0.73070314  0.22579760
   0.97854106  0.26929335  0.77418693
   0.92345264  0.99901113  0.15409766
   0.07657223  0.00096491  0.84589052
   0.60216170  0.72767690  0.06760057
   0.39788825  0.27234735  0.93237679
   0.42557471  0.75720005  0.39141991
   0.57445392  0.24278004  0.60857709
   0.25465526  0.11425010  0.37545363
   0.74531629  0.88577382  0.62457783
   0.08828983  0.47949976  0.34362378
   0.91171530  0.52048156  0.65637340
CIS                                     
           1
    -0.000532   -3.891488   -0.000041
   -10.640826   -1.947205    0.011708
    -3.288938   -1.946315  -11.281647
   K    Sc   Se
   2   6  10
Direct configuration=     5
   0.74473932  0.33389408  0.17350290
   0.25515458  0.66611593  0.82652150
   0.50000208  0.00001251  0.99998607
   0.50001427  0.49997933  0.50000153
   0.83622668  0.93822429  0.38898449
   0.16377001  0.06178961  0.61102736
   0.02149497  0.73064532  0.22582279
   0.97851941  0.26935121  0.77416165
   0.92331213  0.99922521  0.15416367
   0.07671283  0.00074977  0.84582495
   0.60235027  0.72751383  0.06737819
   0.39770040  0.27251143  0.93259959
   0.42551781  0.75722972  0.39150080
   0.57451066  0.24275036  0.60849618
   0.25459048  0.11460206  0.37521260
   0.74538104  0.88542183  0.62481874
   0.08846632  0.47925053  0.34351652
   0.91153873  0.52073098  0.65648048
CIS                                     
           1
    -0.000533   -3.891969   -0.000041
   -10.642064   -1.947447    0.011711
    -3.289320   -1.946556  -11.283078
   K    Sc   Se
   2   6  10
Direct configuration=     6
   0.74473955  0.33389452  0.17350215
   0.25515435  0.66611549  0.82652224
   0.50000208  0.00001250  0.99998608
   0.50001426  0.49997934  0.50000152
   0.83622749  0.93822267  0.38898455
   0.16376920  0.06179122  0.61102729
   0.02149575  0.73064324  0.22582370
   0.97851863  0.26935329  0.77416074
   0.92330707  0.99923293  0.15416604
   0.07671790  0.00074202  0.84582259
   0.60235707  0.72750795  0.06737018
   0.39769363  0.27251734  0.93260762
   0.42551576  0.75723079  0.39150371
   0.57451270  0.24274929  0.60849326
   0.25458814  0.11461475  0.37520391
   0.74538338  0.88540914  0.62482742
   0.08847268  0.47924155  0.34351266
   0.91153237  0.52073997  0.65648434
CIS                                     
           1
    -0.000461   -3.892233    0.000281
   -10.656579   -1.947382    0.008919
    -3.296913   -1.945694  -11.283598
   K    Sc   Se
   2   6  10
Direct configuration=     7
   0.74476942  0.33380881  0.17357413
   0.25512413  0.66620106  0.82645022
   0.50000180  0.00001253  0.99998655
   0.50001322  0.49998041  0.50000122
   0.83544641  0.93908688  0.38969025
   0.16455041  0.06092517  0.61032137
   0.02195395  0.73021088  0.22533498
   0.97806003  0.26978571  0.77465054
   0.92345699  0.99917415  0.15413981
   0.07656791  0.00080046  0.84584932
   0.60233098  0.72760042  0.06752299
   0.39772251  0.27242672  0.93245310
   0.42556846  0.75728371  0.39132677
   0.57446095  0.24269584  0.60867015
   0.25469784  0.11451684  0.37528873
   0.74527189  0.88550750  0.62474337
   0.08846121  0.47929289  0.34364476
   0.91154389  0.52068803  0.65635176
CIS                                     
           1
    -0.000245   -3.893026    0.001247
   -10.700125   -1.947186    0.000545
    -3.319692   -1.943106  -11.285158
   K    Sc   Se
   2   6  10
Direct configuration=     8
   0.74485894  0.33355186  0.17379010
   0.25503354  0.66645757  0.82623410
   0.50000097  0.00001262  0.99998797
   0.50001012  0.49998365  0.50000031
   0.83310664  0.94167470  0.39180653
   0.16689055  0.05833183  0.60820444
   0.02332655  0.72891649  0.22386925
   0.97668625  0.27108027  0.77611953
   0.92390653  0.99899808  0.15406116
   0.07611817  0.00097552  0.84592944
   0.60225322  0.72787715  0.06798132
   0.39780865  0.27215551  0.93198963
   0.42572635  0.75744262  0.39079592
   0.57430588  0.24253532  0.60920085
   0.25502684  0.11422330  0.37554323
   0.74493753  0.88580239  0.62449116
   0.08842717  0.47944645  0.34404102
   0.91157811  0.52053268  0.65595405
CIS                                     
           1
     0.000185   -3.894612    0.003178
   -10.787217   -1.946796   -0.016205
    -3.365250   -1.937930  -11.288279
   K    Sc   Se
   2   6  10
Direct configuration=     9
   0.74503750  0.33303903  0.17422238
   0.25485284  0.66696952  0.82580152
   0.49999930  0.00001279  0.99999081
   0.50000394  0.49999009  0.49999849
   0.82844788  0.94682167  0.39603427
   0.17155002  0.05317386  0.60397541
   0.02605982  0.72634374  0.22094036
   0.97395063  0.27365333  0.77905493
   0.92480428  0.99864762  0.15390422
   0.07522000  0.00132396  0.84608932
   0.60210065  0.72842658  0.06889745
   0.39797798  0.27161710  0.93106324
   0.42604091  0.75776145  0.38973417
   0.57399696  0.24221331  0.61026229
   0.25568421  0.11363742  0.37605267
   0.74426947  0.88639095  0.62398632
   0.08836122  0.47975073  0.34483318
   0.91164439  0.52022484  0.65515899
CIS                                     
           1
    -0.000130   -3.893450    0.001763
   -10.723410   -1.947082   -0.003933
    -3.331872   -1.941722  -11.285993
   K    Sc   Se
   2   6  10
Direct configuration=    10
   0.74490737  0.33341320  0.17390518
   0.25498455  0.66659599  0.82611893
   0.50000051  0.00001267  0.99998873
   0.50000845  0.49998540  0.49999983
   0.83183098  0.94309229  0.39294383
   0.16816644  0.05691124  0.60706678
   0.02407462  0.72820543  0.22308249
   0.97593753  0.27179143  0.77690804
   0.92414847  0.99890196  0.15401868
   0.07587611  0.00107110  0.84597270
   0.60220813  0.72802989  0.06822705
   0.39785821  0.27200575  0.93174116
   0.42581223  0.75752642  0.39051215
   0.57422153  0.24245065  0.60948454
   0.25520350  0.11406495  0.37567883
   0.74475799  0.88596149  0.62435681
   0.08840643  0.47953190  0.34425330
   0.91159896  0.52044625  0.65574098
CIS                                     
           1
    -0.000585   -3.893828    0.001339
   -10.715274   -1.948524   -0.002033
    -3.327279   -1.943529  -11.281766
   K    Sc   Se
   2   6  10
Direct configuration=    11
   0.74495864  0.33327265  0.17403376
   0.25493744  0.66673813  0.82598720
   0.50000547  0.00001240  0.99998904
   0.50000732  0.49998770  0.49999679
   0.83177728  0.94318120  0.39296406
   0.16822221  0.05682367  0.60704509
   0.02428920  0.72804191  0.22295366
   0.97573025  0.27195584  0.77703355
   0.92414555  0.99863736  0.15425522
   0.07588374  0.00133714  0.84573458
   0.60230010  0.72817837  0.06813981
   0.39772990  0.27184594  0.93185080
   0.42571216  0.75792686  0.39014106
   0.57432895  0.24205161  0.60985214
   0.25524772  0.11437535  0.37555458
   0.74471564  0.88565240  0.62447909
   0.08837889  0.47957014  0.34442012
   0.91163154  0.52040933  0.65556946
CIS                                     
           1
    -0.001950   -3.894964    0.000065
   -10.690866   -1.952851    0.003670
    -3.313498   -1.948951  -11.269085
   K    Sc   Se
   2   6  10
Direct configuration=    12
   0.74511250  0.33285083  0.17441955
   0.25479611  0.66716474  0.82559193
   0.50002033  0.00001156  0.99998998
   0.50000392  0.49999458  0.49998764
   0.83161591  0.94344815  0.39302483
   0.16838978  0.05656076  0.60697993
   0.02493361  0.72755088  0.22256693
   0.97510772  0.27244954  0.77741034
   0.92413689  0.99784323  0.15496497
   0.07590653  0.00213561  0.84502006
   0.60257583  0.72862403  0.06787806
   0.39734513  0.27136630  0.93217978
   0.42541192  0.75912869  0.38902760
   0.57465127  0.24085398  0.61095515
   0.25537993  0.11530710  0.37518187
   0.74458907  0.88472459  0.62484593
   0.08829580  0.47968510  0.34492078
   0.91172976  0.52029834  0.65505469
CIS                                     
           1
    -0.002573   -3.895482   -0.000517
   -10.679728   -1.954826    0.006273
    -3.307210   -1.951425  -11.263298
   K    Sc   Se
   2   6  10
Direct configuration=    13
   0.74518273  0.33265808  0.17459570
   0.25473159  0.66735967  0.82541145
   0.50002712  0.00001118  0.99999041
   0.50000237  0.49999773  0.49998347
   0.83154192  0.94357026  0.39305266
   0.16846660  0.05644050  0.60695009
   0.02522860  0.72732613  0.22239010
   0.97482272  0.27267550  0.77758263
   0.92413303  0.99748037  0.15528905
   0.07591683  0.00250046  0.84469381
   0.60270143  0.72882771  0.06775856
   0.39716974  0.27114711  0.93232999
   0.42527483  0.75967783  0.38851919
   0.57479844  0.24030674  0.61145877
   0.25543963  0.11573303  0.37501181
   0.74453195  0.88430045  0.62501331
   0.08825721  0.47973789  0.34514954
   0.91177526  0.52024735  0.65481948
CIS                                     
           1
    -0.001680   -3.901405   -0.001087
   -10.682995   -1.955345    0.008863
    -3.304893   -1.955280  -11.284226
   K    Sc   Se
   2   6  10
Direct configuration=    14
   0.74532953  0.33233595  0.17487357
   0.25458905  0.66768824  0.82512156
   0.50001401  0.00001366  0.99998738
   0.50000214  0.50000190  0.49997404
   0.83165890  0.94364181  0.39299375
   0.16834922  0.05637185  0.60699840
   0.02538630  0.72736810  0.22230616
   0.97464570  0.27263758  0.77767284
   0.92416926  0.99704133  0.15535422
   0.07574608  0.00297443  0.84465245
   0.60328612  0.72895670  0.06731578
   0.39653366  0.27100011  0.93278759
   0.42535320  0.76013214  0.38801059
   0.57472950  0.23986245  0.61195352
   0.25560751  0.11639104  0.37478165
   0.74455950  0.88359302  0.62526620
   0.08844944  0.47955996  0.34527055
   0.91159286  0.52042772  0.65467978
CIS                                     
           1
    -0.001532   -3.902382   -0.001181
   -10.683534   -1.955431    0.009290
    -3.304511   -1.955916  -11.287676
   K    Sc   Se
   2   6  10
Direct configuration=    15
   0.74535367  0.33228290  0.17491928
   0.25456561  0.66774235  0.82507387
   0.50001186  0.00001407  0.99998688
   0.50000211  0.50000259  0.49997249
   0.83167816  0.94365360  0.39298405
   0.16832989  0.05636054  0.60700634
   0.02541227  0.72737501  0.22229234
   0.97461656  0.27263134  0.77768768
   0.92417523  0.99696898  0.15536493
   0.07571797  0.00305254  0.84464566
   0.60338240  0.72897791  0.06724292
   0.39642892  0.27097593  0.93286289
   0.42536613  0.76020695  0.38792692
   0.57471812  0.23978929  0.61203492
   0.25563515  0.11649946  0.37474380
   0.74456403  0.88347647  0.62530778
   0.08848108  0.47953066  0.34529046
   0.91156285  0.52045742  0.65465680
CIS                                     
           1
    -0.001238   -3.904335   -0.001369
   -10.684611   -1.955602    0.010144
    -3.303748   -1.957187  -11.294577
   K    Sc   Se
   2   6  10
Direct configuration=    16
   0.74540195  0.33217682  0.17501068
   0.25451874  0.66785055  0.82497852
   0.50000754  0.00001489  0.99998588
   0.50000203  0.50000396  0.49996938
   0.83171667  0.94367717  0.39296467
   0.16829125  0.05633792  0.60702223
   0.02546419  0.72738883  0.22226473
   0.97455828  0.27261886  0.77771736
   0.92418715  0.99682430  0.15538634
   0.07566177  0.00320873  0.84463210
   0.60357492  0.72902031  0.06709723
   0.39621949  0.27092760  0.93301345
   0.42539200  0.76035653  0.38775962
   0.57469535  0.23964300  0.61219767
   0.25569043  0.11671626  0.37466813
   0.74457307  0.88324339  0.62539092
   0.08854434  0.47947206  0.34533025
   0.91150283  0.52051682  0.65461085
CIS                                     
           1
    -0.000654   -3.903524   -0.000854
   -10.685356   -1.953602    0.013051
    -3.300980   -1.954799  -11.297403
   K    Sc   Se
   2   6  10
Direct configuration=    17
   0.74555766  0.33184395  0.17528677
   0.25433906  0.66817048  0.82471089
   0.49996233  0.00000696  0.00000223
   0.49999109  0.49999894  0.49996913
   0.83177335  0.94389232  0.39295289
   0.16824684  0.05608758  0.60705873
   0.02563084  0.72749250  0.22209552
   0.97432162  0.27250624  0.77791762
   0.92457443  0.99644590  0.15513229
   0.07530375  0.00364515  0.84485200
   0.60419721  0.72905575  0.06673016
   0.39565202  0.27095893  0.93332223
   0.42621156  0.76032978  0.38741121
   0.57386493  0.23965999  0.61254822
   0.25577625  0.11679540  0.37479881
   0.74456307  0.88313597  0.62527987
   0.08846298  0.47936755  0.34539649
   0.91157303  0.52060462  0.65453496
CIS                                     
           1
     0.000316   -3.902175    0.000002
   -10.686595   -1.950274    0.017888
    -3.296374   -1.950825  -11.302107
   K    Sc   Se
   2   6  10
Direct configuration=    18
   0.74581681  0.33129028  0.17574596
   0.25404000  0.66870261  0.82426578
   0.49988709 -0.00000622  0.00002943
   0.49997286  0.49999059  0.49996871
   0.83186783  0.94425030  0.39293338
   0.16817278  0.05567107  0.60711933
   0.02590811  0.72766490  0.22181408
   0.97392783  0.27231896  0.77825072
   0.92521846  0.99581618  0.15470951
   0.07470843  0.00437137  0.84521799
   0.60523259  0.72911456  0.06611954
   0.39470789  0.27101120  0.93383589
   0.42757522  0.76028513  0.38683163
   0.57248318  0.23968838  0.61313136
   0.25591926  0.11692715  0.37501625
   0.74454625  0.88295717  0.62509507
   0.08832755  0.47919370  0.34550663
   0.91168986  0.52075066  0.65440875
CIS                                     
           1
     0.000456   -3.898089   -0.000416
   -10.682394   -1.947847    0.018139
    -3.294531   -1.949875  -11.292828
   K    Sc   Se
   2   6  10
Direct configuration=    19
   0.74601218  0.33093818  0.17604552
   0.25382564  0.66905102  0.82398698
   0.49986357 -0.00000062  0.00004009
   0.49996448  0.49998042  0.49998187
   0.83208443  0.94435660  0.39278222
   0.16800191  0.05555551  0.60730972
   0.02635259  0.72760438  0.22155111
   0.97344880  0.27239213  0.77852724
   0.92543578  0.99542779  0.15476444
   0.07446856  0.00483083  0.84516059
   0.60554537  0.72895919  0.06588654
   0.39440493  0.27114357  0.93400377
   0.42830209  0.76023370  0.38655618
   0.57175584  0.23974002  0.61341100
   0.25593684  0.11680965  0.37527069
   0.74459220  0.88303112  0.62482703
   0.08810389  0.47914137  0.34555361
   0.91190291  0.52080315  0.65434138
CIS                                     
           1
     0.000540   -3.895612   -0.000670
   -10.679848   -1.946376    0.018290
    -3.293414   -1.949299  -11.287203
   K    Sc   Se
   2   6  10
Direct configuration=    20
   0.74613061  0.33072464  0.17622725
   0.25369567  0.66926231  0.82381785
   0.49984930  0.00000277  0.00004656
   0.49995938  0.49997425  0.49998986
   0.83221590  0.94442107  0.39269051
   0.16789819  0.05548542  0.60742523
   0.02662231  0.72756770  0.22139156
   0.97315811  0.27243647  0.77869501
   0.92556754  0.99519226  0.15479776
   0.07432313  0.00510945  0.84512578
   0.60573515  0.72886498  0.06574518
   0.39422112  0.27122383  0.93410563
   0.42874318  0.76020254  0.38638905
   0.57131446  0.23977131  0.61358067
   0.25594746  0.11673839  0.37542505
   0.74462012  0.88307598  0.62466442
   0.08796814  0.47910963  0.34558212
   0.91203221  0.52083498  0.65430051
CIS                                     
           1
     0.000710   -3.890657   -0.001177
   -10.674755   -1.943433    0.018594
    -3.291179   -1.948147  -11.275954
   K    Sc   Se
   2   6  10
Direct configuration=    21
   0.74636750  0.33029746  0.17659088
   0.25343569  0.66968500  0.82347944
   0.49982074  0.00000956  0.00005950
   0.49994918  0.49996191  0.50000583
   0.83247906  0.94455006  0.39250699
   0.16769054  0.05534520  0.60765636
   0.02716211  0.72749435  0.22107229
   0.97257635  0.27252516  0.77903074
   0.92583112  0.99472110  0.15486441
   0.07403223  0.00566682  0.84505613
   0.60611493  0.72867655  0.06546229
   0.39385327  0.27138436  0.93430947
   0.42962593  0.76014022  0.38605461
   0.57043115  0.23983388  0.61392020
   0.25596866  0.11659583  0.37573393
   0.74467604  0.88316574  0.62433904
   0.08769647  0.47904613  0.34563918
   0.91229101  0.52089867  0.65421871
CIS                                     
           1
     0.000580   -3.894446   -0.000789
   -10.678650   -1.945683    0.018362
    -3.292888   -1.949028  -11.284557
   K    Sc   Se
   2   6  10
Direct configuration=    22
   0.74618631  0.33062434  0.17631252
   0.25363457  0.66936156  0.82373850
   0.49984261  0.00000437  0.00004959
   0.49995700  0.49997135  0.49999360
   0.83227747  0.94445134  0.39264749
   0.16784963  0.05545251  0.60747941
   0.02674874  0.72755044  0.22131673
   0.97302185  0.27245734  0.77877370
   0.92562947  0.99508161  0.15481340
   0.07425477  0.00524035  0.84510943
   0.60582415  0.72882070  0.06567887
   0.39413492  0.27126155  0.93415341
   0.42894993  0.76018786  0.38631067
   0.57110758  0.23978605  0.61366024
   0.25595252  0.11670494  0.37549747
   0.74463314  0.88309704  0.62458814
   0.08790454  0.47909473  0.34559549
   0.91209280  0.52084992  0.65428134
CIS                                     
           1
    -0.000341   -3.894727   -0.001126
   -10.681098   -1.948349    0.019560
    -3.292521   -1.950923  -11.284595
   K    Sc   Se
   2   6  10
Direct configuration=    23
   0.74645437  0.33022562  0.17665019
   0.25337361  0.66974905  0.82342650
   0.49987123  0.00000846  0.00005153
   0.49997170  0.49994809  0.50000607
   0.83275552  0.94434146  0.39236055
   0.16747156  0.05555463  0.60779816
   0.02746643  0.72723158  0.22103953
   0.97230796  0.27279517  0.77902444
   0.92601649  0.99478001  0.15506167
   0.07380065  0.00555824  0.84490160
   0.60626790  0.72864575  0.06540207
   0.39378701  0.27145875  0.93438997
   0.42961430  0.76003222  0.38606559
   0.57048132  0.23992804  0.61389954
   0.25550693  0.11654531  0.37580476
   0.74478529  0.88321839  0.62426204
   0.08768216  0.47903090  0.34559269
   0.91238756  0.52094633  0.65426310
CIS                                     
           1
    -0.001785   -3.895166   -0.001654
   -10.684936   -1.952526    0.021439
    -3.291945   -1.953893  -11.284654
   K    Sc   Se
   2   6  10
Direct configuration=    24
   0.74687467  0.32960078  0.17717941
   0.25296444  0.67035631  0.82293751
   0.49991608  0.00001486  0.00005457
   0.49999476  0.49991164  0.50002561
   0.83350520  0.94416918  0.39191074
   0.16687858  0.05571471  0.60829784
   0.02859193  0.72673178  0.22060494
   0.97118844  0.27332469  0.77941757
   0.92662324  0.99430735  0.15545077
   0.07308868  0.00605645  0.84457591
   0.60696387  0.72837153  0.06496813
   0.39324129  0.27176785  0.93476083
   0.43065603  0.75978822  0.38568137
   0.56949934  0.24015063  0.61427469
   0.25480838  0.11629522  0.37628642
   0.74502391  0.88340852  0.62375088
   0.08733365  0.47893089  0.34558830
   0.91284951  0.52109737  0.65423451
CIS                                     
           1
    -0.002341   -3.897994   -0.000833
   -10.686195   -1.955476    0.026147
    -3.288024   -1.953400  -11.299594
   K    Sc   Se
   2   6  10
Direct configuration=    25
   0.74717050  0.32916936  0.17754078
   0.25266815  0.67076628  0.82263508
   0.49994650  0.00001659  0.00008021
   0.50001643  0.49990203  0.50002976
   0.83388215  0.94384261  0.39184274
   0.16644418  0.05601845  0.60837114
   0.02943242  0.72615469  0.22046656
   0.97038995  0.27393721  0.77952195
   0.92693019  0.99429176  0.15542006
   0.07272643  0.00605750  0.84463689
   0.60804662  0.72818883  0.06444971
   0.39221000  0.27190144  0.93535691
   0.43113044  0.75936231  0.38548431
   0.56910155  0.24052090  0.61447520
   0.25470919  0.11640470  0.37621456
   0.74492076  0.88339807  0.62368733
   0.08729300  0.47885350  0.34554185
   0.91298354  0.52121177  0.65424499
CIS                                     
           1
    -0.002529   -3.898947   -0.000557
   -10.686619   -1.956470    0.027733
    -3.286703   -1.953234  -11.304628
   K    Sc   Se
   2   6  10
Direct configuration=    26
   0.74727025  0.32902414  0.17766230
   0.25256826  0.67090428  0.82253339
   0.49995674  0.00001717  0.00008883
   0.50002372  0.49989880  0.50003115
   0.83400912  0.94373259  0.39181983
   0.16629787  0.05612077  0.60839583
   0.02971551  0.72596027  0.22041995
   0.97012099  0.27414355  0.77955713
   0.92703352  0.99428650  0.15540974
   0.07260449  0.00605789  0.84465740
   0.60841110  0.72812714  0.06427529
   0.39186287  0.27194662  0.93555744
   0.43129024  0.75921881  0.38541797
   0.56896756  0.24064567  0.61454269
   0.25467576  0.11644155  0.37619040
   0.74488603  0.88339453  0.62366595
   0.08727933  0.47882742  0.34552620
   0.91302863  0.52125030  0.65424853
CIS                                     
           1
    -0.001356   -3.896917   -0.000233
   -10.678687   -1.952244    0.030945
    -3.280632   -1.950294  -11.303906
   K    Sc   Se
   2   6  10
Direct configuration=    27
   0.74740915  0.32880802  0.17780927
   0.25240737  0.67112284  0.82240394
   0.49993876  0.00002778  0.00010019
   0.50006121  0.49991195  0.49999145
   0.83395895  0.94358664  0.39199215
   0.16619242  0.05628834  0.60813218
   0.03028556  0.72567919  0.22023413
   0.96960686  0.27445524  0.77971325
   0.92708172  0.99445786  0.15510176
   0.07280907  0.00581581  0.84491443
   0.60852834  0.72793169  0.06416235
   0.39164093  0.27215839  0.93581565
   0.43115413  0.75891730  0.38527087
   0.56917012  0.24090353  0.61466428
   0.25492916  0.11635438  0.37622434
   0.74443543  0.88346033  0.62376770
   0.08742933  0.47873779  0.34553862
   0.91296349  0.52138091  0.65416346
