  16  16   1   0
  0.2994779E+02  0.8557497E-09  0.8556247E-09  0.8917341E-09  0.1000000E-15
  1.000000000000000E-004
  CAR 
 CIS                                     
     11.51661819    -11.06360333  301      2.48923379      1.00000000
    -11.064  0.0000E+00  0.0000E+00
    -10.988  0.0000E+00  0.0000E+00
    -10.913  0.0000E+00  0.0000E+00
    -10.838  0.0000E+00  0.0000E+00
    -10.763  0.0000E+00  0.0000E+00
    -10.687  0.0000E+00  0.0000E+00
    -10.612  0.0000E+00  0.0000E+00
    -10.537  0.0000E+00  0.0000E+00
    -10.461  0.0000E+00  0.0000E+00
    -10.386  0.0000E+00  0.0000E+00
    -10.311  0.4911E-16  0.3697E-17
    -10.236  0.9912E-10  0.7460E-11
    -10.160  0.2459E-05  0.1851E-06
    -10.085  0.8701E-03  0.6567E-04
    -10.010  0.7372E-02  0.6206E-03
     -9.935  0.2945E-01  0.2837E-02
     -9.859  0.1045E+00  0.1070E-01
     -9.784  0.1061E+00  0.1869E-01
     -9.709  0.1996E-01  0.2019E-01
     -9.634  0.1403E-03  0.2020E-01
     -9.558  0.1752E-07  0.2020E-01
     -9.483  0.2983E-13  0.2020E-01
     -9.408  0.0000E+00  0.2020E-01
     -9.332  0.0000E+00  0.2020E-01
     -9.257  0.1987E-15  0.2020E-01
     -9.182  0.3798E-09  0.2020E-01
     -9.107  0.1045E-04  0.2020E-01
     -9.031  0.5677E-02  0.2063E-01
     -8.956  0.9796E-01  0.2800E-01
     -8.881  0.1078E+00  0.3612E-01
     -8.806  0.1119E+00  0.4454E-01
     -8.730  0.1503E+00  0.5585E-01
     -8.655  0.2450E+00  0.7429E-01
     -8.580  0.1987E+00  0.8924E-01
     -8.505  0.2152E+00  0.1054E+00
     -8.429  0.1666E+00  0.1180E+00
     -8.354  0.4078E-01  0.1210E+00
     -8.279  0.2174E-02  0.1212E+00
     -8.203  0.5845E-05  0.1212E+00
     -8.128  0.2542E-09  0.1212E+00
     -8.053  0.1369E-15  0.1212E+00
     -7.978  0.0000E+00  0.1212E+00
     -7.902  0.0000E+00  0.1212E+00
     -7.827  0.0000E+00  0.1212E+00
     -7.752  0.0000E+00  0.1212E+00
     -7.677  0.0000E+00  0.1212E+00
     -7.601  0.0000E+00  0.1212E+00
     -7.526  0.0000E+00  0.1212E+00
     -7.451  0.0000E+00  0.1212E+00
     -7.376  0.0000E+00  0.1212E+00
     -7.300  0.0000E+00  0.1212E+00
     -7.225  0.6622E-16  0.1212E+00
     -7.150  0.1240E-09  0.1212E+00
     -7.074  0.2841E-05  0.1212E+00
     -6.999  0.9327E-03  0.1213E+00
     -6.924  0.6938E-02  0.1218E+00
     -6.849  0.3411E-02  0.1221E+00
     -6.773  0.3901E-01  0.1250E+00
     -6.698  0.7033E-01  0.1303E+00
     -6.623  0.1085E+00  0.1385E+00
     -6.548  0.3868E-01  0.1414E+00
     -6.472  0.5964E-03  0.1414E+00
     -6.397  0.1761E-06  0.1414E+00
     -6.322  0.7388E-12  0.1414E+00
     -6.246  0.0000E+00  0.1414E+00
     -6.171  0.0000E+00  0.1414E+00
     -6.096  0.0000E+00  0.1414E+00
     -6.021  0.0000E+00  0.1414E+00
     -5.945  0.0000E+00  0.1414E+00
     -5.870  0.0000E+00  0.1414E+00
     -5.795  0.0000E+00  0.1414E+00
     -5.720  0.0000E+00  0.1414E+00
     -5.644  0.0000E+00  0.1414E+00
     -5.569  0.0000E+00  0.1414E+00
     -5.494  0.0000E+00  0.1414E+00
     -5.419  0.0000E+00  0.1414E+00
     -5.343  0.0000E+00  0.1414E+00
     -5.268  0.0000E+00  0.1414E+00
     -5.193  0.0000E+00  0.1414E+00
     -5.117  0.0000E+00  0.1414E+00
     -5.042  0.0000E+00  0.1414E+00
     -4.967  0.0000E+00  0.1414E+00
     -4.892  0.0000E+00  0.1414E+00
     -4.816  0.0000E+00  0.1414E+00
     -4.741  0.0000E+00  0.1414E+00
     -4.666  0.0000E+00  0.1414E+00
     -4.591  0.0000E+00  0.1414E+00
     -4.515  0.0000E+00  0.1414E+00
     -4.440  0.0000E+00  0.1414E+00
     -4.365  0.0000E+00  0.1414E+00
     -4.290  0.0000E+00  0.1414E+00
     -4.214  0.0000E+00  0.1414E+00
     -4.139  0.0000E+00  0.1414E+00
     -4.064  0.0000E+00  0.1414E+00
     -3.988  0.0000E+00  0.1414E+00
     -3.913  0.0000E+00  0.1414E+00
     -3.838  0.0000E+00  0.1414E+00
     -3.763  0.0000E+00  0.1414E+00
     -3.687  0.0000E+00  0.1414E+00
     -3.612  0.0000E+00  0.1414E+00
     -3.537  0.0000E+00  0.1414E+00
     -3.462  0.0000E+00  0.1414E+00
     -3.386  0.0000E+00  0.1414E+00
     -3.311  0.0000E+00  0.1414E+00
     -3.236  0.0000E+00  0.1414E+00
     -3.161  0.0000E+00  0.1414E+00
     -3.085  0.0000E+00  0.1414E+00
     -3.010  0.0000E+00  0.1414E+00
     -2.935  0.0000E+00  0.1414E+00
     -2.859  0.0000E+00  0.1414E+00
     -2.784  0.0000E+00  0.1414E+00
     -2.709  0.0000E+00  0.1414E+00
     -2.634  0.0000E+00  0.1414E+00
     -2.558  0.0000E+00  0.1414E+00
     -2.483  0.0000E+00  0.1414E+00
     -2.408  0.0000E+00  0.1414E+00
     -2.333  0.0000E+00  0.1414E+00
     -2.257  0.0000E+00  0.1414E+00
     -2.182  0.0000E+00  0.1414E+00
     -2.107  0.0000E+00  0.1414E+00
     -2.032  0.0000E+00  0.1414E+00
     -1.956  0.0000E+00  0.1414E+00
     -1.881  0.0000E+00  0.1414E+00
     -1.806  0.0000E+00  0.1414E+00
     -1.730  0.3320E-13  0.1414E+00
     -1.655  0.1412E-07  0.1414E+00
     -1.580  0.8281E-04  0.1414E+00
     -1.505  0.9368E-02  0.1421E+00
     -1.429  0.3992E-01  0.1451E+00
     -1.354  0.1289E-01  0.1461E+00
     -1.279  0.5056E-01  0.1499E+00
     -1.204  0.8089E-01  0.1560E+00
     -1.128  0.6359E-01  0.1608E+00
     -1.053  0.9940E-01  0.1683E+00
     -0.978  0.9570E-01  0.1755E+00
     -0.903  0.1429E+00  0.1862E+00
     -0.827  0.1322E+00  0.1962E+00
     -0.752  0.6432E-01  0.2010E+00
     -0.677  0.1350E-01  0.2020E+00
     -0.601  0.6190E-02  0.2025E+00
     -0.526  0.1244E-01  0.2034E+00
     -0.451  0.3386E-01  0.2060E+00
     -0.376  0.3273E-01  0.2084E+00
     -0.300  0.8283E-01  0.2147E+00
     -0.225  0.8272E-01  0.2209E+00
     -0.150  0.6219E-01  0.2256E+00
     -0.075  0.6613E-01  0.2306E+00
      0.001  0.1257E+00  0.2400E+00
      0.076  0.1547E+00  0.2517E+00
      0.151  0.1321E+00  0.2616E+00
      0.227  0.1065E+00  0.2696E+00
      0.302  0.6264E-01  0.2743E+00
      0.377  0.1218E+00  0.2835E+00
      0.452  0.1305E+00  0.2933E+00
      0.528  0.1340E+00  0.3034E+00
      0.603  0.1753E+00  0.3166E+00
      0.678  0.6356E-01  0.3214E+00
      0.753  0.5818E-01  0.3258E+00
      0.829  0.1241E+00  0.3351E+00
      0.904  0.1493E+00  0.3464E+00
      0.979  0.9873E-01  0.3538E+00
      1.054  0.7217E-01  0.3592E+00
      1.130  0.1128E+00  0.3677E+00
      1.205  0.1260E+00  0.3772E+00
      1.280  0.2035E+00  0.3925E+00
      1.356  0.1696E+00  0.4053E+00
      1.431  0.1005E+00  0.4128E+00
      1.506  0.1547E+00  0.4245E+00
      1.581  0.2145E+00  0.4406E+00
      1.657  0.2253E+00  0.4576E+00
      1.732  0.1243E+00  0.4669E+00
      1.807  0.1130E+00  0.4755E+00
      1.882  0.6662E-01  0.4805E+00
      1.958  0.6223E-01  0.4852E+00
      2.033  0.8397E-01  0.4915E+00
      2.108  0.8477E-01  0.4979E+00
      2.183  0.5429E-01  0.5019E+00
      2.259  0.3658E-01  0.5047E+00
      2.334  0.4734E-02  0.5050E+00
      2.409  0.2427E-04  0.5051E+00
      2.485  0.2190E-08  0.5051E+00
      2.560  0.2583E-14  0.5051E+00
      2.635  0.0000E+00  0.5051E+00
      2.710  0.0000E+00  0.5051E+00
      2.786  0.0000E+00  0.5051E+00
      2.861  0.0000E+00  0.5051E+00
      2.936  0.0000E+00  0.5051E+00
      3.011  0.0000E+00  0.5051E+00
      3.087  0.0000E+00  0.5051E+00
      3.162  0.0000E+00  0.5051E+00
      3.237  0.0000E+00  0.5051E+00
      3.312  0.0000E+00  0.5051E+00
      3.388  0.0000E+00  0.5051E+00
      3.463  0.0000E+00  0.5051E+00
      3.538  0.0000E+00  0.5051E+00
      3.614  0.0000E+00  0.5051E+00
      3.689  0.0000E+00  0.5051E+00
      3.764  0.0000E+00  0.5051E+00
      3.839  0.0000E+00  0.5051E+00
      3.915  0.0000E+00  0.5051E+00
      3.990  0.0000E+00  0.5051E+00
      4.065  0.0000E+00  0.5051E+00
      4.140  0.0000E+00  0.5051E+00
      4.216  0.0000E+00  0.5051E+00
      4.291  0.0000E+00  0.5051E+00
      4.366  0.0000E+00  0.5051E+00
      4.441  0.0000E+00  0.5051E+00
      4.517  0.0000E+00  0.5051E+00
      4.592  0.0000E+00  0.5051E+00
      4.667  0.0000E+00  0.5051E+00
      4.743  0.1137E-15  0.5051E+00
      4.818  0.2271E-09  0.5051E+00
      4.893  0.5787E-05  0.5051E+00
      4.968  0.2348E-02  0.5052E+00
      5.044  0.2553E-01  0.5071E+00
      5.119  0.4863E-01  0.5108E+00
      5.194  0.9047E-01  0.5176E+00
      5.269  0.4062E-01  0.5207E+00
      5.345  0.2353E-01  0.5224E+00
      5.420  0.4462E-01  0.5258E+00
      5.495  0.1075E+00  0.5339E+00
      5.570  0.9995E-01  0.5414E+00
      5.646  0.1126E+00  0.5499E+00
      5.721  0.9136E-01  0.5568E+00
      5.796  0.7268E-01  0.5622E+00
      5.872  0.4299E-01  0.5655E+00
      5.947  0.2358E-02  0.5657E+00
      6.022  0.3722E-05  0.5657E+00
      6.097  0.1012E-09  0.5657E+00
      6.173  0.3532E-16  0.5657E+00
      6.248  0.7174E-17  0.5657E+00
      6.323  0.2363E-10  0.5657E+00
      6.398  0.9642E-06  0.5657E+00
      6.474  0.5462E-03  0.5657E+00
      6.549  0.6434E-02  0.5662E+00
      6.624  0.2932E-02  0.5664E+00
      6.700  0.3512E-02  0.5667E+00
      6.775  0.3192E-01  0.5691E+00
      6.850  0.3418E-01  0.5716E+00
      6.925  0.8108E-01  0.5777E+00
      7.001  0.9097E-01  0.5846E+00
      7.076  0.4920E-01  0.5883E+00
      7.151  0.5021E-01  0.5921E+00
      7.226  0.4838E-01  0.5957E+00
      7.302  0.4383E-01  0.5990E+00
      7.377  0.5226E-02  0.5994E+00
      7.452  0.2698E-01  0.6014E+00
      7.527  0.7594E-01  0.6072E+00
      7.603  0.1285E+00  0.6168E+00
      7.678  0.8399E-01  0.6232E+00
      7.753  0.8988E-01  0.6299E+00
      7.829  0.1221E+00  0.6391E+00
      7.904  0.9520E-01  0.6463E+00
      7.979  0.4323E-01  0.6495E+00
      8.054  0.2956E-01  0.6517E+00
      8.130  0.5843E-01  0.6561E+00
      8.205  0.1009E+00  0.6637E+00
      8.280  0.1097E+00  0.6720E+00
      8.355  0.1147E+00  0.6806E+00
      8.431  0.9173E-01  0.6875E+00
      8.506  0.5167E-01  0.6914E+00
      8.581  0.1029E+00  0.6992E+00
      8.656  0.1007E+00  0.7067E+00
      8.732  0.9916E-01  0.7142E+00
      8.807  0.8296E-01  0.7205E+00
      8.882  0.6315E-01  0.7252E+00
      8.958  0.6887E-01  0.7304E+00
      9.033  0.1067E+00  0.7384E+00
      9.108  0.1011E+00  0.7460E+00
      9.183  0.4354E-01  0.7493E+00
      9.259  0.7061E-01  0.7546E+00
      9.334  0.6671E-01  0.7596E+00
      9.409  0.1057E+00  0.7676E+00
      9.484  0.9892E-01  0.7750E+00
      9.560  0.6768E-01  0.7801E+00
      9.635  0.7987E-01  0.7862E+00
      9.710  0.7139E-01  0.7915E+00
      9.785  0.1083E+00  0.7997E+00
      9.861  0.1453E+00  0.8106E+00
      9.936  0.1223E+00  0.8198E+00
     10.011  0.1529E+00  0.8313E+00
     10.087  0.1211E+00  0.8404E+00
     10.162  0.4580E-01  0.8439E+00
     10.237  0.4081E-01  0.8470E+00
     10.312  0.1018E-01  0.8477E+00
     10.388  0.1177E-03  0.8477E+00
     10.463  0.2163E-02  0.8479E+00
     10.538  0.6887E-02  0.8484E+00
     10.613  0.8698E-03  0.8485E+00
     10.689  0.2459E-05  0.8485E+00
     10.764  0.9912E-10  0.8485E+00
     10.839  0.4856E-16  0.8485E+00
     10.914  0.0000E+00  0.8485E+00
     10.990  0.0000E+00  0.8485E+00
     11.065  0.0000E+00  0.8485E+00
     11.140  0.0000E+00  0.8485E+00
     11.216  0.0000E+00  0.8485E+00
     11.291  0.0000E+00  0.8485E+00
     11.366  0.0000E+00  0.8485E+00
     11.441  0.0000E+00  0.8485E+00
     11.517  0.0000E+00  0.8485E+00
     11.51661819    -11.06360333  301      2.48923379      1.00000000
    -11.064  0.0000E+00  0.0000E+00  0.0000E+00
    -10.988  0.0000E+00  0.0000E+00  0.0000E+00
    -10.913  0.0000E+00  0.0000E+00  0.0000E+00
    -10.838  0.0000E+00  0.0000E+00  0.0000E+00
    -10.763  0.0000E+00  0.0000E+00  0.0000E+00
    -10.687  0.0000E+00  0.0000E+00  0.0000E+00
    -10.612  0.0000E+00  0.0000E+00  0.0000E+00
    -10.537  0.0000E+00  0.0000E+00  0.0000E+00
    -10.461  0.0000E+00  0.0000E+00  0.0000E+00
    -10.386  0.0000E+00  0.0000E+00  0.0000E+00
    -10.311  0.1006E-16  0.2928E-18  0.0000E+00
    -10.236  0.2031E-10  0.5910E-12  0.0000E+00
    -10.160  0.5037E-06  0.1466E-07  0.0000E+00
    -10.085  0.1782E-03  0.5198E-05  0.0000E+00
    -10.010  0.1471E-02  0.6361E-04  0.0000E+00
     -9.935  0.3918E-02  0.1282E-02  0.0000E+00
     -9.859  0.1197E-01  0.5673E-02  0.0000E+00
     -9.784  0.7888E-02  0.7976E-02  0.0000E+00
     -9.709  0.1327E-02  0.1589E-02  0.0000E+00
     -9.634  0.9799E-05  0.1105E-04  0.0000E+00
     -9.558  0.1290E-08  0.1358E-08  0.0000E+00
     -9.483  0.2274E-14  0.2286E-14  0.0000E+00
     -9.408  0.0000E+00  0.0000E+00  0.0000E+00
     -9.332  0.0000E+00  0.0000E+00  0.0000E+00
     -9.257  0.3324E-16  0.1841E-16  0.0000E+00
     -9.182  0.6445E-10  0.3458E-10  0.0000E+00
     -9.107  0.1820E-05  0.9251E-06  0.0000E+00
     -9.031  0.1009E-02  0.5017E-03  0.0000E+00
     -8.956  0.1731E-01  0.9145E-02  0.0000E+00
     -8.881  0.1700E-01  0.1078E-01  0.0000E+00
     -8.806  0.1043E-01  0.1030E-01  0.0000E+00
     -8.730  0.1488E-01  0.1760E-01  0.0000E+00
     -8.655  0.1868E-01  0.3631E-01  0.0000E+00
     -8.580  0.1366E-01  0.3413E-01  0.0000E+00
     -8.505  0.1101E-01  0.3550E-01  0.0000E+00
     -8.429  0.5830E-02  0.3129E-01  0.0000E+00
     -8.354  0.1808E-02  0.7610E-02  0.0000E+00
     -8.279  0.1183E-03  0.3880E-03  0.0000E+00
     -8.203  0.3279E-06  0.1033E-05  0.0000E+00
     -8.128  0.1430E-10  0.4490E-10  0.0000E+00
     -8.053  0.7697E-17  0.2417E-16  0.0000E+00
     -7.978  0.0000E+00  0.0000E+00  0.0000E+00
     -7.902  0.0000E+00  0.0000E+00  0.0000E+00
     -7.827  0.0000E+00  0.0000E+00  0.0000E+00
     -7.752  0.0000E+00  0.0000E+00  0.0000E+00
     -7.677  0.0000E+00  0.0000E+00  0.0000E+00
     -7.601  0.0000E+00  0.0000E+00  0.0000E+00
     -7.526  0.0000E+00  0.0000E+00  0.0000E+00
     -7.451  0.0000E+00  0.0000E+00  0.0000E+00
     -7.376  0.0000E+00  0.0000E+00  0.0000E+00
     -7.300  0.0000E+00  0.0000E+00  0.0000E+00
     -7.225  0.1007E-16  0.2486E-17  0.0000E+00
     -7.150  0.1886E-10  0.4655E-11  0.0000E+00
     -7.074  0.4320E-06  0.1067E-06  0.0000E+00
     -6.999  0.1418E-03  0.3502E-04  0.0000E+00
     -6.924  0.1055E-02  0.2605E-03  0.0000E+00
     -6.849  0.4320E-03  0.1604E-03  0.0000E+00
     -6.773  0.3454E-02  0.2320E-02  0.0000E+00
     -6.698  0.4987E-02  0.4533E-02  0.0000E+00
     -6.623  0.4463E-02  0.7949E-02  0.0000E+00
     -6.548  0.1392E-02  0.2849E-02  0.0000E+00
     -6.472  0.2035E-04  0.4317E-04  0.0000E+00
     -6.397  0.5529E-08  0.1260E-07  0.0000E+00
     -6.322  0.2045E-13  0.5288E-13  0.0000E+00
     -6.246  0.0000E+00  0.0000E+00  0.0000E+00
     -6.171  0.0000E+00  0.0000E+00  0.0000E+00
     -6.096  0.0000E+00  0.0000E+00  0.0000E+00
     -6.021  0.0000E+00  0.0000E+00  0.0000E+00
     -5.945  0.0000E+00  0.0000E+00  0.0000E+00
     -5.870  0.0000E+00  0.0000E+00  0.0000E+00
     -5.795  0.0000E+00  0.0000E+00  0.0000E+00
     -5.720  0.0000E+00  0.0000E+00  0.0000E+00
     -5.644  0.0000E+00  0.0000E+00  0.0000E+00
     -5.569  0.0000E+00  0.0000E+00  0.0000E+00
     -5.494  0.0000E+00  0.0000E+00  0.0000E+00
     -5.419  0.0000E+00  0.0000E+00  0.0000E+00
     -5.343  0.0000E+00  0.0000E+00  0.0000E+00
     -5.268  0.0000E+00  0.0000E+00  0.0000E+00
     -5.193  0.0000E+00  0.0000E+00  0.0000E+00
     -5.117  0.0000E+00  0.0000E+00  0.0000E+00
     -5.042  0.0000E+00  0.0000E+00  0.0000E+00
     -4.967  0.0000E+00  0.0000E+00  0.0000E+00
     -4.892  0.0000E+00  0.0000E+00  0.0000E+00
     -4.816  0.0000E+00  0.0000E+00  0.0000E+00
     -4.741  0.0000E+00  0.0000E+00  0.0000E+00
     -4.666  0.0000E+00  0.0000E+00  0.0000E+00
     -4.591  0.0000E+00  0.0000E+00  0.0000E+00
     -4.515  0.0000E+00  0.0000E+00  0.0000E+00
     -4.440  0.0000E+00  0.0000E+00  0.0000E+00
     -4.365  0.0000E+00  0.0000E+00  0.0000E+00
     -4.290  0.0000E+00  0.0000E+00  0.0000E+00
     -4.214  0.0000E+00  0.0000E+00  0.0000E+00
     -4.139  0.0000E+00  0.0000E+00  0.0000E+00
     -4.064  0.0000E+00  0.0000E+00  0.0000E+00
     -3.988  0.0000E+00  0.0000E+00  0.0000E+00
     -3.913  0.0000E+00  0.0000E+00  0.0000E+00
     -3.838  0.0000E+00  0.0000E+00  0.0000E+00
     -3.763  0.0000E+00  0.0000E+00  0.0000E+00
     -3.687  0.0000E+00  0.0000E+00  0.0000E+00
     -3.612  0.0000E+00  0.0000E+00  0.0000E+00
     -3.537  0.0000E+00  0.0000E+00  0.0000E+00
     -3.462  0.0000E+00  0.0000E+00  0.0000E+00
     -3.386  0.0000E+00  0.0000E+00  0.0000E+00
     -3.311  0.0000E+00  0.0000E+00  0.0000E+00
     -3.236  0.0000E+00  0.0000E+00  0.0000E+00
     -3.161  0.0000E+00  0.0000E+00  0.0000E+00
     -3.085  0.0000E+00  0.0000E+00  0.0000E+00
     -3.010  0.0000E+00  0.0000E+00  0.0000E+00
     -2.935  0.0000E+00  0.0000E+00  0.0000E+00
     -2.859  0.0000E+00  0.0000E+00  0.0000E+00
     -2.784  0.0000E+00  0.0000E+00  0.0000E+00
     -2.709  0.0000E+00  0.0000E+00  0.0000E+00
     -2.634  0.0000E+00  0.0000E+00  0.0000E+00
     -2.558  0.0000E+00  0.0000E+00  0.0000E+00
     -2.483  0.0000E+00  0.0000E+00  0.0000E+00
     -2.408  0.0000E+00  0.0000E+00  0.0000E+00
     -2.333  0.0000E+00  0.0000E+00  0.0000E+00
     -2.257  0.0000E+00  0.0000E+00  0.0000E+00
     -2.182  0.0000E+00  0.0000E+00  0.0000E+00
     -2.107  0.0000E+00  0.0000E+00  0.0000E+00
     -2.032  0.0000E+00  0.0000E+00  0.0000E+00
     -1.956  0.0000E+00  0.0000E+00  0.0000E+00
     -1.881  0.0000E+00  0.0000E+00  0.0000E+00
     -1.806  0.0000E+00  0.0000E+00  0.0000E+00
     -1.730  0.6528E-14  0.1292E-13  0.0000E+00
     -1.655  0.3113E-08  0.5444E-08  0.0000E+00
     -1.580  0.2259E-04  0.3117E-04  0.0000E+00
     -1.505  0.3270E-02  0.3337E-02  0.0000E+00
     -1.429  0.1554E-01  0.1307E-01  0.0000E+00
     -1.354  0.4364E-02  0.4266E-02  0.0000E+00
     -1.279  0.1127E-01  0.2144E-01  0.0000E+00
     -1.204  0.2350E-01  0.2830E-01  0.0000E+00
     -1.128  0.2208E-01  0.1942E-01  0.0000E+00
     -1.053  0.2648E-01  0.3399E-01  0.0000E+00
     -0.978  0.3360E-01  0.2958E-01  0.0000E+00
     -0.903  0.4197E-01  0.4312E-01  0.0000E+00
     -0.827  0.3541E-01  0.4547E-01  0.0000E+00
     -0.752  0.1177E-01  0.2525E-01  0.0000E+00
     -0.677  0.1708E-02  0.5542E-02  0.0000E+00
     -0.601  0.1179E-02  0.3749E-02  0.0000E+00
     -0.526  0.5747E-02  0.5586E-02  0.0000E+00
     -0.451  0.2012E-01  0.1363E-01  0.0000E+00
     -0.376  0.1111E-01  0.1585E-01  0.0000E+00
     -0.300  0.2962E-01  0.3528E-01  0.0000E+00
     -0.225  0.4365E-01  0.2649E-01  0.0000E+00
     -0.150  0.2547E-01  0.2407E-01  0.0000E+00
     -0.075  0.3109E-01  0.3034E-01  0.0000E+00
      0.001  0.4498E-01  0.4386E-01  0.0000E+00
      0.076  0.7669E-01  0.5841E-01  0.0000E+00
      0.151  0.7005E-01  0.4821E-01  0.0000E+00
      0.227  0.4876E-01  0.4298E-01  0.0000E+00
      0.302  0.2541E-01  0.2939E-01  0.0000E+00
      0.377  0.5629E-01  0.5027E-01  0.0000E+00
      0.452  0.4707E-01  0.5847E-01  0.0000E+00
      0.528  0.4189E-01  0.6788E-01  0.0000E+00
      0.603  0.6168E-01  0.9788E-01  0.0000E+00
      0.678  0.1936E-01  0.3331E-01  0.0000E+00
      0.753  0.1326E-01  0.3796E-01  0.0000E+00
      0.829  0.2615E-01  0.8949E-01  0.0000E+00
      0.904  0.2486E-01  0.9514E-01  0.0000E+00
      0.979  0.9759E-02  0.6706E-01  0.0000E+00
      1.054  0.9602E-02  0.4317E-01  0.0000E+00
      1.130  0.1422E-01  0.7111E-01  0.0000E+00
      1.205  0.1933E-01  0.6851E-01  0.0000E+00
      1.280  0.2764E-01  0.1101E+00  0.0000E+00
      1.356  0.2325E-01  0.8829E-01  0.0000E+00
      1.431  0.1232E-01  0.4891E-01  0.0000E+00
      1.506  0.1696E-01  0.7027E-01  0.0000E+00
      1.581  0.1907E-01  0.9237E-01  0.0000E+00
      1.657  0.2224E-01  0.1066E+00  0.0000E+00
      1.732  0.7096E-02  0.6670E-01  0.0000E+00
      1.807  0.4381E-02  0.4599E-01  0.0000E+00
      1.882  0.1639E-02  0.2355E-01  0.0000E+00
      1.958  0.2097E-02  0.2637E-01  0.0000E+00
      2.033  0.7491E-02  0.3307E-01  0.0000E+00
      2.108  0.8156E-02  0.3045E-01  0.0000E+00
      2.183  0.2359E-02  0.1916E-01  0.0000E+00
      2.259  0.1478E-02  0.1345E-01  0.0000E+00
      2.334  0.1563E-03  0.2011E-02  0.0000E+00
      2.409  0.5746E-06  0.1119E-04  0.0000E+00
      2.485  0.4368E-10  0.1038E-08  0.0000E+00
      2.560  0.4880E-16  0.1233E-14  0.0000E+00
      2.635  0.0000E+00  0.0000E+00  0.0000E+00
      2.710  0.0000E+00  0.0000E+00  0.0000E+00
      2.786  0.0000E+00  0.0000E+00  0.0000E+00
      2.861  0.0000E+00  0.0000E+00  0.0000E+00
      2.936  0.0000E+00  0.0000E+00  0.0000E+00
      3.011  0.0000E+00  0.0000E+00  0.0000E+00
      3.087  0.0000E+00  0.0000E+00  0.0000E+00
      3.162  0.0000E+00  0.0000E+00  0.0000E+00
      3.237  0.0000E+00  0.0000E+00  0.0000E+00
      3.312  0.0000E+00  0.0000E+00  0.0000E+00
      3.388  0.0000E+00  0.0000E+00  0.0000E+00
      3.463  0.0000E+00  0.0000E+00  0.0000E+00
      3.538  0.0000E+00  0.0000E+00  0.0000E+00
      3.614  0.0000E+00  0.0000E+00  0.0000E+00
      3.689  0.0000E+00  0.0000E+00  0.0000E+00
      3.764  0.0000E+00  0.0000E+00  0.0000E+00
      3.839  0.0000E+00  0.0000E+00  0.0000E+00
      3.915  0.0000E+00  0.0000E+00  0.0000E+00
      3.990  0.0000E+00  0.0000E+00  0.0000E+00
      4.065  0.0000E+00  0.0000E+00  0.0000E+00
      4.140  0.0000E+00  0.0000E+00  0.0000E+00
      4.216  0.0000E+00  0.0000E+00  0.0000E+00
      4.291  0.0000E+00  0.0000E+00  0.0000E+00
      4.366  0.0000E+00  0.0000E+00  0.0000E+00
      4.441  0.0000E+00  0.0000E+00  0.0000E+00
      4.517  0.0000E+00  0.0000E+00  0.0000E+00
      4.592  0.0000E+00  0.0000E+00  0.0000E+00
      4.667  0.0000E+00  0.0000E+00  0.0000E+00
      4.743  0.5727E-16  0.1215E-15  0.0000E+00
      4.818  0.1122E-09  0.2403E-09  0.0000E+00
      4.893  0.2683E-05  0.5918E-05  0.0000E+00
      4.968  0.9195E-03  0.2205E-02  0.0000E+00
      5.044  0.7501E-02  0.2086E-01  0.0000E+00
      5.119  0.1818E-01  0.3509E-01  0.0000E+00
      5.194  0.2678E-01  0.5667E-01  0.0000E+00
      5.269  0.5053E-02  0.1574E-01  0.0000E+00
      5.345  0.2558E-02  0.8798E-02  0.0000E+00
      5.420  0.1570E-01  0.3787E-01  0.0000E+00
      5.495  0.2935E-01  0.7073E-01  0.0000E+00
      5.570  0.2122E-01  0.5073E-01  0.0000E+00
      5.646  0.2144E-01  0.5768E-01  0.0000E+00
      5.721  0.1061E-01  0.4123E-01  0.0000E+00
      5.796  0.5063E-02  0.2156E-01  0.0000E+00
      5.872  0.3106E-02  0.9228E-02  0.0000E+00
      5.947  0.1543E-03  0.5118E-03  0.0000E+00
      6.022  0.2108E-06  0.8513E-06  0.0000E+00
      6.097  0.5230E-11  0.2388E-10  0.0000E+00
      6.173  0.1717E-17  0.8520E-17  0.0000E+00
      6.248  0.9490E-17  0.8686E-18  0.0000E+00
      6.323  0.3125E-10  0.2860E-11  0.0000E+00
      6.398  0.1276E-05  0.1167E-06  0.0000E+00
      6.474  0.7226E-03  0.6613E-04  0.0000E+00
      6.549  0.8512E-02  0.7790E-03  0.0000E+00
      6.624  0.3866E-02  0.3744E-03  0.0000E+00
      6.700  0.7741E-03  0.6123E-02  0.0000E+00
      6.775  0.4783E-02  0.5250E-01  0.0000E+00
      6.850  0.3669E-02  0.5059E-01  0.0000E+00
      6.925  0.1852E-01  0.1218E+00  0.0000E+00
      7.001  0.3412E-01  0.1022E+00  0.0000E+00
      7.076  0.1377E-01  0.5895E-01  0.0000E+00
      7.151  0.2267E-01  0.4691E-01  0.0000E+00
      7.226  0.1573E-01  0.5304E-01  0.0000E+00
      7.302  0.1802E-01  0.5484E-01  0.0000E+00
      7.377  0.2108E-02  0.7448E-02  0.0000E+00
      7.452  0.4757E-02  0.4648E-01  0.0000E+00
      7.527  0.1810E-01  0.8896E-01  0.0000E+00
      7.603  0.2703E-01  0.1363E+00  0.0000E+00
      7.678  0.2043E-01  0.7957E-01  0.0000E+00
      7.753  0.3303E-01  0.8274E-01  0.0000E+00
      7.829  0.4128E-01  0.1338E+00  0.0000E+00
      7.904  0.2178E-01  0.1446E+00  0.0000E+00
      7.979  0.6192E-02  0.5282E-01  0.0000E+00
      8.054  0.3552E-02  0.3662E-01  0.0000E+00
      8.130  0.1356E-01  0.7722E-01  0.0000E+00
      8.205  0.3590E-01  0.1322E+00  0.0000E+00
      8.280  0.6331E-01  0.9600E-01  0.0000E+00
      8.355  0.3625E-01  0.1278E+00  0.0000E+00
      8.431  0.2099E-01  0.1181E+00  0.0000E+00
      8.506  0.1787E-01  0.4078E-01  0.0000E+00
      8.581  0.5057E-01  0.1108E+00  0.0000E+00
      8.656  0.5783E-01  0.1351E+00  0.0000E+00
      8.732  0.5499E-01  0.1332E+00  0.0000E+00
      8.807  0.2873E-01  0.8993E-01  0.0000E+00
      8.882  0.1080E-01  0.8975E-01  0.0000E+00
      8.958  0.2724E-01  0.9449E-01  0.0000E+00
      9.033  0.4814E-01  0.1549E+00  0.0000E+00
      9.108  0.4478E-01  0.1259E+00  0.0000E+00
      9.183  0.1803E-01  0.4078E-01  0.0000E+00
      9.259  0.1923E-01  0.8025E-01  0.0000E+00
      9.334  0.2241E-01  0.9468E-01  0.0000E+00
      9.409  0.4276E-01  0.1144E+00  0.0000E+00
      9.484  0.3812E-01  0.1060E+00  0.0000E+00
      9.560  0.2556E-01  0.8666E-01  0.0000E+00
      9.635  0.2937E-01  0.1193E+00  0.0000E+00
      9.710  0.4629E-01  0.1098E+00  0.0000E+00
      9.785  0.7914E-01  0.1209E+00  0.0000E+00
      9.861  0.1002E+00  0.2108E+00  0.0000E+00
      9.936  0.7341E-01  0.1814E+00  0.0000E+00
     10.011  0.8434E-01  0.2489E+00  0.0000E+00
     10.087  0.7851E-01  0.1743E+00  0.0000E+00
     10.162  0.3668E-01  0.5662E-01  0.0000E+00
     10.237  0.2124E-01  0.5839E-01  0.0000E+00
     10.312  0.5496E-02  0.1354E-01  0.0000E+00
     10.388  0.5262E-04  0.1554E-03  0.0000E+00
     10.463  0.1034E-02  0.4853E-02  0.0000E+00
     10.538  0.3293E-02  0.1545E-01  0.0000E+00
     10.613  0.4159E-03  0.1952E-02  0.0000E+00
     10.689  0.1175E-05  0.5516E-05  0.0000E+00
     10.764  0.4739E-10  0.2224E-09  0.0000E+00
     10.839  0.2322E-16  0.1090E-15  0.0000E+00
     10.914  0.0000E+00  0.0000E+00  0.0000E+00
     10.990  0.0000E+00  0.0000E+00  0.0000E+00
     11.065  0.0000E+00  0.0000E+00  0.0000E+00
     11.140  0.0000E+00  0.0000E+00  0.0000E+00
     11.216  0.0000E+00  0.0000E+00  0.0000E+00
     11.291  0.0000E+00  0.0000E+00  0.0000E+00
     11.366  0.0000E+00  0.0000E+00  0.0000E+00
     11.441  0.0000E+00  0.0000E+00  0.0000E+00
     11.517  0.0000E+00  0.0000E+00  0.0000E+00
     11.51661819    -11.06360333  301      2.48923379      1.00000000
    -11.064  0.0000E+00  0.0000E+00  0.0000E+00
    -10.988  0.0000E+00  0.0000E+00  0.0000E+00
    -10.913  0.0000E+00  0.0000E+00  0.0000E+00
    -10.838  0.0000E+00  0.0000E+00  0.0000E+00
    -10.763  0.0000E+00  0.0000E+00  0.0000E+00
    -10.687  0.0000E+00  0.0000E+00  0.0000E+00
    -10.612  0.0000E+00  0.0000E+00  0.0000E+00
    -10.537  0.0000E+00  0.0000E+00  0.0000E+00
    -10.461  0.0000E+00  0.0000E+00  0.0000E+00
    -10.386  0.0000E+00  0.0000E+00  0.0000E+00
    -10.311  0.1004E-16  0.2637E-18  0.0000E+00
    -10.236  0.2026E-10  0.5322E-12  0.0000E+00
    -10.160  0.5025E-06  0.1320E-07  0.0000E+00
    -10.085  0.1778E-03  0.4682E-05  0.0000E+00
    -10.010  0.1466E-02  0.5981E-04  0.0000E+00
     -9.935  0.3861E-02  0.1343E-02  0.0000E+00
     -9.859  0.1190E-01  0.5956E-02  0.0000E+00
     -9.784  0.8115E-02  0.8112E-02  0.0000E+00
     -9.709  0.1347E-02  0.1637E-02  0.0000E+00
     -9.634  0.9041E-05  0.1187E-04  0.0000E+00
     -9.558  0.1045E-08  0.1536E-08  0.0000E+00
     -9.483  0.1639E-14  0.2698E-14  0.0000E+00
     -9.408  0.0000E+00  0.0000E+00  0.0000E+00
     -9.332  0.0000E+00  0.0000E+00  0.0000E+00
     -9.257  0.1610E-16  0.3009E-16  0.0000E+00
     -9.182  0.3764E-10  0.5397E-10  0.0000E+00
     -9.107  0.1363E-05  0.1315E-05  0.0000E+00
     -9.031  0.9037E-03  0.6335E-03  0.0000E+00
     -8.956  0.1621E-01  0.1070E-01  0.0000E+00
     -8.881  0.1730E-01  0.1187E-01  0.0000E+00
     -8.806  0.1460E-01  0.1281E-01  0.0000E+00
     -8.730  0.1149E-01  0.2018E-01  0.0000E+00
     -8.655  0.1435E-01  0.3566E-01  0.0000E+00
     -8.580  0.1102E-01  0.2678E-01  0.0000E+00
     -8.505  0.8597E-02  0.3054E-01  0.0000E+00
     -8.429  0.6915E-02  0.2330E-01  0.0000E+00
     -8.354  0.1462E-02  0.5822E-02  0.0000E+00
     -8.279  0.9438E-04  0.3043E-03  0.0000E+00
     -8.203  0.2724E-06  0.8060E-06  0.0000E+00
     -8.128  0.1194E-10  0.3499E-10  0.0000E+00
     -8.053  0.6433E-17  0.1883E-16  0.0000E+00
     -7.978  0.0000E+00  0.0000E+00  0.0000E+00
     -7.902  0.0000E+00  0.0000E+00  0.0000E+00
     -7.827  0.0000E+00  0.0000E+00  0.0000E+00
     -7.752  0.0000E+00  0.0000E+00  0.0000E+00
     -7.677  0.0000E+00  0.0000E+00  0.0000E+00
     -7.601  0.0000E+00  0.0000E+00  0.0000E+00
     -7.526  0.0000E+00  0.0000E+00  0.0000E+00
     -7.451  0.0000E+00  0.0000E+00  0.0000E+00
     -7.376  0.0000E+00  0.0000E+00  0.0000E+00
     -7.300  0.0000E+00  0.0000E+00  0.0000E+00
     -7.225  0.9124E-17  0.3267E-17  0.0000E+00
     -7.150  0.1709E-10  0.6118E-11  0.0000E+00
     -7.074  0.3914E-06  0.1402E-06  0.0000E+00
     -6.999  0.1285E-03  0.4601E-04  0.0000E+00
     -6.924  0.9558E-03  0.3423E-03  0.0000E+00
     -6.849  0.4040E-03  0.1885E-03  0.0000E+00
     -6.773  0.3226E-02  0.2471E-02  0.0000E+00
     -6.698  0.4427E-02  0.4685E-02  0.0000E+00
     -6.623  0.4060E-02  0.7980E-02  0.0000E+00
     -6.548  0.1277E-02  0.2846E-02  0.0000E+00
     -6.472  0.2018E-04  0.4260E-04  0.0000E+00
     -6.397  0.6550E-08  0.1201E-07  0.0000E+00
     -6.322  0.3078E-13  0.4790E-13  0.0000E+00
     -6.246  0.0000E+00  0.0000E+00  0.0000E+00
     -6.171  0.0000E+00  0.0000E+00  0.0000E+00
     -6.096  0.0000E+00  0.0000E+00  0.0000E+00
     -6.021  0.0000E+00  0.0000E+00  0.0000E+00
     -5.945  0.0000E+00  0.0000E+00  0.0000E+00
     -5.870  0.0000E+00  0.0000E+00  0.0000E+00
     -5.795  0.0000E+00  0.0000E+00  0.0000E+00
     -5.720  0.0000E+00  0.0000E+00  0.0000E+00
     -5.644  0.0000E+00  0.0000E+00  0.0000E+00
     -5.569  0.0000E+00  0.0000E+00  0.0000E+00
     -5.494  0.0000E+00  0.0000E+00  0.0000E+00
     -5.419  0.0000E+00  0.0000E+00  0.0000E+00
     -5.343  0.0000E+00  0.0000E+00  0.0000E+00
     -5.268  0.0000E+00  0.0000E+00  0.0000E+00
     -5.193  0.0000E+00  0.0000E+00  0.0000E+00
     -5.117  0.0000E+00  0.0000E+00  0.0000E+00
     -5.042  0.0000E+00  0.0000E+00  0.0000E+00
     -4.967  0.0000E+00  0.0000E+00  0.0000E+00
     -4.892  0.0000E+00  0.0000E+00  0.0000E+00
     -4.816  0.0000E+00  0.0000E+00  0.0000E+00
     -4.741  0.0000E+00  0.0000E+00  0.0000E+00
     -4.666  0.0000E+00  0.0000E+00  0.0000E+00
     -4.591  0.0000E+00  0.0000E+00  0.0000E+00
     -4.515  0.0000E+00  0.0000E+00  0.0000E+00
     -4.440  0.0000E+00  0.0000E+00  0.0000E+00
     -4.365  0.0000E+00  0.0000E+00  0.0000E+00