 vasp.5.4.4.18Apr17-6-g9f103f2a35 (build Oct 27 2022 13:04:57) complex          
  
 executed on             LinuxIFC date 2024.07.04  08:40:27
 running on   14 total cores
 distrk:  each k-point on   14 cores,    1 groups
 distr:  one band on NCORES_PER_BAND=   1 cores,   14 groups


--------------------------------------------------------------------------------------------------------


 INCAR:
 POTCAR:    PAW_PBE Li 17Jan2003                  
 POTCAR:    PAW_PBE Bi 08Apr2002                  
 POTCAR:    PAW_PBE S 06Sep2000                   

 ----------------------------------------------------------------------------- 
|                                                                             |
|           W    W    AA    RRRRR   N    N  II  N    N   GGGG   !!!           |
|           W    W   A  A   R    R  NN   N  II  NN   N  G    G  !!!           |
|           W    W  A    A  R    R  N N  N  II  N N  N  G       !!!           |
|           W WW W  AAAAAA  RRRRR   N  N N  II  N  N N  G  GGG   !            |
|           WW  WW  A    A  R   R   N   NN  II  N   NN  G    G                |
|           W    W  A    A  R    R  N    N  II  N    N   GGGG   !!!           |
|                                                                             |
|      For optimal performance we recommend to set                            |
|        NCORE= 4 - approx SQRT( number of cores)                             |
|      NCORE specifies how many cores store one orbital (NPAR=cpu/NCORE).     |
|      This setting can  greatly improve the performance of VASP for DFT.     |
|      The default,   NCORE=1            might be grossly inefficient         |
|      on modern multi-core architectures or massively parallel machines.     |
|      Do your own testing !!!!                                               |
|      Unfortunately you need to use the default for GW and RPA calculations. |
|      (for HF NCORE is supported but not extensively tested yet)             |
|                                                                             |
 ----------------------------------------------------------------------------- 

 POTCAR:    PAW_PBE Li 17Jan2003                  
   VRHFIN =Li: s1p0                                                             
   LEXCH  = PE                                                                  
   EATOM  =     5.3001 eV,    0.3895 Ry                                         
                                                                                
   TITEL  = PAW_PBE Li 17Jan2003                                                
   LULTRA =        F    use ultrasoft PP ?                                      
   IUNSCR =        1    unscreen: 0-lin 1-nonlin 2-no                           
   RPACOR =    1.500    partial core radius                                     
   POMASS =    7.010; ZVAL   =    1.000    mass and valenz                      
   RCORE  =    2.050    outmost cutoff radius                                   
   RWIGS  =    2.600; RWIGS  =    1.376    wigner-seitz radius (au A)           
   ENMAX  =  140.000; ENMIN  =  100.000 eV                                      
   ICORE  =        2    local potential                                         
   LCOR   =        T    correct aug charges                                     
   LPAW   =        T    paw PP                                                  
   EAUG   =  331.638                                                            
   DEXC   =    0.000                                                            
   RMAX   =    2.098    core radius for proj-oper                               
   RAUG   =    1.300    factor for augmentation sphere                          
   RDEP   =    2.094    radius for radial grids                                 
   RDEPT  =    1.810    core radius for aug-charge                              
                                                                                
   Atomic configuration                                                         
    4 entries                                                                   
     n  l   j            E        occ.                                          
     1  0  0.50       -51.8549   2.0000                                         
     2  0  0.50        -2.8742   1.0000                                         
     2  1  0.50        -1.3606   0.0000                                         
     3  2  1.50        -1.3606   0.0000                                         
   Description                                                                  
     l       E           TYP  RCUT    TYP  RCUT                                 
     0     -2.8742052     23  2.050                                             
     0     27.2116520     23  2.050                                             
     1     -1.3605826     23  2.050                                             
     2     -1.3605826     23  2.050                                             
  local pseudopotential read in
  partial core-charges read in
  partial kinetic energy density read in
  atomic valenz-charges read in
  non local Contribution for L=           0  read in
    real space projection operators read in
  non local Contribution for L=           0  read in
    real space projection operators read in
  non local Contribution for L=           1  read in
    real space projection operators read in
    PAW grid and wavefunctions read in
 
   number of l-projection  operators is LMAX  =           3
   number of lm-projection operators is LMMAX =           5
 
 POTCAR:    PAW_PBE Bi 08Apr2002                  
   VRHFIN =Bi:                                                                  
   LEXCH  = PE                                                                  
   EATOM  =   150.8133 eV,   11.0845 Ry                                         
                                                                                
   TITEL  = PAW_PBE Bi 08Apr2002                                                
   LULTRA =        F    use ultrasoft PP ?                                      
   IUNSCR =        1    unscreen: 0-lin 1-nonlin 2-no                           
   RPACOR =    2.200    partial core radius                                     
   POMASS =  208.980; ZVAL   =    5.000    mass and valenz                      
   RCORE  =    3.000    outmost cutoff radius                                   
   RWIGS  =    3.090; RWIGS  =    1.635    wigner-seitz radius (au A)           
   ENMAX  =  105.037; ENMIN  =   78.777 eV                                      
   ICORE  =        3    local potential                                         
   LCOR   =        T    correct aug charges                                     
   LPAW   =        T    paw PP                                                  
   EAUG   =  265.427                                                            
   DEXC   =    0.000                                                            
   RMAX   =    3.067    core radius for proj-oper                               
   RAUG   =    1.300    factor for augmentation sphere                          
   RDEP   =    3.012    radius for radial grids                                 
   RDEPT  =    2.604    core radius for aug-charge                              
                                                                                
   Atomic configuration                                                         
   17 entries                                                                   
     n  l   j            E        occ.                                          
     1  0  0.50    -90639.6582   2.0000                                         
     2  0  0.50    -16282.4667   2.0000                                         
     2  1  1.50    -13922.8287   6.0000                                         
     3  0  0.50     -3930.4763   2.0000                                         
     3  1  1.50     -3256.7013   6.0000                                         
     3  2  2.50     -2581.6169  10.0000                                         
     4  0  0.50      -902.2614   2.0000                                         
     4  1  1.50      -681.5915   6.0000                                         
     4  2  2.50      -429.8249  10.0000                                         
     4  3  3.50      -152.6004  14.0000                                         
     5  0  0.50      -157.7156   2.0000                                         
     5  1  1.50       -95.8054   6.0000                                         
     5  2  2.50       -27.0806  10.0000                                         
     6  0  0.50       -14.4732   2.0000                                         
     6  1  1.50        -4.5702   3.0000                                         
     6  2  2.50        -2.7212   0.0000                                         
     5  3  2.50        -2.7212   0.0000                                         
   Description                                                                  
     l       E           TYP  RCUT    TYP  RCUT                                 
     0    -14.4732299     23  3.000                                             
     0    -12.2452434     23  3.000                                             
     1     -4.5701666     23  3.000                                             
     1    -13.6058260     23  3.000                                             
     2     -2.7211652     23  3.000                                             
     3     -1.3605826      7  3.000                                             
  local pseudopotential read in
  partial core-charges read in
  partial kinetic energy density read in
  kinetic energy density of atom read in
  atomic valenz-charges read in
  non local Contribution for L=           0  read in
    real space projection operators read in
  non local Contribution for L=           0  read in
    real space projection operators read in
  non local Contribution for L=           1  read in
    real space projection operators read in
  non local Contribution for L=           1  read in
    real space projection operators read in
  non local Contribution for L=           2  read in
    real space projection operators read in
    PAW grid and wavefunctions read in
 
   number of l-projection  operators is LMAX  =           5
   number of lm-projection operators is LMMAX =          13
 
 POTCAR:    PAW_PBE S 06Sep2000                   
   VRHFIN =S : s2p4                                                             
   LEXCH  = PE                                                                  
   EATOM  =   276.8230 eV,   20.3459 Ry                                         
                                                                                
   TITEL  = PAW_PBE S 06Sep2000                                                 
   LULTRA =        F    use ultrasoft PP ?                                      
   IUNSCR =        1    unscreen: 0-lin 1-nonlin 2-no                           
   RPACOR =    1.500    partial core radius                                     
   POMASS =   32.066; ZVAL   =    6.000    mass and valenz                      
   RCORE  =    1.900    outmost cutoff radius                                   
   RWIGS  =    2.200; RWIGS  =    1.164    wigner-seitz radius (au A)           
   ENMAX  =  258.689; ENMIN  =  194.016 eV                                      
   ICORE  =        2    local potential                                         
   LCOR   =        T    correct aug charges                                     
   LPAW   =        T    paw PP                                                  
   EAUG   =  335.092                                                            
   DEXC   =    0.000                                                            
   RMAX   =    1.942    core radius for proj-oper                               
   RAUG   =    1.300    factor for augmentation sphere                          
   RDEP   =    1.954    radius for radial grids                                 
   RDEPT  =    1.744    core radius for aug-charge                              
                                                                                
   Atomic configuration                                                         
    6 entries                                                                   
     n  l   j            E        occ.                                          
     1  0  0.50     -2405.8406   2.0000                                         
     2  0  0.50      -211.7007   2.0000                                         
     2  1  1.50      -156.4958   6.0000                                         
     3  0  0.50       -17.2562   2.0000                                         
     3  1  0.50        -7.0085   4.0000                                         
     3  2  1.50        -6.8029   0.0000                                         
   Description                                                                  
     l       E           TYP  RCUT    TYP  RCUT                                 
     0    -17.2561641     23  1.900                                             
     0    -15.8743224     23  1.900                                             
     1     -7.0085400     23  1.900                                             
     1     -2.7779785     23  1.900                                             
     2     -6.8029130     23  1.900                                             
  local pseudopotential read in
  partial core-charges read in
  partial kinetic energy density read in
  atomic valenz-charges read in
  non local Contribution for L=           0  read in
    real space projection operators read in
  non local Contribution for L=           0  read in
    real space projection operators read in
  non local Contribution for L=           1  read in
    real space projection operators read in
  non local Contribution for L=           1  read in
    real space projection operators read in
    PAW grid and wavefunctions read in
 
   number of l-projection  operators is LMAX  =           4
   number of lm-projection operators is LMMAX =           8
 
 Optimization of the real space projectors (new method)

 maximal supplied QI-value         = 18.33
 optimisation between [QCUT,QGAM] = [  8.80, 17.60] = [ 21.68, 86.71] Ry 
 Optimized for a Real-space Cutoff    1.15 Angstroem

   l    n(q)    QCUT    max X(q) W(low)/X(q) W(high)/X(q)  e(spline) 
   0      6     8.799    33.825    0.11E-02    0.11E-02    0.82E-07
   0      6     8.799     8.944    0.75E-03    0.85E-03    0.59E-07
   1      5     8.799     4.214    0.92E-03    0.27E-03    0.41E-07
 Optimization of the real space projectors (new method)

 maximal supplied QI-value         = 12.47
 optimisation between [QCUT,QGAM] = [  8.86, 17.71] = [ 21.96, 87.83] Ry 
 Optimized for a Real-space Cutoff    1.59 Angstroem

   l    n(q)    QCUT    max X(q) W(low)/X(q) W(high)/X(q)  e(spline) 
   0      8     8.855    93.365    0.12E-03    0.22E-03    0.92E-07
   0      8     8.855    75.373    0.13E-03    0.24E-03    0.10E-06
   1      8     8.855    32.978    0.17E-02    0.62E-03    0.17E-06
   1      8     8.855    35.433    0.19E-02    0.68E-03    0.19E-06
   2      7     8.855     8.108    0.22E-03    0.34E-03    0.64E-07
 Optimization of the real space projectors (new method)

 maximal supplied QI-value         = 19.84
 optimisation between [QCUT,QGAM] = [  8.73, 17.66] = [ 21.34, 87.33] Ry 
 Optimized for a Real-space Cutoff    1.22 Angstroem

   l    n(q)    QCUT    max X(q) W(low)/X(q) W(high)/X(q)  e(spline) 
   0      6     8.731   187.594    0.15E-02    0.56E-03    0.90E-07
   0      6     8.731   164.243    0.15E-02    0.56E-03    0.89E-07
   1      6     8.731    67.533    0.37E-03    0.20E-02    0.11E-06
   1      6     8.731    50.729    0.36E-03    0.19E-02    0.10E-06
  PAW_PBE Li 17Jan2003                  :
 energy of atom  1       EATOM=   -5.3001
 kinetic energy error for atom=    0.0000 (will be added to EATOM!!)
  PAW_PBE Bi 08Apr2002                  :
 energy of atom  2       EATOM= -150.8133
 kinetic energy error for atom=    0.0003 (will be added to EATOM!!)
  PAW_PBE S 06Sep2000                   :
 energy of atom  3       EATOM= -276.8230
 kinetic energy error for atom=    0.0077 (will be added to EATOM!!)
 
 
 POSCAR: Li9 Bi1 S6                              
  positions in direct lattice
  No initial velocities read in
 exchange correlation table for  LEXCH =        8
   RHO(1)=    0.500       N(1)  =     2000
   RHO(2)=  100.500       N(2)  =     4000
 


--------------------------------------------------------------------------------------------------------


 ion  position               nearest neighbor table
   1  0.995  0.515  0.309-  15 3.02
   2  0.205  0.005  0.691-  12 3.02
   3  0.000  0.000  0.000-
   4  0.314  0.795  0.309-  13 3.02
   5  0.485  0.685  0.690-  16 3.02
   6  0.515  0.315  0.310-  12 3.02
   7  0.686  0.205  0.691-  15 3.02
   8  0.795  0.995  0.309-  16 3.02
   9  0.005  0.485  0.691-  13 3.02
  10  0.500  0.500  0.000-  11 2.97  14 2.97  13 3.00  15 3.00  12 3.00  16 3.00
  11  0.272  0.272  0.546-  10 2.97
  12  0.182  0.353  0.001-  10 3.00   2 3.02   6 3.02
  13  0.352  0.818  1.000-  10 3.00   9 3.02   4 3.02
  14  0.728  0.728  0.454-  10 2.97
  15  0.648  0.182  0.000-  10 3.00   1 3.02   7 3.02
  16  0.818  0.647  0.999-  10 3.00   8 3.02   5 3.02
 
  LATTYP: Found a triclinic cell.
 ALAT       =     8.9173413387
 B/A-ratio  =     0.9595065414
 C/A-ratio  =     0.9596466964
 COS(alpha) =     0.0005004676
 COS(beta)  =     0.4800086697
 COS(gamma) =     0.4808918259
  
  Lattice vectors:
  
 A1 = (  -0.1385273700,  -0.1867403700,  -8.9143095500)
 A2 = (  -2.3562654300,   7.0560573100,  -4.2272257000)
 A3 = (   7.4423089000,  -0.0400520200,  -4.2238834800)


Analysis of symmetry for initial positions (statically):
=====================================================================
 Subroutine PRICEL returns:
 Original cell was already a primitive cell.
 

 Routine SETGRP: Setting up the symmetry group for a 
 triclinic supercell.


 Subroutine GETGRP returns: Found  2 space group operations
 (whereof  2 operations were pure point group operations)
 out of a pool of  2 trial point group operations.


The static configuration has the point symmetry S_2 .


Analysis of symmetry for dynamics (positions and initial velocities):
=====================================================================
 Subroutine PRICEL returns:
 Original cell was already a primitive cell.
 

 Routine SETGRP: Setting up the symmetry group for a 
 triclinic supercell.


 Subroutine GETGRP returns: Found  2 space group operations
 (whereof  2 operations were pure point group operations)
 out of a pool of  2 trial point group operations.


The dynamic configuration has the point symmetry S_2 .


 Subroutine INISYM returns: Found  2 space group operations
 (whereof  2 operations are pure point group operations),
 and found     1 'primitive' translations

 
 
 KPOINTS: pymatgen with grid density = 807 / numbe

Automatic generation of k-mesh.
Space group operators:
 irot       det(A)        alpha          n_x          n_y          n_z        tau_x        tau_y        tau_z
    1     1.000000     0.000000     1.000000     0.000000     0.000000     0.000000     0.000000     0.000000
    2    -1.000000     0.000000     1.000000     0.000000     0.000000     0.000000     0.000000     0.000000
 
 Subroutine IBZKPT returns following result:
 ===========================================
 
 Found     14 irreducible k-points:
 
 Following reciprocal coordinates:
            Coordinates               Weight
  0.000000  0.000000  0.000000      1.000000
  0.333333  0.000000  0.000000      2.000000
  0.000000  0.333333  0.000000      2.000000
  0.333333  0.333333  0.000000      2.000000
 -0.333333  0.333333  0.000000      2.000000
 -0.000000  0.000000  0.333333      2.000000
  0.333333  0.000000  0.333333      2.000000
 -0.333333  0.000000  0.333333      2.000000
 -0.000000  0.333333  0.333333      2.000000
  0.333333  0.333333  0.333333      2.000000
 -0.333333  0.333333  0.333333      2.000000
 -0.000000 -0.333333  0.333333      2.000000
  0.333333 -0.333333  0.333333      2.000000
 -0.333333 -0.333333  0.333333      2.000000
 
 Following cartesian coordinates:
            Coordinates               Weight
  0.000000  0.000000  0.000000      1.000000
  0.044306  0.014205 -0.000986      2.000000
 -0.000300  0.046559 -0.000971      2.000000
  0.044005  0.060763 -0.001957      2.000000
 -0.044606  0.032354  0.000015      2.000000
  0.020851  0.028809  0.036466      2.000000
  0.065157  0.043014  0.035479      2.000000
 -0.023455  0.014605  0.037452      2.000000
  0.020551  0.075368  0.035495      2.000000
  0.064856  0.089573  0.034509      2.000000
 -0.023755  0.061164  0.036481      2.000000
  0.021151 -0.017750  0.037436      2.000000
  0.065457 -0.003545  0.036450      2.000000
 -0.023154 -0.031954  0.038422      2.000000
 


--------------------------------------------------------------------------------------------------------




 Dimension of arrays:
   k-points           NKPTS =     14   k-points in BZ     NKDIM =     14   number of bands    NBANDS=     42
   number of dos      NEDOS =    301   number of ions     NIONS =     16
   non local maximal  LDIM  =      5   non local SUM 2l+1 LMDIM =     13
   total plane-waves  NPLWV =  51840
   max r-space proj   IRMAX =   1885   max aug-charges    IRDMAX=   4112
   dimension x,y,z NGX =    36 NGY =   36 NGZ =   40
   dimension x,y,z NGXF=    54 NGYF=   54 NGZF=   54
   support grid    NGXF=    54 NGYF=   54 NGZF=   54
   ions per type =               9   1   6
   NGX,Y,Z   is equivalent  to a cutoff of   6.99,  6.99,  7.46 a.u.
   NGXF,Y,Z  is equivalent  to a cutoff of  10.49, 10.49, 10.07 a.u.

 SYSTEM =  CIS                                     
 POSCAR =  Li9 Bi1 S6                              

 Startparameter for this run:
   NWRITE =      2    write-flag & timer
   PREC   = medium    normal or accurate (medium, high low for compatibility)
   ISTART =      0    job   : 0-new  1-cont  2-samecut
   ICHARG =      2    charge: 1-file 2-atom 10-const
   ISPIN  =      1    spin polarized calculation?
   LNONCOLLINEAR =      F non collinear calculations
   LSORBIT =      F    spin-orbit coupling
   INIWAV =      1    electr: 0-lowe 1-rand  2-diag
   LASPH  =      T    aspherical Exc in radial PAW
   METAGGA=      F    non-selfconsistent MetaGGA calc.

 Electronic Relaxation 1
   ENCUT  =  300.0 eV  22.05 Ry    4.70 a.u.  12.09 12.08 12.59*2*pi/ulx,y,z
   ENINI  =  300.0     initial cutoff
   ENAUG  =  335.1 eV  augmentation charge cutoff
   NELM   =     60;   NELMIN=  2; NELMDL= -5     # of ELM steps 
   EDIFF  = 0.1E-03   stopping-criterion for ELM
   LREAL  =      T    real-space projection
   NLSPLINE    = F    spline interpolate recip. space projectors
   LCOMPAT=      F    compatible to vasp.4.4
   GGA_COMPAT  = T    GGA compatible to vasp.4.4-vasp.4.6
   LMAXPAW     = -100 max onsite density
   LMAXMIX     =    4 max onsite mixed and CHGCAR
   VOSKOWN=      0    Vosko Wilk Nusair interpolation
   ROPT   =   -0.00200  -0.00200  -0.00200
 Ionic relaxation
   EDIFFG = -.5E-01   stopping-criterion for IOM
   NSW    =     99    number of steps for IOM
   NBLOCK =      1;   KBLOCK =     99    inner block; outer block 
   IBRION =      2    ionic relax: 0-MD 1-quasi-New 2-CG
   NFREE  =      1    steps in history (QN), initial steepest desc. (CG)
   ISIF   =      3    stress and relaxation
   IWAVPR =     11    prediction:  0-non 1-charg 2-wave 3-comb
   ISYM   =      2    0-nonsym 1-usesym 2-fastsym
   LCORR  =      T    Harris-Foulkes like correction to forces

   POTIM  = 0.1000    time-step for ionic-motion
   TEIN   =    0.0    initial temperature
   TEBEG  =    0.0;   TEEND  =   0.0 temperature during run
   SMASS  =  -3.00    Nose mass-parameter (am)
   estimated Nose-frequenzy (Omega)   =  0.10E-29 period in steps =****** mass=  -0.167E-26a.u.
   SCALEE = 1.0000    scale energy and forces
   NPACO  =    256;   APACO  = 16.0  distance and # of slots for P.C.
   PSTRESS=    0.0 pullay stress

  Mass of Ions in am
   POMASS =   7.01208.98 32.07
  Ionic Valenz
   ZVAL   =   1.00  5.00  6.00
  Atomic Wigner-Seitz radii
   RWIGS  =  -1.00 -1.00 -1.00
  virtual crystal weights 
   VCA    =   1.00  1.00  1.00
   NELECT =      50.0000    total number of electrons
   NUPDOWN=      -1.0000    fix difference up-down

 DOS related values:
   EMIN   =  10.00;   EMAX   =-10.00  energy-range for DOS
   EFERMI =   0.00
   ISMEAR =     0;   SIGMA  =   0.05  broadening in eV -4-tet -1-fermi 0-gaus

 Electronic relaxation 2 (details)
   IALGO  =     38    algorithm
   LDIAG  =      T    sub-space diagonalisation (order eigenvalues)
   LSUBROT=      F    optimize rotation matrix (better conditioning)
   TURBO    =      0    0=normal 1=particle mesh
   IRESTART =      0    0=no restart 2=restart with 2 vectors
   NREBOOT  =      0    no. of reboots
   NMIN     =      0    reboot dimension
   EREF     =   0.00    reference energy to select bands
   IMIX   =      4    mixing-type and parameters
     AMIX     =   0.40;   BMIX     =  1.00
     AMIX_MAG =   1.60;   BMIX_MAG =  1.00
     AMIN     =   0.10
     WC   =   100.;   INIMIX=   1;  MIXPRE=   1;  MAXMIX= -45

 Intra band minimization:
   WEIMIN = 0.0010     energy-eigenvalue tresh-hold
   EBREAK =  0.60E-06  absolut break condition
   DEPER  =   0.30     relativ break condition  

   TIME   =   0.40     timestep for ELM

  volume/ion in A,a.u.               =      29.95       202.10
  Fermi-wavevector in a.u.,A,eV,Ry     =   0.770732  1.456472  8.082234  0.594027
  Thomas-Fermi vector in A             =   1.871999
 
 Write flags
   LWAVE        =      F    write WAVECAR
   LDOWNSAMPLE  =      F    k-point downsampling of WAVECAR
   LCHARG       =      F    write CHGCAR
   LVTOT        =      F    write LOCPOT, total local potential
   LVHAR        =      F    write LOCPOT, Hartree potential only
   LELF         =      F    write electronic localiz. function (ELF)
   LORBIT       =     10    0 simple, 1 ext, 2 COOP (PROOUT), +10 PAW based schemes


 Dipole corrections
   LMONO  =      F    monopole corrections only (constant potential shift)
   LDIPOL =      F    correct potential (dipole corrections)
   IDIPOL =      0    1-x, 2-y, 3-z, 4-all directions 
   EPSILON=  1.0000000 bulk dielectric constant

 Exchange correlation treatment:
   GGA     =    --    GGA type
   LEXCH   =     8    internal setting for exchange type
   VOSKOWN=      0    Vosko Wilk Nusair interpolation
   LHFCALC =     F    Hartree Fock is set to
   LHFONE  =     F    Hartree Fock one center treatment
   AEXX    =    0.0000 exact exchange contribution

 Linear response parameters
   LEPSILON=     F    determine dielectric tensor
   LRPA    =     F    only Hartree local field effects (RPA)
   LNABLA  =     F    use nabla operator in PAW spheres
   LVEL    =     F    velocity operator in full k-point grid
   LINTERFAST=   F  fast interpolation
   KINTER  =     0    interpolate to denser k-point grid
   CSHIFT  =0.1000    complex shift for real part using Kramers Kronig
   OMEGAMAX=  -1.0    maximum frequency
   DEG_THRESHOLD= 0.2000000E-02 threshold for treating states as degnerate
   RTIME   =   -0.100 relaxation time in fs
  (WPLASMAI=    0.000 imaginary part of plasma frequency in eV, 0.658/RTIME)
   DFIELD  = 0.0000000 0.0000000 0.0000000 field for delta impulse in time
 
 Orbital magnetization related:
   ORBITALMAG=     F  switch on orbital magnetization
   LCHIMAG   =     F  perturbation theory with respect to B field
   DQ        =  0.001000  dq finite difference perturbation B field
   LLRAUG    =     F  two centre corrections for induced B field



--------------------------------------------------------------------------------------------------------


 conjugate gradient relaxation of ions
 charge density and potential will be updated during run
 non-spin polarized calculation
 Variant of blocked Davidson
 Davidson routine will perform the subspace rotation
 perform sub-space diagonalisation
    after iterative eigenvector-optimisation
 modified Broyden-mixing scheme, WC =      100.0
 initial mixing is a Kerker type mixing with AMIX =  0.4000 and BMIX =      1.0000
 Hartree-type preconditioning will be used
 using additional bands           17
 real space projection scheme for non local part
 use partial core corrections
 calculate Harris-corrections to forces 
   (improved forces if not selfconsistent)
 use gradient corrections 
 use of overlap-Matrix (Vanderbilt PP)
 Gauss-broadening in eV      SIGMA  =   0.05


--------------------------------------------------------------------------------------------------------


  energy-cutoff  :      300.00
  volume of cell :      479.16
      direct lattice vectors                 reciprocal lattice vectors
     7.442308900 -0.040052020 -4.223883480     0.132917306  0.042613522 -0.002958204
    -2.356265430  7.056057310 -4.227225700    -0.000901013  0.139676769 -0.002912001
     0.138527370  0.186740370  8.914309550     0.062553182  0.086427309  0.109396605

  length of vectors
     8.557497156  8.556247347  8.917341339     0.139612583  0.139710026  0.152807714


 
 k-points in units of 2pi/SCALE and weight: pymatgen with grid density = 807 / numbe
   0.00000000  0.00000000  0.00000000       0.037
   0.04430577  0.01420451 -0.00098607       0.074
  -0.00030034  0.04655892 -0.00097067       0.074
   0.04400543  0.06076343 -0.00195674       0.074
  -0.04460611  0.03235442  0.00001540       0.074
   0.02085106  0.02880910  0.03646554       0.074
   0.06515683  0.04301361  0.03547947       0.074
  -0.02345471  0.01460460  0.03745160       0.074
   0.02055072  0.07536803  0.03549487       0.074
   0.06485649  0.08957253  0.03450880       0.074
  -0.02375505  0.06116352  0.03648094       0.074
   0.02115140 -0.01774982  0.03743620       0.074
   0.06545717 -0.00354531  0.03645013       0.074
  -0.02315437 -0.03195433  0.03842227       0.074
 
 k-points in reciprocal lattice and weights: pymatgen with grid density = 807 / numbe
   0.00000000  0.00000000  0.00000000       0.037
   0.33333333  0.00000000  0.00000000       0.074
   0.00000000  0.33333333  0.00000000       0.074
   0.33333333  0.33333333  0.00000000       0.074
  -0.33333333  0.33333333  0.00000000       0.074
  -0.00000000  0.00000000  0.33333333       0.074
   0.33333333  0.00000000  0.33333333       0.074
  -0.33333333  0.00000000  0.33333333       0.074
  -0.00000000  0.33333333  0.33333333       0.074
   0.33333333  0.33333333  0.33333333       0.074
  -0.33333333  0.33333333  0.33333333       0.074
  -0.00000000 -0.33333333  0.33333333       0.074
   0.33333333 -0.33333333  0.33333333       0.074
  -0.33333333 -0.33333333  0.33333333       0.074
 
 position of ions in fractional coordinates (direct lattice) 
   0.99533169  0.51461851  0.30934897
   0.20505907  0.00501802  0.69118463
   0.00000000  0.00000000  0.00000000
   0.31354410  0.79491538  0.30883118
   0.48515717  0.68527771  0.69041371
   0.51484283  0.31472229  0.30958629
   0.68645590  0.20508462  0.69116982
   0.79494093  0.99498198  0.30881537
   0.00466831  0.48538149  0.69065103
   0.50000000  0.50000000  0.00000000
   0.27218438  0.27191917  0.54574398
   0.18202772  0.35260299  0.00059197
   0.35230012  0.81827013  0.99985464
   0.72781562  0.72808083  0.45425602
   0.64769988  0.18172987  0.00014536
   0.81797228  0.64739701  0.99940803
 
 position of ions in cartesian coordinates  (Angst):
   6.23784139  3.64908060 -3.62194120
   1.61003714  0.15626648  5.27407583
   0.00000000  0.00000000  0.00000000
   0.50324199  5.65408165 -1.93164373
   2.09163454  4.94485538  1.20849063
   3.13293630  2.25789028 -0.74529026
   4.72132899  1.54866419  2.39485302
   3.61453370  7.04647918 -4.81087546
  -1.01327055  3.55366506  4.08514157
   2.54302173  3.50800264 -4.22555459
   1.46056697  2.00968815  2.56579196
   0.52396229  2.48080687 -2.25411930
   0.83237193  5.94636383  3.96592659
   3.76400387  5.19305751 -2.10259159
   4.39219891  1.25638183 -3.50272622
   4.70060855  4.72193879  2.71731967
 


--------------------------------------------------------------------------------------------------------


 k-point  1 :   0.0000 0.0000 0.0000  plane waves:    5671
 k-point  2 :   0.3333 0.0000 0.0000  plane waves:    5665
 k-point  3 :   0.0000 0.3333 0.0000  plane waves:    5663
 k-point  4 :   0.3333 0.3333 0.0000  plane waves:    5658
 k-point  5 :  -0.3333 0.3333 0.0000  plane waves:    5664
 k-point  6 :  -0.0000 0.0000 0.3333  plane waves:    5617
 k-point  7 :   0.3333 0.0000 0.3333  plane waves:    5653
 k-point  8 :  -0.3333 0.0000 0.3333  plane waves:    5666
 k-point  9 :  -0.0000 0.3333 0.3333  plane waves:    5652
 k-point 10 :   0.3333 0.3333 0.3333  plane waves:    5657
 k-point 11 :  -0.3333 0.3333 0.3333  plane waves:    5658
 k-point 12 :  -0.0000-0.3333 0.3333  plane waves:    5664
 k-point 13 :   0.3333-0.3333 0.3333  plane waves:    5659
 k-point 14 :  -0.3333-0.3333 0.3333  plane waves:    5665

 maximum and minimum number of plane-waves per node :      5671     5617

 maximum number of plane-waves:      5671
 maximum index in each direction: 
   IXMAX=   12   IYMAX=   12   IZMAX=   12
   IXMIN=  -12   IYMIN=  -12   IZMIN=  -12


 serial   3D FFT for wavefunctions
 parallel 3D FFT for charge:
    minimum data exchange during FFTs selected (reduces bandwidth)


 total amount of memory used by VASP MPI-rank0    38845. kBytes
=======================================================================

   base      :      30000. kBytes
   nonlr-proj:       1310. kBytes
   fftplans  :        651. kBytes
   grid      :       2861. kBytes
   one-center:        129. kBytes
   wavefun   :       3894. kBytes
 
     INWAV:  cpu time    0.0001: real time    0.0002
 Broyden mixing: mesh for mixing (old mesh)
   NGX = 25   NGY = 25   NGZ = 25
  (NGX  = 54   NGY  = 54   NGZ  = 54)
  gives a total of  15625 points

 initial charge density was supplied:
 charge density of overlapping atoms calculated
 number of electron      50.0000000 magnetization 
 keeping initial charge density in first step


--------------------------------------------------------------------------------------------------------


 Maximum index for non-local projection operator         1789
 Maximum index for augmentation-charges          266 (set IRDMAX)


--------------------------------------------------------------------------------------------------------


 First call to EWALD:  gamma=   0.227
 Maximum number of real-space cells 3x 3x 3
 Maximum number of reciprocal cells 3x 3x 3

    FEWALD:  cpu time    0.0021: real time    0.0021


--------------------------------------- Iteration      1(   1)  ---------------------------------------


    POTLOK:  cpu time    0.0213: real time    0.0931
    SETDIJ:  cpu time    0.1159: real time    0.1165
     EDDAV:  cpu time    0.4597: real time    0.4646
       DOS:  cpu time    0.0004: real time    0.0005
    --------------------------------------------
      LOOP:  cpu time    0.5974: real time    0.6747

 eigenvalue-minimisations  :  1176
 total energy-change (2. order) : 0.1543658E+03  (-0.1223299E+04)
 number of electron      50.0000000 magnetization 
 augmentation part       50.0000000 magnetization 

 Free energy of the ion-electron system (eV)
  ---------------------------------------------------
  alpha Z        PSCENC =        19.46311471
  Ewald energy   TEWEN  =     -1267.08630810
  -Hartree energ DENC   =      -525.69763427
  -exchange      EXHF   =         0.00000000
  -V(xc)+E(xc)   XCENC  =       -80.03271944
  PAW double counting   =      1598.96116660    -1412.86395192
  entropy T*S    EENTRO =        -0.00835780
  eigenvalues    EBANDS =       -37.77530505
  atomic energy  EATOM  =      1859.40581359
  Solvation  Ediel_sol  =         0.00000000
  ---------------------------------------------------
  free energy    TOTEN  =       154.36581831 eV

  energy without entropy =      154.37417612  energy(sigma->0) =      154.36999721


--------------------------------------------------------------------------------------------------------




--------------------------------------- Iteration      1(   2)  ---------------------------------------


     EDDAV:  cpu time    0.7219: real time    0.7328
       DOS:  cpu time    0.0003: real time    0.0003
    --------------------------------------------
      LOOP:  cpu time    0.7221: real time    0.7331

 eigenvalue-minimisations  :  1680
 total energy-change (2. order) :-0.1875914E+03  (-0.1779140E+03)
 number of electron      50.0000000 magnetization 
 augmentation part       50.0000000 magnetization 

 Free energy of the ion-electron system (eV)
  ---------------------------------------------------
  alpha Z        PSCENC =        19.46311471
  Ewald energy   TEWEN  =     -1267.08630810
  -Hartree energ DENC   =      -525.69763427
  -exchange      EXHF   =         0.00000000
  -V(xc)+E(xc)   XCENC  =       -80.03271944
  PAW double counting   =      1598.96116660    -1412.86395192
  entropy T*S    EENTRO =        -0.00000000
  eigenvalues    EBANDS =      -225.37501628
  atomic energy  EATOM  =      1859.40581359
  Solvation  Ediel_sol  =         0.00000000
  ---------------------------------------------------
  free energy    TOTEN  =       -33.22553511 eV

  energy without entropy =      -33.22553511  energy(sigma->0) =      -33.22553511


--------------------------------------------------------------------------------------------------------




--------------------------------------- Iteration      1(   3)  ---------------------------------------


     EDDAV:  cpu time    0.7614: real time    0.7725
       DOS:  cpu time    0.0003: real time    0.0003
    --------------------------------------------
      LOOP:  cpu time    0.7617: real time    0.7728

 eigenvalue-minimisations  :  1568
 total energy-change (2. order) :-0.2399430E+02  (-0.2381083E+02)
 number of electron      50.0000000 magnetization 
 augmentation part       50.0000000 magnetization 

 Free energy of the ion-electron system (eV)
  ---------------------------------------------------
  alpha Z        PSCENC =        19.46311471
  Ewald energy   TEWEN  =     -1267.08630810
  -Hartree energ DENC   =      -525.69763427
  -exchange      EXHF   =         0.00000000
  -V(xc)+E(xc)   XCENC  =       -80.03271944
  PAW double counting   =      1598.96116660    -1412.86395192
  entropy T*S    EENTRO =        -0.00000000
  eigenvalues    EBANDS =      -249.36931728
  atomic energy  EATOM  =      1859.40581359
  Solvation  Ediel_sol  =         0.00000000
  ---------------------------------------------------
  free energy    TOTEN  =       -57.21983611 eV

  energy without entropy =      -57.21983611  energy(sigma->0) =      -57.21983611


--------------------------------------------------------------------------------------------------------




--------------------------------------- Iteration      1(   4)  ---------------------------------------


     EDDAV:  cpu time    0.7822: real time    0.7870
       DOS:  cpu time    0.0002: real time    0.0002
    --------------------------------------------
      LOOP:  cpu time    0.7825: real time    0.7873

 eigenvalue-minimisations  :  1694
 total energy-change (2. order) :-0.5030165E+00  (-0.5026723E+00)
 number of electron      50.0000000 magnetization 
 augmentation part       50.0000000 magnetization 

 Free energy of the ion-electron system (eV)
  ---------------------------------------------------
  alpha Z        PSCENC =        19.46311471
  Ewald energy   TEWEN  =     -1267.08630810
  -Hartree energ DENC   =      -525.69763427
  -exchange      EXHF   =         0.00000000
  -V(xc)+E(xc)   XCENC  =       -80.03271944
  PAW double counting   =      1598.96116660    -1412.86395192
  entropy T*S    EENTRO =        -0.00000000
  eigenvalues    EBANDS =      -249.87233377
  atomic energy  EATOM  =      1859.40581359
  Solvation  Ediel_sol  =         0.00000000
  ---------------------------------------------------
  free energy    TOTEN  =       -57.72285261 eV

  energy without entropy =      -57.72285261  energy(sigma->0) =      -57.72285261


--------------------------------------------------------------------------------------------------------




--------------------------------------- Iteration      1(   5)  ---------------------------------------


     EDDAV:  cpu time    0.7745: real time    0.7754
       DOS:  cpu time    0.0002: real time    0.0002
    CHARGE:  cpu time    0.0179: real time    0.0181
    MIXING:  cpu time    0.0005: real time    0.0005
    --------------------------------------------
      LOOP:  cpu time    0.7931: real time    0.7942

 eigenvalue-minimisations  :  1694
 total energy-change (2. order) :-0.6034447E-02  (-0.6033655E-02)
 number of electron      49.9999764 magnetization 
 augmentation part       -6.7012127 magnetization 

 Broyden mixing:
  rms(total) = 0.90141E+00    rms(broyden)= 0.90137E+00
  rms(prec ) = 0.19664E+01
  weight for this iteration     100.00

 Free energy of the ion-electron system (eV)
  ---------------------------------------------------
  alpha Z        PSCENC =        19.46311471
  Ewald energy   TEWEN  =     -1267.08630810
  -Hartree energ DENC   =      -525.69763427
  -exchange      EXHF   =         0.00000000
  -V(xc)+E(xc)   XCENC  =       -80.03271944
  PAW double counting   =      1598.96116660    -1412.86395192
  entropy T*S    EENTRO =        -0.00000000
  eigenvalues    EBANDS =      -249.87836822
  atomic energy  EATOM  =      1859.40581359
  Solvation  Ediel_sol  =         0.00000000
  ---------------------------------------------------
  free energy    TOTEN  =       -57.72888705 eV

  energy without entropy =      -57.72888705  energy(sigma->0) =      -57.72888705


--------------------------------------------------------------------------------------------------------




--------------------------------------- Iteration      1(   6)  ---------------------------------------


    POTLOK:  cpu time    0.0080: real time    0.0081
    SETDIJ:  cpu time    0.1172: real time    0.1172
     EDDAV:  cpu time    0.7850: real time    0.7858
       DOS:  cpu time    0.0003: real time    0.0003
    CHARGE:  cpu time    0.0203: real time    0.0203
    MIXING:  cpu time    0.0007: real time    0.0007
    --------------------------------------------
      LOOP:  cpu time    0.9315: real time    0.9323

 eigenvalue-minimisations  :  1498
 total energy-change (2. order) : 0.4967179E+01  (-0.1120132E+01)
 number of electron      49.9999781 magnetization 
 augmentation part       -6.4734885 magnetization 

 Broyden mixing:
  rms(total) = 0.59279E+00    rms(broyden)= 0.59273E+00
  rms(prec ) = 0.81956E+00
  weight for this iteration     100.00

 eigenvalues of (default mixing * dielectric matrix)
  average eigenvalue GAMMA=   0.8673
  0.8673

 Free energy of the ion-electron system (eV)
  ---------------------------------------------------
  alpha Z        PSCENC =        19.46311471
  Ewald energy   TEWEN  =     -1267.08630810
  -Hartree energ DENC   =      -572.88810674
  -exchange      EXHF   =         0.00000000
  -V(xc)+E(xc)   XCENC  =       -76.74493472
  PAW double counting   =      1956.53208206    -1771.29758206
  entropy T*S    EENTRO =        -0.00000000
  eigenvalues    EBANDS =      -200.14578687
  atomic energy  EATOM  =      1859.40581359
  Solvation  Ediel_sol  =         0.00000000
  ---------------------------------------------------
  free energy    TOTEN  =       -52.76170814 eV

  energy without entropy =      -52.76170814  energy(sigma->0) =      -52.76170814


--------------------------------------------------------------------------------------------------------




--------------------------------------- Iteration      1(   7)  ---------------------------------------


    POTLOK:  cpu time    0.0108: real time    0.0111
    SETDIJ:  cpu time    0.1202: real time    0.1202
     EDDAV:  cpu time    0.5922: real time    0.5926
       DOS:  cpu time    0.0002: real time    0.0002
    CHARGE:  cpu time    0.0197: real time    0.0197
    MIXING:  cpu time    0.0004: real time    0.0004
    --------------------------------------------
      LOOP:  cpu time    0.7435: real time    0.7443

 eigenvalue-minimisations  :  1554
 total energy-change (2. order) : 0.2636357E+00  (-0.9934072E-01)
 number of electron      49.9999784 magnetization 
 augmentation part       -6.4670639 magnetization 

 Broyden mixing:
  rms(total) = 0.38804E+00    rms(broyden)= 0.38803E+00
  rms(prec ) = 0.49322E+00
  weight for this iteration     100.00

 eigenvalues of (default mixing * dielectric matrix)
  average eigenvalue GAMMA=   1.5726
  1.1249  2.0203

 Free energy of the ion-electron system (eV)
  ---------------------------------------------------
  alpha Z        PSCENC =        19.46311471
  Ewald energy   TEWEN  =     -1267.08630810
  -Hartree energ DENC   =      -582.41830218
  -exchange      EXHF   =         0.00000000
  -V(xc)+E(xc)   XCENC  =       -76.07614390
  PAW double counting   =      2329.23456541    -2143.92213103
  entropy T*S    EENTRO =        -0.00000000
  eigenvalues    EBANDS =      -191.09868094
  atomic energy  EATOM  =      1859.40581359
  Solvation  Ediel_sol  =         0.00000000
  ---------------------------------------------------
  free energy    TOTEN  =       -52.49807243 eV

  energy without entropy =      -52.49807243  energy(sigma->0) =      -52.49807243


--------------------------------------------------------------------------------------------------------




--------------------------------------- Iteration      1(   8)  ---------------------------------------


    POTLOK:  cpu time    0.0078: real time    0.0079
    SETDIJ:  cpu time    0.1186: real time    0.1186
     EDDAV:  cpu time    0.4980: real time    0.4983
       DOS:  cpu time    0.0003: real time    0.0003
    CHARGE:  cpu time    0.0178: real time    0.0178
    MIXING:  cpu time    0.0005: real time    0.0005
    --------------------------------------------
      LOOP:  cpu time    0.6429: real time    0.6434

 eigenvalue-minimisations  :  1554
 total energy-change (2. order) : 0.8926118E-01  (-0.1753104E-01)
 number of electron      49.9999783 magnetization 
 augmentation part       -6.4849997 magnetization 

 Broyden mixing:
  rms(total) = 0.57636E-01    rms(broyden)= 0.57635E-01
  rms(prec ) = 0.10709E+00
  weight for this iteration     100.00

 eigenvalues of (default mixing * dielectric matrix)
  average eigenvalue GAMMA=   1.4042
  2.0282  1.0922  1.0922

 Free energy of the ion-electron system (eV)
  ---------------------------------------------------
  alpha Z        PSCENC =        19.46311471
  Ewald energy   TEWEN  =     -1267.08630810
  -Hartree energ DENC   =      -585.92289805
  -exchange      EXHF   =         0.00000000
  -V(xc)+E(xc)   XCENC  =       -75.78896901
  PAW double counting   =      2753.77605226    -2568.16942059
  entropy T*S    EENTRO =        -0.00000002
  eigenvalues    EBANDS =      -188.08619604
  atomic energy  EATOM  =      1859.40581359
  Solvation  Ediel_sol  =         0.00000000
  ---------------------------------------------------
  free energy    TOTEN  =       -52.40881125 eV

  energy without entropy =      -52.40881123  energy(sigma->0) =      -52.40881124


--------------------------------------------------------------------------------------------------------




--------------------------------------- Iteration      1(   9)  ---------------------------------------


    POTLOK:  cpu time    0.0066: real time    0.0067
    SETDIJ:  cpu time    0.1160: real time    0.1160
     EDDAV:  cpu time    0.7185: real time    0.7197
       DOS:  cpu time    0.0004: real time    0.0003
    CHARGE:  cpu time    0.0210: real time    0.0210
    MIXING:  cpu time    0.0006: real time    0.0006
    --------------------------------------------
      LOOP:  cpu time    0.8631: real time    0.8644

 eigenvalue-minimisations  :  1652
 total energy-change (2. order) : 0.7826733E-03  (-0.1861778E-02)
 number of electron      49.9999783 magnetization 
 augmentation part       -6.4859783 magnetization 

 Broyden mixing:
  rms(total) = 0.60447E-01    rms(broyden)= 0.60446E-01
  rms(prec ) = 0.74658E-01
  weight for this iteration     100.00

 eigenvalues of (default mixing * dielectric matrix)
  average eigenvalue GAMMA=   1.6355
  1.0449  1.0449  2.2261  2.2261

 Free energy of the ion-electron system (eV)
  ---------------------------------------------------
  alpha Z        PSCENC =        19.46311471
  Ewald energy   TEWEN  =     -1267.08630810
  -Hartree energ DENC   =      -587.20219811
  -exchange      EXHF   =         0.00000000
  -V(xc)+E(xc)   XCENC  =       -75.69495624
  PAW double counting   =      2757.24257498    -2571.58516984
  entropy T*S    EENTRO =        -0.00000017
  eigenvalues    EBANDS =      -186.95089941
  atomic energy  EATOM  =      1859.40581359
  Solvation  Ediel_sol  =         0.00000000
  ---------------------------------------------------
  free energy    TOTEN  =       -52.40802858 eV

  energy without entropy =      -52.40802841  energy(sigma->0) =      -52.40802849


--------------------------------------------------------------------------------------------------------




--------------------------------------- Iteration      1(  10)  ---------------------------------------


    POTLOK:  cpu time    0.0089: real time    0.0091
    SETDIJ:  cpu time    0.1191: real time    0.1191
     EDDAV:  cpu time    0.6747: real time    0.6748
       DOS:  cpu time    0.0003: real time    0.0003
    CHARGE:  cpu time    0.0200: real time    0.0200
    MIXING:  cpu time    0.0008: real time    0.0008
    --------------------------------------------
      LOOP:  cpu time    0.8239: real time    0.8240

 eigenvalue-minimisations  :  1624
 total energy-change (2. order) :-0.2069853E-02  (-0.6886741E-03)
 number of electron      49.9999783 magnetization 
 augmentation part       -6.4914452 magnetization 

 Broyden mixing:
  rms(total) = 0.13506E-01    rms(broyden)= 0.13506E-01
  rms(prec ) = 0.25391E-01
  weight for this iteration     100.00

 eigenvalues of (default mixing * dielectric matrix)
  average eigenvalue GAMMA=   1.6412
  2.5489  2.5489  1.0442  1.0442  1.0200

 Free energy of the ion-electron system (eV)
  ---------------------------------------------------
  alpha Z        PSCENC =        19.46311471
  Ewald energy   TEWEN  =     -1267.08630810
  -Hartree energ DENC   =      -587.26746721
  -exchange      EXHF   =         0.00000000
  -V(xc)+E(xc)   XCENC  =       -75.71212643
  PAW double counting   =      2640.80927881    -2455.09956993
  entropy T*S    EENTRO =        -0.00000020
  eigenvalues    EBANDS =      -186.92283368
  atomic energy  EATOM  =      1859.40581359
  Solvation  Ediel_sol  =         0.00000000
  ---------------------------------------------------
  free energy    TOTEN  =       -52.41009843 eV

  energy without entropy =      -52.41009823  energy(sigma->0) =      -52.41009833


--------------------------------------------------------------------------------------------------------




--------------------------------------- Iteration      1(  11)  ---------------------------------------


    POTLOK:  cpu time    0.0089: real time    0.0091
    SETDIJ:  cpu time    0.1188: real time    0.1188
     EDDAV:  cpu time    0.8052: real time    0.8052
       DOS:  cpu time    0.0004: real time    0.0004
    CHARGE:  cpu time    0.0199: real time    0.0199
    MIXING:  cpu time    0.0006: real time    0.0006
    --------------------------------------------
      LOOP:  cpu time    0.9537: real time    0.9539

 eigenvalue-minimisations  :  1554
 total energy-change (2. order) : 0.1998923E-03  (-0.1561167E-03)
 number of electron      49.9999783 magnetization 
 augmentation part       -6.4919874 magnetization 

 Broyden mixing:
  rms(total) = 0.10317E-01    rms(broyden)= 0.10317E-01
  rms(prec ) = 0.11739E-01
  weight for this iteration     100.00

 eigenvalues of (default mixing * dielectric matrix)
  average eigenvalue GAMMA=   1.6203
  2.7292  2.7292  1.0369  1.0369  1.0949  1.0949

 Free energy of the ion-electron system (eV)
  ---------------------------------------------------
  alpha Z        PSCENC =        19.46311471
  Ewald energy   TEWEN  =     -1267.08630810
  -Hartree energ DENC   =      -587.60335622
  -exchange      EXHF   =         0.00000000
  -V(xc)+E(xc)   XCENC  =       -75.69256819
  PAW double counting   =      2645.86565934    -2460.14026730
  entropy T*S    EENTRO =        -0.00000039
  eigenvalues    EBANDS =      -186.62198597
  atomic energy  EATOM  =      1859.40581359
  Solvation  Ediel_sol  =         0.00000000
  ---------------------------------------------------
  free energy    TOTEN  =       -52.40989854 eV

  energy without entropy =      -52.40989815  energy(sigma->0) =      -52.40989834


--------------------------------------------------------------------------------------------------------




--------------------------------------- Iteration      1(  12)  ---------------------------------------


    POTLOK:  cpu time    0.0076: real time    0.0077
    SETDIJ:  cpu time    0.1188: real time    0.1188
     EDDAV:  cpu time    0.7474: real time    0.7475
       DOS:  cpu time    0.0003: real time    0.0003
    --------------------------------------------
      LOOP:  cpu time    0.8741: real time    0.8743

 eigenvalue-minimisations  :  1568
 total energy-change (2. order) :-0.7108536E-04  (-0.3971412E-04)
 number of electron      49.9999783 magnetization 
 augmentation part       -6.4919874 magnetization 

 Free energy of the ion-electron system (eV)
  ---------------------------------------------------
  alpha Z        PSCENC =        19.46311471
  Ewald energy   TEWEN  =     -1267.08630810
  -Hartree energ DENC   =      -587.68218218
  -exchange      EXHF   =         0.00000000
  -V(xc)+E(xc)   XCENC  =       -75.69252901
  PAW double counting   =      2634.71022546    -2448.98543328
  entropy T*S    EENTRO =        -0.00000042
  eigenvalues    EBANDS =      -186.54267039
  atomic energy  EATOM  =      1859.40581359
  Solvation  Ediel_sol  =         0.00000000
  ---------------------------------------------------
  free energy    TOTEN  =       -52.40996963 eV

  energy without entropy =      -52.40996920  energy(sigma->0) =      -52.40996941


--------------------------------------------------------------------------------------------------------




 average (electrostatic) potential at core
  the test charge radii are     0.9748  1.4024  0.9698
  (the norm of the test charge is              1.0000)
       1 -31.6313       2 -31.6191       3 -31.5604       4 -31.6265       5 -31.6350
       6 -31.6349       7 -31.6265       8 -31.6191       9 -31.6313      10 -66.9227
      11 -90.1206      12 -89.8411      13 -89.8382      14 -90.1206      15 -89.8382
      16 -89.8411
 
 
 
 E-fermi :   0.0927     XC(G=0):  -6.7366     alpha+bet : -6.0587


 k-point     1 :       0.0000    0.0000    0.0000
  band No.  band energies     occupation 
      1     -11.4307      2.00000
      2     -10.6278      2.00000
      3     -10.4133      2.00000
      4     -10.3612      2.00000
      5     -10.3583      2.00000
      6     -10.2986      2.00000
      7      -8.9407      2.00000
      8      -2.5550      2.00000
      9      -2.4124      2.00000
     10      -2.4105      2.00000
     11      -1.8269      2.00000
     12      -1.8239      2.00000
     13      -1.7105      2.00000
     14      -1.2596      2.00000
     15      -0.9592      2.00000
     16      -0.8955      2.00000
     17      -0.8933      2.00000
     18      -0.7633      2.00000
     19      -0.7127      2.00000
     20      -0.4864      2.00000
     21      -0.4499      2.00000
     22      -0.3233      2.00000
     23      -0.3195      2.00000
     24      -0.2786      2.00000
     25      -0.2769      2.00000
     26       0.2388      0.00004
     27       1.2679      0.00000
     28       2.3176      0.00000
     29       2.6321      0.00000
     30       2.6379      0.00000
     31       2.8631      0.00000
     32       3.5423      0.00000
     33       3.5493      0.00000
     34       3.6038      0.00000
     35       4.3095      0.00000
     36       4.3253      0.00000
     37       4.3300      0.00000
     38       4.6747      0.00000
     39       4.9409      0.00000
     40       5.1111      0.00000
     41       5.2125      0.00000
     42       5.2177      0.00000

 k-point     2 :       0.3333    0.0000    0.0000
  band No.  band energies     occupation 
      1     -11.4094      2.00000
      2     -10.6333      2.00000
      3     -10.4404      2.00000
      4     -10.4105      2.00000
      5     -10.3538      2.00000
      6     -10.2732      2.00000
      7      -8.9012      2.00000
      8      -2.5391      2.00000
      9      -2.4216      2.00000
     10      -2.3166      2.00000
     11      -1.8599      2.00000
     12      -1.6950      2.00000
     13      -1.5111      2.00000
     14      -1.3830      2.00000
     15      -1.1976      2.00000
     16      -1.0252      2.00000
     17      -0.8903      2.00000
     18      -0.8206      2.00000
     19      -0.6701      2.00000
     20      -0.6486      2.00000
     21      -0.5295      2.00000
     22      -0.4289      2.00000
     23      -0.3925      2.00000
     24      -0.3275      2.00000
     25      -0.0962      2.00000
     26       0.6980      0.00000
     27       1.1668      0.00000
     28       2.1918      0.00000
     29       2.7054      0.00000
     30       2.8612      0.00000
     31       3.0003      0.00000
     32       3.1580      0.00000
     33       3.3276      0.00000
     34       3.5935      0.00000
     35       4.0574      0.00000
     36       4.4163      0.00000
     37       4.5477      0.00000
     38       4.7437      0.00000
     39       4.8200      0.00000
     40       4.9768      0.00000
     41       5.1375      0.00000
     42       5.2689      0.00000

 k-point     3 :       0.0000    0.3333    0.0000
  band No.  band energies     occupation 
      1     -11.4094      2.00000
      2     -10.6333      2.00000
      3     -10.4381      2.00000
      4     -10.4111      2.00000
      5     -10.3562      2.00000
      6     -10.2727      2.00000
      7      -8.9011      2.00000
      8      -2.5408      2.00000
      9      -2.4211      2.00000
     10      -2.3163      2.00000
     11      -1.8602      2.00000
     12      -1.6956      2.00000
     13      -1.5120      2.00000
     14      -1.3857      2.00000
     15      -1.1944      2.00000
     16      -1.0227      2.00000
     17      -0.8890      2.00000
     18      -0.8206      2.00000
     19      -0.6674      2.00000
     20      -0.6489      2.00000
     21      -0.5298      2.00000
     22      -0.4279      2.00000
     23      -0.3938      2.00000
     24      -0.3273      2.00000
     25      -0.0948      2.00000
     26       0.6972      0.00000
     27       1.1641      0.00000
     28       2.1860      0.00000
     29       2.7078      0.00000
     30       2.8644      0.00000
     31       3.0002      0.00000
     32       3.1575      0.00000
     33       3.3261      0.00000
     34       3.5927      0.00000
     35       4.0533      0.00000
     36       4.4177      0.00000
     37       4.5487      0.00000
     38       4.7425      0.00000
     39       4.8188      0.00000
     40       4.9840      0.00000
     41       5.1275      0.00000
     42       5.2692      0.00000

 k-point     4 :       0.3333    0.3333    0.0000
  band No.  band energies     occupation 
      1     -11.3922      2.00000
      2     -10.6350      2.00000
      3     -10.4534      2.00000
      4     -10.4345      2.00000
      5     -10.3747      2.00000
      6     -10.2554      2.00000
      7      -8.8692      2.00000
      8      -2.4865      2.00000
      9      -2.3482      2.00000
     10      -2.3387      2.00000
     11      -1.9368      2.00000
     12      -1.7520      2.00000
     13      -1.4128      2.00000
     14      -1.2299      2.00000
     15      -1.1453      2.00000
     16      -1.0790      2.00000
     17      -1.0564      2.00000
     18      -0.9441      2.00000
     19      -0.7581      2.00000
     20      -0.6774      2.00000
     21      -0.6155      2.00000
     22      -0.4913      2.00000
     23      -0.3667      2.00000
     24      -0.1878      2.00000
     25      -0.1281      2.00000
     26       1.1012      0.00000
     27       1.1644      0.00000
     28       2.1273      0.00000
     29       2.3844      0.00000
     30       2.6269      0.00000
     31       2.9248      0.00000
     32       3.2097      0.00000
     33       3.5411      0.00000
     34       3.9926      0.00000
     35       4.0189      0.00000
     36       4.2005      0.00000
     37       4.4228      0.00000
     38       4.6359      0.00000
     39       4.7771      0.00000
     40       5.0284      0.00000
     41       5.0525      0.00000
     42       5.3442      0.00000

 k-point     5 :      -0.3333    0.3333    0.0000
  band No.  band energies     occupation 
      1     -11.3972      2.00000
      2     -10.6314      2.00000
      3     -10.4400      2.00000
      4     -10.4327      2.00000
      5     -10.3833      2.00000
      6     -10.2545      2.00000
      7      -8.8767      2.00000
      8      -2.4705      2.00000
      9      -2.4073      2.00000
     10      -2.3421      2.00000
     11      -2.0516      2.00000
     12      -1.5325      2.00000
     13      -1.3953      2.00000
     14      -1.3579      2.00000
     15      -1.2526      2.00000
     16      -1.0954      2.00000
     17      -1.0704      2.00000
     18      -0.7467      2.00000
     19      -0.7273      2.00000
     20      -0.6380      2.00000
     21      -0.6057      2.00000
     22      -0.3922      2.00000
     23      -0.3897      2.00000
     24      -0.2419      2.00000
     25      -0.1144      2.00000
     26       0.8268      0.00000
     27       1.3553      0.00000
     28       2.1931      0.00000
     29       2.4384      0.00000
     30       2.7001      0.00000
     31       2.8223      0.00000
     32       3.0843      0.00000
     33       3.6447      0.00000
     34       3.7139      0.00000
     35       3.8796      0.00000
     36       4.1937      0.00000
     37       4.6354      0.00000
     38       4.6988      0.00000
     39       4.8435      0.00000
     40       4.8620      0.00000
     41       5.1878      0.00000
     42       5.3386      0.00000

 k-point     6 :      -0.0000    0.0000    0.3333
  band No.  band energies     occupation 
      1     -11.4129      2.00000
      2     -10.6356      2.00000
      3     -10.4472      2.00000
      4     -10.3622      2.00000
      5     -10.3592      2.00000
      6     -10.2991      2.00000
      7      -8.9086      2.00000
      8      -2.4396      2.00000
      9      -2.3903      2.00000
     10      -2.3887      2.00000
     11      -1.7510      2.00000
     12      -1.5551      2.00000
     13      -1.5527      2.00000
     14      -1.4871      2.00000
     15      -1.1192      2.00000
     16      -1.1176      2.00000
     17      -1.0796      2.00000
     18      -1.0124      2.00000
     19      -0.7031      2.00000
     20      -0.5310      2.00000
     21      -0.5279      2.00000
     22      -0.4479      2.00000
     23      -0.2739      2.00000
     24      -0.2718      2.00000
     25      -0.2101      2.00000
     26       0.8224      0.00000
     27       0.8721      0.00000
     28       2.6050      0.00000
     29       2.6636      0.00000
     30       2.6672      0.00000
     31       3.3508      0.00000
     32       3.3579      0.00000
     33       3.4229      0.00000
     34       3.6515      0.00000
     35       3.8577      0.00000
     36       4.3791      0.00000
     37       4.4038      0.00000
     38       4.4240      0.00000
     39       4.4264      0.00000
     40       4.9383      0.00000
     41       5.2157      0.00000
     42       5.3974      0.00000

 k-point     7 :       0.3333    0.0000    0.3333
  band No.  band energies     occupation 
      1     -11.4001      2.00000
      2     -10.6351      2.00000
      3     -10.4686      2.00000
      4     -10.4028      2.00000
      5     -10.3543      2.00000
      6     -10.2724      2.00000
      7      -8.8856      2.00000
      8      -2.4397      2.00000
      9      -2.4154      2.00000
     10      -2.3297      2.00000
     11      -1.8465      2.00000
     12      -1.6340      2.00000
     13      -1.5260      2.00000
     14      -1.3079      2.00000
     15      -1.1174      2.00000
     16      -1.0455      2.00000
     17      -1.0224      2.00000
     18      -0.9536      2.00000
     19      -0.9044      2.00000
     20      -0.6757      2.00000
     21      -0.5683      2.00000
     22      -0.4907      2.00000
     23      -0.3493      2.00000
     24      -0.3000      2.00000
     25      -0.0653      1.99999
     26       0.8697      0.00000
     27       1.1916      0.00000
     28       2.3674      0.00000
     29       2.6660      0.00000
     30       2.7196      0.00000
     31       3.0537      0.00000
     32       3.1503      0.00000
     33       3.4679      0.00000
     34       3.5019      0.00000
     35       3.7839      0.00000
     36       4.4795      0.00000
     37       4.5851      0.00000
     38       4.7301      0.00000
     39       4.8771      0.00000
     40       4.8801      0.00000
     41       5.1345      0.00000
     42       5.1460      0.00000

 k-point     8 :      -0.3333    0.0000    0.3333
  band No.  band energies     occupation 
      1     -11.4095      2.00000
      2     -10.6331      2.00000
      3     -10.4406      2.00000
      4     -10.4104      2.00000
      5     -10.3538      2.00000
      6     -10.2732      2.00000
      7      -8.9014      2.00000
      8      -2.5407      2.00000
      9      -2.4218      2.00000
     10      -2.3164      2.00000
     11      -1.8602      2.00000
     12      -1.6961      2.00000
     13      -1.5106      2.00000
     14      -1.3824      2.00000
     15      -1.1967      2.00000
     16      -1.0225      2.00000
     17      -0.8898      2.00000
     18      -0.8184      2.00000
     19      -0.6675      2.00000
     20      -0.6502      2.00000
     21      -0.5289      2.00000
     22      -0.4317      2.00000
     23      -0.3903      2.00000
     24      -0.3286      2.00000
     25      -0.0969      2.00000
     26       0.6982      0.00000
     27       1.1634      0.00000
     28       2.1859      0.00000
     29       2.7120      0.00000
     30       2.8633      0.00000
     31       3.0043      0.00000
     32       3.1595      0.00000
     33       3.3238      0.00000
     34       3.5834      0.00000
     35       4.0519      0.00000
     36       4.4163      0.00000
     37       4.5444      0.00000
     38       4.7462      0.00000
     39       4.8229      0.00000
     40       4.9837      0.00000
     41       5.1351      0.00000
     42       5.2702      0.00000

 k-point     9 :      -0.0000    0.3333    0.3333
  band No.  band energies     occupation 
      1     -11.4001      2.00000
      2     -10.6351      2.00000
      3     -10.4673      2.00000
      4     -10.4022      2.00000
      5     -10.3569      2.00000
      6     -10.2718      2.00000
      7      -8.8855      2.00000
      8      -2.4405      2.00000
      9      -2.4154      2.00000
     10      -2.3286      2.00000
     11      -1.8462      2.00000
     12      -1.6349      2.00000
     13      -1.5260      2.00000
     14      -1.3091      2.00000
     15      -1.1161      2.00000
     16      -1.0488      2.00000
     17      -1.0215      2.00000
     18      -0.9516      2.00000
     19      -0.9044      2.00000
     20      -0.6728      2.00000
     21      -0.5685      2.00000
     22      -0.4925      2.00000
     23      -0.3498      2.00000
     24      -0.3005      2.00000
     25      -0.0637      1.99999
     26       0.8699      0.00000
     27       1.1918      0.00000
     28       2.3665      0.00000
     29       2.6670      0.00000
     30       2.7190      0.00000
     31       3.0492      0.00000
     32       3.1512      0.00000
     33       3.4664      0.00000
     34       3.5040      0.00000
     35       3.7857      0.00000
     36       4.4800      0.00000
     37       4.5867      0.00000
     38       4.7311      0.00000
     39       4.8750      0.00000
     40       4.8804      0.00000
     41       5.1378      0.00000
     42       5.1446      0.00000

 k-point    10 :       0.3333    0.3333    0.3333
  band No.  band energies     occupation 
      1     -11.3923      2.00000
      2     -10.6347      2.00000
      3     -10.4533      2.00000
      4     -10.4345      2.00000
      5     -10.3748      2.00000
      6     -10.2554      2.00000
      7      -8.8694      2.00000
      8      -2.4868      2.00000
      9      -2.3483      2.00000
     10      -2.3389      2.00000
     11      -1.9370      2.00000
     12      -1.7515      2.00000
     13      -1.4133      2.00000
     14      -1.2286      2.00000
     15      -1.1445      2.00000
     16      -1.0815      2.00000
     17      -1.0547      2.00000
     18      -0.9429      2.00000
     19      -0.7573      2.00000
     20      -0.6762      2.00000
     21      -0.6152      2.00000
     22      -0.4937      2.00000
     23      -0.3679      2.00000
     24      -0.1885      2.00000
     25      -0.1280      2.00000
     26       1.1011      0.00000
     27       1.1656      0.00000
     28       2.1285      0.00000
     29       2.3803      0.00000
     30       2.6279      0.00000
     31       2.9248      0.00000
     32       3.2139      0.00000
     33       3.5415      0.00000
     34       3.9899      0.00000
     35       4.0172      0.00000
     36       4.1978      0.00000
     37       4.4203      0.00000
     38       4.6345      0.00000
     39       4.7762      0.00000
     40       5.0274      0.00000
     41       5.0534      0.00000
     42       5.3371      0.00000

 k-point    11 :      -0.3333    0.3333    0.3333
  band No.  band energies     occupation 
      1     -11.3922      2.00000
      2     -10.6348      2.00000
      3     -10.4524      2.00000
      4     -10.4361      2.00000
      5     -10.3743      2.00000
      6     -10.2552      2.00000
      7      -8.8693      2.00000
      8      -2.4866      2.00000
      9      -2.3494      2.00000
     10      -2.3383      2.00000
     11      -1.9344      2.00000
     12      -1.7548      2.00000
     13      -1.4119      2.00000
     14      -1.2296      2.00000
     15      -1.1445      2.00000
     16      -1.0829      2.00000
     17      -1.0560      2.00000
     18      -0.9435      2.00000
     19      -0.7588      2.00000
     20      -0.6750      2.00000
     21      -0.6140      2.00000
     22      -0.4891      2.00000
     23      -0.3661      2.00000
     24      -0.1903      2.00000
     25      -0.1274      2.00000
     26       1.0984      0.00000
     27       1.1643      0.00000
     28       2.1305      0.00000
     29       2.3834      0.00000
     30       2.6301      0.00000
     31       2.9213      0.00000
     32       3.2105      0.00000
     33       3.5353      0.00000
     34       3.9943      0.00000
     35       4.0194      0.00000
     36       4.1982      0.00000
     37       4.4231      0.00000
     38       4.6350      0.00000
     39       4.7769      0.00000
     40       5.0270      0.00000
     41       5.0567      0.00000
     42       5.3440      0.00000

 k-point    12 :      -0.0000   -0.3333    0.3333
  band No.  band energies     occupation 
      1     -11.4096      2.00000
      2     -10.6331      2.00000
      3     -10.4382      2.00000
      4     -10.4109      2.00000
      5     -10.3563      2.00000
      6     -10.2727      2.00000
      7      -8.9013      2.00000
      8      -2.5405      2.00000
      9      -2.4208      2.00000
     10      -2.3162      2.00000
     11      -1.8582      2.00000
     12      -1.6971      2.00000
     13      -1.5118      2.00000
     14      -1.3851      2.00000
     15      -1.1946      2.00000
     16      -1.0227      2.00000
     17      -0.8897      2.00000
     18      -0.8219      2.00000
     19      -0.6665      2.00000
     20      -0.6496      2.00000
     21      -0.5314      2.00000
     22      -0.4290      2.00000
     23      -0.3952      2.00000
     24      -0.3277      2.00000
     25      -0.0947      2.00000
     26       0.6988      0.00000
     27       1.1670      0.00000
     28       2.1879      0.00000
     29       2.7109      0.00000
     30       2.8634      0.00000
     31       3.0040      0.00000
     32       3.1540      0.00000
     33       3.3233      0.00000
     34       3.5887      0.00000
     35       4.0506      0.00000
     36       4.4195      0.00000
     37       4.5488      0.00000
     38       4.7488      0.00000
     39       4.8219      0.00000
     40       4.9784      0.00000
     41       5.1392      0.00000
     42       5.2754      0.00000

 k-point    13 :       0.3333   -0.3333    0.3333
  band No.  band energies     occupation 
      1     -11.3922      2.00000
      2     -10.6348      2.00000
      3     -10.4522      2.00000
      4     -10.4361      2.00000
      5     -10.3744      2.00000
      6     -10.2552      2.00000
      7      -8.8693      2.00000
      8      -2.4860      2.00000
      9      -2.3489      2.00000
     10      -2.3379      2.00000
     11      -1.9343      2.00000
     12      -1.7535      2.00000
     13      -1.4131      2.00000
     14      -1.2285      2.00000
     15      -1.1459      2.00000
     16      -1.0841      2.00000
     17      -1.0567      2.00000
     18      -0.9437      2.00000
     19      -0.7581      2.00000
     20      -0.6762      2.00000
     21      -0.6163      2.00000
     22      -0.4913      2.00000
     23      -0.3653      2.00000
     24      -0.1901      2.00000
     25      -0.1273      2.00000
     26       1.1035      0.00000
     27       1.1661      0.00000
     28       2.1334      0.00000
     29       2.3825      0.00000
     30       2.6200      0.00000
     31       2.9237      0.00000
     32       3.2144      0.00000
     33       3.5395      0.00000
     34       3.9915      0.00000
     35       4.0206      0.00000
     36       4.1998      0.00000
     37       4.4226      0.00000
     38       4.6382      0.00000
     39       4.7785      0.00000
     40       5.0264      0.00000
     41       5.0538      0.00000
     42       5.3506      0.00000

 k-point    14 :      -0.3333   -0.3333    0.3333
  band No.  band energies     occupation 
      1     -11.3972      2.00000
      2     -10.6314      2.00000
      3     -10.4392      2.00000
      4     -10.4334      2.00000
      5     -10.3839      2.00000
      6     -10.2539      2.00000
      7      -8.8768      2.00000
      8      -2.4704      2.00000
      9      -2.4058      2.00000
     10      -2.3434      2.00000
     11      -2.0489      2.00000
     12      -1.5356      2.00000
     13      -1.3975      2.00000
     14      -1.3578      2.00000
     15      -1.2542      2.00000
     16      -1.0930      2.00000
     17      -1.0743      2.00000
     18      -0.7430      2.00000
     19      -0.7256      2.00000
     20      -0.6413      2.00000
     21      -0.6058      2.00000
     22      -0.3921      2.00000
     23      -0.3880      2.00000
     24      -0.2402      2.00000
     25      -0.1151      2.00000
     26       0.8273      0.00000
     27       1.3559      0.00000
     28       2.1970      0.00000
     29       2.4366      0.00000
     30       2.7036      0.00000
     31       2.8187      0.00000
     32       3.0809      0.00000
     33       3.6434      0.00000
     34       3.7181      0.00000
     35       3.8761      0.00000
     36       4.1952      0.00000
     37       4.6366      0.00000
     38       4.6943      0.00000
     39       4.8433      0.00000
     40       4.8655      0.00000
     41       5.1896      0.00000
     42       5.3356      0.00000


--------------------------------------------------------------------------------------------------------


 soft charge-density along one line, spin component           1
         0         1         2         3         4         5         6         7         8         9
 total charge-density along one line
 
 pseudopotential strength for first ion, spin component:           1
  1.141   5.258   0.005   0.003   0.007
  5.258  23.010   0.019   0.012   0.025
  0.005   0.019  -0.535  -0.000   0.000
  0.003   0.012  -0.000  -0.536  -0.000
  0.007   0.025   0.000  -0.000  -0.536
 total augmentation occupancy for first ion, spin component:           1
  0.372  -0.004  -0.004  -0.006  -0.022
 -0.004   0.000   0.000   0.000   0.000
 -0.004   0.000   0.022  -0.002   0.002
 -0.006   0.000  -0.002   0.018  -0.001
 -0.022   0.000   0.002  -0.001   0.019


------------------------ aborting loop because EDIFF is reached ----------------------------------------


 


 total charge     
 
# of ion       s       p       d       tot
------------------------------------------
    1        0.039   0.043   0.000   0.082
    2        0.039   0.043   0.000   0.082
    3        0.028   0.030   0.000   0.058
    4        0.039   0.043   0.000   0.082
    5        0.039   0.043   0.000   0.082
    6        0.039   0.043   0.000   0.082
    7        0.039   0.043   0.000   0.082
    8        0.039   0.043   0.000   0.082
    9        0.039   0.043   0.000   0.082
   10        1.827   1.317   0.127   3.271
   11        1.345   2.268   0.000   3.613
   12        1.342   2.281   0.000   3.622
   13        1.342   2.280   0.000   3.622
   14        1.345   2.268   0.000   3.613
   15        1.342   2.280   0.000   3.622
   16        1.342   2.281   0.000   3.622
--------------------------------------------------
tot         10.226  15.349   0.127  25.702
 
    CHARGE:  cpu time    0.0189: real time    0.0189
    FORLOC:  cpu time    0.0010: real time    0.0010
    FORNL :  cpu time    0.1321: real time    0.1321
    STRESS:  cpu time    0.4336: real time    0.4336
    FORCOR:  cpu time    0.0070: real time    0.0070
    FORHAR:  cpu time    0.0022: real time    0.0022
    MIXING:  cpu time    0.0007: real time    0.0007
    OFIELD:  cpu time    0.0000: real time    0.0000

  FORCE on cell =-STRESS in cart. coord.  units (eV):
  Direction    XX          YY          ZZ          XY          YZ          ZX
  --------------------------------------------------------------------------------------
  Alpha Z    19.46311    19.46311    19.46311
  Ewald    -405.71181  -420.33265  -441.04441   -22.72484   -40.30964   -29.19330
  Hartree   212.23435   197.71074   177.78758   -22.30421   -39.46740   -28.54038
  E(xc)    -160.55157  -160.54235  -160.53006     0.01545     0.02498     0.01767
  Local    -589.74800  -559.75837  -518.07460    46.26718    81.93248    59.27484
  n-local   509.77257   509.63003   509.57021    -0.24324    -0.29927    -0.21361
  augment  -130.94910  -130.85339  -130.74335     0.14241     0.24318     0.17314
  Kinetic   524.39143   523.26582   521.93575    -1.61877    -2.81044    -1.99702
  Fock        0.00000     0.00000     0.00000     0.00000     0.00000     0.00000
[...]
     12      -0.0764      2.00000
     13       0.0133      2.00000
     14       0.1307      2.00000
     15       0.5058      2.00000
     16       0.7351      2.00000
     17       0.7826      2.00000
     18       0.8919      2.00000
     19       1.2410      2.00000
     20       1.2770      2.00000
     21       1.4278      2.00000
     22       1.5234      2.00000
     23       1.6298      2.00000
     24       1.7093      2.00000
     25       2.0358      2.00000
     26       5.1261      0.00000
     27       5.5372      0.00000
     28       5.6943      0.00000
     29       6.7406      0.00000
     30       6.8823      0.00000
     31       7.6874      0.00000
     32       7.8034      0.00000
     33       7.9199      0.00000
     34       8.3782      0.00000
     35       8.4084      0.00000
     36       8.6694      0.00000
     37       9.0899      0.00000
     38       9.3799      0.00000
     39       9.6871      0.00000
     40       9.8166      0.00000
     41       9.8908      0.00000
     42      10.2182      0.00000

 k-point    10 :       0.3333    0.3333    0.3333
  band No.  band energies     occupation 
      1      -9.8158      2.00000
      2      -8.9864      2.00000
      3      -8.7463      2.00000
      4      -8.7037      2.00000
      5      -8.5731      2.00000
      6      -8.5152      2.00000
      7      -6.6442      2.00000
      8      -1.2661      2.00000
      9      -0.9291      2.00000
     10      -0.8604      2.00000
     11      -0.2627      2.00000
     12      -0.0500      2.00000
     13       0.0269      2.00000
     14       0.1528      2.00000
     15       0.5055      2.00000
     16       0.7291      2.00000
     17       0.7905      2.00000
     18       0.9334      2.00000
     19       1.2377      2.00000
     20       1.2531      2.00000
     21       1.4719      2.00000
     22       1.5236      2.00000
     23       1.6085      2.00000
     24       1.6992      2.00000
     25       2.0516      2.00000
     26       5.2559      0.00000
     27       5.4562      0.00000
     28       5.6187      0.00000
     29       6.7977      0.00000
     30       6.8990      0.00000
     31       7.6264      0.00000
     32       7.8099      0.00000
     33       7.8810      0.00000
     34       8.2555      0.00000
     35       8.3918      0.00000
     36       8.7351      0.00000
     37       9.0317      0.00000
     38       9.4287      0.00000
     39       9.7839      0.00000
     40       9.8645      0.00000
     41       9.9862      0.00000
     42      10.0678      0.00000

 k-point    11 :      -0.3333    0.3333    0.3333
  band No.  band energies     occupation 
      1      -9.8100      2.00000
      2      -8.9596      2.00000
      3      -8.8442      2.00000
      4      -8.6751      2.00000
      5      -8.5886      2.00000
      6      -8.4600      2.00000
      7      -6.6482      2.00000
      8      -1.2202      2.00000
      9      -0.9449      2.00000
     10      -0.9008      2.00000
     11      -0.2444      2.00000
     12      -0.0645      2.00000
     13       0.0244      2.00000
     14       0.1491      2.00000
     15       0.4963      2.00000
     16       0.6706      2.00000
     17       0.8234      2.00000
     18       0.9588      2.00000
     19       1.2750      2.00000
     20       1.3148      2.00000
     21       1.4685      2.00000
     22       1.5416      2.00000
     23       1.5918      2.00000
     24       1.6716      2.00000
     25       2.0276      2.00000
     26       5.1415      0.00000
     27       5.4055      0.00000
     28       5.7875      0.00000
     29       6.7577      0.00000
     30       6.9407      0.00000
     31       7.5457      0.00000
     32       7.7236      0.00000
     33       7.8827      0.00000
     34       8.1779      0.00000
     35       8.5262      0.00000
     36       8.7075      0.00000
     37       9.0835      0.00000
     38       9.3833      0.00000
     39       9.7607      0.00000
     40       9.8136      0.00000
     41      10.0077      0.00000
     42      10.1785      0.00000

 k-point    12 :      -0.0000   -0.3333    0.3333
  band No.  band energies     occupation 
      1      -9.9118      2.00000
      2      -8.9446      2.00000
      3      -8.6805      2.00000
      4      -8.6294      2.00000
      5      -8.5556      2.00000
      6      -8.4996      2.00000
      7      -6.7765      2.00000
      8      -1.4841      2.00000
      9      -1.0547      2.00000
     10      -0.8129      2.00000
     11      -0.2843      2.00000
     12      -0.1654      2.00000
     13       0.3110      2.00000
     14       0.3652      2.00000
     15       0.4063      2.00000
     16       0.5775      2.00000
     17       0.8071      2.00000
     18       0.9727      2.00000
     19       1.1580      2.00000
     20       1.2110      2.00000
     21       1.4896      2.00000
     22       1.6408      2.00000
     23       1.7699      2.00000
     24       1.9048      2.00000
     25       2.0067      2.00000
     26       5.1460      0.00000
     27       5.4661      0.00000
     28       5.6221      0.00000
     29       6.9035      0.00000
     30       7.1947      0.00000
     31       7.5566      0.00000
     32       7.8123      0.00000
     33       8.1559      0.00000
     34       8.4803      0.00000
     35       8.5652      0.00000
     36       8.7861      0.00000
     37       9.0314      0.00000
     38       9.3379      0.00000
     39       9.4755      0.00000
     40       9.6002      0.00000
     41       9.8350      0.00000
     42       9.9725      0.00000

 k-point    13 :       0.3333   -0.3333    0.3333
  band No.  band energies     occupation 
      1      -9.8292      2.00000
      2      -8.9577      2.00000
      3      -8.8449      2.00000
      4      -8.6815      2.00000
      5      -8.5598      2.00000
      6      -8.4516      2.00000
      7      -6.6454      2.00000
      8      -1.2987      2.00000
      9      -0.8738      2.00000
     10      -0.7805      2.00000
     11      -0.3214      2.00000
     12      -0.0208      2.00000
     13       0.1299      2.00000
     14       0.3651      2.00000
     15       0.3709      2.00000
     16       0.5420      2.00000
     17       0.7886      2.00000
     18       0.8476      2.00000
     19       1.1065      2.00000
     20       1.3197      2.00000
     21       1.3357      2.00000
     22       1.4473      2.00000
     23       1.5362      2.00000
     24       1.6257      2.00000
     25       2.0796      2.00000
     26       5.5008      0.00000
     27       5.5959      0.00000
     28       5.7418      0.00000
     29       7.0359      0.00000
     30       7.5592      0.00000
     31       7.5731      0.00000
     32       7.6979      0.00000
     33       8.0801      0.00000
     34       8.3241      0.00000
     35       8.5594      0.00000
     36       8.7292      0.00000
     37       8.9244      0.00000
     38       9.2160      0.00000
     39       9.4117      0.00000
     40       9.7070      0.00000
     41       9.9469      0.00000
     42      10.0138      0.00000

 k-point    14 :      -0.3333   -0.3333    0.3333
  band No.  band energies     occupation 
      1      -9.8788      2.00000
      2      -8.8424      2.00000
      3      -8.7770      2.00000
      4      -8.6950      2.00000
      5      -8.6859      2.00000
      6      -8.4004      2.00000
      7      -6.7038      2.00000
      8      -1.1187      2.00000
      9      -1.0297      2.00000
     10      -0.9434      2.00000
     11      -0.4791      2.00000
     12      -0.0078      2.00000
     13       0.0360      2.00000
     14       0.1545      2.00000
     15       0.5024      2.00000
     16       0.5600      2.00000
     17       0.8591      2.00000
     18       1.0292      2.00000
     19       1.1501      2.00000
     20       1.3010      2.00000
     21       1.4751      2.00000
     22       1.5533      2.00000
     23       1.6605      2.00000
     24       1.7611      2.00000
     25       2.1706      2.00000
     26       5.1741      0.00000
     27       5.5789      0.00000
     28       5.6759      0.00000
     29       6.8769      0.00000
     30       7.2559      0.00000
     31       7.4742      0.00000
     32       7.7819      0.00000
     33       8.1605      0.00000
     34       8.3226      0.00000
     35       8.6281      0.00000
     36       8.8639      0.00000
     37       8.9755      0.00000
     38       9.3808      0.00000
     39       9.5490      0.00000
     40       9.7338      0.00000
     41       9.8331      0.00000
     42      10.0270      0.00000


--------------------------------------------------------------------------------------------------------


 soft charge-density along one line, spin component           1
         0         1         2         3         4         5         6         7         8         9
 total charge-density along one line
 
 pseudopotential strength for first ion, spin component:           1
  1.175   5.276  -0.000  -0.000   0.000
  5.276  22.625  -0.000  -0.001   0.001
 -0.000  -0.000  -0.349   0.004  -0.000
 -0.000  -0.001   0.004  -0.350  -0.001
  0.000   0.001  -0.000  -0.001  -0.354
 total augmentation occupancy for first ion, spin component:           1
  0.997  -0.022  -0.008   0.014  -0.004
 -0.022   0.000   0.000  -0.000   0.000
 -0.008   0.000   0.092   0.015  -0.001
  0.014  -0.000   0.015   0.088  -0.002
 -0.004   0.000  -0.001  -0.002   0.074


------------------------ aborting loop because EDIFF is reached ----------------------------------------


 


 total charge     
 
# of ion       s       p       d       tot
------------------------------------------
    1        0.099   0.183   0.000   0.283
    2        0.095   0.174   0.000   0.269
    3        0.080   0.146   0.000   0.227
    4        0.099   0.182   0.000   0.281
    5        0.060   0.104   0.000   0.165
    6        0.060   0.104   0.000   0.165
    7        0.099   0.182   0.000   0.281
    8        0.095   0.174   0.000   0.269
    9        0.099   0.183   0.000   0.283
   10        1.851   1.386   0.186   3.422
   11        1.317   2.447   0.000   3.764
   12        1.317   2.441   0.000   3.758
   13        1.318   2.438   0.000   3.755
   14        1.317   2.447   0.000   3.764
   15        1.318   2.438   0.000   3.755
   16        1.317   2.441   0.000   3.758
--------------------------------------------------
tot         10.540  17.471   0.186  28.196
 
    CHARGE:  cpu time    0.0202: real time    0.0202
    FORLOC:  cpu time    0.0010: real time    0.0010
    FORNL :  cpu time    0.2047: real time    0.2047
    STRESS:  cpu time    0.5672: real time    0.5673
    FORCOR:  cpu time    0.0087: real time    0.0099
    FORHAR:  cpu time    0.0024: real time    0.0024
    MIXING:  cpu time    0.0006: real time    0.0006
    OFIELD:  cpu time    0.0000: real time    0.0000

  FORCE on cell =-STRESS in cart. coord.  units (eV):
  Direction    XX          YY          ZZ          XY          YZ          ZX
  --------------------------------------------------------------------------------------
  Alpha Z    34.38025    34.38025    34.38025
  Ewald    -555.32833  -543.66552  -538.90099     2.55370     3.68250     4.12110
  Hartree   115.72167   110.16974   111.18812     4.76415     1.76923     1.59072
  E(xc)    -169.19587  -169.29064  -169.28241     0.03028    -0.00605    -0.01271
  Local    -375.00376  -379.36166  -384.63538    -7.88509    -5.50931    -5.81950
  n-local   522.03169   524.34080   524.48092    -0.65552     0.06359     0.28004
  augment  -129.44392  -129.36626  -129.26863    -0.04482     0.00894    -0.01662
  Kinetic   556.86913   553.11334   552.17249     1.23935     0.20725    -0.07423
  Fock        0.00000     0.00000     0.00000     0.00000     0.00000     0.00000
  -------------------------------------------------------------------------------------
  Total       0.03086     0.32005     0.13437     0.00205     0.21616     0.06880
  in kB       0.18226     1.89034     0.79363     0.01209     1.27671     0.40638
  external pressure =        0.96 kB  Pullay stress =        0.00 kB


 VOLUME and BASIS-vectors are now :
 -----------------------------------------------------------------------------
  energy-cutoff  :      300.00
  volume of cell :      271.26
      direct lattice vectors                 reciprocal lattice vectors
     6.773867267  0.184569991 -3.476067460     0.147409593  0.050902816  0.002280781
    -1.940979895  5.777296608 -3.490740488    -0.002950413  0.174215376  0.003500859
    -0.059445164 -0.141812626  7.007008626     0.071657763  0.112042432  0.145589765

  length of vectors
     7.615929938  7.023519645  7.008695630     0.155967582  0.174275524  0.197192092


 FORCES acting on ions
    electron-ion (+dipol)            ewald-force                    non-local-force                 convergence-correction
 -----------------------------------------------------------------------------------------------
   0.109E+01 -.326E+01 0.150E+01   -.115E+01 0.318E+01 -.134E+01   0.548E-01 0.721E-01 -.167E+00   -.546E-04 -.164E-03 -.860E-05
   -.179E+01 0.251E+01 0.241E+01   0.162E+01 -.248E+01 -.236E+01   0.137E+00 -.473E-01 -.547E-01   -.173E-03 -.189E-04 0.118E-03
   -.495E-07 0.583E-07 -.755E-08   0.479E-05 -.565E-05 0.616E-06   0.108E-22 0.397E-22 -.529E-22   -.346E-09 -.177E-09 -.229E-09
   -.312E+00 0.876E+00 -.342E+01   0.301E+00 -.865E+00 0.328E+01   0.216E-01 -.626E-02 0.103E+00   -.106E-03 -.808E-05 0.108E-05
   0.740E+01 0.563E+00 -.943E+00   -.656E+01 -.474E+00 0.846E+00   -.814E+00 -.648E-01 0.131E+00   0.128E-03 0.651E-04 -.180E-03
   -.740E+01 -.563E+00 0.943E+00   0.656E+01 0.474E+00 -.846E+00   0.814E+00 0.648E-01 -.131E+00   -.128E-03 -.651E-04 0.180E-03
   0.312E+00 -.876E+00 0.342E+01   -.301E+00 0.865E+00 -.328E+01   -.216E-01 0.626E-02 -.103E+00   0.106E-03 0.808E-05 -.108E-05
   0.179E+01 -.251E+01 -.241E+01   -.162E+01 0.248E+01 0.236E+01   -.137E+00 0.473E-01 0.547E-01   0.173E-03 0.189E-04 -.118E-03
   -.109E+01 0.326E+01 -.150E+01   0.115E+01 -.318E+01 0.134E+01   -.548E-01 -.721E-01 0.167E+00   0.546E-04 0.164E-03 0.860E-05
   0.161E-06 -.628E-07 -.385E-08   -.155E-04 0.607E-05 0.192E-06   0.933E-21 0.410E-21 0.000E+00   0.196E-09 -.432E-08 0.281E-08
   -.568E+01 0.177E+02 -.218E+01   0.557E+01 -.187E+02 0.170E+01   0.115E+00 0.961E+00 0.466E+00   0.172E-03 -.530E-03 -.966E-03
   0.400E+01 -.781E+01 -.139E+02   -.438E+01 0.771E+01 0.148E+02   0.373E+00 0.117E+00 -.895E+00   -.146E-02 -.914E-03 0.580E-03
   0.444E+00 -.102E+02 0.149E+02   -.103E+01 0.109E+02 -.154E+02   0.581E+00 -.756E+00 0.584E+00   -.165E-02 0.733E-03 0.572E-03
   0.568E+01 -.177E+02 0.218E+01   -.557E+01 0.187E+02 -.170E+01   -.115E+00 -.961E+00 -.466E+00   -.172E-03 0.530E-03 0.966E-03
   -.444E+00 0.102E+02 -.149E+02   0.103E+01 -.109E+02 0.154E+02   -.581E+00 0.756E+00 -.584E+00   0.165E-02 -.733E-03 -.572E-03
   -.400E+01 0.781E+01 0.139E+02   0.438E+01 -.771E+01 -.148E+02   -.373E+00 -.117E+00 0.895E+00   0.146E-02 0.914E-03 -.580E-03
 -----------------------------------------------------------------------------------------------
   0.544E-06 -.186E-04 0.484E-04   0.888E-14 -.133E-13 0.178E-14   -.555E-16 0.236E-15 0.000E+00   -.348E-08 -.556E-08 -.957E-09
 
 
 POSITION                                       TOTAL-FORCE (eV/Angst)
 -----------------------------------------------------------------------------------
      0.10867      2.39504      1.13544        -0.007826     -0.003518     -0.004339
      0.94026      0.05882      4.50816        -0.039124     -0.017560      0.000303
     -0.00000      0.00000     -0.00000         0.000000     -0.000000      0.000000
     -0.41681      4.07346     -2.10928         0.010886      0.004892     -0.036302
      1.99768      4.76536     -0.06221         0.026364      0.024102      0.034283
      2.77576      1.05469      0.10241        -0.026364     -0.024102     -0.034283
      5.19025      1.74660      2.14949        -0.010886     -0.004892      0.036302
      5.77416     -0.01607     -0.97722         0.039124      0.017560     -0.000303
     -2.10910      3.24044      2.38082         0.007826      0.003518      0.004339
      2.41644      2.98093     -3.48340         0.000000     -0.000000      0.000000
      1.37412      0.55267      2.19049         0.003350     -0.040914     -0.018201
      0.89975      2.31286     -1.16077        -0.012295      0.016420      0.040095
      0.19394      4.47214     -4.47563        -0.003140      0.013042      0.033441
      3.39932      5.26738     -2.15029        -0.003350      0.040914      0.018201
      4.63895      1.48972     -2.49118         0.003140     -0.013042     -0.033441
      3.87369      3.50720      1.20097         0.012295     -0.016420     -0.040095
 -----------------------------------------------------------------------------------
    total drift:                                0.000001     -0.000019      0.000048


--------------------------------------------------------------------------------------------------------



  FREE ENERGIE OF THE ION-ELECTRON SYSTEM (eV)
  ---------------------------------------------------
  free  energy   TOTEN  =       -64.07222797 eV

  energy  without entropy=      -64.07222797  energy(sigma->0) =      -64.07222797
 
 d Force = 0.1681160E-02[-0.113E-03, 0.348E-02]  d Energy = 0.1576173E-02 0.105E-03
 d Force = 0.2650889E+00[ 0.244E+00, 0.286E+00]  d Ewald  = 0.1548068E+01-0.128E+01


--------------------------------------------------------------------------------------------------------


    POTLOK:  cpu time    0.1239: real time    0.1239


--------------------------------------------------------------------------------------------------------




--------------------------------------------------------------------------------------------------------


  
 reached required accuracy - stopping structural energy minimisation
     LOOP+:  cpu time    4.8727: real time    5.0589
    4ORBIT:  cpu time    0.0000: real time    0.0000
 


 total charge     
 
# of ion       s       p       d       tot
------------------------------------------
    1        0.099   0.183   0.000   0.283
    2        0.095   0.174   0.000   0.269
    3        0.080   0.146   0.000   0.227
    4        0.099   0.182   0.000   0.281
    5        0.060   0.104   0.000   0.165
    6        0.060   0.104   0.000   0.165
    7        0.099   0.182   0.000   0.281
    8        0.095   0.174   0.000   0.269
    9        0.099   0.183   0.000   0.283
   10        1.851   1.386   0.186   3.422
   11        1.317   2.447   0.000   3.764
   12        1.317   2.441   0.000   3.758
   13        1.318   2.438   0.000   3.755
   14        1.317   2.447   0.000   3.764
   15        1.318   2.438   0.000   3.755
   16        1.317   2.441   0.000   3.758
--------------------------------------------------
tot         10.540  17.471   0.186  28.196
 

 total amount of memory used by VASP MPI-rank0    39851. kBytes
=======================================================================

   base      :      30000. kBytes
   nonlr-proj:       2316. kBytes
   fftplans  :        651. kBytes
   grid      :       2861. kBytes
   one-center:        129. kBytes
   wavefun   :       3894. kBytes
 
  
  
 General timing and accounting informations for this job:
 ========================================================
  
                  Total CPU time used (sec):      484.016
                            User time (sec):      475.694
                          System time (sec):        8.323
                         Elapsed time (sec):      503.189
  
                   Maximum memory used (kb):       89484.
                   Average memory used (kb):           0.
  
                          Minor page faults:       223002
                          Major page faults:            0
                 Voluntary context switches:         3550
