PROCAR new format
# of k-points:   14         # of bands:   42         # of ions:   16

 k-point     1 :    0.00000000 0.00000000 0.00000000     weight = 0.03703704

band     1 # energy  -10.03722962 # occ.  2.00000000
 
ion      s      p      d    tot
    1  0.002  0.000  0.000  0.002
    2  0.002  0.000  0.000  0.002
    3  0.001  0.000  0.000  0.001
    4  0.002  0.000  0.000  0.002
    5  0.001  0.000  0.000  0.001
    6  0.001  0.000  0.000  0.001
    7  0.002  0.000  0.000  0.002
    8  0.002  0.000  0.000  0.002
    9  0.002  0.000  0.000  0.002
   10  0.268  0.000  0.000  0.268
   11  0.071  0.001  0.000  0.072
   12  0.068  0.001  0.000  0.069
   13  0.058  0.001  0.000  0.059
   14  0.071  0.001  0.000  0.072
   15  0.058  0.001  0.000  0.059
   16  0.068  0.001  0.000  0.069
tot    0.680  0.004  0.000  0.684
 
band     2 # energy   -8.73490863 # occ.  2.00000000
 
ion      s      p      d    tot
    1  0.001  0.001  0.000  0.002
    2  0.001  0.001  0.000  0.002
    3  0.000  0.002  0.000  0.002
    4  0.001  0.001  0.000  0.002
    5  0.000  0.001  0.000  0.001
    6  0.000  0.001  0.000  0.001
    7  0.001  0.001  0.000  0.002
    8  0.001  0.001  0.000  0.002
    9  0.001  0.001  0.000  0.002
   10  0.000  0.018  0.000  0.018
   11  0.190  0.000  0.000  0.190
   12  0.112  0.000  0.000  0.112
   13  0.018  0.000  0.000  0.018
   14  0.190  0.000  0.000  0.190
   15  0.018  0.000  0.000  0.018
   16  0.112  0.000  0.000  0.112
tot    0.646  0.028  0.000  0.674
 
band     3 # energy   -8.71277971 # occ.  2.00000000
 
ion      s      p      d    tot
    1  0.000  0.001  0.000  0.001
    2  0.000  0.002  0.000  0.002
    3  0.000  0.002  0.000  0.002
    4  0.000  0.003  0.000  0.003
    5  0.000  0.001  0.000  0.001
    6  0.000  0.001  0.000  0.001
    7  0.000  0.003  0.000  0.003
    8  0.000  0.002  0.000  0.002
    9  0.000  0.001  0.000  0.001
   10  0.000  0.017  0.000  0.017
   11  0.124  0.000  0.000  0.124
   12  0.197  0.000  0.000  0.198
   13  0.001  0.000  0.000  0.001
   14  0.124  0.000  0.000  0.124
   15  0.001  0.000  0.000  0.001
   16  0.197  0.000  0.000  0.197
tot    0.645  0.031  0.000  0.677
 
band     4 # energy   -8.61231977 # occ.  2.00000000
 
ion      s      p      d    tot
    1  0.000  0.003  0.000  0.003
    2  0.000  0.001  0.000  0.002
    3  0.000  0.002  0.000  0.002
    4  0.000  0.001  0.000  0.002
    5  0.000  0.000  0.000  0.000
    6  0.000  0.000  0.000  0.000
    7  0.000  0.001  0.000  0.002
    8  0.000  0.001  0.000  0.002
    9  0.000  0.003  0.000  0.003
   10  0.000  0.016  0.000  0.016
   11  0.008  0.000  0.000  0.008
   12  0.012  0.000  0.000  0.012
   13  0.302  0.000  0.000  0.303
   14  0.008  0.000  0.000  0.008
   15  0.302  0.000  0.000  0.303
   16  0.012  0.000  0.000  0.012
tot    0.646  0.030  0.000  0.677
 
band     5 # energy   -8.51217106 # occ.  2.00000000
 
ion      s      p      d    tot
    1  0.000  0.001  0.000  0.001
    2  0.000  0.001  0.000  0.001
    3  0.000  0.000  0.000  0.000
    4  0.000  0.002  0.000  0.003
    5  0.000  0.001  0.000  0.001
    6  0.000  0.001  0.000  0.001
    7  0.000  0.002  0.000  0.003
    8  0.000  0.001  0.000  0.001
    9  0.000  0.001  0.000  0.001
   10  0.000  0.000  0.004  0.004
   11  0.102  0.000  0.000  0.102
   12  0.213  0.000  0.000  0.213
   13  0.018  0.000  0.000  0.018
   14  0.102  0.000  0.000  0.102
   15  0.018  0.000  0.000  0.018
   16  0.213  0.000  0.000  0.213
tot    0.667  0.012  0.004  0.683
 
band     6 # energy   -8.43920337 # occ.  2.00000000
 
ion      s      p      d    tot
    1  0.001  0.002  0.000  0.003
    2  0.000  0.002  0.000  0.002
    3  0.000  0.000  0.000  0.000
    4  0.000  0.001  0.000  0.001
    5  0.000  0.001  0.000  0.001
    6  0.000  0.001  0.000  0.001
    7  0.000  0.001  0.000  0.001
    8  0.000  0.002  0.000  0.002
    9  0.001  0.002  0.000  0.003
   10  0.000  0.000  0.004  0.004
   11  0.112  0.000  0.000  0.112
   12  0.010  0.000  0.000  0.010
   13  0.211  0.000  0.000  0.211
   14  0.112  0.000  0.000  0.112
   15  0.211  0.000  0.000  0.211
   16  0.010  0.000  0.000  0.010
tot    0.668  0.012  0.004  0.683
 
band     7 # energy   -6.95264067 # occ.  2.00000000
 
ion      s      p      d    tot
    1  0.002  0.000  0.000  0.002
    2  0.001  0.000  0.000  0.002
    3  0.004  0.000  0.000  0.004
    4  0.002  0.000  0.000  0.002
    5  0.001  0.000  0.000  0.001
    6  0.001  0.000  0.000  0.001
    7  0.002  0.000  0.000  0.002
    8  0.001  0.000  0.000  0.002
    9  0.002  0.000  0.000  0.002
   10  0.541  0.000  0.000  0.541
   11  0.038  0.006  0.000  0.043
   12  0.032  0.005  0.000  0.037
   13  0.035  0.005  0.000  0.040
   14  0.038  0.006  0.000  0.043
   15  0.035  0.005  0.000  0.040
   16  0.032  0.005  0.000  0.037
tot    0.764  0.034  0.000  0.798
 
band     8 # energy   -1.22544481 # occ.  2.00000000
 
ion      s      p      d    tot
    1  0.004  0.001  0.000  0.006
    2  0.001  0.001  0.000  0.003
    3  0.000  0.010  0.000  0.010
    4  0.010  0.002  0.000  0.012
    5  0.000  0.001  0.000  0.001
    6  0.000  0.001  0.000  0.001
    7  0.010  0.002  0.000  0.012
    8  0.001  0.001  0.000  0.003
    9  0.004  0.001  0.000  0.006
   10  0.000  0.170  0.000  0.170
   11  0.002  0.068  0.000  0.069
   12  0.000  0.060  0.000  0.061
   13  0.000  0.017  0.000  0.017
   14  0.002  0.068  0.000  0.069
   15  0.000  0.017  0.000  0.017
   16  0.000  0.060  0.000  0.061
tot    0.035  0.482  0.000  0.517
 
band     9 # energy   -1.16471561 # occ.  2.00000000
 
ion      s      p      d    tot
    1  0.005  0.004  0.000  0.009
    2  0.007  0.001  0.000  0.008
    3  0.000  0.009  0.000  0.009
    4  0.000  0.003  0.000  0.003
    5  0.000  0.001  0.000  0.001
    6  0.000  0.001  0.000  0.001
    7  0.000  0.003  0.000  0.003
    8  0.007  0.001  0.000  0.008
    9  0.005  0.004  0.000  0.009
   10  0.000  0.174  0.000  0.174
   11  0.000  0.055  0.000  0.055
   12  0.002  0.060  0.000  0.061
   13  0.000  0.029  0.000  0.030
   14  0.000  0.055  0.000  0.055
   15  0.000  0.029  0.000  0.030
   16  0.002  0.060  0.000  0.061
tot    0.030  0.488  0.000  0.518
 
band    10 # energy   -1.10746495 # occ.  2.00000000
 
ion      s      p      d    tot
    1  0.001  0.004  0.000  0.005
    2  0.002  0.006  0.000  0.009
    3  0.000  0.007  0.000  0.007
    4  0.000  0.005  0.000  0.005
    5  0.001  0.002  0.000  0.003
    6  0.001  0.002  0.000  0.003
    7  0.000  0.005  0.000  0.005
    8  0.002  0.006  0.000  0.009
    9  0.001  0.004  0.000  0.005
   10  0.000  0.175  0.000  0.175
   11  0.001  0.027  0.000  0.027
   12  0.000  0.024  0.000  0.025
   13  0.002  0.092  0.000  0.094
   14  0.001  0.027  0.000  0.027
   15  0.002  0.092  0.000  0.094
   16  0.000  0.024  0.000  0.025
tot    0.015  0.501  0.000  0.516
 
band    11 # energy   -0.61262333 # occ.  2.00000000
 
ion      s      p      d    tot
    1  0.002  0.006  0.000  0.008
    2  0.004  0.006  0.000  0.010
    3  0.000  0.000  0.000  0.000
    4  0.005  0.006  0.000  0.011
    5  0.012  0.001  0.000  0.013
    6  0.012  0.001  0.000  0.013
    7  0.005  0.006  0.000  0.011
    8  0.004  0.006  0.000  0.010
    9  0.002  0.006  0.000  0.008
   10  0.001  0.000  0.005  0.006
   11  0.000  0.057  0.000  0.057
   12  0.000  0.067  0.000  0.067
   13  0.000  0.040  0.000  0.040
   14  0.000  0.057  0.000  0.057
   15  0.000  0.040  0.000  0.040
   16  0.000  0.067  0.000  0.067
tot    0.046  0.368  0.005  0.419
 
band    12 # energy   -0.21336200 # occ.  2.00000000
 
ion      s      p      d    tot
    1  0.000  0.008  0.000  0.009
    2  0.000  0.009  0.000  0.009
    3  0.033  0.000  0.000  0.033
    4  0.000  0.009  0.000  0.009
    5  0.000  0.006  0.000  0.006
    6  0.000  0.006  0.000  0.006
    7  0.000  0.009  0.000  0.009
    8  0.000  0.009  0.000  0.009
    9  0.000  0.008  0.000  0.009
   10  0.025  0.000  0.000  0.025
   11  0.001  0.061  0.000  0.062
   12  0.001  0.065  0.000  0.066
   13  0.002  0.040  0.000  0.041
   14  0.001  0.061  0.000  0.062
   15  0.002  0.040  0.000  0.041
   16  0.001  0.065  0.000  0.066
tot    0.068  0.396  0.000  0.465
 
band    13 # energy   -0.11888802 # occ.  2.00000000
 
ion      s      p      d    tot
    1  0.017  0.002  0.000  0.019
    2  0.000  0.002  0.000  0.002
    3  0.000  0.000  0.000  0.000
    4  0.011  0.000  0.000  0.012
    5  0.000  0.008  0.000  0.008
    6  0.000  0.008  0.000  0.008
    7  0.011  0.000  0.000  0.012
    8  0.000  0.002  0.000  0.002
    9  0.017  0.002  0.000  0.019
   10  0.000  0.000  0.008  0.008
   11  0.000  0.059  0.000  0.059
   12  0.000  0.049  0.000  0.049
   13  0.000  0.073  0.000  0.073
   14  0.000  0.059  0.000  0.059
   15  0.000  0.073  0.000  0.073
   16  0.000  0.049  0.000  0.049
tot    0.057  0.387  0.008  0.452
 
band    14 # energy   -0.07932525 # occ.  2.00000000
 
ion      s      p      d    tot
    1  0.000  0.008  0.000  0.008
    2  0.000  0.008  0.000  0.008
    3  0.000  0.011  0.000  0.011
    4  0.000  0.007  0.000  0.008
    5  0.012  0.000  0.000  0.013
    6  0.012  0.000  0.000  0.013
    7  0.000  0.007  0.000  0.008
    8  0.000  0.008  0.000  0.008
    9  0.000  0.008  0.000  0.008
   10  0.000  0.001  0.000  0.001
   11  0.000  0.060  0.000  0.060
   12  0.000  0.063  0.000  0.064
   13  0.000  0.056  0.000  0.056
   14  0.000  0.060  0.000  0.060
   15  0.000  0.056  0.000  0.056
   16  0.000  0.063  0.000  0.064
tot    0.027  0.415  0.000  0.443
 
band    15 # energy   -0.04560362 # occ.  2.00000000
 
ion      s      p      d    tot
    1  0.004  0.001  0.000  0.005
    2  0.017  0.001  0.000  0.018
    3  0.000  0.000  0.000  0.000
    4  0.007  0.002  0.000  0.009
    5  0.000  0.007  0.000  0.007
    6  0.000  0.007  0.000  0.007
    7  0.007  0.002  0.000  0.009
    8  0.017  0.001  0.000  0.018
    9  0.004  0.001  0.000  0.005
   10  0.000  0.000  0.008  0.008
   11  0.000  0.058  0.000  0.058
   12  0.000  0.058  0.000  0.058
   13  0.000  0.067  0.000  0.067
   14  0.000  0.058  0.000  0.058
   15  0.000  0.067  0.000  0.067
   16  0.000  0.058  0.000  0.058
tot    0.058  0.389  0.008  0.454
 
band    16 # energy    1.25361650 # occ.  2.00000000
 
ion      s      p      d    tot
    1  0.003  0.001  0.000  0.004
    2  0.000  0.006  0.000  0.006
    3  0.000  0.006  0.000  0.006
    4  0.004  0.007  0.000  0.011
    5  0.000  0.003  0.000  0.003
    6  0.000  0.003  0.000  0.003
    7  0.004  0.007  0.000  0.011
    8  0.000  0.006  0.000  0.006
    9  0.003  0.001  0.000  0.004
   10  0.000  0.011  0.000  0.011
   11  0.000  0.100  0.000  0.100
   12  0.000  0.072  0.000  0.072
   13  0.002  0.056  0.000  0.058
   14  0.000  0.100  0.000  0.100
   15  0.002  0.056  0.000  0.058
   16  0.000  0.072  0.000  0.072
tot    0.019  0.506  0.000  0.525
 
band    17 # energy    1.31730608 # occ.  2.00000000
 
ion      s      p      d    tot
    1  0.001  0.009  0.000  0.009
    2  0.000  0.002  0.000  0.002
    3  0.000  0.000  0.000  0.000
    4  0.000  0.005  0.000  0.005
    5  0.000  0.001  0.000  0.001
    6  0.000  0.001  0.000  0.001
    7  0.000  0.005  0.000  0.005
    8  0.000  0.002  0.000  0.002
    9  0.001  0.009  0.000  0.009
   10  0.001  0.000  0.030  0.030
   11  0.000  0.033  0.000  0.033
   12  0.000  0.168  0.000  0.168
   13  0.000  0.043  0.000  0.043
   14  0.000  0.033  0.000  0.033
   15  0.000  0.043  0.000  0.043
   16  0.000  0.168  0.000  0.168
tot    0.003  0.521  0.030  0.554
 
band    18 # energy    1.34077006 # occ.  2.00000000
 
ion      s      p      d    tot
    1  0.001  0.009  0.000  0.010
    2  0.004  0.003  0.000  0.007
    3  0.000  0.007  0.000  0.007
    4  0.001  0.003  0.000  0.004
    5  0.000  0.002  0.000  0.002
    6  0.000  0.002  0.000  0.002
    7  0.001  0.003  0.000  0.004
    8  0.004  0.003  0.000  0.007
    9  0.001  0.009  0.000  0.010
   10  0.000  0.012  0.000  0.012
   11  0.001  0.059  0.000  0.060
   12  0.001  0.083  0.000  0.084
   13  0.000  0.088  0.000  0.088
   14  0.001  0.059  0.000  0.060
   15  0.000  0.088  0.000  0.088
   16  0.001  0.083  0.000  0.084
tot    0.017  0.510  0.000  0.528
 
band    19 # energy    1.37396578 # occ.  2.00000000
 
ion      s      p      d    tot
    1  0.000  0.001  0.000  0.001
    2  0.000  0.009  0.000  0.009
    3  0.000  0.000  0.000  0.000
    4  0.000  0.008  0.000  0.008
    5  0.000  0.002  0.000  0.002
    6  0.000  0.002  0.000  0.002
    7  0.000  0.008  0.000  0.008
    8  0.000  0.009  0.000  0.009
    9  0.000  0.001  0.000  0.001
   10  0.000  0.000  0.025  0.025
   11  0.000  0.109  0.000  0.110
   12  0.000  0.034  0.000  0.034
   13  0.000  0.101  0.000  0.101
   14  0.000  0.109  0.000  0.110
   15  0.000  0.101  0.000  0.101
   16  0.000  0.034  0.000  0.034
tot    0.001  0.528  0.025  0.554
 
band    20 # energy    1.61403138 # occ.  2.00000000
 
ion      s      p      d    tot
    1  0.000  0.006  0.000  0.006
    2  0.001  0.004  0.000  0.005
    3  0.000  0.000  0.000  0.000
    4  0.001  0.005  0.000  0.006
    5  0.000  0.000  0.000  0.000
    6  0.000  0.000  0.000  0.000
    7  0.001  0.005  0.000  0.006
    8  0.001  0.004  0.000  0.005
    9  0.000  0.006  0.000  0.006
   10  0.000  0.000  0.008  0.008
   11  0.000  0.095  0.000  0.095
   12  0.000  0.044  0.000  0.044
   13  0.000  0.110  0.000  0.110
   14  0.000  0.095  0.000  0.095
   15  0.000  0.110  0.000  0.110
   16  0.000  0.044  0.000  0.044
tot    0.005  0.528  0.008  0.541
 
band    21 # energy    1.68270317 # occ.  2.00000000
 
ion      s      p      d    tot
    1  0.001  0.008  0.000  0.009
    2  0.000  0.006  0.000  0.007
    3  0.001  0.000  0.000  0.001
    4  0.001  0.002  0.000  0.003
    5  0.000  0.001  0.000  0.001
    6  0.000  0.001  0.000  0.001
    7  0.001  0.002  0.000  0.003
    8  0.000  0.006  0.000  0.007
    9  0.001  0.008  0.000  0.009
   10  0.005  0.000  0.001  0.007
   11  0.000  0.074  0.000  0.075
   12  0.001  0.099  0.000  0.100
   13  0.000  0.074  0.000  0.074
   14  0.000  0.074  0.000  0.075
   15  0.000  0.074  0.000  0.074
   16  0.001  0.099  0.000  0.100
tot    0.013  0.529  0.001  0.543
 
band    22 # energy    1.76837302 # occ.  2.00000000
 
ion      s      p      d    tot
    1  0.002  0.006  0.000  0.008
    2  0.001  0.006  0.000  0.007
    3  0.006  0.000  0.000  0.006
    4  0.001  0.008  0.000  0.009
    5  0.000  0.001  0.000  0.001
    6  0.000  0.001  0.000  0.001
    7  0.001  0.008  0.000  0.009
    8  0.001  0.006  0.000  0.007
    9  0.002  0.006  0.000  0.008
   10  0.079  0.000  0.001  0.080
   11  0.003  0.085  0.000  0.088
   12  0.003  0.043  0.000  0.046
   13  0.004  0.083  0.000  0.086
   14  0.003  0.085  0.000  0.088
   15  0.004  0.083  0.000  0.086
   16  0.003  0.043  0.000  0.046
tot    0.113  0.461  0.001  0.575
 
band    23 # energy    1.82375375 # occ.  2.00000000
 
ion      s      p      d    tot
    1  0.000  0.001  0.000  0.001
    2  0.000  0.004  0.000  0.004
    3  0.000  0.003  0.000  0.003
    4  0.001  0.003  0.000  0.003
    5  0.000  0.004  0.000  0.004
    6  0.000  0.004  0.000  0.004
    7  0.001  0.003  0.000  0.003
    8  0.000  0.004  0.000  0.004
    9  0.000  0.001  0.000  0.001
   10  0.000  0.018  0.000  0.018
   11  0.000  0.083  0.000  0.083
   12  0.001  0.096  0.000  0.096
   13  0.000  0.080  0.000  0.080
   14  0.000  0.083  0.000  0.083
   15  0.000  0.080  0.000  0.080
   16  0.001  0.096  0.000  0.096
tot    0.004  0.559  0.000  0.563
 
band    24 # energy    1.85211380 # occ.  2.00000000
 
ion      s      p      d    tot
    1  0.000  0.005  0.000  0.005
    2  0.000  0.001  0.000  0.001
    3  0.000  0.002  0.000  0.002
    4  0.000  0.003  0.000  0.003
    5  0.000  0.004  0.000  0.004
    6  0.000  0.004  0.000  0.004
    7  0.000  0.003  0.000  0.003
    8  0.000  0.001  0.000  0.001
    9  0.000  0.005  0.000  0.005
   10  0.000  0.017  0.000  0.017
   11  0.000  0.086  0.000  0.086
   12  0.000  0.075  0.000  0.075
   13  0.001  0.098  0.000  0.099
   14  0.000  0.086  0.000  0.086
   15  0.001  0.098  0.000  0.099
   16  0.000  0.075  0.000  0.075
tot    0.004  0.559  0.000  0.562
 
band    25 # energy    2.04027425 # occ.  2.00000000
 
ion      s      p      d    tot
    1  0.000  0.002  0.000  0.002
    2  0.000  0.001  0.000  0.002
    3  0.000  0.001  0.000  0.001
    4  0.000  0.002  0.000  0.002
    5  0.001  0.003  0.000  0.004
    6  0.001  0.003  0.000  0.004
    7  0.000  0.002  0.000  0.002
    8  0.000  0.001  0.000  0.002
    9  0.000  0.002  0.000  0.002
   10  0.000  0.025  0.000  0.025
   11  0.000  0.079  0.000  0.079
   12  0.000  0.084  0.000  0.084
   13  0.000  0.097  0.000  0.097
   14  0.000  0.079  0.000  0.079
   15  0.000  0.097  0.000  0.097
   16  0.000  0.084  0.000  0.084
tot    0.004  0.559  0.000  0.563
 
band    26 # energy    5.11970397 # occ.  0.00000000
 
ion      s      p      d    tot
    1  0.009  0.009  0.000  0.018
    2  0.001  0.001  0.000  0.002
    3  0.000  0.022  0.000  0.022
    4  0.000  0.003  0.000  0.003
    5  0.000  0.003  0.000  0.003
    6  0.000  0.003  0.000  0.003
    7  0.000  0.003  0.000  0.003
    8  0.001  0.001  0.000  0.002
    9  0.009  0.009  0.000  0.018
   10  0.000  0.348  0.000  0.348
   11  0.004  0.005  0.000  0.008
   12  0.024  0.047  0.000  0.071
   13  0.000  0.002  0.000  0.002
   14  0.004  0.005  0.000  0.008
   15  0.000  0.002  0.000  0.002
   16  0.024  0.047  0.000  0.071
tot    0.077  0.507  0.000  0.585
 
band    27 # energy    5.14973924 # occ.  0.00000000
 
ion      s      p      d    tot
    1  0.000  0.003  0.000  0.003
    2  0.008  0.009  0.000  0.017
    3  0.000  0.027  0.000  0.027
    4  0.000  0.001  0.000  0.001
    5  0.000  0.002  0.000  0.002
    6  0.000  0.002  0.000  0.002
    7  0.000  0.001  0.000  0.001
    8  0.008  0.009  0.000  0.017
    9  0.000  0.003  0.000  0.003
   10  0.000  0.351  0.000  0.351
   11  0.003  0.005  0.000  0.008
   12  0.002  0.005  0.000  0.007
   13  0.021  0.048  0.000  0.069
   14  0.003  0.005  0.000  0.008
   15  0.021  0.048  0.000  0.069
   16  0.002  0.005  0.000  0.007
tot    0.068  0.522  0.000  0.590
 
band    28 # energy    5.28772767 # occ.  0.00000000
 
ion      s      p      d    tot
    1  0.000  0.001  0.000  0.001
    2  0.000  0.004  0.000  0.004
    3  0.000  0.025  0.000  0.025
    4  0.009  0.009  0.000  0.017
    5  0.000  0.002  0.000  0.002
    6  0.000  0.002  0.000  0.002
    7  0.009  0.009  0.000  0.017
    8  0.000  0.004  0.000  0.004
    9  0.000  0.001  0.000  0.001
   10  0.000  0.342  0.000  0.342
   11  0.021  0.047  0.000  0.069
   12  0.001  0.003  0.000  0.003
   13  0.006  0.008  0.000  0.013
   14  0.021  0.047  0.000  0.069
   15  0.006  0.008  0.000  0.013
   16  0.001  0.003  0.000  0.003
tot    0.074  0.512  0.000  0.586
 
band    29 # energy    6.53019355 # occ.  0.00000000
 
ion      s      p      d    tot
    1  0.013  0.001  0.000  0.015
    2  0.012  0.001  0.000  0.013
    3  0.003  0.000  0.000  0.003
    4  0.011  0.001  0.000  0.013
    5  0.034  0.001  0.000  0.036
    6  0.034  0.001  0.000  0.036
    7  0.011  0.001  0.000  0.013
    8  0.012  0.001  0.000  0.013
    9  0.013  0.001  0.000  0.015
   10  0.008  0.000  0.001  0.008
   11  0.022  0.007  0.000  0.029
   12  0.022  0.007  0.000  0.029
   13  0.025  0.006  0.000  0.032
   14  0.022  0.007  0.000  0.029
   15  0.025  0.006  0.000  0.032
   16  0.022  0.007  0.000  0.029
tot    0.292  0.050  0.001  0.343
 
band    30 # energy    7.53982820 # occ.  0.00000000
 
ion      s      p      d    tot
    1  0.003  0.010  0.000  0.013
    2  0.005  0.008  0.000  0.013
    3  0.000  0.011  0.000  0.011
    4  0.003  0.009  0.000  0.013
    5  0.016  0.028  0.000  0.044
    6  0.016  0.028  0.000  0.044
    7  0.003  0.009  0.000  0.013
    8  0.005  0.008  0.000  0.013
    9  0.003  0.010  0.000  0.013
   10  0.000  0.061  0.000  0.061
   11  0.002  0.000  0.000  0.003
   12  0.002  0.001  0.000  0.004
   13  0.001  0.002  0.000  0.003
   14  0.002  0.000  0.000  0.003
   15  0.001  0.002  0.000  0.003
   16  0.002  0.001  0.000  0.004
tot    0.066  0.191  0.000  0.257
 
band    31 # energy    7.66004469 # occ.  0.00000000
 
ion      s      p      d    tot
    1  0.001  0.011  0.000  0.012
    2  0.002  0.008  0.000  0.009
    3  0.000  0.000  0.000  0.000
    4  0.008  0.028  0.000  0.037
    5  0.000  0.025  0.000  0.025
    6  0.000  0.025  0.000  0.025
    7  0.008  0.028  0.000  0.037
    8  0.002  0.008  0.000  0.009
    9  0.001  0.011  0.000  0.012
   10  0.000  0.000  0.028  0.028
   11  0.004  0.010  0.000  0.013
   12  0.013  0.006  0.000  0.018
   13  0.001  0.008  0.000  0.009
   14  0.004  0.010  0.000  0.013
   15  0.001  0.008  0.000  0.009
   16  0.013  0.006  0.000  0.018
tot    0.056  0.191  0.028  0.276
 
band    32 # energy    7.81744763 # occ.  0.00000000
 
ion      s      p      d    tot
    1  0.005  0.019  0.000  0.024
    2  0.004  0.028  0.000  0.032
    3  0.000  0.000  0.000  0.000
    4  0.000  0.004  0.000  0.004
    5  0.001  0.025  0.000  0.026
    6  0.001  0.025  0.000  0.026
    7  0.000  0.004  0.000  0.004
    8  0.004  0.028  0.000  0.032
    9  0.005  0.019  0.000  0.024
   10  0.000  0.000  0.032  0.032
   11  0.008  0.006  0.000  0.014
   12  0.001  0.009  0.000  0.011
   13  0.009  0.006  0.000  0.015
   14  0.008  0.006  0.000  0.014
   15  0.009  0.006  0.000  0.015
   16  0.001  0.009  0.000  0.011
tot    0.057  0.193  0.032  0.283
 
band    33 # energy    8.19657236 # occ.  0.00000000
 
ion      s      p      d    tot
    1  0.002  0.000  0.000  0.003
    2  0.003  0.009  0.000  0.012
    3  0.000  0.002  0.000  0.002
    4  0.003  0.006  0.000  0.009
    5  0.002  0.007  0.000  0.008
    6  0.002  0.007  0.000  0.008
    7  0.003  0.006  0.000  0.009
    8  0.003  0.009  0.000  0.012
    9  0.002  0.000  0.000  0.003
   10  0.000  0.026  0.000  0.026
   11  0.001  0.031  0.000  0.032
   12  0.000  0.038  0.000  0.039
   13  0.000  0.035  0.000  0.035
   14  0.001  0.031  0.000  0.032
   15  0.000  0.035  0.000  0.035
   16  0.000  0.038  0.000  0.039
tot    0.020  0.282  0.000  0.302
 
band    34 # energy    8.37705718 # occ.  0.00000000
 
ion      s      p      d    tot
    1  0.000  0.027  0.000  0.027
    2  0.000  0.010  0.000  0.010
    3  0.000  0.029  0.000  0.029
    4  0.000  0.023  0.000  0.023
    5  0.000  0.031  0.000  0.031
    6  0.000  0.031  0.000  0.031
    7  0.000  0.023  0.000  0.023
    8  0.000  0.010  0.000  0.010
    9  0.000  0.027  0.000  0.027
   10  0.000  0.038  0.000  0.038
   11  0.000  0.008  0.000  0.008
   12  0.002  0.006  0.000  0.008
   13  0.002  0.003  0.000  0.005
   14  0.000  0.008  0.000  0.008
   15  0.002  0.003  0.000  0.005
   16  0.002  0.006  0.000  0.008
tot    0.010  0.282  0.000  0.292
 
band    35 # energy    8.61727352 # occ.  0.00000000
 
ion      s      p      d    tot
    1  0.001  0.019  0.000  0.020
    2  0.000  0.027  0.000  0.028
    3  0.000  0.026  0.000  0.026
    4  0.000  0.018  0.000  0.018
    5  0.001  0.031  0.000  0.031
    6  0.001  0.031  0.000  0.031
    7  0.000  0.018  0.000  0.018
    8  0.000  0.027  0.000  0.028
    9  0.001  0.019  0.000  0.020
   10  0.000  0.029  0.000  0.029
   11  0.002  0.004  0.000  0.006
   12  0.002  0.002  0.000  0.004
   13  0.001  0.012  0.000  0.013
   14  0.002  0.004  0.000  0.006
   15  0.001  0.012  0.000  0.013
   16  0.002  0.002  0.000  0.004
tot    0.013  0.282  0.000  0.295
 
band    36 # energy    8.68648038 # occ.  0.00000000
 
ion      s      p      d    tot
    1  0.000  0.010  0.000  0.010
    2  0.000  0.007  0.000  0.007
    3  0.060  0.000  0.000  0.060
    4  0.000  0.008  0.000  0.009
    5  0.000  0.030  0.000  0.030
    6  0.000  0.030  0.000  0.030
    7  0.000  0.008  0.000  0.009
    8  0.000  0.007  0.000  0.007
    9  0.000  0.010  0.000  0.010
   10  0.010  0.000  0.023  0.033
   11  0.001  0.014  0.000  0.015
   12  0.002  0.015  0.000  0.017
   13  0.001  0.014  0.000  0.015
   14  0.001  0.014  0.000  0.015
   15  0.001  0.014  0.000  0.015
   16  0.002  0.015  0.000  0.017
tot    0.079  0.198  0.023  0.300
 
band    37 # energy    9.59033071 # occ.  0.00000000
 
ion      s      p      d    tot
    1  0.001  0.024  0.000  0.024
    2  0.004  0.049  0.000  0.053
    3  0.007  0.000  0.000  0.007
    4  0.005  0.019  0.000  0.024
    5  0.000  0.012  0.000  0.012
    6  0.000  0.012  0.000  0.012
    7  0.005  0.019  0.000  0.024
    8  0.004  0.049  0.000  0.053
    9  0.001  0.024  0.000  0.024
   10  0.000  0.000  0.052  0.053
   11  0.004  0.002  0.000  0.006
   12  0.000  0.006  0.000  0.006
   13  0.001  0.009  0.000  0.009
   14  0.004  0.002  0.000  0.006
   15  0.001  0.009  0.000  0.009
   16  0.000  0.006  0.000  0.006
tot    0.036  0.239  0.052  0.327
 
band    38 # energy    9.64113655 # occ.  0.00000000
 
ion      s      p      d    tot
    1  0.003  0.037  0.000  0.040
    2  0.002  0.015  0.000  0.017
    3  0.000  0.000  0.000  0.000
    4  0.001  0.044  0.000  0.044
    5  0.000  0.010  0.000  0.010
    6  0.000  0.010  0.000  0.010
    7  0.001  0.044  0.000  0.044
    8  0.002  0.015  0.000  0.017
    9  0.003  0.037  0.000  0.040
   10  0.000  0.000  0.062  0.062
   11  0.000  0.003  0.000  0.004
   12  0.003  0.006  0.000  0.009
   13  0.000  0.006  0.000  0.007
   14  0.000  0.003  0.000  0.004
   15  0.000  0.006  0.000  0.007
   16  0.003  0.006  0.000  0.009
tot    0.020  0.242  0.062  0.324
 
band    39 # energy    9.69375897 # occ.  0.00000000
 
ion      s      p      d    tot
    1  0.000  0.026  0.000  0.027
    2  0.000  0.020  0.000  0.020
    3  0.023  0.000  0.000  0.023
    4  0.001  0.028  0.000  0.029
    5  0.001  0.007  0.000  0.008
    6  0.001  0.007  0.000  0.008
    7  0.001  0.028  0.000  0.029
    8  0.000  0.020  0.000  0.020
    9  0.000  0.026  0.000  0.027
   10  0.001  0.000  0.059  0.060
   11  0.000  0.012  0.000  0.012
   12  0.001  0.002  0.000  0.004
   13  0.000  0.008  0.000  0.008
   14  0.000  0.012  0.000  0.012
   15  0.000  0.008  0.000  0.008
   16  0.001  0.002  0.000  0.004
tot    0.032  0.207  0.059  0.298
 
band    40 # energy    9.89457182 # occ.  0.00000000
 
ion      s      p      d    tot
    1  0.004  0.006  0.000  0.010
    2  0.001  0.005  0.000  0.006
    3  0.000  0.012  0.000  0.012
    4  0.003  0.006  0.000  0.009
    5  0.079  0.005  0.000  0.085
    6  0.079  0.005  0.000  0.085
    7  0.003  0.006  0.000  0.009
    8  0.001  0.005  0.000  0.006
    9  0.004  0.006  0.000  0.010
   10  0.000  0.032  0.000  0.032
   11  0.003  0.024  0.000  0.027
   12  0.002  0.021  0.000  0.023
   13  0.003  0.017  0.000  0.020
   14  0.003  0.024  0.000  0.027
   15  0.003  0.017  0.000  0.020
   16  0.002  0.021  0.000  0.023
tot    0.189  0.213  0.000  0.403
 
band    41 # energy   10.10324941 # occ.  0.00000000
 
ion      s      p      d    tot
    1  0.002  0.022  0.000  0.024
    2  0.000  0.010  0.000  0.010
    3  0.057  0.000  0.000  0.057
    4  0.000  0.007  0.000  0.007
    5  0.002  0.037  0.000  0.039
    6  0.002  0.037  0.000  0.039
    7  0.000  0.007  0.000  0.007
    8  0.000  0.010  0.000  0.010
    9  0.002  0.022  0.000  0.024
   10  0.002  0.000  0.015  0.017
   11  0.003  0.020  0.000  0.023
   12  0.001  0.027  0.000  0.028
   13  0.004  0.017  0.000  0.020
   14  0.003  0.020  0.000  0.023
   15  0.004  0.017  0.000  0.020
   16  0.001  0.027  0.000  0.028
tot    0.081  0.278  0.015  0.374
 
band    42 # energy   10.49024448 # occ.  0.00000000
 
ion      s      p      d    tot
    1  0.005  0.023  0.000  0.027
    2  0.001  0.006  0.000  0.007
    3  0.000  0.080  0.000  0.080
    4  0.000  0.017  0.000  0.017
    5  0.000  0.007  0.000  0.007
    6  0.000  0.007  0.000  0.007
    7  0.000  0.017  0.000  0.017
    8  0.001  0.006  0.000  0.007
    9  0.005  0.023  0.000  0.027
   10  0.000  0.068  0.000  0.068
   11  0.000  0.007  0.000  0.007
   12  0.000  0.001  0.000  0.001
   13  0.000  0.011  0.000  0.011
   14  0.000  0.007  0.000  0.007
   15  0.000  0.011  0.000  0.011
   16  0.000  0.001  0.000  0.001
tot    0.013  0.289  0.000  0.302
 

 k-point     2 :    0.33333333 0.00000000 0.00000000     weight = 0.07407407

band     1 # energy   -9.93509671 # occ.  2.00000000
 
ion      s      p      d    tot
    1  0.001  0.000  0.000  0.002
    2  0.001  0.000  0.000  0.002
    3  0.001  0.000  0.000  0.001
    4  0.001  0.000  0.000  0.002
    5  0.001  0.000  0.000  0.001
    6  0.001  0.000  0.000  0.001
    7  0.001  0.000  0.000  0.002
    8  0.001  0.000  0.000  0.002
    9  0.001  0.000  0.000  0.002
   10  0.293  0.000  0.000  0.293
   11  0.069  0.001  0.000  0.070
   12  0.067  0.001  0.000  0.068
   13  0.056  0.001  0.000  0.057
   14  0.069  0.001  0.000  0.070
   15  0.056  0.001  0.000  0.057
   16  0.067  0.001  0.000  0.068
tot    0.686  0.009  0.000  0.695
 
band     2 # energy   -8.97043245 # occ.  2.00000000
 
ion      s      p      d    tot
    1  0.003  0.000  0.000  0.003
    2  0.003  0.000  0.000  0.003
    3  0.002  0.000  0.000  0.003
    4  0.003  0.000  0.000  0.003
    5  0.000  0.001  0.000  0.001
    6  0.000  0.001  0.000  0.001
    7  0.003  0.000  0.000  0.003
    8  0.003  0.000  0.000  0.003
    9  0.003  0.000  0.000  0.003
   10  0.008  0.016  0.000  0.024
   11  0.124  0.000  0.000  0.125
   12  0.110  0.000  0.000  0.110
   13  0.070  0.000  0.000  0.071
   14  0.124  0.000  0.000  0.124
   15  0.070  0.000  0.000  0.071
   16  0.110  0.000  0.000  0.110
tot    0.637  0.021  0.000  0.658
 
band     3 # energy   -8.66564798 # occ.  2.00000000
 
ion      s      p      d    tot
    1  0.000  0.001  0.000  0.001
    2  0.000  0.002  0.000  0.002
    3  0.000  0.001  0.000  0.001
    4  0.000  0.002  0.000  0.003
    5  0.000  0.001  0.000  0.001
    6  0.000  0.001  0.000  0.001
    7  0.000  0.002  0.000  0.003
    8  0.000  0.002  0.000  0.002
    9  0.000  0.001  0.000  0.001