 running on   14 total cores
 distrk:  each k-point on   14 cores,    1 groups
 distr:  one band on    1 cores,   14 groups
 using from now: INCAR     
 vasp.5.4.4.18Apr17-6-g9f103f2a35 (build Oct 27 2022 13:04:57) complex          
  
 POSCAR found type information on POSCAR  Li Bi S 
 POSCAR found :  3 types and      16 ions
 scaLAPACK will be used

 ----------------------------------------------------------------------------- 
|                                                                             |
|           W    W    AA    RRRRR   N    N  II  N    N   GGGG   !!!           |
|           W    W   A  A   R    R  NN   N  II  NN   N  G    G  !!!           |
|           W    W  A    A  R    R  N N  N  II  N N  N  G       !!!           |
|           W WW W  AAAAAA  RRRRR   N  N N  II  N  N N  G  GGG   !            |
|           WW  WW  A    A  R   R   N   NN  II  N   NN  G    G                |
|           W    W  A    A  R    R  N    N  II  N    N   GGGG   !!!           |
|                                                                             |
|      For optimal performance we recommend to set                            |
|        NCORE= 4 - approx SQRT( number of cores)                             |
|      NCORE specifies how many cores store one orbital (NPAR=cpu/NCORE).     |
|      This setting can  greatly improve the performance of VASP for DFT.     |
|      The default,   NCORE=1            might be grossly inefficient         |
|      on modern multi-core architectures or massively parallel machines.     |
|      Do your own testing !!!!                                               |
|      Unfortunately you need to use the default for GW and RPA calculations. |
|      (for HF NCORE is supported but not extensively tested yet)             |
|                                                                             |
 ----------------------------------------------------------------------------- 

 LDA part: xc-table for Pade appr. of Perdew
 POSCAR, INCAR and KPOINTS ok, starting setup
 FFT: planning ...
 WAVECAR not read
 entering main loop
       N       E                     dE             d eps       ncg     rms          rms(c)
DAV:   1     0.154365818310E+03    0.15437E+03   -0.12233E+04  1176   0.576E+02
DAV:   2    -0.332255351102E+02   -0.18759E+03   -0.17791E+03  1680   0.115E+02
DAV:   3    -0.572198361137E+02   -0.23994E+02   -0.23811E+02  1568   0.464E+01
DAV:   4    -0.577228526056E+02   -0.50302E+00   -0.50267E+00  1694   0.822E+00
DAV:   5    -0.577288870527E+02   -0.60344E-02   -0.60337E-02  1694   0.719E-01    0.901E+00
DAV:   6    -0.527617081362E+02    0.49672E+01   -0.11201E+01  1498   0.833E+00    0.593E+00
DAV:   7    -0.524980724319E+02    0.26364E+00   -0.99341E-01  1554   0.270E+00    0.388E+00
DAV:   8    -0.524088112525E+02    0.89261E-01   -0.17531E-01  1554   0.148E+00    0.576E-01
DAV:   9    -0.524080285792E+02    0.78267E-03   -0.18618E-02  1652   0.448E-01    0.604E-01
DAV:  10    -0.524100984320E+02   -0.20699E-02   -0.68867E-03  1624   0.280E-01    0.135E-01
DAV:  11    -0.524098985397E+02    0.19989E-03   -0.15612E-03  1554   0.151E-01    0.103E-01
DAV:  12    -0.524099696251E+02   -0.71085E-04   -0.39714E-04  1568   0.602E-02
   1 F= -.52409970E+02 E0= -.52409969E+02  d E =-.524100E+02
 curvature:   0.00 expect dE= 0.000E+00 dE for cont linesearch  0.000E+00
 trial: gam= 0.00000 g(F)=  0.981E-01 g(S)=  0.828E+00 ort = 0.000E+00 (trialstep = 0.100E+01)
 search vector abs. value=  0.927E+00
 bond charge predicted
       N       E                     dE             d eps       ncg     rms          rms(c)
DAV:   1    -0.537391737229E+02   -0.13293E+01   -0.58322E+00  1428   0.736E+00    0.384E+00
DAV:   2    -0.533297352069E+02    0.40944E+00   -0.13019E+00  1456   0.297E+00    0.848E-01
DAV:   3    -0.533223951795E+02    0.73400E-02   -0.84989E-02  1400   0.958E-01    0.654E-01
DAV:   4    -0.533197152827E+02    0.26799E-02   -0.37995E-03  1512   0.195E-01    0.523E-01
DAV:   5    -0.533180637606E+02    0.16515E-02   -0.27525E-03  1680   0.135E-01    0.214E-01
DAV:   6    -0.533180203694E+02    0.43391E-04   -0.36233E-04  1624   0.580E-02
   2 F= -.53318020E+02 E0= -.53318020E+02  d E =-.908051E+00
 ZBRENT: can't locate minimum, use default step
 trial-energy change:   -0.908051  1 .order   -0.902326   -0.926587   -0.878065
 step:   4.0000(harm= 19.0961)  dis= 0.03880  next Energy=   -61.257065 (dE=-0.885E+01)
 bond charge predicted
       N       E                     dE             d eps       ncg     rms          rms(c)
DAV:   1    -0.596047254877E+02   -0.62867E+01   -0.55561E+01  1568   0.237E+01    0.131E+01
DAV:   2    -0.558447917872E+02    0.37599E+01   -0.11313E+01  1470   0.878E+00    0.317E+00
DAV:   3    -0.557885186060E+02    0.56273E-01   -0.10843E+00  1512   0.326E+00    0.288E+00
DAV:   4    -0.557687463380E+02    0.19772E-01   -0.22326E-02  1540   0.530E-01    0.234E+00
DAV:   5    -0.557466803441E+02    0.22066E-01   -0.30052E-02  1722   0.465E-01    0.664E-01
DAV:   6    -0.557463130245E+02    0.36732E-03   -0.44396E-03  1652   0.187E-01    0.261E-01
DAV:   7    -0.557462771953E+02    0.35829E-04   -0.26125E-04  1540   0.531E-02
   3 F= -.55746277E+02 E0= -.55746277E+02  d E =-.333631E+01
 curvature:  -2.90 expect dE=-0.153E+01 dE for cont linesearch -0.145E+01
 ZBRENT: increasing intervall
 opt :  10.0000  next Energy=   -58.629380 (dE=-0.622E+01)
 bond charge predicted
       N       E                     dE             d eps       ncg     rms          rms(c)
DAV:   1    -0.745801240569E+02   -0.18834E+02   -0.25627E+02  1526   0.539E+01    0.340E+01
DAV:   2    -0.587885430360E+02    0.15792E+02   -0.47111E+01  1442   0.175E+01    0.102E+01
DAV:   3    -0.583122364095E+02    0.47631E+00   -0.76582E+00  1428   0.835E+00    0.958E+00
DAV:   4    -0.582464326845E+02    0.65804E-01   -0.15027E-01  1526   0.144E+00    0.767E+00
DAV:   5    -0.581523470802E+02    0.94086E-01   -0.20015E-01  1484   0.123E+00    0.806E-01
DAV:   6    -0.581490528881E+02    0.32942E-02   -0.21231E-02  1470   0.459E-01    0.699E-01
DAV:   7    -0.581482336186E+02    0.81927E-03   -0.44346E-03  1456   0.194E-01    0.188E-01
DAV:   8    -0.581482143400E+02    0.19279E-04   -0.55184E-04  1624   0.652E-02
   4 F= -.58148214E+02 E0= -.58146424E+02  d E =-.573824E+01
 curvature:  -5.79 expect dE=-0.218E+01 dE for cont linesearch -0.773E-05
 trial: gam= 0.40850 g(F)=  0.374E+00 g(S)=  0.322E-02 ort =-0.111E-02 (trialstep = 0.280E+01)
 search vector abs. value=  0.531E+00
 bond charge predicted
       N       E                     dE             d eps       ncg     rms          rms(c)
DAV:   1    -0.593177643377E+02   -0.11695E+01   -0.29866E+01  1176   0.174E+01    0.437E+00
DAV:   2    -0.591264555448E+02    0.19131E+00   -0.22879E+00  1568   0.518E+00    0.149E+00
DAV:   3    -0.591025563593E+02    0.23899E-01   -0.12315E-01  1498   0.117E+00    0.102E+00
DAV:   4    -0.590993216567E+02    0.32347E-02   -0.13812E-02  1540   0.382E-01    0.552E-01
DAV:   5    -0.590987609958E+02    0.56066E-03   -0.17454E-03  1470   0.126E-01    0.267E-01
DAV:   6    -0.590986845335E+02    0.76462E-04   -0.44300E-04  1638   0.687E-02
   5 F= -.59098685E+02 E0= -.59098670E+02  d E =-.950470E+00
 ZBRENT: can't locate minimum, use default step
 trial-energy change:   -0.950470  1 .order   -0.950102   -1.055440   -0.844764
 step:  11.2000(harm= 14.0274)  dis= 0.20645  next Energy=   -60.791973 (dE=-0.264E+01)
 bond charge predicted
       N       E                     dE             d eps       ncg     rms          rms(c)
DAV:   1    -0.624426441625E+02   -0.33439E+01   -0.27309E+02  1176   0.542E+01    0.207E+01
DAV:   2    -0.607260601120E+02    0.17166E+01   -0.23866E+01  1568   0.164E+01    0.580E+00
DAV:   3    -0.604717346915E+02    0.25433E+00   -0.16437E+00  1512   0.418E+00    0.530E+00
DAV:   4    -0.604582953880E+02    0.13439E-01   -0.16455E-01  1540   0.141E+00    0.342E+00
DAV:   5    -0.604438164823E+02    0.14479E-01   -0.54796E-02  1512   0.687E-01    0.420E-01
DAV:   6    -0.604441018692E+02   -0.28539E-03   -0.54742E-03  1512   0.251E-01    0.186E-01
DAV:   7    -0.604440829309E+02    0.18938E-04   -0.20342E-04  1568   0.547E-02
   6 F= -.60444083E+02 E0= -.60444083E+02  d E =-.229587E+01
 curvature:  -9.26 expect dE=-0.850E+00 dE for cont linesearch -0.248E-02
 trial: gam=-0.02572 g(F)=  0.384E-01 g(S)=  0.534E-01 ort = 0.119E-01 (trialstep = 0.448E+01)
 search vector abs. value=  0.915E-01
 bond charge predicted
       N       E                     dE             d eps       ncg     rms          rms(c)
DAV:   1    -0.610507482205E+02   -0.60665E+00   -0.11313E+01  1176   0.111E+01    0.392E+00
DAV:   2    -0.607304890939E+02    0.32026E+00   -0.12126E+00  1554   0.373E+00    0.189E+00
DAV:   3    -0.606978658131E+02    0.32623E-01   -0.16271E-01  1316   0.119E+00    0.657E-01
DAV:   4    -0.606932933645E+02    0.45724E-02   -0.55637E-03  1568   0.290E-01    0.350E-01
DAV:   5    -0.606919150218E+02    0.13783E-02   -0.43163E-03  1386   0.171E-01    0.238E-01
DAV:   6    -0.606919201612E+02   -0.51395E-05   -0.33369E-04  1638   0.576E-02
   7 F= -.60691920E+02 E0= -.60691920E+02  d E =-.247837E+00
 trial-energy change:   -0.247837  1 .order   -0.251624   -0.409901   -0.093347
 step:   5.9400(harm=  5.8011)  dis= 0.03687  next Energy=   -60.707000 (dE=-0.263E+00)
 bond charge predicted
       N       E                     dE             d eps       ncg     rms          rms(c)
DAV:   1    -0.607455287750E+02   -0.53614E-01   -0.12034E+00  1176   0.362E+00    0.129E+00
DAV:   2    -0.607114741885E+02    0.34055E-01   -0.12962E-01  1554   0.121E+00    0.570E-01
DAV:   3    -0.607082176668E+02    0.32565E-02   -0.17892E-02  1302   0.394E-01    0.203E-01
DAV:   4    -0.607077533000E+02    0.46437E-03   -0.57571E-04  1568   0.929E-02    0.129E-01
DAV:   5    -0.607075697989E+02    0.18350E-03   -0.47866E-04  1442   0.577E-02    0.806E-02
DAV:   6    -0.607075643994E+02    0.53995E-05   -0.35610E-05   924   0.200E-02
   8 F= -.60707564E+02 E0= -.60707564E+02  d E =-.263481E+00
 curvature:  -2.87 expect dE=-0.337E-01 dE for cont linesearch -0.311E-05
 trial: gam= 0.11738 g(F)=  0.106E-01 g(S)=  0.118E-02 ort = 0.315E-03 (trialstep = 0.477E+01)
 search vector abs. value=  0.131E-01
 bond charge predicted
       N       E                     dE             d eps       ncg     rms          rms(c)
DAV:   1    -0.607606474160E+02   -0.53078E-01   -0.29647E-01  1232   0.175E+00    0.309E-01
DAV:   2    -0.607618000112E+02   -0.11526E-02   -0.20351E-02  1582   0.542E-01    0.134E-01
DAV:   3    -0.607616756860E+02    0.12433E-03   -0.56700E-04  1610   0.976E-02    0.923E-02
DAV:   4    -0.607616220182E+02    0.53668E-04   -0.18104E-04  1204   0.514E-02
   9 F= -.60761622E+02 E0= -.60761622E+02  d E =-.540576E-01
 ZBRENT: can't locate minimum, use default step
 trial-energy change:   -0.054058  1 .order   -0.054148   -0.056196   -0.052101
 step:  19.0880(harm= 65.4903)  dis= 0.07210  next Energy=   -61.093174 (dE=-0.386E+00)
 bond charge predicted
       N       E                     dE             d eps       ncg     rms          rms(c)
DAV:   1    -0.608895214282E+02   -0.12785E+00   -0.26939E+00  1232   0.527E+00    0.953E-01
DAV:   2    -0.608995091577E+02   -0.99877E-02   -0.18487E-01  1568   0.164E+00    0.372E-01
DAV:   3    -0.608983459106E+02    0.11632E-02   -0.53491E-03  1666   0.301E-01    0.249E-01
DAV:   4    -0.608979205540E+02    0.42536E-03   -0.19282E-03  1610   0.154E-01    0.111E-01
DAV:   5    -0.608979471843E+02   -0.26630E-04   -0.30700E-04  1414   0.637E-02
  10 F= -.60897947E+02 E0= -.60897947E+02  d E =-.190383E+00
 curvature: -15.12 expect dE=-0.115E+00 dE for cont linesearch -0.747E-01
 ZBRENT: increasing intervall
 opt :  47.7201  next Energy=   -61.045545 (dE=-0.338E+00)
 bond charge predicted
       N       E                     dE             d eps       ncg     rms          rms(c)
DAV:   1    -0.609895381955E+02   -0.91618E-01   -0.11079E+01  1176   0.107E+01    0.209E+00
DAV:   2    -0.610279294406E+02   -0.38391E-01   -0.77121E-01  1568   0.336E+00    0.729E-01
DAV:   3    -0.610227277819E+02    0.52017E-02   -0.23988E-02  1624   0.635E-01    0.488E-01
DAV:   4    -0.610211958775E+02    0.15319E-02   -0.83877E-03  1596   0.319E-01    0.217E-01
DAV:   5    -0.610212919919E+02   -0.96114E-04   -0.11584E-03  1484   0.126E-01    0.910E-02
DAV:   6    -0.610212997259E+02   -0.77340E-05   -0.75405E-05  1176   0.335E-02
  11 F= -.61021300E+02 E0= -.61021300E+02  d E =-.313735E+00
 curvature: -29.88 expect dE=-0.486E+00 dE for cont linesearch -0.406E-06
 trial: gam= 1.42258 g(F)=  0.123E-01 g(S)=  0.396E-02 ort =-0.133E-04 (trialstep = 0.409E+01)
 search vector abs. value=  0.427E-01
 bond charge predicted
       N       E                     dE             d eps       ncg     rms          rms(c)
DAV:   1    -0.610899043084E+02   -0.68612E-01   -0.81022E-01  1260   0.302E+00    0.695E-01
DAV:   2    -0.610851720131E+02    0.47323E-02   -0.53675E-02  1582   0.887E-01    0.344E-01
DAV:   3    -0.610834529830E+02    0.17190E-02   -0.56579E-03  1512   0.267E-01    0.166E-01
DAV:   4    -0.610829940495E+02    0.45893E-03   -0.10153E-03  1582   0.115E-01    0.961E-02
DAV:   5    -0.610828770761E+02    0.11697E-03   -0.26491E-04  1554   0.551E-02    0.431E-02
DAV:   6    -0.610828700704E+02    0.70057E-05   -0.22663E-05  1078   0.180E-02
  12 F= -.61082870E+02 E0= -.61082870E+02  d E =-.615703E-01
 ZBRENT: can't locate minimum, use default step
 trial-energy change:   -0.061570  1 .order   -0.061663   -0.066450   -0.056876
 step:  16.3759(harm= 28.4151)  dis= 0.10824  next Energy=   -61.251904 (dE=-0.231E+00)
 bond charge predicted
       N       E                     dE             d eps       ncg     rms          rms(c)
DAV:   1    -0.612679209758E+02   -0.18504E+00   -0.72255E+00  1218   0.899E+00    0.200E+00
DAV:   2    -0.612271577152E+02    0.40763E-01   -0.47600E-01  1582   0.263E+00    0.104E+00
DAV:   3    -0.612115104795E+02    0.15647E-01   -0.47987E-02  1512   0.775E-01    0.509E-01
DAV:   4    -0.612070210030E+02    0.44895E-02   -0.94204E-03  1582   0.349E-01    0.277E-01
DAV:   5    -0.612060591812E+02    0.96182E-03   -0.25186E-03  1708   0.171E-01    0.129E-01
DAV:   6    -0.612060278992E+02    0.31282E-04   -0.21790E-04  1512   0.520E-02
  13 F= -.61206028E+02 E0= -.61206028E+02  d E =-.184728E+00
 curvature: -28.20 expect dE=-0.267E+00 dE for cont linesearch -0.288E-01
 ZBRENT: increasing intervall
 opt :  40.9398  next Energy=   -61.188916 (dE=-0.168E+00)
 bond charge predicted
       N       E                     dE             d eps       ncg     rms          rms(c)
DAV:   1    -0.614315641720E+02   -0.22550E+00   -0.28433E+01  1232   0.177E+01    0.395E+00
DAV:   2    -0.612802130303E+02    0.15135E+00   -0.18534E+00  1554   0.517E+00    0.216E+00
DAV:   3    -0.612186677719E+02    0.61545E-01   -0.17000E-01  1512   0.145E+00    0.109E+00
DAV:   4    -0.611968880353E+02    0.21780E-01   -0.40444E-02  1596   0.719E-01    0.518E-01
DAV:   5    -0.611934860292E+02    0.34020E-02   -0.11113E-02  1736   0.361E-01    0.262E-01
DAV:   6    -0.611933739279E+02    0.11210E-03   -0.72370E-04  1666   0.938E-02    0.144E-01
DAV:   7    -0.611933363545E+02    0.37573E-04   -0.18364E-04  1428   0.484E-02
  14 F= -.61193336E+02 E0= -.61193336E+02  d E =-.172037E+00
 curvature:  16.77 expect dE= 0.411E+00 dE for cont linesearch  0.220E-01
 ZBRENT: bracketing found
 ZBRENT: interpolating
 opt :  27.8843  next Energy=   -61.243994 (dE=-0.223E+00)
 bond charge predicted
       N       E                     dE             d eps       ncg     rms          rms(c)
DAV:   1    -0.613139950632E+02   -0.12062E+00   -0.81364E+00  1190   0.940E+00    0.220E+00
DAV:   2    -0.612614885312E+02    0.52507E-01   -0.52766E-01  1582   0.273E+00    0.934E-01
DAV:   3    -0.612452220161E+02    0.16267E-01   -0.51729E-02  1456   0.816E-01    0.539E-01
DAV:   4    -0.612414322293E+02    0.37898E-02   -0.86756E-03  1582   0.333E-01    0.379E-01
DAV:   5    -0.612402458912E+02    0.11863E-02   -0.24031E-03  1568   0.164E-01    0.126E-01
DAV:   6    -0.612402134511E+02    0.32440E-04   -0.31470E-04  1568   0.622E-02
  15 F= -.61240213E+02 E0= -.61240213E+02  d E =-.218914E+00
 curvature: -28.92 expect dE=-0.391E+00 dE for cont linesearch -0.371E-05
 trial: gam= 0.49188 g(F)=  0.117E-01 g(S)=  0.182E-02 ort =-0.740E-04 (trialstep = 0.885E+01)
 search vector abs. value=  0.238E-01
 bond charge predicted
       N       E                     dE             d eps       ncg     rms          rms(c)
DAV:   1    -0.613425617779E+02   -0.10232E+00   -0.30286E+00  1176   0.569E+00    0.113E+00
DAV:   2    -0.613485821460E+02   -0.60204E-02   -0.21544E-01  1568   0.177E+00    0.579E-01
DAV:   3    -0.613463663940E+02    0.22158E-02   -0.84626E-03  1498   0.360E-01    0.349E-01
DAV:   4    -0.613452394964E+02    0.11269E-02   -0.22390E-03  1568   0.172E-01    0.149E-01
DAV:   5    -0.613451482022E+02    0.91294E-04   -0.69091E-04  1582   0.883E-02
  16 F= -.61345148E+02 E0= -.61345148E+02  d E =-.104935E+00
 ZBRENT: can't locate minimum, use default step
 trial-energy change:   -0.104935  1 .order   -0.105730   -0.119265   -0.092194
 step:  35.4082(harm= 38.9988)  dis= 0.15295  next Energy=   -61.502932 (dE=-0.263E+00)
 bond charge predicted
       N       E                     dE             d eps       ncg     rms          rms(c)
DAV:   1    -0.614912048533E+02   -0.14597E+00   -0.26859E+01  1176   0.170E+01    0.372E+00
DAV:   2    -0.615617204572E+02   -0.70516E-01   -0.19635E+00  1568   0.530E+00    0.197E+00
DAV:   3    -0.615415713098E+02    0.20149E-01   -0.73911E-02  1498   0.106E+00    0.126E+00
DAV:   4    -0.615298755198E+02    0.11696E-01   -0.21852E-02  1568   0.533E-01    0.504E-01
DAV:   5    -0.615290183145E+02    0.85721E-03   -0.72208E-03  1652   0.283E-01    0.122E-01
DAV:   6    -0.615289443152E+02    0.73999E-04   -0.48140E-04  1596   0.822E-02
  17 F= -.61528944E+02 E0= -.61528944E+02  d E =-.288731E+00
 curvature: -33.90 expect dE=-0.445E+00 dE for cont linesearch -0.206E-01
 ZBRENT: increasing intervall
 opt :  88.5205  next Energy=   -61.379235 (dE=-0.139E+00)
 bond charge predicted
       N       E                     dE             d eps       ncg     rms          rms(c)
DAV:   1    -0.611945937934E+02    0.33442E+00   -0.10476E+02  1176   0.341E+01    0.980E+00
DAV:   2    -0.615914554226E+02   -0.39686E+00   -0.83183E+00  1568   0.106E+01    0.489E+00
DAV:   3    -0.615028696797E+02    0.88586E-01   -0.31376E-01  1540   0.221E+00    0.336E+00
DAV:   4    -0.614520565863E+02    0.50813E-01   -0.94331E-02  1582   0.109E+00    0.135E+00
DAV:   5    -0.614466184638E+02    0.54381E-02   -0.31072E-02  1596   0.588E-01    0.233E-01
DAV:   6    -0.614463716110E+02    0.24685E-03   -0.25644E-03  1806   0.189E-01    0.251E-01
DAV:   7    -0.614463228586E+02    0.48752E-04   -0.28357E-04  1470   0.585E-02
  18 F= -.61446323E+02 E0= -.61446323E+02  d E =-.206109E+00
 curvature: 246.59 expect dE= 0.102E+02 dE for cont linesearch  0.650E+00
 ZBRENT: bracketing found
 ZBRENT: interpolating
 opt :  52.6311  next Energy=   -61.561652 (dE=-0.321E+00)
 bond charge predicted
       N       E                     dE             d eps       ncg     rms          rms(c)
DAV:   1    -0.615203578075E+02   -0.73986E-01   -0.48888E+01  1176   0.225E+01    0.588E+00
DAV:   2    -0.616154142198E+02   -0.95056E-01   -0.37161E+00  1568   0.704E+00    0.188E+00
DAV:   3    -0.615813030208E+02    0.34111E-01   -0.13842E-01  1470   0.146E+00    0.144E+00
DAV:   4    -0.615689235994E+02    0.12379E-01   -0.31157E-02  1582   0.641E-01    0.871E-01
DAV:   5    -0.615666516490E+02    0.22720E-02   -0.94865E-03  1582   0.332E-01    0.197E-01
DAV:   6    -0.615666373168E+02    0.14332E-04   -0.10020E-03  1736   0.115E-01    0.131E-01
DAV:   7    -0.615666378313E+02   -0.51445E-06   -0.17220E-04  1358   0.496E-02
  19 F= -.61566638E+02 E0= -.61566638E+02  d E =-.326424E+00
 curvature: -12.41 expect dE=-0.243E+00 dE for cont linesearch -0.929E-04
 trial: gam= 1.47597 g(F)=  0.864E-02 g(S)=  0.110E-01 ort = 0.422E-03 (trialstep = 0.576E+01)
 search vector abs. value=  0.726E-01
 bond charge predicted
       N       E                     dE             d eps       ncg     rms          rms(c)
DAV:   1    -0.617104583203E+02   -0.14382E+00   -0.48003E+00  1176   0.714E+00    0.202E+00
DAV:   2    -0.616717161439E+02    0.38742E-01   -0.39392E-01  1568   0.229E+00    0.819E-01
DAV:   3    -0.616612921511E+02    0.10424E-01   -0.31601E-02  1512   0.601E-01    0.425E-01
DAV:   4    -0.616598470042E+02    0.14451E-02   -0.45376E-03  1610   0.240E-01    0.235E-01
DAV:   5    -0.616596157833E+02    0.23122E-03   -0.56616E-04  1638   0.767E-02    0.125E-01
DAV:   6    -0.616595832531E+02    0.32530E-04   -0.94047E-05  1092   0.389E-02
  20 F= -.61659583E+02 E0= -.61659583E+02  d E =-.929454E-01
 trial-energy change:   -0.092945  1 .order   -0.091626   -0.116516   -0.066736
 step:  11.6128(harm= 13.4875)  dis= 0.08073  next Energy=   -61.694843 (dE=-0.128E+00)
 bond charge predicted
       N       E                     dE             d eps       ncg     rms          rms(c)
DAV:   1    -0.617481603313E+02   -0.88545E-01   -0.49829E+00  1176   0.731E+00    0.206E+00
DAV:   2    -0.617083770150E+02    0.39783E-01   -0.40991E-01  1568   0.235E+00    0.848E-01
DAV:   3    -0.616974471022E+02    0.10930E-01   -0.33193E-02  1498   0.621E-01    0.440E-01
DAV:   4    -0.616959251263E+02    0.15220E-02   -0.49224E-03  1596   0.251E-01    0.248E-01
DAV:   5    -0.616956970390E+02    0.22809E-03   -0.53966E-04  1624   0.758E-02    0.140E-01
DAV:   6    -0.616956447658E+02    0.52273E-04   -0.15245E-04  1316   0.456E-02
  21 F= -.61695645E+02 E0= -.61695645E+02  d E =-.129007E+00
 curvature: -22.79 expect dE=-0.123E+00 dE for cont linesearch -0.813E-04
 trial: gam= 0.15109 g(F)=  0.390E-02 g(S)=  0.150E-02 ort = 0.509E-03 (trialstep = 0.693E+01)
 search vector abs. value=  0.721E-02
 bond charge predicted
       N       E                     dE             d eps       ncg     rms          rms(c)
DAV:   1    -0.617239514702E+02   -0.28254E-01   -0.18316E+00  1232   0.440E+00    0.957E-01
DAV:   2    -0.617278436234E+02   -0.38922E-02   -0.11598E-01  1568   0.130E+00    0.485E-01
DAV:   3    -0.617261492432E+02    0.16944E-02   -0.34489E-03  1624   0.234E-01    0.320E-01
DAV:   4    -0.617251170694E+02    0.10322E-02   -0.20297E-03  1568   0.161E-01    0.114E-01
DAV:   5    -0.617250902015E+02    0.26868E-04   -0.45265E-04  1484   0.755E-02
  22 F= -.61725090E+02 E0= -.61725090E+02  d E =-.294454E-01
 trial-energy change:   -0.029445  1 .order   -0.030185   -0.037953   -0.022417
 step:  16.9351(harm= 16.9351)  dis= 0.03611  next Energy=   -61.742002 (dE=-0.464E-01)
 bond charge predicted
       N       E                     dE             d eps       ncg     rms          rms(c)
DAV:   1    -0.617384573622E+02   -0.13340E-01   -0.37999E+00  1176   0.633E+00    0.143E+00
DAV:   2    -0.617468243427E+02   -0.83670E-02   -0.24175E-01  1568   0.188E+00    0.691E-01
DAV:   3    -0.617433155869E+02    0.35088E-02   -0.71722E-03  1610   0.338E-01    0.456E-01
DAV:   4    -0.617412218906E+02    0.20937E-02   -0.41446E-03  1568   0.230E-01    0.163E-01
DAV:   5    -0.617411704793E+02    0.51411E-04   -0.92590E-04  1554   0.108E-01
  23 F= -.61741170E+02 E0= -.61741170E+02  d E =-.455257E-01
 curvature: -11.15 expect dE=-0.458E-01 dE for cont linesearch -0.340E-04
 trial: gam= 0.73017 g(F)=  0.315E-02 g(S)=  0.960E-03 ort = 0.148E-03 (trialstep = 0.789E+01)
 search vector abs. value=  0.817E-02
 bond charge predicted
       N       E                     dE             d eps       ncg     rms          rms(c)
DAV:   1    -0.617724746589E+02   -0.31253E-01   -0.14728E+00  1176   0.393E+00    0.851E-01
DAV:   2    -0.617731638325E+02   -0.68917E-03   -0.99352E-02  1568   0.116E+00    0.387E-01
DAV:   3    -0.617718305390E+02    0.13333E-02   -0.32530E-03  1526   0.223E-01    0.235E-01
DAV:   4    -0.617713081333E+02    0.52241E-03   -0.10313E-03  1568   0.114E-01    0.112E-01
DAV:   5    -0.617712762520E+02    0.31881E-04   -0.24441E-04  1372   0.536E-02
  24 F= -.61771276E+02 E0= -.61771276E+02  d E =-.301058E-01
 ZBRENT: can't locate minimum, use default step
 trial-energy change:   -0.030106  1 .order   -0.030316   -0.033239   -0.027394
 step:  31.5406(harm= 44.8473)  dis= 0.10200  next Energy=   -61.835694 (dE=-0.945E-01)
 bond charge predicted
       N       E                     dE             d eps       ncg     rms          rms(c)
DAV:   1    -0.618341554540E+02   -0.62847E-01   -0.13317E+01  1176   0.118E+01    0.273E+00
DAV:   2    -0.618392933044E+02   -0.51379E-02   -0.90552E-01  1568   0.350E+00    0.110E+00
DAV:   3    -0.618273010341E+02    0.11992E-01   -0.29783E-02  1498   0.679E-01    0.721E-01
DAV:   4    -0.618228158409E+02    0.44852E-02   -0.88485E-03  1568   0.336E-01    0.394E-01
DAV:   5    -0.618223868636E+02    0.42898E-03   -0.22722E-03  1666   0.159E-01    0.943E-02
DAV:   6    -0.618223777172E+02    0.91464E-05   -0.17880E-04  1428   0.520E-02
  25 F= -.61822378E+02 E0= -.61822378E+02  d E =-.812072E-01
 curvature: -37.81 expect dE=-0.242E+00 dE for cont linesearch -0.207E-02
 trial: gam= 1.34618 g(F)=  0.347E-02 g(S)=  0.292E-02 ort = 0.669E-03 (trialstep = 0.448E+01)
 search vector abs. value=  0.230E-01
 bond charge predicted
       N       E                     dE             d eps       ncg     rms          rms(c)
DAV:   1    -0.618513992861E+02   -0.29012E-01   -0.12236E+00  1176   0.359E+00    0.724E-01
DAV:   2    -0.618544388786E+02   -0.30396E-02   -0.76322E-02  1568   0.105E+00    0.365E-01
DAV:   3    -0.618535797813E+02    0.85910E-03   -0.19768E-03  1568   0.183E-01    0.239E-01
DAV:   4    -0.618530245397E+02    0.55524E-03   -0.96981E-04  1568   0.111E-01    0.897E-02
DAV:   5    -0.618529967541E+02    0.27786E-04   -0.23435E-04  1260   0.552E-02
  26 F= -.61852997E+02 E0= -.61852997E+02  d E =-.306190E-01
 ZBRENT: can't locate minimum, use default step
 trial-energy change:   -0.030619  1 .order   -0.030675   -0.032690   -0.028659
 step:  17.9223(harm= 36.3350)  dis= 0.09568  next Energy=   -61.954929 (dE=-0.133E+00)
 bond charge predicted
       N       E                     dE             d eps       ncg     rms          rms(c)
DAV:   1    -0.619070237450E+02   -0.53999E-01   -0.10927E+01  1176   0.107E+01    0.239E+00
DAV:   2    -0.619355760686E+02   -0.28552E-01   -0.68129E-01  1568   0.315E+00    0.122E+00
DAV:   3    -0.619279226406E+02    0.76534E-02   -0.17809E-02  1568   0.548E-01    0.831E-01
DAV:   4    -0.619226697585E+02    0.52529E-02   -0.93780E-03  1568   0.344E-01    0.291E-01
DAV:   5    -0.619224569183E+02    0.21284E-03   -0.24204E-03  1540   0.172E-01    0.793E-02
DAV:   6    -0.619224382420E+02    0.18676E-04   -0.13549E-04  1190   0.473E-02
  27 F= -.61922438E+02 E0= -.61922438E+02  d E =-.100061E+00
 curvature: -38.13 expect dE=-0.261E+00 dE for cont linesearch -0.228E-01
 ZBRENT: increasing intervall
 opt :  44.8056  next Energy=   -61.949941 (dE=-0.128E+00)
 bond charge predicted
       N       E                     dE             d eps       ncg     rms          rms(c)
DAV:   1    -0.618671476483E+02    0.55309E-01   -0.43356E+01  1176   0.212E+01    0.598E+00
DAV:   2    -0.619935814063E+02   -0.12643E+00   -0.27425E+00  1582   0.631E+00    0.301E+00
DAV:   3    -0.619615878741E+02    0.31994E-01   -0.70570E-02  1568   0.108E+00    0.215E+00
DAV:   4    -0.619388386912E+02    0.22749E-01   -0.42412E-02  1582   0.722E-01    0.694E-01
DAV:   5    -0.619380025531E+02    0.83614E-03   -0.10477E-02  1540   0.358E-01    0.152E-01
DAV:   6    -0.619379337037E+02    0.68849E-04   -0.69998E-04  1764   0.953E-02
  28 F= -.61937934E+02 E0= -.61937934E+02  d E =-.115556E+00
 curvature: -45.96 expect dE=-0.136E+01 dE for cont linesearch -0.180E-01
 ZBRENT: bracketing found
 ZBRENT: interpolating
 opt :  32.7905  next Energy=   -61.955943 (dE=-0.134E+00)
 bond charge predicted
       N       E                     dE             d eps       ncg     rms          rms(c)
DAV:   1    -0.619416100876E+02   -0.36075E-02   -0.88381E+00  1176   0.967E+00    0.189E+00
DAV:   2    -0.619640228868E+02   -0.22413E-01   -0.56953E-01  1568   0.281E+00    0.829E-01
DAV:   3    -0.619575640459E+02    0.64588E-02   -0.14174E-02  1624   0.494E-01    0.548E-01
DAV:   4    -0.619539259570E+02    0.36381E-02   -0.64180E-03  1568   0.285E-01    0.243E-01
DAV:   5    -0.619537399668E+02    0.18599E-03   -0.15444E-03  1554   0.137E-01    0.714E-02
DAV:   6    -0.619537291864E+02    0.10780E-04   -0.86236E-05  1148   0.381E-02
  29 F= -.61953729E+02 E0= -.61953729E+02  d E =-.131351E+00
 curvature: -46.08 expect dE=-0.759E+00 dE for cont linesearch -0.715E-04
 trial: gam= 2.60477 g(F)=  0.108E-01 g(S)=  0.565E-02 ort = 0.189E-03 (trialstep = 0.134E+01)
 search vector abs. value=  0.173E+00
 bond charge predicted
       N       E                     dE             d eps       ncg     rms          rms(c)
DAV:   1    -0.619725379764E+02   -0.18798E-01   -0.10871E+00  1176   0.327E+00    0.551E-01
DAV:   2    -0.619769294731E+02   -0.43915E-02   -0.60741E-02  1568   0.923E-01    0.221E-01
DAV:   3    -0.619765712107E+02    0.35826E-03   -0.10220E-03  1582   0.142E-01    0.168E-01
DAV:   4    -0.619763006351E+02    0.27058E-03   -0.76616E-04  1568   0.982E-02    0.700E-02
DAV:   5    -0.619763125230E+02   -0.11888E-04   -0.16507E-04  1204   0.451E-02
  30 F= -.61976313E+02 E0= -.61976313E+02  d E =-.225833E-01
 ZBRENT: can't locate minimum, use default step
 trial-energy change:   -0.022583  1 .order   -0.022535   -0.022796   -0.022275
 step:   5.3782(harm= 58.8319)  dis= 0.06496  next Energy=   -62.452449 (dE=-0.499E+00)
 bond charge predicted
       N       E                     dE             d eps       ncg     rms          rms(c)
DAV:   1    -0.620066526008E+02   -0.30352E-01   -0.98415E+00  1176   0.985E+00    0.192E+00
DAV:   2    -0.620465027628E+02   -0.39850E-01   -0.55827E-01  1568   0.279E+00    0.734E-01
DAV:   3    -0.620431391356E+02    0.33636E-02   -0.91150E-03  1582   0.428E-01    0.581E-01
DAV:   4    -0.620405911364E+02    0.25480E-02   -0.74286E-03  1568   0.306E-01    0.224E-01
DAV:   5    -0.620407131318E+02   -0.12200E-03   -0.16996E-03  1456   0.142E-01    0.853E-02
DAV:   6    -0.620406820211E+02    0.31111E-04   -0.92191E-05  1176   0.412E-02
  31 F= -.62040682E+02 E0= -.62040682E+02  d E =-.869528E-01
 curvature: -40.76 expect dE=-0.895E+00 dE for cont linesearch -0.594E-01
 ZBRENT: increasing intervall
 opt :  13.4455  next Energy=   -62.163670 (dE=-0.210E+00)
 bond charge predicted
       N       E                     dE             d eps       ncg     rms          rms(c)
DAV:   1    -0.620043167924E+02    0.36396E-01   -0.39265E+01  1176   0.198E+01    0.505E+00
DAV:   2    -0.621638711384E+02   -0.15955E+00   -0.23071E+00  1568   0.562E+00    0.189E+00
DAV:   3    -0.621499185406E+02    0.13953E-01   -0.37625E-02  1596   0.872E-01    0.157E+00
DAV:   4    -0.621392807768E+02    0.10638E-01   -0.29458E-02  1568   0.610E-01    0.558E-01
DAV:   5    -0.621396909841E+02   -0.41021E-03   -0.72164E-03  1512   0.292E-01    0.173E-01
DAV:   6    -0.621395664064E+02    0.12458E-03   -0.47384E-04  1568   0.847E-02    0.124E-01
DAV:   7    -0.621395817737E+02   -0.15367E-04   -0.19410E-04  1386   0.500E-02
  32 F= -.62139582E+02 E0= -.62139582E+02  d E =-.185853E+00
 curvature: -84.33 expect dE=-0.260E+01 dE for cont linesearch -0.303E-01
 ZBRENT: increasing intervall
 opt :  29.5801  next Energy=   -62.137870 (dE=-0.184E+00)
 bond charge predicted
       N       E                     dE             d eps       ncg     rms          rms(c)
DAV:   1    -0.615079621523E+02    0.63160E+00   -0.15505E+02  1176   0.401E+01    0.179E+01
DAV:   2    -0.621926272538E+02   -0.68467E+00   -0.10326E+01  1568   0.115E+01    0.654E+00
DAV:   3    -0.621303054637E+02    0.62322E-01   -0.17560E-01  1568   0.187E+00    0.556E+00
DAV:   4    -0.620863896104E+02    0.43916E-01   -0.11863E-01  1568   0.121E+00    0.192E+00
DAV:   5    -0.620870337566E+02   -0.64415E-03   -0.28697E-02  1526   0.587E-01    0.451E-01
DAV:   6    -0.620867377246E+02    0.29603E-03   -0.17114E-03  1764   0.157E-01    0.283E-01
DAV:   7    -0.620867472576E+02   -0.95331E-05   -0.53120E-04  1526   0.850E-02
  33 F= -.62086747E+02 E0= -.62086747E+02  d E =-.133018E+00
 curvature:   4.76 expect dE= 0.323E+00 dE for cont linesearch  0.110E-01
 ZBRENT: bracketing found
 ZBRENT: interpolating
 opt :  18.0115  next Energy=   -62.157617 (dE=-0.204E+00)
 bond charge predicted
       N       E                     dE             d eps       ncg     rms          rms(c)
DAV:   1    -0.618494381614E+02    0.23730E+00   -0.79997E+01  1176   0.290E+01    0.764E+00
DAV:   2    -0.622247015725E+02   -0.37526E+00   -0.50383E+00  1568   0.828E+00    0.316E+00
DAV:   3    -0.621893127566E+02    0.35389E-01   -0.95890E-02  1540   0.135E+00    0.234E+00
DAV:   4    -0.621627973988E+02    0.26515E-01   -0.53337E-02  1568   0.812E-01    0.880E-01
DAV:   5    -0.621623373445E+02    0.46005E-03   -0.13611E-02  1582   0.391E-01    0.169E-01
DAV:   6    -0.621622126907E+02    0.12465E-03   -0.67093E-04  1764   0.952E-02    0.148E-01
DAV:   7    -0.621621848566E+02    0.27834E-04   -0.30631E-04  1526   0.618E-02
  34 F= -.62162185E+02 E0= -.62162185E+02  d E =-.208456E+00
 curvature:  -7.81 expect dE=-0.300E+00 dE for cont linesearch -0.406E-03
 trial: gam= 0.99088 g(F)=  0.274E-01 g(S)=  0.111E-01 ort = 0.300E-02 (trialstep = 0.378E+01)
 search vector abs. value=  0.215E+00
 bond charge predicted
       N       E                     dE             d eps       ncg     rms          rms(c)
DAV:   1    -0.622898938424E+02   -0.12768E+00   -0.16032E+01  1176   0.126E+01    0.255E+00
DAV:   2    -0.623223862764E+02   -0.32492E-01   -0.92397E-01  1568   0.353E+00    0.918E-01
DAV:   3    -0.623154180402E+02    0.69682E-02   -0.21120E-02  1428   0.595E-01    0.664E-01
DAV:   4    -0.623125053821E+02    0.29127E-02   -0.65780E-03  1568   0.280E-01    0.387E-01
DAV:   5    -0.623123556218E+02    0.14976E-03   -0.18522E-03  1652   0.138E-01    0.936E-02
DAV:   6    -0.623123499273E+02    0.56945E-05   -0.83679E-05  1134   0.364E-02
  35 F= -.62312350E+02 E0= -.62312350E+02  d E =-.150165E+00
 ZBRENT: can't locate minimum, use default step
 trial-energy change:   -0.150165  1 .order   -0.147806   -0.156486   -0.139127
 step:  15.1184(harm= 34.0717)  dis= 0.19538  next Energy=   -62.867515 (dE=-0.705E+00)
 bond charge predicted
       N       E                     dE             d eps       ncg     rms          rms(c)
DAV:   1    -0.623349294429E+02   -0.22574E-01   -0.14345E+02  1176   0.386E+01    0.148E+01
DAV:   2    -0.626752385740E+02   -0.34031E+00   -0.98170E+00  1568   0.111E+01    0.446E+00
DAV:   3    -0.626145852195E+02    0.60653E-01   -0.21064E-01  1414   0.189E+00    0.418E+00
DAV:   4    -0.625881905398E+02    0.26395E-01   -0.64753E-02  1568   0.882E-01    0.230E+00
DAV:   5    -0.625849611815E+02    0.32294E-02   -0.20015E-02  1652   0.464E-01    0.388E-01
DAV:   6    -0.625849462791E+02    0.14902E-04   -0.13954E-03  1554   0.136E-01    0.158E-01
DAV:   7    -0.625849560398E+02   -0.97608E-05   -0.14008E-04  1232   0.457E-02
  36 F= -.62584956E+02 E0= -.62584956E+02  d E =-.422771E+00
 curvature: -53.76 expect dE=-0.182E+01 dE for cont linesearch -0.258E-01
 ZBRENT: extrapolating
 opt :  19.4350  next Energy=   -62.606861 (dE=-0.445E+00)
 bond charge predicted
       N       E                     dE             d eps       ncg     rms          rms(c)
DAV:   1    -0.625622897427E+02    0.22657E-01   -0.20510E+01  1176   0.144E+01    0.308E+00
DAV:   2    -0.626084905601E+02   -0.46201E-01   -0.12627E+00  1568   0.413E+00    0.112E+00
DAV:   3    -0.625987526333E+02    0.97379E-02   -0.28179E-02  1484   0.695E-01    0.812E-01
DAV:   4    -0.625948506959E+02    0.39019E-02   -0.90138E-03  1568   0.332E-01    0.480E-01
DAV:   5    -0.625946266075E+02    0.22409E-03   -0.23928E-03  1638   0.160E-01    0.110E-01
DAV:   6    -0.625946129219E+02    0.13686E-04   -0.11394E-04  1162   0.422E-02
  37 F= -.62594613E+02 E0= -.62594613E+02  d E =-.432428E+00
 curvature: -45.66 expect dE=-0.185E+01 dE for cont linesearch -0.711E-02
 trial: gam= 0.57399 g(F)=  0.326E-01 g(S)=  0.788E-02 ort =-0.578E-02 (trialstep = 0.691E+01)
 search vector abs. value=  0.105E+00
 bond charge predicted
       N       E                     dE             d eps       ncg     rms          rms(c)
DAV:   1    -0.626765362051E+02   -0.81910E-01   -0.23327E+01  1176   0.156E+01    0.369E+00
DAV:   2    -0.627884045568E+02   -0.11187E+00   -0.14186E+00  1568   0.455E+00    0.169E+00
DAV:   3    -0.627789853759E+02    0.94192E-02   -0.24219E-02  1722   0.707E-01    0.126E+00
DAV:   4    -0.627728575474E+02    0.61278E-02   -0.18912E-02  1568   0.495E-01    0.461E-01
DAV:   5    -0.627731524027E+02   -0.29486E-03   -0.40924E-03  1484   0.229E-01    0.120E-01
DAV:   6    -0.627730784620E+02    0.73941E-04   -0.20315E-04  1372   0.539E-02
  38 F= -.62773078E+02 E0= -.62773078E+02  d E =-.178466E+00
 trial-energy change:   -0.178466  1 .order   -0.178640   -0.256517   -0.100764
 step:  11.3815(harm= 11.3815)  dis= 0.11136  next Energy=   -62.805847 (dE=-0.211E+00)
 bond charge predicted
       N       E                     dE             d eps       ncg     rms          rms(c)
DAV:   1    -0.627634108267E+02    0.97416E-02   -0.98037E+00  1176   0.101E+01    0.209E+00
DAV:   2    -0.628105395128E+02   -0.47129E-01   -0.60166E-01  1568   0.296E+00    0.937E-01
DAV:   3    -0.628065480428E+02    0.39915E-02   -0.10364E-02  1694   0.462E-01    0.671E-01
DAV:   4    -0.628040583426E+02    0.24897E-02   -0.79536E-03  1568   0.324E-01    0.265E-01
DAV:   5    -0.628041969348E+02   -0.13859E-03   -0.17596E-03  1456   0.150E-01    0.667E-02
DAV:   6    -0.628041658496E+02    0.31085E-04   -0.86070E-05  1176   0.359E-02
  39 F= -.62804166E+02 E0= -.62804166E+02  d E =-.209553E+00
 curvature: -16.03 expect dE=-0.260E+00 dE for cont linesearch -0.521E-04
 trial: gam= 0.05343 g(F)=  0.159E-01 g(S)=  0.381E-03 ort =-0.583E-03 (trialstep = 0.780E+01)
 search vector abs. value=  0.165E-01
 bond charge predicted
       N       E                     dE             d eps       ncg     rms          rms(c)
DAV:   1    -0.629043963757E+02   -0.10020E+00   -0.34313E+00  1176   0.601E+00    0.980E-01
DAV:   2    -0.629197694996E+02   -0.15373E-01   -0.20627E-01  1568   0.174E+00    0.453E-01
DAV:   3    -0.629191008930E+02    0.66861E-03   -0.36647E-03  1666   0.267E-01    0.315E-01
DAV:   4    -0.629186149405E+02    0.48595E-03   -0.13817E-03  1568   0.135E-01    0.155E-01
DAV:   5    -0.629186409228E+02   -0.25982E-04   -0.35437E-04  1498   0.648E-02
  40 F= -.62918641E+02 E0= -.62918641E+02  d E =-.114475E+00
 ZBRENT: can't locate minimum, use default step
 trial-energy change:   -0.114475  1 .order   -0.114810   -0.126590   -0.103030
 step:  31.2194(harm= 41.9359)  dis= 0.10021  next Energy=   -63.144254 (dE=-0.340E+00)
 bond charge predicted
       N       E                     dE             d eps       ncg     rms          rms(c)
DAV:   1    -0.629700195444E+02   -0.51405E-01   -0.30934E+01  1176   0.181E+01    0.353E+00
DAV:   2    -0.631095870739E+02   -0.13957E+00   -0.19197E+00  1568   0.524E+00    0.132E+00
DAV:   3    -0.631034821289E+02    0.61049E-02   -0.33258E-02  1638   0.809E-01    0.995E-01
DAV:   4    -0.630994187496E+02    0.40634E-02   -0.11536E-02  1568   0.389E-01    0.514E-01
DAV:   5    -0.630995749428E+02   -0.15619E-03   -0.29396E-03  1526   0.187E-01    0.128E-01
DAV:   6    -0.630995664588E+02    0.84840E-05   -0.93494E-05  1176   0.404E-02
  41 F= -.63099566E+02 E0= -.63099566E+02  d E =-.295401E+00
 curvature: -19.21 expect dE=-0.180E+00 dE for cont linesearch -0.662E-02
 ZBRENT: extrapolating
 opt :  36.3785  next Energy=   -63.105715 (dE=-0.302E+00)
 bond charge predicted
       N       E                     dE             d eps       ncg     rms          rms(c)
DAV:   1    -0.630986515735E+02    0.92337E-03   -0.15043E+00  1176   0.399E+00    0.665E-01
DAV:   2    -0.631055213531E+02   -0.68698E-02   -0.90907E-02  1568   0.116E+00    0.301E-01
DAV:   3    -0.631052137701E+02    0.30758E-03   -0.15705E-03  1666   0.176E-01    0.207E-01
DAV:   4    -0.631050031455E+02    0.21062E-03   -0.63556E-04  1568   0.915E-02    0.100E-01
DAV:   5    -0.631050174357E+02   -0.14290E-04   -0.15096E-04  1218   0.435E-02
  42 F= -.63105017E+02 E0= -.63105017E+02  d E =-.300852E+00
 curvature: -17.84 expect dE=-0.213E+00 dE for cont linesearch -0.359E-04
 trial: gam= 0.75087 g(F)=  0.788E-02 g(S)=  0.403E-02 ort =-0.182E-03 (trialstep = 0.106E+02)
 search vector abs. value=  0.209E-01
 bond charge predicted
       N       E                     dE             d eps       ncg     rms          rms(c)
DAV:   1    -0.632419491705E+02   -0.13695E+00   -0.80945E+00  1176   0.943E+00    0.235E+00
DAV:   2    -0.631806955467E+02    0.61254E-01   -0.61518E-01  1568   0.291E+00    0.137E+00
DAV:   3    -0.631685158055E+02    0.12180E-01   -0.37889E-02  1442   0.655E-01    0.665E-01
DAV:   4    -0.631649509089E+02    0.35649E-02   -0.50767E-03  1568   0.248E-01    0.262E-01
DAV:   5    -0.631644171773E+02    0.53373E-03   -0.21696E-03  1554   0.136E-01    0.139E-01
DAV:   6    -0.631644191565E+02   -0.19792E-05   -0.12430E-04  1358   0.405E-02
  43 F= -.63164419E+02 E0= -.63164419E+02  d E =-.594017E-01
 trial-energy change:   -0.059402  1 .order   -0.060170   -0.125385    0.005044
 step:  10.2205(harm= 10.2350)  dis= 0.03737  next Energy=   -63.164520 (dE=-0.595E-01)
 bond charge predicted
       N       E                     dE             d eps       ncg     rms          rms(c)
DAV:   1    -0.631646314230E+02   -0.21425E-03   -0.13094E-02  1204   0.379E-01    0.101E-01
DAV:   2    -0.631645130856E+02    0.11834E-03   -0.10301E-03  1568   0.117E-01    0.573E-02
DAV:   3    -0.631644924834E+02    0.20602E-04   -0.63661E-05   840   0.280E-02
  44 F= -.63164492E+02 E0= -.63164492E+02  d E =-.594750E-01
 curvature:  -9.09 expect dE=-0.259E-01 dE for cont linesearch -0.202E-08
 trial: gam= 0.22585 g(F)=  0.145E-02 g(S)=  0.141E-02 ort =-0.216E-05 (trialstep = 0.106E+02)
 search vector abs. value=  0.392E-02
 bond charge predicted
       N       E                     dE             d eps       ncg     rms          rms(c)
DAV:   1    -0.632006074797E+02   -0.36094E-01   -0.17464E+00  1232   0.435E+00    0.113E+00
DAV:   2    -0.631887703098E+02    0.11837E-01   -0.12916E-01  1568   0.131E+00    0.538E-01
DAV:   3    -0.631853338985E+02    0.34364E-02   -0.84098E-03  1456   0.320E-01    0.270E-01
DAV:   4    -0.631846049117E+02    0.72899E-03   -0.13790E-03  1568   0.132E-01    0.152E-01
DAV:   5    -0.631845007105E+02    0.10420E-03   -0.34285E-04  1456   0.590E-02    0.553E-02
DAV:   6    -0.631845028789E+02   -0.21684E-05   -0.21569E-05  1008   0.192E-02
  45 F= -.63184503E+02 E0= -.63184503E+02  d E =-.200104E-01
 trial-energy change:   -0.020010  1 .order   -0.020199   -0.030128   -0.010270
 step:  16.0235(harm= 16.0235)  dis= 0.02602  next Energy=   -63.187347 (dE=-0.229E-01)
 bond charge predicted
       N       E                     dE             d eps       ncg     rms          rms(c)
DAV:   1    -0.631915103108E+02   -0.70096E-02   -0.46880E-01  1232   0.225E+00    0.580E-01
DAV:   2    -0.631883673575E+02    0.31430E-02   -0.34251E-02  1568   0.678E-01    0.285E-01
DAV:   3    -0.631874510237E+02    0.91633E-03   -0.22036E-03  1498   0.164E-01    0.142E-01
DAV:   4    -0.631872539157E+02    0.19711E-03   -0.38395E-04  1568   0.695E-02    0.748E-02
DAV:   5    -0.631872316635E+02    0.22252E-04   -0.74211E-05  1050   0.305E-02
  46 F= -.63187232E+02 E0= -.63187232E+02  d E =-.227392E-01
 curvature: -11.01 expect dE=-0.114E-01 dE for cont linesearch -0.424E-05
 trial: gam= 0.35206 g(F)=  0.710E-03 g(S)=  0.325E-03 ort = 0.389E-04 (trialstep = 0.117E+02)
 search vector abs. value=  0.155E-02
 bond charge predicted
       N       E                     dE             d eps       ncg     rms          rms(c)
DAV:   1    -0.631954796163E+02   -0.82257E-02   -0.80079E-01  1176   0.291E+00    0.546E-01
DAV:   2    -0.631987758133E+02   -0.32962E-02   -0.48429E-02  1568   0.839E-01    0.264E-01
DAV:   3    -0.631984205032E+02    0.35531E-03   -0.98000E-04  1638   0.136E-01    0.178E-01
DAV:   4    -0.631981566459E+02    0.26386E-03   -0.58117E-04  1568   0.875E-02    0.763E-02
DAV:   5    -0.631981547505E+02    0.18954E-05   -0.12941E-04  1036   0.420E-02
  47 F= -.63198155E+02 E0= -.63198155E+02  d E =-.109231E-01
 ZBRENT: can't locate minimum, use default step
 trial-energy change:   -0.010923  1 .order   -0.011174   -0.012220   -0.010129
 step:  46.6156(harm= 68.1145)  dis= 0.04749  next Energy=   -63.222942 (dE=-0.357E-01)
 bond charge predicted
       N       E                     dE             d eps       ncg     rms          rms(c)
DAV:   1    -0.631912235670E+02    0.69331E-02   -0.72024E+00  1176   0.872E+00    0.176E+00
DAV:   2    -0.632215314427E+02   -0.30308E-01   -0.43622E-01  1568   0.252E+00    0.849E-01
DAV:   3    -0.632183234443E+02    0.32080E-02   -0.88025E-03  1694   0.408E-01    0.580E-01
DAV:   4    -0.632158960454E+02    0.24274E-02   -0.54180E-03  1568   0.266E-01    0.236E-01
DAV:   5    -0.632159076484E+02   -0.11603E-04   -0.13398E-03  1526   0.127E-01    0.571E-02
DAV:   6    -0.632158831988E+02    0.24450E-04   -0.68339E-05  1176   0.343E-02
  48 F= -.63215883E+02 E0= -.63215883E+02  d E =-.286515E-01
 curvature: -42.99 expect dE=-0.767E-01 dE for cont linesearch -0.679E-03
 trial: gam= 1.54999 g(F)=  0.133E-02 g(S)=  0.451E-03 ort = 0.156E-03 (trialstep = 0.482E+01)
 search vector abs. value=  0.599E-02
 bond charge predicted
       N       E                     dE             d eps       ncg     rms          rms(c)
DAV:   1    -0.632242692254E+02   -0.83616E-02   -0.61850E-01  1176   0.251E+00    0.491E-01
DAV:   2    -0.632261448407E+02   -0.18756E-02   -0.36727E-02  1568   0.723E-01    0.209E-01
DAV:   3    -0.632257987812E+02    0.34606E-03   -0.86314E-04  1610   0.123E-01    0.138E-01
DAV:   4    -0.632256251079E+02    0.17367E-03   -0.39005E-04  1568   0.706E-02    0.674E-02
DAV:   5    -0.632256247250E+02    0.38295E-06   -0.78748E-05  1008   0.326E-02
  49 F= -.63225625E+02 E0= -.63225625E+02  d E =-.974153E-02
 ZBRENT: can't locate minimum, use default step
 trial-energy change:   -0.009742  1 .order   -0.009798   -0.009771   -0.009826
 step:  19.2811(harm= 19.2811)  dis= 0.04640  next Energy=   -63.255406 (dE=-0.395E-01)
 bond charge predicted
       N       E                     dE             d eps       ncg     rms          rms(c)
DAV:   1    -0.632422619562E+02   -0.16637E-01   -0.55268E+00  1176   0.750E+00    0.154E+00
DAV:   2    -0.632583080765E+02   -0.16046E-01   -0.32845E-01  1568   0.216E+00    0.582E-01
DAV:   3    -0.632552006241E+02    0.31075E-02   -0.77577E-03  1624   0.368E-01    0.406E-01
DAV:   4    -0.632536854510E+02    0.15152E-02   -0.31861E-03  1568   0.202E-01    0.218E-01
DAV:   5    -0.632536400770E+02    0.45374E-04   -0.75716E-04  1526   0.945E-02
  50 F= -.63253640E+02 E0= -.63253640E+02  d E =-.377569E-01
 curvature: -42.84 expect dE=-0.123E+00 dE for cont linesearch -0.252E-01
 ZBRENT: increasing intervall
 opt :  48.2028  next Energy=   -63.303200 (dE=-0.873E-01)
 bond charge predicted
       N       E                     dE             d eps       ncg     rms          rms(c)
DAV:   1    -0.632406820042E+02    0.13003E-01   -0.22243E+01  1176   0.151E+01    0.361E+00
DAV:   2    -0.633029093786E+02   -0.62227E-01   -0.13540E+00  1568   0.437E+00    0.122E+00
DAV:   3    -0.632900714363E+02    0.12838E-01   -0.30833E-02  1638   0.735E-01    0.928E-01
DAV:   4    -0.632838374040E+02    0.62340E-02   -0.13041E-02  1568   0.409E-01    0.503E-01
DAV:   5    -0.632835687430E+02    0.26866E-03   -0.32257E-03  1540   0.196E-01    0.116E-01
DAV:   6    -0.632835386775E+02    0.30065E-04   -0.24068E-04  1456   0.602E-02
  51 F= -.63283539E+02 E0= -.63283539E+02  d E =-.676555E-01
 curvature: -84.33 expect dE=-0.102E+01 dE for cont linesearch -0.174E-03
 trial: gam= 6.93558 g(F)=  0.648E-02 g(S)=  0.562E-02 ort = 0.111E-03 (trialstep = 0.268E+00)
 search vector abs. value=  0.302E+00
 bond charge predicted
       N       E                     dE             d eps       ncg     rms          rms(c)
DAV:   1    -0.632865635556E+02   -0.29948E-02   -0.98208E-02  1204   0.999E-01    0.191E-01
DAV:   2    -0.632869983556E+02   -0.43480E-03   -0.55063E-03  1568   0.284E-01    0.740E-02
DAV:   3    -0.632869510306E+02    0.47325E-04   -0.75827E-05  1078   0.427E-02
  52 F= -.63286951E+02 E0= -.63286951E+02  d E =-.341235E-02
 ZBRENT: can't locate minimum, use default step
 trial-energy change:   -0.003412  1 .order   -0.003408   -0.003449   -0.003367
 step:   1.0716(harm= 11.2929)  dis= 0.01897  next Energy=   -63.356234 (dE=-0.727E-01)
 bond charge predicted
       N       E                     dE             d eps       ncg     rms          rms(c)
DAV:   1    -0.632936450469E+02   -0.66467E-02   -0.85336E-01  1176   0.294E+00    0.532E-01
DAV:   2    -0.632972157842E+02   -0.35707E-02   -0.46718E-02  1568   0.827E-01    0.215E-01
DAV:   3    -0.632968635864E+02    0.35220E-03   -0.78673E-04  1610   0.127E-01    0.157E-01
DAV:   4    -0.632966070702E+02    0.25652E-03   -0.78462E-04  1568   0.101E-01    0.626E-02
DAV:   5    -0.632966184670E+02   -0.11397E-04   -0.15742E-04  1106   0.462E-02
  53 F= -.63296618E+02 E0= -.63296618E+02  d E =-.130798E-01
 curvature: -18.59 expect dE=-0.249E+00 dE for cont linesearch -0.857E-02
 ZBRENT: increasing intervall
 opt :   2.6789  next Energy=   -63.314333 (dE=-0.308E-01)
 bond charge predicted
       N       E                     dE             d eps       ncg     rms          rms(c)
DAV:   1    -0.633001963721E+02   -0.35893E-02   -0.34882E+00  1176   0.595E+00    0.116E+00
DAV:   2    -0.633152379713E+02   -0.15042E-01   -0.19555E-01  1568   0.169E+00    0.465E-01
DAV:   3    -0.633137325554E+02    0.15054E-02   -0.32330E-03  1596   0.257E-01    0.341E-01
DAV:   4    -0.633126398233E+02    0.10927E-02   -0.33150E-03  1568   0.207E-01    0.133E-01
DAV:   5    -0.633126889560E+02   -0.49133E-04   -0.68644E-04  1456   0.951E-02
  54 F= -.63312689E+02 E0= -.63312689E+02  d E =-.291503E-01
 curvature: -38.42 expect dE=-0.605E+00 dE for cont linesearch -0.666E-02
 ZBRENT: increasing intervall
 opt :   5.8937  next Energy=   -63.321264 (dE=-0.377E-01)
 bond charge predicted
       N       E                     dE             d eps       ncg     rms          rms(c)
DAV:   1    -0.632597894042E+02    0.52850E-01   -0.13998E+01  1176   0.119E+01    0.268E+00
DAV:   2    -0.633198346435E+02   -0.60045E-01   -0.79451E-01  1554   0.341E+00    0.106E+00
DAV:   3    -0.633135179563E+02    0.63167E-02   -0.12937E-02  1638   0.515E-01    0.795E-01
DAV:   4    -0.633089835677E+02    0.45344E-02   -0.13221E-02  1568   0.413E-01    0.288E-01
DAV:   5    -0.633091720526E+02   -0.18848E-03   -0.27570E-03  1484   0.190E-01    0.908E-02
DAV:   6    -0.633091157872E+02    0.56265E-04   -0.11544E-04  1176   0.465E-02
  55 F= -.63309116E+02 E0= -.63309116E+02  d E =-.255771E-01
 curvature: -49.48 expect dE=-0.117E+01 dE for cont linesearch -0.200E-01
 ZBRENT: bracketing found
 ZBRENT: interpolating
 opt :   3.9510  next Energy=   -63.317288 (dE=-0.337E-01)
 bond charge predicted
       N       E                     dE             d eps       ncg     rms          rms(c)
DAV:   1    -0.633000460066E+02    0.91260E-02   -0.51125E+00  1176   0.725E+00    0.126E+00
DAV:   2    -0.633218794117E+02   -0.21833E-01   -0.28583E-01  1554   0.204E+00    0.537E-01
DAV:   3    -0.633195482853E+02    0.23311E-02   -0.46055E-03  1638   0.309E-01    0.383E-01
DAV:   4    -0.633178432589E+02    0.17050E-02   -0.57049E-03  1568   0.273E-01    0.148E-01
DAV:   5    -0.633179170023E+02   -0.73743E-04   -0.11474E-03  1484   0.125E-01    0.552E-02
DAV:   6    -0.633178847993E+02    0.32203E-04   -0.67279E-05  1050   0.335E-02
  56 F= -.63317885E+02 E0= -.63317885E+02  d E =-.343461E-01
 curvature: -11.38 expect dE=-0.212E+00 dE for cont linesearch -0.117E-03
 trial: gam= 0.35995 g(F)=  0.106E-01 g(S)=  0.807E-02 ort = 0.176E-02 (trialstep = 0.100E+01)
 search vector abs. value=  0.590E-01
 bond charge predicted
       N       E                     dE             d eps       ncg     rms          rms(c)
DAV:   1    -0.633373984933E+02   -0.19481E-01   -0.28098E-01  1176   0.171E+00    0.410E-01
DAV:   2    -0.633365962420E+02    0.80225E-03   -0.18618E-02  1554   0.505E-01    0.229E-01
DAV:   3    -0.633362905622E+02    0.30568E-03   -0.80702E-04  1554   0.101E-01    0.120E-01
DAV:   4    -0.633361690180E+02    0.12154E-03   -0.17700E-04  1176   0.475E-02    0.464E-02
DAV:   5    -0.633361517530E+02    0.17265E-04   -0.73716E-05   882   0.301E-02
  57 F= -.63336152E+02 E0= -.63336152E+02  d E =-.182670E-01
 ZBRENT: can't locate minimum, use default step
 trial-energy change:   -0.018267  1 .order   -0.018388   -0.019380   -0.017395
 step:   4.0181(harm=  9.8046)  dis= 0.02797  next Energy=   -63.412466 (dE=-0.946E-01)
 bond charge predicted
       N       E                     dE             d eps       ncg     rms          rms(c)
DAV:   1    -0.633903323640E+02   -0.54163E-01   -0.25425E+00  1176   0.515E+00    0.127E+00
DAV:   2    -0.633836455880E+02    0.66868E-02   -0.16931E-01  1568   0.153E+00    0.712E-01
DAV:   3    -0.633809554176E+02    0.26902E-02   -0.70602E-03  1526   0.302E-01    0.394E-01
DAV:   4    -0.633798530570E+02    0.11024E-02   -0.19293E-03  1554   0.148E-01    0.141E-01
DAV:   5    -0.633797510147E+02    0.10204E-03   -0.45194E-04  1498   0.668E-02    0.621E-02
DAV:   6    -0.633797405717E+02    0.10443E-04   -0.20156E-05  1050   0.183E-02
  58 F= -.63379741E+02 E0= -.63379741E+02  d E =-.618558E-01
 curvature:  -8.51 expect dE=-0.882E-01 dE for cont linesearch -0.200E-01
 ZBRENT: increasing intervall
 opt :  10.0452  next Energy=   -63.417201 (dE=-0.993E-01)
 bond charge predicted
       N       E                     dE             d eps       ncg     rms          rms(c)
DAV:   1    -0.634573808576E+02   -0.77630E-01   -0.10142E+01  1176   0.103E+01    0.267E+00
DAV:   2    -0.634320736770E+02    0.25307E-01   -0.67293E-01  1568   0.305E+00    0.155E+00
DAV:   3    -0.634216594648E+02    0.10414E-01   -0.27522E-02  1498   0.597E-01    0.910E-01
DAV:   4    -0.634168497920E+02    0.48097E-02   -0.85698E-03  1568   0.309E-01    0.300E-01
DAV:   5    -0.634164955805E+02    0.35421E-03   -0.20230E-03  1596   0.141E-01    0.122E-01
DAV:   6    -0.634164703794E+02    0.25201E-04   -0.82316E-05  1148   0.376E-02
  59 F= -.63416470E+02 E0= -.63416470E+02  d E =-.985856E-01
 curvature: -15.97 expect dE=-0.178E+00 dE for cont linesearch -0.281E-08
 trial: gam= 0.34609 g(F)=  0.808E-02 g(S)=  0.304E-02 ort =-0.322E-05 (trialstep = 0.281E+01)
 search vector abs. value=  0.182E-01
 bond charge predicted
       N       E                     dE             d eps       ncg     rms          rms(c)
DAV:   1    -0.634458872224E+02   -0.29392E-01   -0.51659E-01  1204   0.232E+00    0.404E-01
DAV:   2    -0.634476736956E+02   -0.17865E-02   -0.29407E-02  1624   0.653E-01    0.187E-01
DAV:   3    -0.634473305490E+02    0.34315E-03   -0.51787E-04  1680   0.994E-02    0.131E-01
DAV:   4    -0.634471001011E+02    0.23045E-03   -0.58995E-04  1568   0.876E-02    0.413E-02
DAV:   5    -0.634471066680E+02   -0.65669E-05   -0.10487E-04  1022   0.394E-02
  60 F= -.63447107E+02 E0= -.63447107E+02  d E =-.306363E-01
 ZBRENT: can't locate minimum, use default step
 trial-energy change:   -0.030636  1 .order   -0.030406   -0.031265   -0.029548
 step:  11.2506(harm= 51.2221)  dis= 0.04176  next Energy=   -63.701157 (dE=-0.285E+00)
 bond charge predicted
       N       E                     dE             d eps       ncg     rms          rms(c)
DAV:   1    -0.635174414820E+02   -0.70341E-01   -0.46334E+00  1176   0.697E+00    0.123E+00
DAV:   2    -0.635334417136E+02   -0.16000E-01   -0.26723E-01  1638   0.196E+00    0.518E-01
DAV:   3    -0.635303398193E+02    0.31019E-02   -0.47031E-03  1680   0.299E-01    0.378E-01
DAV:   4    -0.635283573406E+02    0.19825E-02   -0.47962E-03  1582   0.250E-01    0.122E-01
DAV:   5    -0.635284045558E+02   -0.47215E-04   -0.91810E-04  1484   0.111E-01
  61 F= -.63528405E+02 E0= -.63528405E+02  d E =-.111934E+00
 curvature: -13.33 expect dE=-0.101E+00 dE for cont linesearch -0.549E-01
 ZBRENT: increasing intervall
 opt :  28.1265  next Energy=   -63.643160 (dE=-0.227E+00)
 bond charge predicted
       N       E                     dE             d eps       ncg     rms          rms(c)
DAV:   1    -0.635957161637E+02   -0.67359E-01   -0.18480E+01  1176   0.140E+01    0.266E+00
DAV:   2    -0.636598531646E+02   -0.64137E-01   -0.10950E+00  1624   0.393E+00    0.105E+00
DAV:   3    -0.636475931508E+02    0.12260E-01   -0.19527E-02  1680   0.614E-01    0.798E-01
DAV:   4    -0.636396966252E+02    0.78965E-02   -0.18423E-02  1582   0.493E-01    0.262E-01
DAV:   5    -0.636398563316E+02   -0.15971E-03   -0.36870E-03  1442   0.221E-01    0.152E-01
DAV:   6    -0.636398234636E+02    0.32868E-04   -0.16837E-04  1204   0.530E-02
  62 F= -.63639823E+02 E0= -.63639823E+02  d E =-.223353E+00
 curvature: -27.87 expect dE=-0.195E+00 dE for cont linesearch -0.292E-01
 ZBRENT: increasing intervall
 opt :  61.8783  next Energy=   -63.642565 (dE=-0.226E+00)
 bond charge predicted
       N       E                     dE             d eps       ncg     rms          rms(c)
DAV:   1    -0.634046676744E+02    0.23519E+00   -0.73604E+01  1176   0.284E+01    0.692E+00
DAV:   2    -0.636700586091E+02   -0.26539E+00   -0.46762E+00  1596   0.795E+00    0.253E+00
DAV:   3    -0.636222355821E+02    0.47823E-01   -0.86537E-02  1610   0.130E+00    0.206E+00
DAV:   4    -0.635892548792E+02    0.32981E-01   -0.71497E-02  1582   0.980E-01    0.657E-01
DAV:   5    -0.635896370511E+02   -0.38217E-03   -0.15851E-02  1512   0.450E-01    0.295E-01
DAV:   6    -0.635894515839E+02    0.18547E-03   -0.96675E-04  1792   0.118E-01    0.200E-01
DAV:   7    -0.635894708788E+02   -0.19295E-04   -0.35445E-04  1512   0.668E-02
  63 F= -.63589471E+02 E0= -.63589471E+02  d E =-.173000E+00
 curvature:  -2.61 expect dE=-0.949E-01 dE for cont linesearch -0.928E-02
 ZBRENT: bracketing found
 ZBRENT: interpolating
 opt :  40.0101  next Energy=   -63.665771 (dE=-0.249E+00)
 bond charge predicted
       N       E                     dE             d eps       ncg     rms          rms(c)
DAV:   1    -0.636036934014E+02   -0.14242E-01   -0.30246E+01  1176   0.179E+01    0.413E+00
DAV:   2    -0.637062097858E+02   -0.10252E+00   -0.17864E+00  1610   0.509E+00    0.198E+00
DAV:   3    -0.636855209113E+02    0.20689E-01   -0.33652E-02  1694   0.794E-01    0.145E+00
DAV:   4    -0.636695768978E+02    0.15944E-01   -0.35304E-02  1582   0.671E-01    0.387E-01
DAV:   5    -0.636698003501E+02   -0.22345E-03   -0.67174E-03  1498   0.297E-01    0.182E-01
DAV:   6    -0.636697559037E+02    0.44446E-04   -0.27692E-04  1442   0.621E-02
  64 F= -.63669756E+02 E0= -.63669756E+02  d E =-.253286E+00
 curvature:  -7.31 expect dE=-0.782E-01 dE for cont linesearch -0.130E-03
 trial: gam= 0.92269 g(F)=  0.949E-02 g(S)=  0.122E-02 ort = 0.569E-03 (trialstep = 0.684E+01)
 search vector abs. value=  0.272E-01
 bond charge predicted
       N       E                     dE             d eps       ncg     rms          rms(c)
DAV:   1    -0.637264934666E+02   -0.56693E-01   -0.31024E+00  1176   0.572E+00    0.101E+00
DAV:   2    -0.637401317573E+02   -0.13638E-01   -0.18808E-01  1610   0.165E+00    0.512E-01
DAV:   3    -0.637393829917E+02    0.74877E-03   -0.32509E-03  1582   0.250E-01    0.360E-01
DAV:   4    -0.637387548329E+02    0.62816E-03   -0.14614E-03  1568   0.137E-01    0.154E-01
DAV:   5    -0.637387463924E+02    0.84405E-05   -0.37066E-04  1526   0.671E-02
  65 F= -.63738746E+02 E0= -.63738746E+02  d E =-.689905E-01
 trial-energy change:   -0.068990  1 .order   -0.068502   -0.076883   -0.060121
 step:  22.4435(harm= 31.3911)  dis= 0.11858  next Energy=   -63.813056 (dE=-0.143E+00)
 bond charge predicted
       N       E                     dE             d eps       ncg     rms          rms(c)
DAV:   1    -0.637607531030E+02   -0.21998E-01   -0.16105E+01  1176   0.131E+01    0.265E+00
DAV:   2    -0.638343379659E+02   -0.73585E-01   -0.99846E-01  1610   0.379E+00    0.134E+00
DAV:   3    -0.638302765746E+02    0.40614E-02   -0.17559E-02  1554   0.581E-01    0.963E-01
DAV:   4    -0.638269615250E+02    0.33150E-02   -0.79151E-03  1568   0.319E-01    0.395E-01
DAV:   5    -0.638269284103E+02    0.33115E-04   -0.20357E-03  1526   0.156E-01    0.118E-01
DAV:   6    -0.638269081220E+02    0.20288E-04   -0.99981E-05  1176   0.407E-02
  66 F= -.63826908E+02 E0= -.63826908E+02  d E =-.157152E+00
 curvature: -33.00 expect dE=-0.244E+00 dE for cont linesearch -0.734E-02
 ZBRENT: extrapolating
 opt :  28.5159  next Energy=   -63.834382 (dE=-0.165E+00)
 bond charge predicted
       N       E                     dE             d eps       ncg     rms          rms(c)
DAV:   1    -0.638250559746E+02    0.18724E-02   -0.24524E+00  1176   0.511E+00    0.886E-01
DAV:   2    -0.638362990165E+02   -0.11243E-01   -0.15377E-01  1610   0.149E+00    0.451E-01
DAV:   3    -0.638357010631E+02    0.59795E-03   -0.26107E-03  1498   0.225E-01    0.323E-01
DAV:   4    -0.638352012997E+02    0.49976E-03   -0.12645E-03  1568   0.128E-01    0.138E-01
DAV:   5    -0.638352023085E+02   -0.10089E-05   -0.29764E-04  1358   0.612E-02
  67 F= -.63835202E+02 E0= -.63835202E+02  d E =-.165446E+00
 curvature: -33.60 expect dE=-0.324E+00 dE for cont linesearch -0.228E-04
 trial: gam= 0.71276 g(F)=  0.519E-02 g(S)=  0.444E-02 ort = 0.136E-03 (trialstep = 0.112E+02)
 search vector abs. value=  0.237E-01
 bond charge predicted
       N       E                     dE             d eps       ncg     rms          rms(c)
DAV:   1    -0.639392512040E+02   -0.10405E+00   -0.84702E+00  1176   0.958E+00    0.221E+00
DAV:   2    -0.639295942427E+02    0.96570E-02   -0.59048E-01  1568   0.283E+00    0.947E-01
DAV:   3    -0.639215205319E+02    0.80737E-02   -0.20138E-02  1554   0.546E-01    0.575E-01
DAV:   4    -0.639187261206E+02    0.27944E-02   -0.48014E-03  1610   0.245E-01    0.322E-01
DAV:   5    -0.639184281331E+02    0.29799E-03   -0.14006E-03  1680   0.121E-01    0.765E-02
DAV:   6    -0.639184294694E+02   -0.13363E-05   -0.80119E-05  1148   0.355E-02
  68 F= -.63918429E+02 E0= -.63918429E+02  d E =-.832272E-01
 trial-energy change:   -0.083227  1 .order   -0.083279   -0.108729   -0.057830
 step:  23.8780(harm= 23.8780)  dis= 0.10652  next Energy=   -63.951333 (dE=-0.116E+00)
 bond charge predicted
       N       E                     dE             d eps       ncg     rms          rms(c)
DAV:   1    -0.639803790861E+02   -0.61951E-01   -0.10972E+01  1176   0.109E+01    0.256E+00
DAV:   2    -0.639675421769E+02    0.12837E-01   -0.76860E-01  1568   0.324E+00    0.107E+00
DAV:   3    -0.639569064428E+02    0.10636E-01   -0.25928E-02  1568   0.620E-01    0.660E-01
DAV:   4    -0.639532705145E+02    0.36359E-02   -0.62648E-03  1610   0.280E-01    0.382E-01
DAV:   5    -0.639528631742E+02    0.40734E-03   -0.18138E-03  1694   0.138E-01    0.873E-02
DAV:   6    -0.639528617057E+02    0.14686E-05   -0.10974E-04  1176   0.413E-02
  69 F= -.63952862E+02 E0= -.63952862E+02  d E =-.117659E+00
 curvature: -29.04 expect dE=-0.227E+00 dE for cont linesearch -0.231E-03
 trial: gam= 0.67928 g(F)=  0.434E-02 g(S)=  0.347E-02 ort = 0.434E-03 (trialstep = 0.137E+02)
 search vector abs. value=  0.193E-01
 bond charge predicted
       N       E                     dE             d eps       ncg     rms          rms(c)
DAV:   1    -0.640263667506E+02   -0.73504E-01   -0.13029E+01  1176   0.119E+01    0.268E+00
DAV:   2    -0.640318065887E+02   -0.54398E-02   -0.85254E-01  1568   0.350E+00    0.160E+00
DAV:   3    -0.640199127194E+02    0.11894E-01   -0.30842E-02  1638   0.671E-01    0.100E+00
DAV:   4    -0.640132127842E+02    0.66999E-02   -0.10186E-02  1554   0.353E-01    0.382E-01
DAV:   5    -0.640125351221E+02    0.67766E-03   -0.32889E-03  1680   0.189E-01    0.103E-01
DAV:   6    -0.640125096631E+02    0.25459E-04   -0.20271E-04  1344   0.554E-02
  70 F= -.64012510E+02 E0= -.64012510E+02  d E =-.596480E-01
 trial-energy change:   -0.059648  1 .order   -0.061038   -0.111238   -0.010839
 step:  15.3508(harm= 15.1990)  dis= 0.06182  next Energy=   -64.013152 (dE=-0.603E-01)
 bond charge predicted
       N       E                     dE             d eps       ncg     rms          rms(c)
DAV:   1    -0.640134290054E+02   -0.89388E-03   -0.18706E-01  1246   0.142E+00    0.304E-01
DAV:   2    -0.640135680432E+02   -0.13904E-03   -0.12381E-02  1568   0.420E-01    0.148E-01
DAV:   3    -0.640133955590E+02    0.17248E-03   -0.41468E-04  1512   0.786E-02    0.893E-02
DAV:   4    -0.640133108840E+02    0.84675E-04   -0.11067E-04  1050   0.402E-02
  71 F= -.64013311E+02 E0= -.64013311E+02  d E =-.604492E-01
 curvature: -17.92 expect dE=-0.544E-01 dE for cont linesearch -0.777E-04
 trial: gam= 0.35533 g(F)=  0.146E-02 g(S)=  0.157E-02 ort = 0.290E-03 (trialstep = 0.140E+02)
 search vector abs. value=  0.568E-02
 bond charge predicted
       N       E                     dE             d eps       ncg     rms          rms(c)
DAV:   1    -0.640537014249E+02   -0.40306E-01   -0.45681E+00  1176   0.703E+00    0.163E+00
DAV:   2    -0.640478129095E+02    0.58885E-02   -0.32120E-01  1568   0.210E+00    0.780E-01
DAV:   3    -0.640428112590E+02    0.50017E-02   -0.12408E-02  1540   0.413E-01    0.432E-01
DAV:   4    -0.640410424005E+02    0.17689E-02   -0.31561E-03  1568   0.198E-01    0.223E-01
DAV:   5    -0.640408566506E+02    0.18575E-03   -0.79931E-04  1638   0.921E-02    0.702E-02
DAV:   6    -0.640408543904E+02    0.22603E-05   -0.49897E-05  1092   0.280E-02
  72 F= -.64040854E+02 E0= -.64040854E+02  d E =-.275435E-01
 trial-energy change:   -0.027544  1 .order   -0.027901   -0.044065   -0.011738
 step:  19.1441(harm= 19.1441)  dis= 0.04381  next Energy=   -64.043343 (dE=-0.300E-01)
 bond charge predicted
       N       E                     dE             d eps       ncg     rms          rms(c)
DAV:   1    -0.640446238843E+02   -0.37672E-02   -0.60211E-01  1204   0.256E+00    0.582E-01
DAV:   2    -0.640439331608E+02    0.69072E-03   -0.41975E-02  1568   0.764E-01    0.291E-01
DAV:   3    -0.640432689944E+02    0.66417E-03   -0.15891E-03  1554   0.148E-01    0.162E-01
DAV:   4    -0.640430240532E+02    0.24494E-03   -0.45580E-04  1568   0.749E-02    0.774E-02
DAV:   5    -0.640430061993E+02    0.17854E-04   -0.91264E-05  1050   0.343E-02
  73 F= -.64043006E+02 E0= -.64043006E+02  d E =-.296953E-01
 curvature: -17.33 expect dE=-0.206E-01 dE for cont linesearch -0.898E-04
 trial: gam= 0.40598 g(F)=  0.965E-03 g(S)=  0.226E-03 ort = 0.172E-03 (trialstep = 0.151E+02)
 search vector abs. value=  0.227E-02
 bond charge predicted
       N       E                     dE             d eps       ncg     rms          rms(c)
DAV:   1    -0.640492576620E+02   -0.62336E-02   -0.18483E+00  1176   0.448E+00    0.899E-01
DAV:   2    -0.640561978804E+02   -0.69402E-02   -0.11518E-01  1596   0.131E+00    0.393E-01
DAV:   3    -0.640549227160E+02    0.12752E-02   -0.26478E-03  1638   0.218E-01    0.269E-01
DAV:   4    -0.640540737735E+02    0.84894E-03   -0.18950E-03  1568   0.156E-01    0.945E-02
DAV:   5    -0.640540762604E+02   -0.24869E-05   -0.37256E-04  1456   0.705E-02
  74 F= -.64054076E+02 E0= -.64054076E+02  d E =-.110701E-01
 trial-energy change:   -0.011070  1 .order   -0.011368   -0.018993   -0.003743
 step:  18.7618(harm= 18.7618)  dis= 0.03027  next Energy=   -64.054834 (dE=-0.118E-01)
 bond charge predicted
       N       E                     dE             d eps       ncg     rms          rms(c)
DAV:   1    -0.640541714425E+02   -0.97669E-04   -0.11067E-01  1288   0.110E+00    0.238E-01
DAV:   2    -0.640546003680E+02   -0.42893E-03   -0.70953E-03  1596   0.323E-01    0.804E-02
DAV:   3    -0.640545230127E+02    0.77355E-04   -0.14404E-04  1218   0.537E-02
  75 F= -.64054523E+02 E0= -.64054523E+02  d E =-.115168E-01
 curvature: -16.86 expect dE=-0.883E-02 dE for cont linesearch -0.155E-04
 trial: gam= 0.42864 g(F)=  0.415E-03 g(S)=  0.109E-03 ort = 0.456E-04 (trialstep = 0.158E+02)
 search vector abs. value=  0.979E-03
 bond charge predicted
       N       E                     dE             d eps       ncg     rms          rms(c)
DAV:   1    -0.640622388482E+02   -0.76385E-02   -0.72187E-01  1232   0.279E+00    0.612E-01
DAV:   2    -0.640616184362E+02    0.62041E-03   -0.49939E-02  1568   0.846E-01    0.317E-01
DAV:   3    -0.640609233090E+02    0.69513E-03   -0.19153E-03  1540   0.163E-01    0.176E-01
DAV:   4    -0.640606589109E+02    0.26440E-03   -0.46361E-04  1568   0.754E-02    0.791E-02
DAV:   5    -0.640606326360E+02    0.26275E-04   -0.11729E-04  1050   0.389E-02
  76 F= -.64060633E+02 E0= -.64060633E+02  d E =-.610962E-02
 trial-energy change:   -0.006110  1 .order   -0.006493   -0.008582   -0.004404
 step:  32.4617(harm= 32.4617)  dis= 0.03377  next Energy=   -64.063337 (dE=-0.881E-02)
 bond charge predicted
       N       E                     dE             d eps       ncg     rms          rms(c)
DAV:   1    -0.640637122542E+02   -0.30533E-02   -0.80343E-01  1204   0.295E+00    0.654E-01
DAV:   2    -0.640631317788E+02    0.58048E-03   -0.55805E-02  1568   0.894E-01    0.321E-01
DAV:   3    -0.640623561606E+02    0.77562E-03   -0.21281E-03  1526   0.172E-01    0.177E-01
DAV:   4    -0.640620701129E+02    0.28605E-03   -0.50118E-04  1568   0.785E-02    0.838E-02
DAV:   5    -0.640620400370E+02    0.30076E-04   -0.12637E-04  1050   0.405E-02
  77 F= -.64062040E+02 E0= -.64062040E+02  d E =-.751702E-02
 curvature: -29.26 expect dE=-0.209E-01 dE for cont linesearch -0.109E-03
 trial: gam= 1.52065 g(F)=  0.267E-03 g(S)=  0.446E-03 ort =-0.603E-04 (trialstep = 0.671E+01)
 search vector abs. value=  0.279E-02
 bond charge predicted
       N       E                     dE             d eps       ncg     rms          rms(c)
DAV:   1    -0.640648659875E+02   -0.27959E-02   -0.39387E-01  1176   0.206E+00    0.419E-01
DAV:   2    -0.640658363539E+02   -0.97037E-03   -0.25782E-02  1568   0.610E-01    0.210E-01
DAV:   3    -0.640655440226E+02    0.29233E-03   -0.62124E-04  1568   0.104E-01    0.129E-01
DAV:   4    -0.640653773889E+02    0.16663E-03   -0.33278E-04  1568   0.643E-02    0.508E-02
DAV:   5    -0.640653709885E+02    0.64004E-05   -0.59219E-05   896   0.284E-02
  78 F= -.64065371E+02 E0= -.64065371E+02  d E =-.333095E-02
 trial-energy change:   -0.003331  1 .order   -0.003479   -0.004165   -0.002794
 step:  20.3762(harm= 20.3762)  dis= 0.03815  next Energy=   -64.068365 (dE=-0.633E-02)
 bond charge predicted
       N       E                     dE             d eps       ncg     rms          rms(c)
DAV:   1    -0.640651257642E+02    0.25162E-03   -0.16328E+00  1176   0.420E+00    0.851E-01
DAV:   2    -0.640693202338E+02   -0.41945E-02   -0.10653E-01  1568   0.124E+00    0.424E-01
DAV:   3    -0.640681335435E+02    0.11867E-02   -0.25654E-03  1638   0.210E-01    0.266E-01
DAV:   4    -0.640674519450E+02    0.68160E-03   -0.13848E-03  1596   0.130E-01    0.107E-01
DAV:   5    -0.640674329436E+02    0.19001E-04   -0.26993E-04  1330   0.578E-02
  79 F= -.64067433E+02 E0= -.64067433E+02  d E =-.539291E-02
 curvature: -45.83 expect dE=-0.223E-01 dE for cont linesearch -0.245E-03
 ZBRENT: interpolating
 opt :  17.2743  next Energy=   -64.067623 (dE=-0.558E-02)
 bond charge predicted
       N       E                     dE             d eps       ncg     rms          rms(c)
DAV:   1    -0.640675858605E+02   -0.13392E-03   -0.85289E-02  1176   0.957E-01    0.182E-01
DAV:   2    -0.640677869429E+02   -0.20108E-03   -0.55501E-03  1568   0.282E-01    0.105E-01
DAV:   3    -0.640677242350E+02    0.62708E-04   -0.11589E-04  1092   0.478E-02
  80 F= -.64067724E+02 E0= -.64067724E+02  d E =-.568420E-02
 curvature: -35.43 expect dE=-0.161E-01 dE for cont linesearch -0.611E-04
 trial: gam= 0.45974 g(F)=  0.372E-03 g(S)=  0.825E-04 ort =-0.694E-04 (trialstep = 0.882E+01)
 search vector abs. value=  0.981E-03
 bond charge predicted
       N       E                     dE             d eps       ncg     rms          rms(c)
DAV:   1    -0.640696917050E+02   -0.19048E-02   -0.33433E-01  1176   0.187E+00    0.349E-01
DAV:   2    -0.640709268513E+02   -0.12351E-02   -0.20478E-02  1568   0.542E-01    0.149E-01
DAV:   3    -0.640707485973E+02    0.17825E-03   -0.38503E-04  1526   0.852E-02    0.965E-02
DAV:   4    -0.640706485910E+02    0.10001E-03   -0.21922E-04  1260   0.555E-02    0.439E-02
DAV:   5    -0.640706517921E+02   -0.32011E-05   -0.73155E-05   980   0.322E-02
  81 F= -.64070652E+02 E0= -.64070652E+02  d E =-.292756E-02
 trial-energy change:   -0.002928  1 .order   -0.003025   -0.003728   -0.002323
 step:  23.4069(harm= 23.4069)  dis= 0.02713  next Energy=   -64.072670 (dE=-0.495E-02)
 bond charge predicted
       N       E                     dE             d eps       ncg     rms          rms(c)
DAV:   1    -0.640698577040E+02    0.79089E-03   -0.90274E-01  1176   0.307E+00    0.571E-01
DAV:   2    -0.640729891072E+02   -0.31314E-02   -0.54412E-02  1568   0.884E-01    0.245E-01
DAV:   3    -0.640724961741E+02    0.49293E-03   -0.10493E-03  1610   0.140E-01    0.159E-01
DAV:   4    -0.640722255493E+02    0.27062E-03   -0.66103E-04  1568   0.921E-02    0.738E-02
DAV:   5    -0.640722279652E+02   -0.24160E-05   -0.12945E-04  1106   0.415E-02
  82 F= -.64072228E+02 E0= -.64072228E+02  d E =-.450373E-02
 curvature: -27.17 expect dE=-0.954E-02 dE for cont linesearch -0.234E-04
 trial: gam= 0.81453 g(F)=  0.216E-03 g(S)=  0.135E-03 ort =-0.291E-04 (trialstep = 0.117E+02)
 search vector abs. value=  0.955E-03
 reached required accuracy - stopping structural energy minimisation
