<?xml version="1.0" encoding="ISO-8859-1"?>
<modeling>
 <generator>
  <i name="program" type="string">vasp </i>
  <i name="version" type="string">5.4.4.18Apr17-6-g9f103f2a35  </i>
  <i name="subversion" type="string">(build Oct 27 2022 13:04:57) complex            parallel </i>
  <i name="platform" type="string">LinuxIFC </i>
  <i name="date" type="string">2024 07 04 </i>
  <i name="time" type="string">08:40:27 </i>
 </generator>
 <incar>
  <i type="string" name="SYSTEM"> CIS</i>
  <i type="int" name="ISTART">     0</i>
  <i type="string" name="PREC">medium</i>
  <i type="int" name="ICHARG">     2</i>
  <i type="int" name="IBRION">     2</i>
  <i name="EDIFF">      0.00010000</i>
  <i name="EDIFFG">     -0.05000000</i>
  <i type="int" name="NSW">    99</i>
  <i type="int" name="ISIF">     3</i>
  <i name="ENCUT">    300.00000000</i>
  <i name="POTIM">      0.10000000</i>
  <i type="string" name="LREAL"> Auto</i>
  <i type="int" name="ISMEAR">     0</i>
  <i name="SIGMA">      0.05000000</i>
  <i type="int" name="LMAXMIX">     4</i>
  <i type="logical" name="LWAVE"> F  </i>
  <i type="logical" name="LCHARG"> F  </i>
  <i type="int" name="LORBIT">    10</i>
  <i type="logical" name="LASPH"> T  </i>
  <v type="int" name="KPOINT_BSE">    -1     0     0     0</v>
  <i type="logical" name="LASPH"> T  </i>
 </incar>
 <structure name="primitive_cell" >
  <crystal>
   <varray name="basis" >
    <v>       7.44230890      -0.04005202      -4.22388348 </v>
    <v>      -2.35626543       7.05605731      -4.22722570 </v>
    <v>       0.13852737       0.18674037       8.91430955 </v>
   </varray>
   <i name="volume">    479.16463874 </i>
   <varray name="rec_basis" >
    <v>       0.13291731       0.04261352      -0.00295820 </v>
    <v>      -0.00090101       0.13967677      -0.00291200 </v>
    <v>       0.06255318       0.08642731       0.10939661 </v>
   </varray>
  </crystal>
  <varray name="positions" >
   <v>      -0.00466831      -0.48538149       0.30934897 </v>
   <v>      -0.35230012       0.18172987       0.00014536 </v>
   <v>      -0.18202772      -0.35260299      -0.00059197 </v>
   <v>      -0.27218438      -0.27191917       0.45425602 </v>
   <v>       0.00466831       0.48538149      -0.30934897 </v>
   <v>       0.18202772       0.35260299       0.00059197 </v>
   <v>       0.48515717      -0.31472229      -0.30958629 </v>
   <v>       0.20505907       0.00501802      -0.30881537 </v>
   <v>       0.31354410      -0.20508462       0.30883118 </v>
   <v>       0.27218438       0.27191917      -0.45425602 </v>
   <v>      -0.50000000      -0.50000000       0.00000000 </v>
   <v>       0.00000000       0.00000000       0.00000000 </v>
   <v>      -0.31354410       0.20508462      -0.30883018 </v>
   <v>      -0.20505907      -0.00501802       0.30881537 </v>
   <v>      -0.48515717       0.31472229       0.30958629 </v>
   <v>       0.35230012      -0.18172987      -0.00014536 </v>
  </varray>
 </structure>
 <varray name="primitive_index" >
  <v type="int" >        1 </v>
  <v type="int" >       15 </v>
  <v type="int" >       16 </v>
  <v type="int" >       14 </v>
  <v type="int" >        9 </v>
  <v type="int" >       12 </v>
  <v type="int" >        5 </v>
  <v type="int" >        2 </v>
  <v type="int" >        4 </v>
  <v type="int" >       11 </v>
  <v type="int" >       10 </v>
  <v type="int" >        3 </v>
  <v type="int" >        7 </v>
  <v type="int" >        8 </v>
  <v type="int" >        6 </v>
  <v type="int" >       13 </v>
 </varray>
 <kpoints>
  <generation param="Monkhorst-Pack">
   <v type="int" name="divisions">       3        3        3 </v>
   <v name="usershift">      0.00000000       0.00000000       0.00000000 </v>
   <v name="genvec1">      0.33333333       0.00000000       0.00000000 </v>
   <v name="genvec2">     -0.00000000       0.33333333       0.00000000 </v>
   <v name="genvec3">      0.00000000       0.00000000       0.33333333 </v>
   <v name="shift">      0.00000000       0.00000000       0.00000000 </v>
  </generation>
  <varray name="kpointlist" >
   <v>       0.00000000       0.00000000       0.00000000 </v>
   <v>       0.33333333       0.00000000       0.00000000 </v>
   <v>       0.00000000       0.33333333       0.00000000 </v>
   <v>       0.33333333       0.33333333       0.00000000 </v>
   <v>      -0.33333333       0.33333333       0.00000000 </v>
   <v>      -0.00000000       0.00000000       0.33333333 </v>
   <v>       0.33333333       0.00000000       0.33333333 </v>
   <v>      -0.33333333       0.00000000       0.33333333 </v>
   <v>      -0.00000000       0.33333333       0.33333333 </v>
   <v>       0.33333333       0.33333333       0.33333333 </v>
   <v>      -0.33333333       0.33333333       0.33333333 </v>
   <v>      -0.00000000      -0.33333333       0.33333333 </v>
   <v>       0.33333333      -0.33333333       0.33333333 </v>
   <v>      -0.33333333      -0.33333333       0.33333333 </v>
  </varray>
  <varray name="weights" >
   <v>       0.03703704 </v>
   <v>       0.07407407 </v>
   <v>       0.07407407 </v>
   <v>       0.07407407 </v>
   <v>       0.07407407 </v>
   <v>       0.07407407 </v>
   <v>       0.07407407 </v>
   <v>       0.07407407 </v>
   <v>       0.07407407 </v>
   <v>       0.07407407 </v>
   <v>       0.07407407 </v>
   <v>       0.07407407 </v>
   <v>       0.07407407 </v>
   <v>       0.07407407 </v>
  </varray>
 </kpoints>
 <parameters>
  <separator name="general" >
   <i type="string" name="SYSTEM">CIS</i>
   <i type="logical" name="LCOMPAT"> F  </i>
  </separator>
  <separator name="electronic" >
   <i type="string" name="PREC">medium</i>
   <i name="ENMAX">    300.00000000</i>
   <i name="ENAUG">    335.09200000</i>
   <i name="EDIFF">      0.00010000</i>
   <i type="int" name="IALGO">    38</i>
   <i type="int" name="IWAVPR">    11</i>
   <i type="int" name="NBANDS">    42</i>
   <i name="NELECT">     50.00000000</i>
   <i type="int" name="TURBO">     0</i>
   <i type="int" name="IRESTART">     0</i>
   <i type="int" name="NREBOOT">     0</i>
   <i type="int" name="NMIN">     0</i>
   <i name="EREF">      0.00000000</i>
   <separator name="electronic smearing" >
    <i type="int" name="ISMEAR">     0</i>
    <i name="SIGMA">      0.05000000</i>
    <i name="KSPACING">      0.50000000</i>
    <i type="logical" name="KGAMMA"> T  </i>
   </separator>
   <separator name="electronic projectors" >
    <i type="logical" name="LREAL"> T  </i>
    <v name="ROPT">     -0.00200000     -0.00200000     -0.00200000</v>
    <i type="int" name="LMAXPAW">  -100</i>
    <i type="int" name="LMAXMIX">     4</i>
    <i type="logical" name="NLSPLINE"> F  </i>
   </separator>
   <separator name="electronic startup" >
    <i type="int" name="ISTART">     0</i>
    <i type="int" name="ICHARG">     2</i>
    <i type="int" name="INIWAV">     1</i>
   </separator>
   <separator name="electronic spin" >
    <i type="int" name="ISPIN">     1</i>
    <i type="logical" name="LNONCOLLINEAR"> F  </i>
    <v name="MAGMOM">      1.00000000      1.00000000      1.00000000      1.00000000      1.00000000      1.00000000      1.00000000      1.00000000      1.00000000      1.00000000      1.00000000      1.00000000      1.00000000      1.00000000      1.00000000      1.00000000</v>
    <i name="NUPDOWN">     -1.00000000</i>
    <i type="logical" name="LSORBIT"> F  </i>
    <v name="SAXIS">      0.00000000      0.00000000      1.00000000</v>
    <i type="logical" name="LSPIRAL"> F  </i>
    <v name="QSPIRAL">      0.00000000      0.00000000      0.00000000</v>
    <i type="logical" name="LZEROZ"> F  </i>
   </separator>
   <separator name="electronic exchange-correlation" >
    <i type="logical" name="LASPH"> T  </i>
    <i type="logical" name="LMETAGGA"> F  </i>
   </separator>
   <separator name="electronic convergence" >
    <i type="int" name="NELM">    60</i>
    <i type="int" name="NELMDL">    -5</i>
    <i type="int" name="NELMIN">     2</i>
    <i name="ENINI">    300.00000000</i>
    <separator name="electronic convergence detail" >
     <i type="logical" name="LDIAG"> T  </i>
     <i type="logical" name="LSUBROT"> F  </i>
     <i name="WEIMIN">      0.00100000</i>
     <i name="EBREAK">      0.00000060</i>
     <i name="DEPER">      0.30000000</i>
     <i type="int" name="NRMM">     4</i>
     <i name="TIME">      0.40000000</i>
    </separator>
   </separator>
   <separator name="electronic mixer" >
    <i name="AMIX">      0.40000000</i>
    <i name="BMIX">      1.00000000</i>
    <i name="AMIN">      0.10000000</i>
    <i name="AMIX_MAG">      1.60000000</i>
    <i name="BMIX_MAG">      1.00000000</i>
    <separator name="electronic mixer details" >
     <i type="int" name="IMIX">     4</i>
     <i type="logical" name="MIXFIRST"> F  </i>
     <i type="int" name="MAXMIX">   -45</i>
     <i name="WC">    100.00000000</i>
     <i type="int" name="INIMIX">     1</i>
     <i type="int" name="MIXPRE">     1</i>
     <i type="int" name="MREMOVE">     5</i>
    </separator>
   </separator>
   <separator name="electronic dipolcorrection" >
    <i type="logical" name="LDIPOL"> F  </i>
    <i type="logical" name="LMONO"> F  </i>
    <i type="int" name="IDIPOL">     0</i>
    <i name="EPSILON">      1.00000000</i>
    <v name="DIPOL">   -100.00000000   -100.00000000   -100.00000000</v>
    <i name="EFIELD">      0.00000000</i>
   </separator>
  </separator>
  <separator name="grids" >
   <i type="int" name="NGX">    36</i>
   <i type="int" name="NGY">    36</i>
   <i type="int" name="NGZ">    40</i>
   <i type="int" name="NGXF">    54</i>
   <i type="int" name="NGYF">    54</i>
   <i type="int" name="NGZF">    54</i>
   <i type="logical" name="ADDGRID"> F  </i>
  </separator>
  <separator name="ionic" >
   <i type="int" name="NSW">    99</i>
   <i type="int" name="IBRION">     2</i>
   <i type="int" name="MDALGO">     0</i>
   <i type="int" name="ISIF">     3</i>
   <i name="PSTRESS">      0.00000000</i>
   <i name="EDIFFG">     -0.05000000</i>
   <i type="int" name="NFREE">     1</i>
   <i name="POTIM">      0.10000000</i>
   <i name="SMASS">     -3.00000000</i>
   <i name="SCALEE">      1.00000000</i>
  </separator>
  <separator name="ionic md" >
   <i name="TEBEG">      0.00010000</i>
   <i name="TEEND">      0.00010000</i>
   <i type="int" name="NBLOCK">     1</i>
   <i type="int" name="KBLOCK">    99</i>
   <i type="int" name="NPACO">   256</i>
   <i name="APACO">     16.00000000</i>
  </separator>
  <separator name="symmetry" >
   <i type="int" name="ISYM">     2</i>
   <i name="SYMPREC">      0.00001000</i>
  </separator>
  <separator name="dos" >
   <i type="int" name="LORBIT">    10</i>
   <v name="RWIGS">     -1.00000000     -1.00000000     -1.00000000</v>
   <i type="int" name="NEDOS">   301</i>
   <i name="EMIN">     10.00000000</i>
   <i name="EMAX">    -10.00000000</i>
   <i name="EFERMI">      0.00000000</i>
  </separator>
  <separator name="writing" >
   <i type="int" name="NWRITE">     2</i>
   <i type="logical" name="LWAVE"> F  </i>
   <i type="logical" name="LDOWNSAMPLE"> F  </i>
   <i type="logical" name="LCHARG"> F  </i>
   <i type="logical" name="LPARD"> F  </i>
   <i type="logical" name="LVTOT"> F  </i>
   <i type="logical" name="LVHAR"> F  </i>
   <i type="logical" name="LELF"> F  </i>
   <i type="logical" name="LOPTICS"> F  </i>
   <v name="STM">      0.00000000      0.00000000      0.00000000      0.00000000      0.00000000      0.00000000      0.00000000</v>
  </separator>
  <separator name="performance" >
   <i type="int" name="NPAR">    14</i>
   <i type="int" name="NSIM">     4</i>
   <i type="int" name="NBLK">    -1</i>
   <i type="logical" name="LPLANE"> T  </i>
   <i type="logical" name="LSCALAPACK"> T  </i>
   <i type="logical" name="LSCAAWARE"> F  </i>
   <i type="logical" name="LSCALU"> F  </i>
   <i type="logical" name="LASYNC"> F  </i>
   <i type="logical" name="LORBITALREAL"> F  </i>
  </separator>
  <separator name="miscellaneous" >
   <i type="int" name="IDIOT">     3</i>
   <i type="int" name="ISPECIAL">     0</i>
   <i type="logical" name="LMUSIC"> F  </i>
   <v name="POMASS">      7.01000000    208.98000000     32.06600000</v>
   <v name="DARWINR">      0.00000000      0.00000000      0.00000000</v>
   <v name="DARWINV">      1.00000000      1.00000000      1.00000000</v>
   <i type="logical" name="LCORR"> T  </i>
  </separator>
  <i type="logical" name="GGA_COMPAT"> T  </i>
  <i type="logical" name="LBERRY"> F  </i>
  <i type="int" name="ICORELEVEL">     0</i>
  <i type="logical" name="LDAU"> F  </i>
  <i type="int" name="I_CONSTRAINED_M">     0</i>
  <separator name="electronic exchange-correlation" >
   <i type="string" name="GGA">--</i>
   <i type="int" name="VOSKOWN">     0</i>
   <i type="logical" name="LHFCALC"> F  </i>
   <i type="string" name="PRECFOCK"></i>
   <i type="logical" name="LSYMGRAD"> F  </i>
   <i type="logical" name="LHFONE"> F  </i>
   <i type="logical" name="LRHFCALC"> F  </i>
   <i type="logical" name="LTHOMAS"> F  </i>
   <i type="logical" name="LMODELHF"> F  </i>
   <i name="ENCUT4O">     -1.00000000</i>
   <i type="int" name="EXXOEP">     0</i>
   <i type="int" name="FOURORBIT">     0</i>
   <i name="AEXX">      0.00000000</i>
   <i name="HFALPHA">      0.00000000</i>
   <i name="MCALPHA">      0.00000000</i>
   <i name="ALDAX">      1.00000000</i>
   <i name="AGGAX">      1.00000000</i>
   <i name="ALDAC">      1.00000000</i>
   <i name="AGGAC">      1.00000000</i>
   <i type="int" name="NKREDX">     1</i>
   <i type="int" name="NKREDY">     1</i>
   <i type="int" name="NKREDZ">     1</i>
   <i type="logical" name="SHIFTRED"> F  </i>
   <i type="logical" name="ODDONLY"> F  </i>
   <i type="logical" name="EVENONLY"> F  </i>
   <i type="int" name="LMAXFOCK">     0</i>
   <i type="int" name="NMAXFOCKAE">     0</i>
   <i type="logical" name="LFOCKAEDFT"> F  </i>
   <i name="HFSCREEN">      0.00000000</i>
   <i name="HFSCREENC">      0.00000000</i>
   <i type="int" name="NBANDSGWLOW">     0</i>
  </separator>
  <separator name="vdW DFT" >
   <i type="logical" name="LUSE_VDW"> F  </i>
   <i name="Zab_VDW">     -0.84910000</i>
   <i name="PARAM1">      0.12340000</i>
   <i name="PARAM2">      1.00000000</i>
   <i name="PARAM3">      0.00000000</i>
  </separator>
  <separator name="model GW" >
   <i type="int" name="MODEL_GW">     0</i>
   <i name="MODEL_EPS0">     17.96867395</i>
   <i name="MODEL_ALPHA">      1.00000000</i>
  </separator>
  <separator name="linear response parameters" >
   <i type="logical" name="LEPSILON"> F  </i>
   <i type="logical" name="LRPA"> F  </i>
   <i type="logical" name="LNABLA"> F  </i>
   <i type="logical" name="LVEL"> F  </i>
   <i type="int" name="KINTER">     0</i>
   <i name="CSHIFT">      0.10000000</i>
   <i name="OMEGAMAX">     -1.00000000</i>
   <i name="DEG_THRESHOLD">      0.00200000</i>
   <i name="RTIME">     -0.10000000</i>
   <i name="WPLASMAI">      0.00000000</i>
   <v name="DFIELD">      0.00000000      0.00000000      0.00000000</v>
   <v name="WPLASMA">      0.00000000      0.00000000      0.00000000      0.00000000      0.00000000      0.00000000      0.00000000      0.00000000      0.00000000</v>
  </separator>
  <separator name="orbital magnetization" >
   <i type="logical" name="NUCIND"> F  </i>
   <v name="MAGPOS">      0.00000000      0.00000000      0.00000000</v>
   <i type="logical" name="LNICSALL"> T  </i>
   <i type="logical" name="ORBITALMAG"> F  </i>
   <i type="logical" name="LMAGBLOCH"> F  </i>
   <i type="logical" name="LCHIMAG"> F  </i>
   <i type="logical" name="LGAUGE"> T  </i>
   <i type="int" name="MAGATOM">     0</i>
   <v name="MAGDIPOL">      0.00000000      0.00000000      0.00000000</v>
   <v name="AVECCONST">      0.00000000      0.00000000      0.00000000</v>
  </separator>
  <separator name="response functions" >
   <i type="logical" name="LADDER"> F  </i>
   <i type="logical" name="LRPAFORCE"> F  </i>
   <i type="logical" name="LFXC"> F  </i>
   <i type="logical" name="LHARTREE"> T  </i>
   <i type="int" name="IBSE">     0</i>
   <v type="int" name="KPOINT">    -1     0     0     0</v>
   <i type="logical" name="LTCTE"> F  </i>
   <i type="logical" name="LTETE"> F  </i>
   <i type="logical" name="LTRIPLET"> F  </i>
   <i type="logical" name="LFXCEPS"> F  </i>
   <i type="logical" name="LFXHEG"> F  </i>
   <i type="int" name="NATURALO">     2</i>
   <i type="logical" name="L2ORDER"> F  </i>
   <i type="logical" name="LMP2LT"> F  </i>
   <i type="logical" name="LUSEW"> F  </i>
   <i name="ENCUTGW">     -2.00000000</i>
   <i name="ENCUTGWSOFT">     -2.00000000</i>
   <i name="ENCUTLF">     -1.00000000</i>
   <i type="int" name="LMAXMP2">    -1</i>
   <i name="SCISSOR">      0.00000000</i>
   <i type="int" name="NOMEGA">     0</i>
   <i type="int" name="NOMEGAR">     0</i>
   <i type="int" name="NBANDSGW">    -1</i>
   <i type="int" name="NBANDSO">    -1</i>
   <i type="int" name="NBANDSV">    -1</i>
   <i type="int" name="NELM">     1</i>
   <i type="int" name="NELMHF">     1</i>
   <i type="int" name="DIM">     3</i>
   <i type="int" name="ANTIRES">     0</i>
   <i name="OMEGAMAX">    -30.00000000</i>
   <i name="OMEGAMIN">    -30.00000000</i>
   <i name="OMEGATL">   -200.00000000</i>
   <i type="int" name="OMEGAGRID">   140</i>
   <i name="CSHIFT">     -0.10000000</i>
   <i type="logical" name="SELFENERGY"> F  </i>
   <i type="logical" name="LSPECTRAL"> F  </i>
   <i type="logical" name="LSPECTRALGW"> F  </i>
   <i type="logical" name="LSINGLES"> F  </i>
   <i type="logical" name="LFERMIGW"> F  </i>
   <i type="logical" name="ODDONLYGW"> F  </i>
   <i type="logical" name="EVENONLYGW"> F  </i>
   <i type="int" name="NKREDLFX">     1</i>
   <i type="int" name="NKREDLFY">     1</i>
   <i type="int" name="NKREDLFZ">     1</i>
   <i type="int" name="MAXMEM">  2800</i>
   <i type="int" name="TELESCOPE">     0</i>
   <i type="int" name="TAUPAR">     1</i>
   <i type="int" name="OMEGAPAR">    -1</i>
   <i name="LAMBDA">      1.00000000</i>
  </separator>
  <separator name="External order field" >
   <i name="OFIELD_KAPPA">      0.00000000</i>
   <v name="OFIELD_K">      0.00000000      0.00000000      0.00000000</v>
   <i name="OFIELD_Q6_NEAR">      0.00000000</i>
   <i name="OFIELD_Q6_FAR">      0.00000000</i>
   <i name="OFIELD_A">      0.00000000</i>
  </separator>
 </parameters>
 <atominfo>
  <atoms>      16 </atoms>
  <types>       3 </types>
  <array name="atoms" >
   <dimension dim="1">ion</dimension>
   <field type="string">element</field>
   <field type="int">atomtype</field>
   <set>
    <rc><c>Li</c><c>   1</c></rc>
    <rc><c>Li</c><c>   1</c></rc>
    <rc><c>Li</c><c>   1</c></rc>
    <rc><c>Li</c><c>   1</c></rc>
    <rc><c>Li</c><c>   1</c></rc>
    <rc><c>Li</c><c>   1</c></rc>
    <rc><c>Li</c><c>   1</c></rc>
    <rc><c>Li</c><c>   1</c></rc>
    <rc><c>Li</c><c>   1</c></rc>
    <rc><c>Bi</c><c>   2</c></rc>
    <rc><c>S </c><c>   3</c></rc>
    <rc><c>S </c><c>   3</c></rc>
    <rc><c>S </c><c>   3</c></rc>
    <rc><c>S </c><c>   3</c></rc>
    <rc><c>S </c><c>   3</c></rc>
    <rc><c>S </c><c>   3</c></rc>
   </set>
  </array>
  <array name="atomtypes" >
   <dimension dim="1">type</dimension>
   <field type="int">atomspertype</field>
   <field type="string">element</field>
   <field>mass</field>
   <field>valence</field>
   <field type="string">pseudopotential</field>
   <set>
    <rc><c>   9</c><c>Li</c><c>      7.01000000</c><c>      1.00000000</c><c>  PAW_PBE Li 17Jan2003                  </c></rc>
    <rc><c>   1</c><c>Bi</c><c>    208.98000000</c><c>      5.00000000</c><c>  PAW_PBE Bi 08Apr2002                  </c></rc>
    <rc><c>   6</c><c>S </c><c>     32.06600000</c><c>      6.00000000</c><c>  PAW_PBE S 06Sep2000                   </c></rc>
   </set>
  </array>
 </atominfo>
 <structure name="initialpos" >
  <crystal>
   <varray name="basis" >
    <v>       7.44230890      -0.04005202      -4.22388348 </v>
    <v>      -2.35626543       7.05605731      -4.22722570 </v>
    <v>       0.13852737       0.18674037       8.91430955 </v>
   </varray>
   <i name="volume">    479.16463874 </i>
   <varray name="rec_basis" >
    <v>       0.13291731       0.04261352      -0.00295820 </v>
    <v>      -0.00090101       0.13967677      -0.00291200 </v>
    <v>       0.06255318       0.08642731       0.10939661 </v>
   </varray>
  </crystal>
  <varray name="positions" >
   <v>       0.99533169       0.51461851       0.30934897 </v>
   <v>       0.20505907       0.00501802       0.69118463 </v>
   <v>       0.00000000       0.00000000       0.00000000 </v>
   <v>       0.31354410       0.79491538       0.30883118 </v>
   <v>       0.48515717       0.68527771       0.69041371 </v>
   <v>       0.51484283       0.31472229       0.30958629 </v>
   <v>       0.68645590       0.20508462       0.69116982 </v>
   <v>       0.79494093       0.99498198       0.30881537 </v>
   <v>       0.00466831       0.48538149       0.69065103 </v>
   <v>       0.50000000       0.50000000       0.00000000 </v>
   <v>       0.27218438       0.27191917       0.54574398 </v>
   <v>       0.18202772       0.35260299       0.00059197 </v>
   <v>       0.35230012       0.81827013       0.99985464 </v>
   <v>       0.72781562       0.72808083       0.45425602 </v>
   <v>       0.64769988       0.18172987       0.00014536 </v>
   <v>       0.81797228       0.64739701       0.99940803 </v>
  </varray>
 </structure>
 <calculation>
  <scstep>
   <time name="dav">    0.46    0.46</time>
   <time name="total">    0.60    0.67</time>
   <energy>
    <i name="alphaZ">     19.46311471 </i>
    <i name="ewald">  -1267.08630810 </i>
    <i name="hartreedc">   -525.69763427 </i>
    <i name="XCdc">    -80.03271944 </i>
    <i name="pawpsdc">   1598.96116660 </i>
    <i name="pawaedc">  -1412.86395192 </i>
    <i name="eentropy">     -0.00835780 </i>
    <i name="bandstr">    -37.77530505 </i>
    <i name="atom">   1859.40581359 </i>
    <i name="e_fr_energy">    154.36581831 </i>
    <i name="e_wo_entrp">    154.37417612 </i>
    <i name="e_0_energy">    154.36999721 </i>
   </energy>
  </scstep>
  <scstep>
   <time name="dav">    0.72    0.73</time>
   <time name="total">    0.72    0.73</time>
   <energy>
    <i name="e_fr_energy">    -33.22553511 </i>
    <i name="e_wo_entrp">    -33.22553511 </i>
    <i name="e_0_energy">    -33.22553511 </i>
   </energy>
  </scstep>
  <scstep>
   <time name="dav">    0.76    0.77</time>
   <time name="total">    0.76    0.77</time>
   <energy>
    <i name="e_fr_energy">    -57.21983611 </i>
    <i name="e_wo_entrp">    -57.21983611 </i>
    <i name="e_0_energy">    -57.21983611 </i>
   </energy>
  </scstep>
  <scstep>
   <time name="dav">    0.78    0.79</time>
   <time name="total">    0.78    0.79</time>
   <energy>
    <i name="e_fr_energy">    -57.72285261 </i>
    <i name="e_wo_entrp">    -57.72285261 </i>
    <i name="e_0_energy">    -57.72285261 </i>
   </energy>
  </scstep>
  <scstep>
   <time name="dav">    0.77    0.78</time>
   <time name="total">    0.79    0.79</time>
   <energy>
    <i name="e_fr_energy">    -57.72888705 </i>
    <i name="e_wo_entrp">    -57.72888705 </i>
    <i name="e_0_energy">    -57.72888705 </i>
   </energy>
  </scstep>
  <scstep>
   <time name="dav">    0.79    0.79</time>
   <time name="total">    0.93    0.93</time>
   <energy>
    <i name="e_fr_energy">    -52.76170814 </i>
    <i name="e_wo_entrp">    -52.76170814 </i>
    <i name="e_0_energy">    -52.76170814 </i>
   </energy>
  </scstep>
  <scstep>
   <time name="dav">    0.59    0.59</time>
   <time name="total">    0.74    0.74</time>
   <energy>
    <i name="e_fr_energy">    -52.49807243 </i>
    <i name="e_wo_entrp">    -52.49807243 </i>
    <i name="e_0_energy">    -52.49807243 </i>
   </energy>
  </scstep>
  <scstep>
   <time name="dav">    0.50    0.50</time>
   <time name="total">    0.64    0.64</time>
   <energy>
    <i name="e_fr_energy">    -52.40881125 </i>
    <i name="e_wo_entrp">    -52.40881123 </i>
    <i name="e_0_energy">    -52.40881124 </i>
   </energy>
  </scstep>
  <scstep>
   <time name="dav">    0.72    0.72</time>
   <time name="total">    0.86    0.86</time>
   <energy>
    <i name="e_fr_energy">    -52.40802858 </i>
    <i name="e_wo_entrp">    -52.40802841 </i>
    <i name="e_0_energy">    -52.40802849 </i>
   </energy>
  </scstep>
  <scstep>
   <time name="dav">    0.67    0.67</time>
   <time name="total">    0.82    0.82</time>
   <energy>
    <i name="e_fr_energy">    -52.41009843 </i>
    <i name="e_wo_entrp">    -52.41009823 </i>
    <i name="e_0_energy">    -52.41009833 </i>
   </energy>
  </scstep>
  <scstep>
   <time name="dav">    0.81    0.81</time>
   <time name="total">    0.95    0.95</time>
   <energy>
    <i name="e_fr_energy">    -52.40989854 </i>
    <i name="e_wo_entrp">    -52.40989815 </i>
    <i name="e_0_energy">    -52.40989834 </i>
   </energy>
  </scstep>
  <scstep>
   <time name="dav">    0.75    0.75</time>
   <time name="total">    0.87    0.87</time>
   <energy>
    <i name="alphaZ">     19.46311471 </i>
    <i name="ewald">  -1267.08630810 </i>
    <i name="hartreedc">   -587.68218218 </i>
    <i name="XCdc">    -75.69252901 </i>
    <i name="pawpsdc">   2634.71022546 </i>
    <i name="pawaedc">  -2448.98543328 </i>
    <i name="eentropy">     -0.00000042 </i>
    <i name="bandstr">   -186.54267039 </i>
    <i name="atom">   1859.40581359 </i>
    <i name="e_fr_energy">    -52.40996963 </i>
    <i name="e_wo_entrp">    -52.40996920 </i>
    <i name="e_0_energy">    -52.40996941 </i>
   </energy>
  </scstep>
  <structure>
   <crystal>
    <varray name="basis" >
     <v>       7.44230890      -0.04005202      -4.22388348 </v>
     <v>      -2.35626543       7.05605731      -4.22722570 </v>
     <v>       0.13852737       0.18674037       8.91430955 </v>
    </varray>
    <i name="volume">    479.16463874 </i>
    <varray name="rec_basis" >
     <v>       0.13291731       0.04261352      -0.00295820 </v>
     <v>      -0.00090101       0.13967677      -0.00291200 </v>
     <v>       0.06255318       0.08642731       0.10939661 </v>
    </varray>
   </crystal>
   <varray name="positions" >
    <v>       0.99533169       0.51461851       0.30934897 </v>
    <v>       0.20505907       0.00501802       0.69118463 </v>
    <v>       0.00000000       0.00000000       0.00000000 </v>
    <v>       0.31354410       0.79491538       0.30883118 </v>
    <v>       0.48515717       0.68527771       0.69041371 </v>
    <v>       0.51484283       0.31472229       0.30958629 </v>
    <v>       0.68645590       0.20508462       0.69116982 </v>
    <v>       0.79494093       0.99498198       0.30881537 </v>
    <v>       0.00466831       0.48538149       0.69065103 </v>
    <v>       0.50000000       0.50000000       0.00000000 </v>
    <v>       0.27218438       0.27191917       0.54574398 </v>
    <v>       0.18202772       0.35260299       0.00059197 </v>
    <v>       0.35230012       0.81827013       0.99985464 </v>
    <v>       0.72781562       0.72808083       0.45425602 </v>
    <v>       0.64769988       0.18172987       0.00014536 </v>
    <v>       0.81797228       0.64739701       0.99940803 </v>
   </varray>
  </structure>
  <varray name="forces" >
   <v>      -0.80594496      -0.65323766      -0.39455487 </v>
   <v>       0.15613169       0.96451163       0.51528701 </v>
   <v>      -0.00000000      -0.00000000       0.00000000 </v>
   <v>      -0.00475678      -0.45281070      -1.00527098 </v>
   <v>       0.64290309       0.14736256       0.89382504 </v>
   <v>      -0.64290309      -0.14736256      -0.89382504 </v>
   <v>       0.00475678       0.45281070       1.00527098 </v>
   <v>      -0.15613169      -0.96451163      -0.51528701 </v>
   <v>       0.80594496       0.65323766       0.39455487 </v>
   <v>      -0.00000000      -0.00000000       0.00000000 </v>
   <v>      -0.03381701      -0.02990033       0.01737113 </v>
   <v>       0.25936427      -0.10264837      -0.04261576 </v>
   <v>      -0.03863442      -0.23339266       0.21483675 </v>
   <v>       0.03381701       0.02990033      -0.01737113 </v>
   <v>       0.03863442       0.23339266      -0.21483675 </v>
   <v>      -0.25936427       0.10264837       0.04261576 </v>
  </varray>
  <varray name="stress" >
   <v>     -70.54853254      -1.55821515      -1.60047716 </v>
   <v>      -1.55821517     -71.61196165      -2.29415526 </v>
   <v>      -1.60047707      -2.29415559     -72.34328145 </v>
  </varray>
  <energy>
   <i name="e_fr_energy">    -52.40996963 </i>
   <i name="e_wo_entrp">    -52.40996941 </i>
   <i name="e_0_energy">     -0.00000042 </i>
  </energy>
  <time name="totalsc">   10.43   10.61</time>
 </calculation>
 <calculation>
  <scstep>
   <time name="dav">    0.70    0.71</time>
   <time name="total">    0.86    0.90</time>
   <energy>
    <i name="alphaZ">     20.23591051 </i>
    <i name="ewald">  -1282.65965472 </i>
    <i name="hartreedc">   -596.14017675 </i>
    <i name="XCdc">    -74.50602360 </i>
    <i name="pawpsdc">   2635.02695875 </i>
    <i name="pawaedc">  -2449.30009607 </i>
    <i name="eentropy">     -0.00241230 </i>
    <i name="bandstr">   -165.79949314 </i>
    <i name="atom">   1859.40581359 </i>
    <i name="e_fr_energy">    -53.73917372 </i>
    <i name="e_wo_entrp">    -53.73676143 </i>
    <i name="e_0_energy">    -53.73796758 </i>
   </energy>
  </scstep>
  <scstep>
   <time name="dav">    0.53    0.53</time>
   <time name="total">    0.67    0.67</time>
   <energy>
    <i name="e_fr_energy">    -53.32973521 </i>
    <i name="e_wo_entrp">    -53.32973491 </i>
    <i name="e_0_energy">    -53.32973506 </i>
   </energy>
  </scstep>
  <scstep>
   <time name="dav">    0.52    0.52</time>
   <time name="total">    0.67    0.67</time>
   <energy>
    <i name="e_fr_energy">    -53.32239518 </i>
    <i name="e_wo_entrp">    -53.32239510 </i>
    <i name="e_0_energy">    -53.32239514 </i>
   </energy>
  </scstep>
  <scstep>
   <time name="dav">    0.77    0.77</time>
   <time name="total">    0.91    0.91</time>
   <energy>
    <i name="e_fr_energy">    -53.31971528 </i>
    <i name="e_wo_entrp">    -53.31971517 </i>
    <i name="e_0_energy">    -53.31971523 </i>
   </energy>
  </scstep>
  <scstep>
   <time name="dav">    0.76    0.76</time>
   <time name="total">    0.90    0.90</time>
   <energy>
    <i name="e_fr_energy">    -53.31806376 </i>
    <i name="e_wo_entrp">    -53.31806362 </i>
    <i name="e_0_energy">    -53.31806369 </i>
   </energy>
  </scstep>
  <scstep>
   <time name="dav">    0.78    0.78</time>
   <time name="total">    0.91    0.91</time>
   <energy>
    <i name="alphaZ">     20.23591051 </i>
    <i name="ewald">  -1282.65965472 </i>
    <i name="hartreedc">   -579.41884543 </i>
    <i name="XCdc">    -75.22681180 </i>
    <i name="pawpsdc">   2685.17830618 </i>
    <i name="pawaedc">  -2499.51681605 </i>
    <i name="eentropy">     -0.00000015 </i>
    <i name="bandstr">   -181.31592251 </i>
    <i name="atom">   1859.40581359 </i>
    <i name="e_fr_energy">    -53.31802037 </i>
    <i name="e_wo_entrp">    -53.31802022 </i>
    <i name="e_0_energy">    -53.31802029 </i>
   </energy>
  </scstep>
  <structure>
   <crystal>
    <varray name="basis" >
     <v>       7.34884785      -0.03987857      -4.17090572 </v>
     <v>      -2.32704846       6.96733814      -4.17431203 </v>
     <v>       0.13413928       0.18060135       8.79788652 </v>
    </varray>
    <i name="volume">    460.86566371 </i>
    <varray name="rec_basis" >
     <v>       0.13464170       0.04320819      -0.00293982 </v>
     <v>      -0.00087319       0.14150286      -0.00289143 </v>
     <v>       0.06341669       0.08762268       0.11089806 </v>
    </varray>
   </crystal>
   <varray name="positions" >
    <v>       0.99404078       0.51375625       0.30790135 </v>
    <v>       0.20564116       0.00630203       0.69262706 </v>
    <v>      -0.00000000      -0.00000000       0.00000000 </v>
    <v>       0.31338052       0.79433342       0.30738963 </v>
    <v>       0.48601674       0.68544560       0.69186806 </v>
    <v>       0.51398326       0.31455440       0.30813194 </v>
    <v>       0.68661948       0.20566658       0.69261137 </v>
    <v>       0.79435884       0.99369797       0.30737294 </v>
    <v>       0.00595922       0.48624375       0.69209865 </v>
    <v>       0.50000000       0.50000000       0.00000000 </v>
    <v>       0.27212822       0.27187868       0.54571697 </v>
    <v>       0.18231936       0.35246360       0.00061793 </v>
    <v>       0.35214848       0.81794989       0.99986346 </v>
    <v>       0.72787178       0.72812132       0.45428303 </v>
    <v>       0.64785152       0.18205011       0.00013654 </v>
    <v>       0.81768064       0.64753640       0.99938207 </v>
   </varray>
  </structure>
  <varray name="forces" >
   <v>      -0.79914194      -0.66084782      -0.39562375 </v>
   <v>       0.15119402       0.96024482       0.52274903 </v>
   <v>      -0.00000000       0.00000000       0.00000000 </v>
   <v>      -0.01479466      -0.44790220      -1.00808971 </v>
   <v>       0.64958257       0.15488433       0.88976204 </v>
   <v>      -0.64958257      -0.15488433      -0.88976204 </v>
   <v>       0.01479466       0.44790220       1.00808971 </v>
   <v>      -0.15119402      -0.96024482      -0.52274903 </v>
   <v>       0.79914194       0.66084782       0.39562375 </v>
   <v>      -0.00000000      -0.00000000       0.00000000 </v>
   <v>      -0.07562006      -0.10749604      -0.06528089 </v>
   <v>       0.18604915      -0.16872705      -0.00905601 </v>
   <v>      -0.12606093      -0.12938339       0.14433626 </v>
   <v>       0.07562006       0.10749604       0.06528089 </v>
   <v>       0.12606093       0.12938339      -0.14433626 </v>
   <v>      -0.18604915       0.16872705       0.00905601 </v>
  </varray>
  <varray name="stress" >
   <v>     -69.03661186      -1.48009456      -1.76495580 </v>
   <v>      -1.48009434     -70.20643807      -2.44874910 </v>
   <v>      -1.76495538      -2.44874890     -70.93341110 </v>
  </varray>
  <energy>
   <i name="e_fr_energy">    -53.31802037 </i>
   <i name="e_wo_entrp">    -53.31802029 </i>
   <i name="e_0_energy">     -0.00000015 </i>
  </energy>
  <time name="totalsc">    5.87    6.01</time>
 </calculation>
 <calculation>
  <scstep>
   <time name="dav">    0.79    0.80</time>
   <time name="total">    0.94    0.99</time>
   <energy>
    <i name="alphaZ">     22.81467439 </i>
    <i name="ewald">  -1331.81965932 </i>
    <i name="hartreedc">   -605.41302711 </i>
    <i name="XCdc">    -71.51943356 </i>
    <i name="pawpsdc">   2677.29983957 </i>
    <i name="pawaedc">  -2491.63490930 </i>
    <i name="eentropy">     -0.00378738 </i>
    <i name="bandstr">   -118.73423637 </i>
    <i name="atom">   1859.40581359 </i>
    <i name="e_fr_energy">    -59.60472549 </i>
    <i name="e_wo_entrp">    -59.60093811 </i>
    <i name="e_0_energy">    -59.60283180 </i>
   </energy>
  </scstep>
  <scstep>
   <time name="dav">    0.57    0.58</time>
   <time name="total">    0.72    0.73</time>
   <energy>
    <i name="e_fr_energy">    -55.84479179 </i>
    <i name="e_wo_entrp">    -55.84479019 </i>
    <i name="e_0_energy">    -55.84479099 </i>
   </energy>
  </scstep>
  <scstep>
   <time name="dav">    0.64    0.65</time>
   <time name="total">    0.78    0.79</time>
   <energy>
    <i name="e_fr_energy">    -55.78851861 </i>
    <i name="e_wo_entrp">    -55.78851859 </i>
    <i name="e_0_energy">    -55.78851860 </i>
   </energy>
  </scstep>
  <scstep>
   <time name="dav">    0.78    0.80</time>
   <time name="total">    0.93    0.94</time>
   <energy>
    <i name="e_fr_energy">    -55.76874634 </i>
    <i name="e_wo_entrp">    -55.76874629 </i>
    <i name="e_0_energy">    -55.76874631 </i>
   </energy>
  </scstep>
  <scstep>
   <time name="dav">    0.79    0.80</time>
   <time name="total">    0.94    0.95</time>
   <energy>
    <i name="e_fr_energy">    -55.74668034 </i>
    <i name="e_wo_entrp">    -55.74668016 </i>
    <i name="e_0_energy">    -55.74668025 </i>
   </energy>
  </scstep>
  <scstep>
   <time name="dav">    0.79    0.80</time>
   <time name="total">    0.93    0.94</time>
   <energy>
    <i name="e_fr_energy">    -55.74631302 </i>
    <i name="e_wo_entrp">    -55.74631278 </i>
    <i name="e_0_energy">    -55.74631290 </i>
   </energy>
  </scstep>
  <scstep>
   <time name="dav">    0.62    0.62</time>
   <time name="total">    0.74    0.75</time>
   <energy>
    <i name="alphaZ">     22.81467439 </i>
    <i name="ewald">  -1331.81965932 </i>
    <i name="hartreedc">   -553.97029547 </i>
    <i name="XCdc">    -73.70499247 </i>
    <i name="pawpsdc">   2854.32308941 </i>
    <i name="pawaedc">  -2668.88419271 </i>
    <i name="eentropy">     -0.00000024 </i>
    <i name="bandstr">   -163.91071437 </i>
    <i name="atom">   1859.40581359 </i>
    <i name="e_fr_energy">    -55.74627720 </i>
    <i name="e_wo_entrp">    -55.74627695 </i>
    <i name="e_0_energy">    -55.74627707 </i>
   </energy>
  </scstep>
  <structure>
   <crystal>
    <varray name="basis" >
     <v>       7.06846469      -0.03935823      -4.01197244 </v>
     <v>      -2.23939754       6.70118062      -4.01557104 </v>
     <v>       0.12097499       0.16218431       8.44861743 </v>
    </varray>
    <i name="volume">    408.77358884 </i>
    <varray name="rec_basis" >
     <v>       0.14009460       0.04509594      -0.00287169 </v>
     <v>      -0.00077832       0.14727982      -0.00281612 </v>
     <v>       0.06615642       0.09141570       0.11566041 </v>
    </varray>
   </crystal>
   <varray name="positions" >
    <v>       0.99011636       0.51113406       0.30349861 </v>
    <v>       0.20741210       0.01020549       0.69701402 </v>
    <v>      -0.00000000      -0.00000000       0.00000000 </v>
    <v>       0.31288120       0.79256302       0.30300551 </v>
    <v>       0.48863056       0.68595813       0.69629114 </v>
    <v>       0.51136944       0.31404187       0.30370886 </v>
    <v>       0.68711880       0.20743698       0.69699549 </v>
    <v>       0.79258790       0.98979451       0.30298598 </v>
    <v>       0.00988364       0.48886594       0.69650139 </v>
    <v>       0.50000000       0.50000000       0.00000000 </v>
    <v>       0.27195755       0.27175561       0.54563482 </v>
    <v>       0.18320542       0.35204017       0.00069688 </v>
    <v>       0.35168773       0.81697694       0.99989022 </v>
    <v>       0.72804245       0.72824439       0.45436518 </v>
    <v>       0.64831227       0.18302306       0.00010978 </v>
    <v>       0.81679458       0.64795983       0.99930312 </v>
   </varray>
  </structure>
  <varray name="forces" >
   <v>      -0.75012922      -0.66719965      -0.39218846 </v>
   <v>       0.13493911       0.91386479       0.53996112 </v>
   <v>       0.00000000       0.00000000       0.00000000 </v>
   <v>      -0.05029605      -0.42030650      -0.98495223 </v>
   <v>       0.64821758       0.17953247       0.84433411 </v>
   <v>      -0.64821758      -0.17953247      -0.84433411 </v>
   <v>       0.05029605       0.42030650       0.98495223 </v>
   <v>      -0.13493911      -0.91386479      -0.53996112 </v>
   <v>       0.75012922       0.66719965       0.39218846 </v>
   <v>       0.00000000       0.00000000       0.00000000 </v>
   <v>      -0.28624020      -0.38692951      -0.50037136 </v>
   <v>      -0.14961871      -0.30794474       0.34831876 </v>
   <v>      -0.44545441       0.24193655       0.05411824 </v>
   <v>       0.28624020       0.38692951       0.50037136 </v>
   <v>       0.44545441      -0.24193655      -0.05411824 </v>
   <v>       0.14961871       0.30794474      -0.34831876 </v>
  </varray>
  <varray name="stress" >
   <v>     -58.77337285      -0.74116772      -0.94638247 </v>
   <v>      -0.74116826     -59.35040903      -1.41799090 </v>
   <v>      -0.94638224      -1.41799122     -60.48966764 </v>
  </varray>
  <energy>
   <i name="e_fr_energy">    -55.74627720 </i>
   <i name="e_wo_entrp">    -55.74627707 </i>
   <i name="e_0_energy">     -0.00000024 </i>
  </energy>
  <time name="totalsc">    6.98    7.25</time>
 </calculation>
 <calculation>
  <scstep>
   <time name="dav">    0.47    0.48</time>
   <time name="total">    0.63    0.70</time>
   <energy>
    <i name="alphaZ">     29.45148359 </i>
    <i name="ewald">  -1442.63503769 </i>
    <i name="hartreedc">   -608.06014272 </i>
    <i name="XCdc">    -65.57204983 </i>
    <i name="pawpsdc">   2845.44735995 </i>
    <i name="pawaedc">  -2660.00003378 </i>
    <i name="eentropy">     -0.01122566 </i>
    <i name="bandstr">    -32.60629150 </i>
    <i name="atom">   1859.40581359 </i>
    <i name="e_fr_energy">    -74.58012406 </i>
    <i name="e_wo_entrp">    -74.56889840 </i>
    <i name="e_0_energy">    -74.57451123 </i>
   </energy>
  </scstep>
  <scstep>
   <time name="dav">    0.82    0.84</time>
   <time name="total">    0.96    0.98</time>
   <energy>
    <i name="e_fr_energy">    -58.78854304 </i>
    <i name="e_wo_entrp">    -58.78492679 </i>
    <i name="e_0_energy">    -58.78673491 </i>
   </energy>
  </scstep>
  <scstep>
   <time name="dav">    0.77    0.79</time>
   <time name="total">    0.91    0.93</time>
   <energy>
    <i name="e_fr_energy">    -58.31223641 </i>
    <i name="e_wo_entrp">    -58.31200565 </i>
    <i name="e_0_energy">    -58.31212103 </i>
   </energy>
  </scstep>
  <scstep>
   <time name="dav">    0.77    0.79</time>
   <time name="total">    0.92    0.93</time>
   <energy>
    <i name="e_fr_energy">    -58.24643268 </i>
    <i name="e_wo_entrp">    -58.24492183 </i>
    <i name="e_0_energy">    -58.24567726 </i>
   </energy>
  </scstep>
  <scstep>
   <time name="dav">    0.85    0.87</time>
   <time name="total">    1.00    1.02</time>
   <energy>
    <i name="e_fr_energy">    -58.15234708 </i>
    <i name="e_wo_entrp">    -58.14868216 </i>
    <i name="e_0_energy">    -58.15051462 </i>
   </energy>
  </scstep>
  <scstep>
   <time name="dav">    0.70    0.72</time>
   <time name="total">    0.85    0.86</time>
   <energy>
    <i name="e_fr_energy">    -58.14905289 </i>
    <i name="e_wo_entrp">    -58.14544025 </i>
    <i name="e_0_energy">    -58.14724657 </i>
   </energy>
  </scstep>
  <scstep>
   <time name="dav">    0.75    0.77</time>
   <time name="total">    0.90    0.92</time>
   <energy>
    <i name="e_fr_energy">    -58.14823362 </i>
    <i name="e_wo_entrp">    -58.14469411 </i>
    <i name="e_0_energy">    -58.14646386 </i>
   </energy>
  </scstep>
  <scstep>
   <time name="dav">    0.50    0.51</time>
   <time name="total">    0.63    0.63</time>
   <energy>
    <i name="alphaZ">     29.45148359 </i>
    <i name="ewald">  -1442.63503769 </i>
    <i name="hartreedc">   -500.10524169 </i>
    <i name="XCdc">    -70.02506798 </i>
    <i name="pawpsdc">   3505.99587717 </i>
    <i name="pawaedc">  -3321.28596584 </i>
    <i name="eentropy">     -0.00358036 </i>
    <i name="bandstr">   -118.94649512 </i>
    <i name="atom">   1859.40581359 </i>
    <i name="e_fr_energy">    -58.14821434 </i>
    <i name="e_wo_entrp">    -58.14463398 </i>
    <i name="e_0_energy">    -58.14642416 </i>
   </energy>
  </scstep>
  <structure>
   <crystal>
    <varray name="basis" >
     <v>       6.50769837      -0.03831754      -3.69410587 </v>
     <v>      -2.06409571       6.16886560      -3.69808904 </v>
     <v>       0.09464643       0.12535022       7.75007926 </v>
    </varray>
    <i name="volume">    316.65760751 </i>
    <varray name="rec_basis" >
     <v>       0.15244464       0.04941266      -0.00266091 </v>
     <v>      -0.00052452       0.16037768      -0.00258755 </v>
     <v>       0.07241305       0.10007982       0.12652791 </v>
    </varray>
   </crystal>
   <varray name="positions" >
    <v>       0.98194017       0.50566506       0.29431307 </v>
    <v>       0.21111072       0.01833807       0.70616655 </v>
    <v>      -0.00000000      -0.00000000       0.00000000 </v>
    <v>       0.31182761       0.78886637       0.29385993 </v>
    <v>       0.49408078       0.68703988       0.70551805 </v>
    <v>       0.50591922       0.31296012       0.29448195 </v>
    <v>       0.68817239       0.21113363       0.70614107 </v>
    <v>       0.78888928       0.98166193       0.29383345 </v>
    <v>       0.01805983       0.49433494       0.70568693 </v>
    <v>       0.50000000       0.50000000       0.00000000 </v>
    <v>       0.27160234       0.27149937       0.54546338 </v>
    <v>       0.18504803       0.35116023       0.00086164 </v>
    <v>       0.35072937       0.81495370       0.99994559 </v>
    <v>       0.72839766       0.72850063       0.45453662 </v>
    <v>       0.64927063       0.18504630       0.00005441 </v>
    <v>       0.81495197       0.64883977       0.99913836 </v>
   </varray>
  </structure>
  <varray name="forces" >
   <v>      -0.41015546      -0.55157689      -0.34128781 </v>
   <v>       0.08611687       0.55330295       0.51398091 </v>
   <v>      -0.00000000      -0.00000000       0.00000000 </v>
   <v>      -0.19247773      -0.26242783      -0.69277358 </v>
   <v>       0.49475994       0.26369328       0.52742205 </v>
   <v>      -0.49475994      -0.26369328      -0.52742205 </v>
   <v>       0.19247773       0.26242783       0.69277358 </v>
   <v>      -0.08611687      -0.55330295      -0.51398091 </v>
   <v>       0.41015546       0.55157689       0.34128781 </v>
   <v>      -0.00000000      -0.00000000       0.00000000 </v>
   <v>      -1.12124749      -1.54040897      -1.91752801 </v>
   <v>      -1.40811002      -0.78500451       1.48708411 </v>
   <v>      -1.42410580       1.63001437      -0.49287885 </v>
   <v>       1.12124749       1.54040897       1.91752801 </v>
   <v>       1.42410580      -1.63001437       0.49287885 </v>
   <v>       1.40811002       0.78500451      -1.48708411 </v>
  </varray>
  <varray name="stress" >
   <v>       6.00826580       0.60815000       1.35900476 </v>
   <v>       0.60814702       6.62125752       1.41828026 </v>
   <v>       1.35900585       1.41827769       6.94954867 </v>
  </varray>
  <energy>
   <i name="e_fr_energy">    -58.14821434 </i>
   <i name="e_wo_entrp">    -58.14642416 </i>
   <i name="e_0_energy">     -0.00358036 </i>
  </energy>
  <time name="totalsc">    7.84    8.20</time>
 </calculation>
 <calculation>
  <scstep>
   <time name="dav">    0.60    0.62</time>
   <time name="total">    0.76    0.81</time>
   <energy>
    <i name="alphaZ">     30.59076133 </i>
    <i name="ewald">  -1483.66277188 </i>
    <i name="hartreedc">   -485.10200722 </i>
    <i name="XCdc">    -69.07236794 </i>
    <i name="pawpsdc">   3502.90766183 </i>
    <i name="pawaedc">  -3318.19368103 </i>
    <i name="eentropy">     -0.00333179 </i>
    <i name="bandstr">    -96.18784122 </i>
    <i name="atom">   1859.40581359 </i>
    <i name="e_fr_energy">    -59.31776434 </i>
    <i name="e_wo_entrp">    -59.31443255 </i>
    <i name="e_0_energy">    -59.31609844 </i>
   </energy>
  </scstep>
  <scstep>
   <time name="dav">    0.86    0.88</time>
   <time name="total">    1.01    1.03</time>
   <energy>
    <i name="e_fr_energy">    -59.12645554 </i>
    <i name="e_wo_entrp">    -59.12614620 </i>
    <i name="e_0_energy">    -59.12630087 </i>
   </energy>
  </scstep>
  <scstep>
   <time name="dav">    0.86    0.88</time>
   <time name="total">    1.01    1.03</time>
   <energy>
    <i name="e_fr_energy">    -59.10255636 </i>
    <i name="e_wo_entrp">    -59.10252208 </i>
    <i name="e_0_energy">    -59.10253922 </i>
   </energy>
  </scstep>
  <scstep>
   <time name="dav">    0.72    0.74</time>
   <time name="total">    0.87    0.89</time>
   <energy>
    <i name="e_fr_energy">    -59.09932166 </i>
    <i name="e_wo_entrp">    -59.09928725 </i>
    <i name="e_0_energy">    -59.09930445 </i>
   </energy>
  </scstep>
  <scstep>
   <time name="dav">    0.53    0.53</time>
   <time name="total">    0.67    0.68</time>
   <energy>
    <i name="e_fr_energy">    -59.09876100 </i>
    <i name="e_wo_entrp">    -59.09873018 </i>
    <i name="e_0_energy">    -59.09874559 </i>
   </energy>
  </scstep>
  <scstep>
   <time name="dav">    0.69    0.70</time>
   <time name="total">    0.81    0.82</time>
   <energy>
    <i name="alphaZ">     30.59076133 </i>
    <i name="ewald">  -1483.66277188 </i>
    <i name="hartreedc">   -469.87106525 </i>
    <i name="XCdc">    -69.66664507 </i>
    <i name="pawpsdc">   3542.04292635 </i>
    <i name="pawaedc">  -3357.31827578 </i>
    <i name="eentropy">     -0.00002958 </i>
    <i name="bandstr">   -110.61939823 </i>
    <i name="atom">   1859.40581359 </i>
    <i name="e_fr_energy">    -59.09868453 </i>
    <i name="e_wo_entrp">    -59.09865495 </i>
    <i name="e_0_energy">    -59.09866974 </i>
   </energy>
  </scstep>
  <structure>
   <crystal>
    <varray name="basis" >
     <v>       6.42558910      -0.03860744      -3.64674241 </v>
     <v>      -2.03938277       6.09161222      -3.65173254 </v>
     <v>       0.09440011       0.12376471       7.65240877 </v>
    </varray>
    <i name="volume">    304.86447299 </i>
    <varray name="rec_basis" >
     <v>       0.15438815       0.05005984      -0.00271416 </v>
     <v>      -0.00051137       0.16241803      -0.00262053 </v>
     <v>       0.07332939       0.10136188       0.12813386 </v>
    </varray>
   </crystal>
   <varray name="positions" >
    <v>       0.97783866       0.50216464       0.28893626 </v>
    <v>       0.21294055       0.02238973       0.71149751 </v>
    <v>      -0.00000000      -0.00000000       0.00000000 </v>
    <v>       0.31050897       0.78700778       0.28849813 </v>
    <v>       0.49756822       0.68837009       0.71092640 </v>
    <v>       0.50243178       0.31162991       0.28907360 </v>
    <v>       0.68949103       0.21299222       0.71150287 </v>
    <v>       0.78705945       0.97761027       0.28850249 </v>
    <v>       0.02216134       0.49783536       0.71106374 </v>
    <v>       0.50000000       0.50000000       0.00000000 </v>
    <v>       0.26499237       0.26492188       0.53251460 </v>
    <v>       0.17847563       0.34749304       0.00110214 </v>
    <v>       0.34687710       0.82165178       0.99989330 </v>
    <v>       0.73500763       0.73507812       0.46748540 </v>
    <v>       0.65312290       0.17834822       0.00010670 </v>
    <v>       0.82152437       0.65250696       0.99889786 </v>
   </varray>
  </structure>
  <varray name="forces" >
   <v>      -0.27309358      -0.49500117      -0.31799781 </v>
   <v>       0.06572787       0.40724908       0.49192096 </v>
   <v>      -0.00000000      -0.00000000       0.00000000 </v>
   <v>      -0.24181310      -0.19750362      -0.56873824 </v>
   <v>       0.42616101       0.28987129       0.40025995 </v>
   <v>      -0.42616101      -0.28987129      -0.40025995 </v>
   <v>       0.24181310       0.19750362       0.56873824 </v>
   <v>      -0.06572787      -0.40724908      -0.49192096 </v>
   <v>       0.27309358       0.49500117       0.31799781 </v>
   <v>      -0.00000000      -0.00000000       0.00000000 </v>
   <v>      -0.88543284      -1.22009596      -1.54143588 </v>
   <v>      -1.23126544      -0.62162916       1.25310095 </v>
   <v>      -1.17448457       1.40760063      -0.42632106 </v>
   <v>       0.88543284       1.22009596       1.54143588 </v>
   <v>       1.17448457      -1.40760063       0.42632106 </v>
   <v>       1.23126544       0.62162916      -1.25310095 </v>
  </varray>
  <varray name="stress" >
   <v>       9.30794949       0.06051404       0.54998085 </v>
   <v>       0.06051168       9.25121300       0.26677132 </v>
   <v>       0.54998139       0.26676963       9.64634064 </v>
  </varray>
  <energy>
   <i name="e_fr_energy">    -59.09868453 </i>
   <i name="e_wo_entrp">    -59.09866974 </i>
   <i name="e_0_energy">     -0.00002958 </i>
  </energy>
  <time name="totalsc">    6.26    6.48</time>
 </calculation>
 <calculation>
  <scstep>
   <time name="dav">    0.56    0.57</time>
   <time name="total">    0.72    0.77</time>
   <energy>
    <i name="alphaZ">     34.38184496 </i>
    <i name="ewald">  -1587.47945941 </i>
    <i name="hartreedc">   -443.46565510 </i>
    <i name="XCdc">    -66.70193339 </i>
    <i name="pawpsdc">   3523.74136089 </i>
    <i name="pawaedc">  -3339.02087051 </i>
    <i name="eentropy">     -0.00337381 </i>
    <i name="bandstr">    -43.30037138 </i>
    <i name="atom">   1859.40581359 </i>
    <i name="e_fr_energy">    -62.44264416 </i>
    <i name="e_wo_entrp">    -62.43927035 </i>
    <i name="e_0_energy">    -62.44095726 </i>
   </energy>
  </scstep>
  <scstep>
   <time name="dav">    0.86    0.88</time>
   <time name="total">    1.00    1.02</time>
   <energy>
    <i name="e_fr_energy">    -60.72606011 </i>
    <i name="e_wo_entrp">    -60.72606011 </i>
    <i name="e_0_energy">    -60.72606011 </i>
   </energy>
  </scstep>
  <scstep>
   <time name="dav">    0.80    0.82</time>
   <time name="total">    0.94    0.96</time>
   <energy>
    <i name="e_fr_energy">    -60.47173469 </i>
    <i name="e_wo_entrp">    -60.47173469 </i>
    <i name="e_0_energy">    -60.47173469 </i>
   </energy>
  </scstep>
  <scstep>
   <time name="dav">    0.53    0.54</time>
   <time name="total">    0.67    0.68</time>
   <energy>
    <i name="e_fr_energy">    -60.45829539 </i>
    <i name="e_wo_entrp">    -60.45829539 </i>
    <i name="e_0_energy">    -60.45829539 </i>
   </energy>
  </scstep>
  <scstep>
   <time name="dav">    0.88    0.90</time>
   <time name="total">    1.03    1.05</time>
   <energy>
    <i name="e_fr_energy">    -60.44381648 </i>
    <i name="e_wo_entrp">    -60.44381648 </i>
    <i name="e_0_energy">    -60.44381648 </i>
   </energy>
  </scstep>
  <scstep>
   <time name="dav">    0.78    0.79</time>
   <time name="total">    0.92    0.93</time>
   <energy>
    <i name="e_fr_energy">    -60.44410187 </i>
    <i name="e_wo_entrp">    -60.44410187 </i>
    <i name="e_0_energy">    -60.44410187 </i>
   </energy>
  </scstep>
  <scstep>
   <time name="dav">    0.79    0.80</time>
   <time name="total">    0.92    0.92</time>
   <energy>
    <i name="alphaZ">     34.38184496 </i>
    <i name="ewald">  -1587.47945941 </i>
    <i name="hartreedc">   -398.76509844 </i>
    <i name="XCdc">    -68.42980248 </i>
    <i name="pawpsdc">   3684.52149151 </i>
    <i name="pawaedc">  -3499.87867215 </i>
    <i name="eentropy">     -0.00000000 </i>
    <i name="bandstr">    -84.20020050 </i>
    <i name="atom">   1859.40581359 </i>
    <i name="e_fr_energy">    -60.44408293 </i>
    <i name="e_wo_entrp">    -60.44408293 </i>
    <i name="e_0_energy">    -60.44408293 </i>
   </energy>
  </scstep>
  <structure>
   <crystal>
    <varray name="basis" >
     <v>       6.17926128      -0.03947713      -3.50465205 </v>
     <v>      -1.96524393       5.85985208      -3.51266302 </v>
     <v>       0.09366113       0.11900819       7.35939732 </v>
    </varray>
    <i name="volume">    271.24886236 </i>
    <varray name="rec_basis" >
     <v>       0.16052792       0.05210717      -0.00288562 </v>
     <v>      -0.00046656       0.16886297      -0.00272473 </v>
     <v>       0.07622304       0.10541301       0.13320600 </v>
    </varray>
   </crystal>
   <varray name="positions" >
    <v>       0.96537690       0.49152860       0.27260046 </v>
    <v>       0.21850025       0.03469959       0.72769425 </v>
    <v>      -0.00000000      -0.00000000       0.00000000 </v>
    <v>       0.30650374       0.78136080       0.27220818 </v>
    <v>       0.50816299       0.69241270       0.72735755 </v>
    <v>       0.49183701       0.30758730       0.27264245 </v>
    <v>       0.69349626       0.21863920       0.72779282 </v>
    <v>       0.78149975       0.96530041       0.27230575 </v>
    <v>       0.03462310       0.50847140       0.72739954 </v>
    <v>       0.50000000       0.50000000       0.00000000 </v>
    <v>       0.24491047       0.24493656       0.49317397 </v>
    <v>       0.15850359       0.33634941       0.00183228 </v>
    <v>       0.33517572       0.84199933       0.99973622 </v>
    <v>       0.75508953       0.75506344       0.50682603 </v>
    <v>       0.66482428       0.15800067       0.00026378 </v>
    <v>       0.84149641       0.66365059       0.99816772 </v>
   </varray>
  </structure>
  <varray name="forces" >
   <v>       0.25218966      -0.15679683      -0.17887447 </v>
   <v>       0.01150336      -0.19455396       0.29738751 </v>
   <v>      -0.00000000       0.00000000       0.00000000 </v>
   <v>      -0.35534463       0.03940489       0.00943052 </v>
   <v>       0.05416020       0.32562563      -0.12878936 </v>
   <v>      -0.05416020      -0.32562563       0.12878936 </v>
   <v>       0.35534463      -0.03940489      -0.00943052 </v>
   <v>      -0.01150336       0.19455396      -0.29738751 </v>
   <v>      -0.25218966       0.15679683       0.17887447 </v>
   <v>      -0.00000000       0.00000000       0.00000000 </v>
   <v>      -0.20027243      -0.26906635      -0.29033219 </v>
   <v>      -0.66552046      -0.01345524       0.43597290 </v>
   <v>      -0.24237819       0.68287056      -0.36713810 </v>
   <v>       0.20027243       0.26906635       0.29033219 </v>
   <v>       0.24237819      -0.68287056       0.36713810 </v>
   <v>       0.66552046       0.01345524      -0.43597290 </v>
  </varray>
  <varray name="stress" >
   <v>      33.10794774      -0.66664666      -1.37222679 </v>
   <v>      -0.66664666      31.72878817      -2.24708994 </v>
   <v>      -1.37222735      -2.24709080      31.17846016 </v>
  </varray>
  <energy>
   <i name="e_fr_energy">    -60.44408293 </i>
   <i name="e_wo_entrp">    -60.44408293 </i>
   <i name="e_0_energy">     -0.00000000 </i>
  </energy>
  <time name="totalsc">    7.13    7.39</time>
 </calculation>
 <calculation>
  <scstep>
   <time name="dav">    0.54    0.55</time>
   <time name="total">    0.70    0.76</time>
   <energy>
    <i name="alphaZ">     32.86486197 </i>
    <i name="ewald">  -1568.98983756 </i>
    <i name="hartreedc">   -388.70718316 </i>
    <i name="XCdc">    -69.95354378 </i>
    <i name="pawpsdc">   3680.23498996 </i>
    <i name="pawaedc">  -3495.58851841 </i>
    <i name="eentropy">     -0.00000000 </i>
    <i name="bandstr">   -110.31733084 </i>
    <i name="atom">   1859.40581359 </i>
    <i name="e_fr_energy">    -61.05074822 </i>
    <i name="e_wo_entrp">    -61.05074822 </i>
    <i name="e_0_energy">    -61.05074822 </i>
   </energy>
  </scstep>
  <scstep>
   <time name="dav">    0.60    0.60</time>
   <time name="total">    0.74    0.74</time>
   <energy>
    <i name="e_fr_energy">    -60.73048909 </i>
    <i name="e_wo_entrp">    -60.73048909 </i>
    <i name="e_0_energy">    -60.73048909 </i>
   </energy>
  </scstep>
  <scstep>
   <time name="dav">    0.73    0.73</time>
   <time name="total">    0.88    0.88</time>
   <energy>
    <i name="e_fr_energy">    -60.69786581 </i>
    <i name="e_wo_entrp">    -60.69786581 </i>
    <i name="e_0_energy">    -60.69786581 </i>
   </energy>
  </scstep>
  <scstep>
   <time name="dav">    0.84    0.85</time>
   <time name="total">    0.99    1.00</time>
   <energy>
    <i name="e_fr_energy">    -60.69329336 </i>
    <i name="e_wo_entrp">    -60.69329336 </i>
    <i name="e_0_energy">    -60.69329336 </i>
   </energy>
  </scstep>
  <scstep>
   <time name="dav">    0.70    0.71</time>
   <time name="total">    0.85    0.86</time>
   <energy>
    <i name="e_fr_energy">    -60.69191502 </i>
    <i name="e_wo_entrp">    -60.69191502 </i>
    <i name="e_0_energy">    -60.69191502 </i>
   </energy>
  </scstep>
  <scstep>
   <time name="dav">    0.74    0.75</time>
   <time name="total">    0.87    0.88</time>
   <energy>
    <i name="alphaZ">     32.86486197 </i>
    <i name="ewald">  -1568.98983756 </i>
    <i name="hartreedc">   -404.29619835 </i>
    <i name="XCdc">    -69.26984248 </i>
    <i name="pawpsdc">   3481.34443629 </i>
    <i name="pawaedc">  -3296.50405886 </i>
    <i name="eentropy">     -0.00000000 </i>
    <i name="bandstr">    -95.24709476 </i>
    <i name="atom">   1859.40581359 </i>
    <i name="e_fr_energy">    -60.69192016 </i>
    <i name="e_wo_entrp">    -60.69192016 </i>
    <i name="e_0_energy">    -60.69192016 </i>
   </energy>
  </scstep>
  <structure>
   <crystal>
    <varray name="basis" >
     <v>       6.27825323      -0.03832243      -3.56031662 </v>
     <v>      -1.99555388       5.95212011      -3.56935609 </v>
     <v>       0.09043576       0.11320487       7.46798077 </v>
    </varray>
    <i name="volume">    283.76922252 </i>
    <varray name="rec_basis" >
     <v>       0.15806643       0.05137964      -0.00269300 </v>
     <v>      -0.00041179       0.16636002      -0.00251681 </v>
     <v>       0.07516044       0.10400749       0.13141821 </v>
    </varray>
   </crystal>
   <varray name="positions" >
    <v>       0.96697372       0.49055183       0.27191996 </v>
    <v>       0.21802546       0.03306868       0.72832697 </v>
    <v>      -0.00000000       0.00000000       0.00000000 </v>
    <v>       0.30418270       0.78173502       0.27150357 </v>
    <v>       0.50913722       0.69474587       0.72804384 </v>
    <v>       0.49086278       0.30525413       0.27195616 </v>
    <v>       0.69581730       0.21826498       0.72849743 </v>
    <v>       0.78197454       0.96693132       0.27167303 </v>
    <v>       0.03302628       0.50944817       0.72808004 </v>
    <v>       0.50000000       0.50000000       0.00000000 </v>
    <v>       0.24323737       0.24329594       0.49017748 </v>
    <v>       0.15408595       0.33637229       0.00207812 </v>
    <v>       0.33524451       0.84674176       0.99993738 </v>
    <v>       0.75676263       0.75670406       0.50982252 </v>
    <v>       0.66475549       0.15325824       0.00006262 </v>
    <v>       0.84591405       0.66362771       0.99792188 </v>
   </varray>
  </structure>
  <varray name="forces" >
   <v>       0.13261506      -0.25510228      -0.18455089 </v>
   <v>      -0.00671075      -0.05189077       0.34389891 </v>
   <v>      -0.00000000      -0.00000000      -0.00000000 </v>
   <v>      -0.32717530       0.01404537      -0.13458022 </v>
   <v>       0.16529485       0.30810059      -0.02113589 </v>
   <v>      -0.16529485      -0.30810059       0.02113589 </v>
   <v>       0.32717530      -0.01404537       0.13458022 </v>
   <v>       0.00671075       0.05189077      -0.34389891 </v>
   <v>      -0.13261506       0.25510228       0.18455089 </v>
   <v>      -0.00000000      -0.00000000      -0.00000000 </v>
   <v>      -0.03882366      -0.04643574       0.00141199 </v>
   <v>      -0.18312891       0.07953567       0.09668778 </v>
   <v>       0.00412718       0.17668961      -0.12004084 </v>
   <v>       0.03882366       0.04643574      -0.00141199 </v>
   <v>      -0.00412718      -0.17668961       0.12004084 </v>
   <v>       0.18312891      -0.07953567      -0.09668778 </v>
  </varray>
  <varray name="stress" >
   <v>       3.86357501       0.45932305      -0.25141232 </v>
   <v>       0.45932329       3.49965467      -0.66711889 </v>
   <v>      -0.25141238      -0.66711928       3.05069909 </v>
  </varray>
  <energy>
   <i name="e_fr_energy">    -60.69192016 </i>
   <i name="e_wo_entrp">    -60.69192016 </i>
   <i name="e_0_energy">     -0.00000000 </i>
  </energy>
  <time name="totalsc">    5.97    6.15</time>
 </calculation>
 <calculation>
  <scstep>
   <time name="dav">    0.68    0.70</time>
   <time name="total">    0.83    0.89</time>
   <energy>
    <i name="alphaZ">     32.38981223 </i>
    <i name="ewald">  -1562.88908276 </i>
    <i name="hartreedc">   -401.14941763 </i>
    <i name="XCdc">    -69.76178605 </i>
    <i name="pawpsdc">   3492.95343510 </i>
    <i name="pawaedc">  -3308.10452319 </i>
    <i name="eentropy">     -0.00000000 </i>
    <i name="bandstr">   -103.58978006 </i>
    <i name="atom">   1859.40581359 </i>
    <i name="e_fr_energy">    -60.74552877 </i>
    <i name="e_wo_entrp">    -60.74552877 </i>
    <i name="e_0_energy">    -60.74552877 </i>
   </energy>
  </scstep>
  <scstep>
   <time name="dav">    0.83    0.85</time>
   <time name="total">    0.98    1.00</time>
   <energy>
    <i name="e_fr_energy">    -60.71147419 </i>
    <i name="e_wo_entrp">    -60.71147419 </i>
    <i name="e_0_energy">    -60.71147419 </i>
   </energy>
  </scstep>
  <scstep>
   <time name="dav">    0.74    0.76</time>
   <time name="total">    0.89    0.91</time>
   <energy>
    <i name="e_fr_energy">    -60.70821767 </i>
    <i name="e_wo_entrp">    -60.70821767 </i>
    <i name="e_0_energy">    -60.70821767 </i>
   </energy>
  </scstep>
  <scstep>
   <time name="dav">    0.75    0.77</time>
   <time name="total">    0.90    0.92</time>
   <energy>
    <i name="e_fr_energy">    -60.70775330 </i>
    <i name="e_wo_entrp">    -60.70775330 </i>
    <i name="e_0_energy">    -60.70775330 </i>
   </energy>
  </scstep>
  <scstep>
   <time name="dav">    0.84    0.85</time>
   <time name="total">    0.98    1.00</time>
   <energy>
    <i name="e_fr_energy">    -60.70756980 </i>
    <i name="e_wo_entrp">    -60.70756980 </i>
    <i name="e_0_energy">    -60.70756980 </i>
   </energy>
  </scstep>
  <scstep>
   <time name="dav">    0.56    0.57</time>
   <time name="total">    0.68    0.70</time>
   <energy>
    <i name="alphaZ">     32.38981223 </i>
    <i name="ewald">  -1562.88908276 </i>
    <i name="hartreedc">   -406.22969685 </i>
    <i name="XCdc">    -69.53753197 </i>
    <i name="pawpsdc">   3437.77439509 </i>
    <i name="pawaedc">  -3252.86987509 </i>
    <i name="eentropy">     -0.00000000 </i>
    <i name="bandstr">    -98.75139864 </i>
    <i name="atom">   1859.40581359 </i>
    <i name="e_fr_energy">    -60.70756440 </i>
    <i name="e_wo_entrp">    -60.70756440 </i>
    <i name="e_0_energy">    -60.70756440 </i>
   </energy>
  </scstep>
  <structure>
   <crystal>
    <varray name="basis" >
     <v>       6.31051510      -0.03794611      -3.57845792 </v>
     <v>      -2.00543202       5.98219063      -3.58783258 </v>
     <v>       0.08938460       0.11131354       7.50336855 </v>
    </varray>
    <i name="volume">    287.93116382 </i>
    <varray name="rec_basis" >
     <v>       0.15728049       0.05114694      -0.00263239 </v>
     <v>      -0.00039456       0.16556033      -0.00245141 </v>
     <v>       0.07482053       0.10355748       0.13084588 </v>
    </varray>
   </crystal>
   <varray name="positions" >
    <v>       0.96748567       0.49023801       0.27170099 </v>
    <v>       0.21787346       0.03254570       0.72853038 </v>
    <v>      -0.00000000       0.00000000       0.00000000 </v>
    <v>       0.30343799       0.78185503       0.27127722 </v>
    <v>       0.50944986       0.69549465       0.72826453 </v>
    <v>       0.49055014       0.30450535       0.27173547 </v>
    <v>       0.69656201       0.21814497       0.72872378 </v>
    <v>       0.78212654       0.96745430       0.27146962 </v>
    <v>       0.03251433       0.50976199       0.72829901 </v>
    <v>       0.50000000       0.50000000       0.00000000 </v>
    <v>       0.24269973       0.24276850       0.48921408 </v>
    <v>       0.15266914       0.33638016       0.00215752 </v>
    <v>       0.33526649       0.84826345       0.00000225 </v>
    <v>       0.75730027       0.75723150       0.51078592 </v>
    <v>       0.66473351       0.15173655      -0.00000225 </v>
    <v>       0.84733086       0.66361984       0.99784248 </v>
   </varray>
  </structure>
  <varray name="forces" >
   <v>       0.10093850      -0.28316779      -0.18721211 </v>
   <v>      -0.01274488      -0.01314092       0.35874723 </v>
   <v>       0.00000000       0.00000000      -0.00000000 </v>
   <v>      -0.32001698       0.00949059      -0.17688176 </v>
   <v>       0.19623040       0.30479341       0.00835375 </v>
   <v>      -0.19623040      -0.30479341      -0.00835375 </v>
   <v>       0.32001698      -0.00949059       0.17688176 </v>
   <v>       0.01274488       0.01314092      -0.35874723 </v>
   <v>      -0.10093850       0.28316779       0.18721211 </v>
   <v>       0.00000000       0.00000000       0.00000000 </v>
   <v>       0.02293285       0.03722422       0.08270638 </v>
   <v>      -0.04390524       0.09597943       0.01066222 </v>
   <v>       0.06005473       0.03614877      -0.05225069 </v>
   <v>      -0.02293285      -0.03722422      -0.08270638 </v>
   <v>      -0.06005473      -0.03614877       0.05225069 </v>
   <v>       0.04390524      -0.09597943      -0.01066222 </v>
  </varray>
  <varray name="stress" >
   <v>      -4.13990209       0.40111839       0.15913420 </v>
   <v>       0.40111834      -4.59327418      -0.21520556 </v>
   <v>       0.15913379      -0.21520551      -4.65911716 </v>
  </varray>
  <energy>
   <i name="e_fr_energy">    -60.70756440 </i>
   <i name="e_wo_entrp">    -60.70756440 </i>
   <i name="e_0_energy">     -0.00000000 </i>
  </energy>
  <time name="totalsc">    6.24    6.49</time>
 </calculation>
 <calculation>
  <scstep>
   <time name="dav">    0.62    0.63</time>
   <time name="total">    0.78    0.86</time>
   <energy>
    <i name="alphaZ">     32.43004881 </i>
    <i name="ewald">  -1563.09775482 </i>
    <i name="hartreedc">   -406.50004248 </i>
    <i name="XCdc">    -69.49442880 </i>
    <i name="pawpsdc">   3441.33307159 </i>
    <i name="pawaedc">  -3256.42599666 </i>
    <i name="eentropy">     -0.00000000 </i>
    <i name="bandstr">    -98.41135866 </i>
    <i name="atom">   1859.40581359 </i>
    <i name="e_fr_energy">    -60.76064742 </i>
    <i name="e_wo_entrp">    -60.76064742 </i>
    <i name="e_0_energy">    -60.76064742 </i>
   </energy>
  </scstep>
  <scstep>
   <time name="dav">    0.82    0.83</time>
   <time name="total">    0.97    0.98</time>
   <energy>
    <i name="e_fr_energy">    -60.76180001 </i>
    <i name="e_wo_entrp">    -60.76180001 </i>
    <i name="e_0_energy">    -60.76180001 </i>
   </energy>
  </scstep>
  <scstep>
   <time name="dav">    0.88    0.89</time>
   <time name="total">    1.03    1.04</time>
   <energy>
    <i name="e_fr_energy">    -60.76167569 </i>
    <i name="e_wo_entrp">    -60.76167569 </i>
    <i name="e_0_energy">    -60.76167569 </i>
   </energy>
  </scstep>
  <scstep>
   <time name="dav">    0.59    0.59</time>
   <time name="total">    0.71    0.72</time>
   <energy>
    <i name="alphaZ">     32.43004881 </i>
    <i name="ewald">  -1563.09775482 </i>
    <i name="hartreedc">   -406.10757731 </i>
    <i name="XCdc">    -69.50268937 </i>
    <i name="pawpsdc">   3450.33416165 </i>
    <i name="pawaedc">  -3265.42955165 </i>
    <i name="eentropy">     -0.00000000 </i>
    <i name="bandstr">    -98.79407292 </i>
    <i name="atom">   1859.40581359 </i>
    <i name="e_fr_energy">    -60.76162202 </i>
    <i name="e_wo_entrp">    -60.76162202 </i>
    <i name="e_0_energy">    -60.76162202 </i>
   </energy>
  </scstep>
  <structure>
   <crystal>
    <varray name="basis" >
     <v>       6.30934182      -0.03599684      -3.57641881 </v>
     <v>      -2.00405974       5.97974094      -3.58725835 </v>
     <v>       0.08941108       0.10947419       7.49912780 </v>
    </varray>
    <i name="volume">    287.57392209 </i>
    <varray name="rec_basis" >
     <v>       0.15730061       0.05114497      -0.00262210 </v>
     <v>      -0.00042278       0.16564204      -0.00241304 </v>
     <v>       0.07481620       0.10362760       0.13094404 </v>
    </varray>
   </crystal>
   <varray name="positions" >
    <v>       0.96776784       0.48797891       0.26948703 </v>
    <v>       0.21764876       0.03220568       0.73066279 </v>
    <v>      -0.00000000       0.00000000       0.00000000 </v>
    <v>       0.30088007       0.78199896       0.26906796 </v>
    <v>       0.51170700       0.69809939       0.73052844 </v>
    <v>       0.48829300       0.30190061       0.26947156 </v>
    <v>       0.69911993       0.21800104       0.73093304 </v>
    <v>       0.78235124       0.96779432       0.26933721 </v>
    <v>       0.03223216       0.51202109       0.73051297 </v>
    <v>       0.50000000       0.50000000       0.00000000 </v>
    <v>       0.24273811       0.24284104       0.48960086 </v>
    <v>       0.15203519       0.33711445       0.00255851 </v>
    <v>       0.33580123       0.84912467       0.00009152 </v>
    <v>       0.75726189       0.75715896       0.51039914 </v>
    <v>       0.66419877       0.15087533      -0.00009152 </v>
    <v>       0.84796481       0.66288555       0.99744149 </v>
   </varray>
  </structure>
  <varray name="forces" >
   <v>       0.11630859      -0.26345821      -0.16569460 </v>
   <v>      -0.02413949      -0.03396277       0.33729445 </v>
   <v>       0.00000000       0.00000000      -0.00000000 </v>
   <v>      -0.31293735       0.02687849      -0.14898187 </v>
   <v>       0.17875083       0.29173771      -0.01785307 </v>
   <v>      -0.17875083      -0.29173771       0.01785307 </v>
   <v>       0.31293735      -0.02687849       0.14898187 </v>
   <v>       0.02413949       0.03396277      -0.33729445 </v>
   <v>      -0.11630859       0.26345821       0.16569460 </v>
   <v>       0.00000000       0.00000000      -0.00000000 </v>
   <v>       0.00698474       0.02109739       0.06463883 </v>
   <v>      -0.00513947       0.07992534       0.00419684 </v>
   <v>       0.05909702       0.01096616      -0.03439005 </v>
   <v>      -0.00698474      -0.02109739      -0.06463883 </v>
   <v>      -0.05909702      -0.01096616       0.03439005 </v>
   <v>       0.00513947      -0.07992534      -0.00419684 </v>
  </varray>
  <varray name="stress" >
   <v>      -3.96204299       0.67358325       0.69477887 </v>
   <v>       0.67358369      -4.17801445       0.36085331 </v>
   <v>       0.69477820       0.36085325      -3.89681440 </v>
  </varray>
  <energy>
   <i name="e_fr_energy">    -60.76162202 </i>
   <i name="e_wo_entrp">    -60.76162202 </i>
   <i name="e_0_energy">     -0.00000000 </i>
  </energy>
  <time name="totalsc">    4.67    4.93</time>
 </calculation>
 <calculation>
  <scstep>
   <time name="dav">    0.57    0.58</time>
   <time name="total">    0.72    0.76</time>
   <energy>
    <i name="alphaZ">     32.55120910 </i>
    <i name="ewald">  -1563.45615652 </i>
    <i name="hartreedc">   -407.03144906 </i>
    <i name="XCdc">    -69.36853991 </i>
    <i name="pawpsdc">   3450.95866362 </i>
    <i name="pawaedc">  -3266.05621288 </i>
    <i name="eentropy">     -0.00000000 </i>
    <i name="bandstr">    -97.89284937 </i>
    <i name="atom">   1859.40581359 </i>
    <i name="e_fr_energy">    -60.88952143 </i>
    <i name="e_wo_entrp">    -60.88952143 </i>
    <i name="e_0_energy">    -60.88952143 </i>
   </energy>
  </scstep>
  <scstep>
   <time name="dav">    0.69    0.71</time>
   <time name="total">    0.83    0.85</time>
   <energy>
    <i name="e_fr_energy">    -60.89950916 </i>
    <i name="e_wo_entrp">    -60.89950916 </i>
    <i name="e_0_energy">    -60.89950916 </i>
   </energy>
  </scstep>
  <scstep>
   <time name="dav">    0.75    0.76</time>
   <time name="total">    0.89    0.91</time>
   <energy>
    <i name="e_fr_energy">    -60.89834591 </i>
    <i name="e_wo_entrp">    -60.89834591 </i>
    <i name="e_0_energy">    -60.89834591 </i>
   </energy>
  </scstep>
  <scstep>
   <time name="dav">    0.80    0.80</time>
   <time name="total">    0.94    0.94</time>
   <energy>
    <i name="e_fr_energy">    -60.89792055 </i>
    <i name="e_wo_entrp">    -60.89792055 </i>
    <i name="e_0_energy">    -60.89792055 </i>
   </energy>
  </scstep>
  <scstep>
   <time name="dav">    0.78    0.79</time>
   <time name="total">    0.91    0.91</time>
   <energy>
    <i name="alphaZ">     32.55120910 </i>
    <i name="ewald">  -1563.45615652 </i>
    <i name="hartreedc">   -405.89421230 </i>
    <i name="XCdc">    -69.38501352 </i>
    <i name="pawpsdc">   3477.91386345 </i>
    <i name="pawaedc">  -3293.02276174 </i>
    <i name="eentropy">     -0.00000000 </i>
    <i name="bandstr">    -99.01068924 </i>
    <i name="atom">   1859.40581359 </i>
    <i name="e_fr_energy">    -60.89794718 </i>
    <i name="e_wo_entrp">    -60.89794718 </i>
    <i name="e_0_energy">    -60.89794718 </i>
   </energy>
  </scstep>
  <structure>
   <crystal>
    <varray name="basis" >
     <v>       6.30582197      -0.03014904      -3.57030149 </v>
     <v>      -1.99994291       5.97239187      -3.58553565 </v>
     <v>       0.08949053       0.10395615       7.48640555 </v>
    </varray>
    <i name="volume">    286.50353055 </i>
    <varray name="rec_basis" >
     <v>       0.15736101       0.05113903      -0.00259117 </v>
     <v>      -0.00050766       0.16588783      -0.00229745 </v>
     <v>       0.07480306       0.10383868       0.13123937 </v>
    </varray>
   </crystal>
   <varray name="positions" >
    <v>       0.96861452       0.48119663       0.26283936 </v>
    <v>       0.21697520       0.03118729       0.73706496 </v>
    <v>      -0.00000000       0.00000000       0.00000000 </v>
    <v>       0.29320504       0.78243140       0.26243823 </v>
    <v>       0.51847886       0.70591662       0.73732323 </v>
    <v>       0.48152114       0.29408338       0.26267677 </v>
    <v>       0.70679496       0.21756860       0.73756277 </v>
    <v>       0.78302480       0.96881271       0.26293504 </v>
    <v>       0.03138548       0.51880337       0.73716064 </v>
    <v>       0.50000000       0.50000000       0.00000000 </v>
    <v>       0.24285334       0.24305907       0.49076203 </v>
    <v>       0.15013306       0.33931920       0.00376328 </v>
    <v>       0.33740537       0.85170895       0.00035910 </v>
    <v>       0.75714666       0.75694093       0.50923797 </v>
    <v>       0.66259463       0.14829105      -0.00035910 </v>
    <v>       0.84986694       0.66068080       0.99623672 </v>
   </varray>
  </structure>
  <varray name="forces" >
   <v>       0.15799145      -0.19756657      -0.09464869 </v>
   <v>      -0.06271973      -0.09309838       0.26514719 </v>
   <v>      -0.00000000      -0.00000000      -0.00000000 </v>
   <v>      -0.28247311       0.08525283      -0.06401904 </v>
   <v>       0.12720853       0.24378574      -0.09314258 </v>
   <v>      -0.12720853      -0.24378574       0.09314258 </v>
   <v>       0.28247311      -0.08525283       0.06401904 </v>
   <v>       0.06271973       0.09309838      -0.26514719 </v>
   <v>      -0.15799145       0.19756657       0.09464869 </v>
   <v>      -0.00000000      -0.00000000      -0.00000000 </v>
   <v>      -0.03793492      -0.03933040       0.00948871 </v>
   <v>       0.11038249       0.04531647      -0.03242102 </v>
   <v>       0.04003016      -0.06717444       0.01781193 </v>
   <v>       0.03793492       0.03933040      -0.00948871 </v>
   <v>      -0.04003016       0.06717444      -0.01781193 </v>
   <v>      -0.11038249      -0.04531647       0.03242102 </v>
  </varray>
  <varray name="stress" >
   <v>      -2.70364526       1.45885608       2.06582365 </v>
   <v>       1.45885737      -2.27601135       2.43313334 </v>
   <v>       2.06582306       2.43313349      -0.84733924 </v>
  </varray>
  <energy>
   <i name="e_fr_energy">    -60.89794718 </i>
   <i name="e_wo_entrp">    -60.89794718 </i>
   <i name="e_0_energy">     -0.00000000 </i>
  </energy>
  <time name="totalsc">    5.40    5.58</time>
 </calculation>
 <calculation>
  <scstep>
   <time name="dav">    0.66    0.67</time>
   <time name="total">    0.82    0.87</time>
   <energy>
    <i name="alphaZ">     32.79557438 </i>
    <i name="ewald">  -1562.91375998 </i>
    <i name="hartreedc">   -408.24182036 </i>
    <i name="XCdc">    -69.11165266 </i>
    <i name="pawpsdc">   3477.66692974 </i>
    <i name="pawaedc">  -3292.77817977 </i>
    <i name="eentropy">     -0.00000000 </i>
    <i name="bandstr">    -97.81244314 </i>
[...]
        <r>  0.0039  0.0821  0.0000 </r>
       </set>
       <set comment="band 17">
        <r>  0.0006  0.0041  0.0000 </r>
        <r>  0.0004  0.0090  0.0000 </r>
        <r>  0.0001  0.0004  0.0000 </r>
        <r>  0.0047  0.0053  0.0000 </r>
        <r>  0.0011  0.0058  0.0000 </r>
        <r>  0.0011  0.0058  0.0000 </r>
        <r>  0.0047  0.0053  0.0000 </r>
        <r>  0.0004  0.0090  0.0000 </r>
        <r>  0.0006  0.0041  0.0000 </r>
        <r>  0.0023  0.0089  0.0028 </r>
        <r>  0.0001  0.1167  0.0000 </r>
        <r>  0.0013  0.0651  0.0000 </r>
        <r>  0.0005  0.0283  0.0000 </r>
        <r>  0.0001  0.1167  0.0000 </r>
        <r>  0.0005  0.0283  0.0000 </r>
        <r>  0.0013  0.0651  0.0000 </r>
       </set>
       <set comment="band 18">
        <r>  0.0000  0.0041  0.0000 </r>
        <r>  0.0001  0.0046  0.0000 </r>
        <r>  0.0020  0.0017  0.0000 </r>
        <r>  0.0021  0.0085  0.0000 </r>
        <r>  0.0014  0.0034  0.0000 </r>
        <r>  0.0014  0.0034  0.0000 </r>
        <r>  0.0021  0.0085  0.0000 </r>
        <r>  0.0001  0.0046  0.0000 </r>
        <r>  0.0000  0.0041  0.0000 </r>
        <r>  0.0001  0.0021  0.0143 </r>
        <r>  0.0001  0.0773  0.0000 </r>
        <r>  0.0008  0.1148  0.0000 </r>
        <r>  0.0005  0.0290  0.0000 </r>
        <r>  0.0001  0.0773  0.0000 </r>
        <r>  0.0005  0.0290  0.0000 </r>
        <r>  0.0008  0.1148  0.0000 </r>
       </set>
       <set comment="band 19">
        <r>  0.0028  0.0029  0.0000 </r>
        <r>  0.0020  0.0087  0.0000 </r>
        <r>  0.0003  0.0034  0.0000 </r>
        <r>  0.0005  0.0069  0.0000 </r>
        <r>  0.0003  0.0025  0.0000 </r>
        <r>  0.0003  0.0025  0.0000 </r>
        <r>  0.0005  0.0069  0.0000 </r>
        <r>  0.0020  0.0087  0.0000 </r>
        <r>  0.0028  0.0029  0.0000 </r>
        <r>  0.0002  0.0102  0.0096 </r>
        <r>  0.0001  0.0447  0.0000 </r>
        <r>  0.0004  0.0529  0.0000 </r>
        <r>  0.0004  0.1273  0.0000 </r>
        <r>  0.0001  0.0447  0.0000 </r>
        <r>  0.0004  0.1273  0.0000 </r>
        <r>  0.0004  0.0529  0.0000 </r>
       </set>
       <set comment="band 20">
        <r>  0.0001  0.0053  0.0000 </r>
        <r>  0.0054  0.0033  0.0000 </r>
        <r>  0.0000  0.0005  0.0000 </r>
        <r>  0.0002  0.0076  0.0000 </r>
        <r>  0.0001  0.0024  0.0000 </r>
        <r>  0.0001  0.0024  0.0000 </r>
        <r>  0.0002  0.0076  0.0000 </r>
        <r>  0.0054  0.0033  0.0000 </r>
        <r>  0.0001  0.0053  0.0000 </r>
        <r>  0.0039  0.0050  0.0073 </r>
        <r>  0.0000  0.0505  0.0000 </r>
        <r>  0.0000  0.0648  0.0000 </r>
        <r>  0.0001  0.1107  0.0000 </r>
        <r>  0.0000  0.0505  0.0000 </r>
        <r>  0.0001  0.1107  0.0000 </r>
        <r>  0.0000  0.0648  0.0000 </r>
       </set>
       <set comment="band 21">
        <r>  0.0045  0.0052  0.0000 </r>
        <r>  0.0025  0.0011  0.0000 </r>
        <r>  0.0004  0.0019  0.0000 </r>
        <r>  0.0016  0.0034  0.0000 </r>
        <r>  0.0010  0.0013  0.0000 </r>
        <r>  0.0010  0.0013  0.0000 </r>
        <r>  0.0016  0.0034  0.0000 </r>
        <r>  0.0025  0.0011  0.0000 </r>
        <r>  0.0045  0.0052  0.0000 </r>
        <r>  0.0073  0.0061  0.0058 </r>
        <r>  0.0010  0.0663  0.0000 </r>
        <r>  0.0004  0.0799  0.0000 </r>
        <r>  0.0011  0.0862  0.0000 </r>
        <r>  0.0010  0.0663  0.0000 </r>
        <r>  0.0011  0.0862  0.0000 </r>
        <r>  0.0004  0.0799  0.0000 </r>
       </set>
       <set comment="band 22">
        <r>  0.0007  0.0099  0.0000 </r>
        <r>  0.0001  0.0036  0.0000 </r>
        <r>  0.0001  0.0010  0.0000 </r>
        <r>  0.0001  0.0015  0.0000 </r>
        <r>  0.0002  0.0020  0.0000 </r>
        <r>  0.0002  0.0020  0.0000 </r>
        <r>  0.0001  0.0015  0.0000 </r>
        <r>  0.0001  0.0036  0.0000 </r>
        <r>  0.0007  0.0099  0.0000 </r>
        <r>  0.0003  0.0035  0.0090 </r>
        <r>  0.0004  0.1147  0.0000 </r>
        <r>  0.0001  0.0375  0.0000 </r>
        <r>  0.0004  0.0888  0.0000 </r>
        <r>  0.0004  0.1147  0.0000 </r>
        <r>  0.0004  0.0888  0.0000 </r>
        <r>  0.0001  0.0375  0.0000 </r>
       </set>
       <set comment="band 23">
        <r>  0.0004  0.0068  0.0000 </r>
        <r>  0.0015  0.0024  0.0000 </r>
        <r>  0.0000  0.0014  0.0000 </r>
        <r>  0.0006  0.0014  0.0000 </r>
        <r>  0.0006  0.0025  0.0000 </r>
        <r>  0.0006  0.0025  0.0000 </r>
        <r>  0.0006  0.0014  0.0000 </r>
        <r>  0.0015  0.0024  0.0000 </r>
        <r>  0.0004  0.0068  0.0000 </r>
        <r>  0.0006  0.0088  0.0034 </r>
        <r>  0.0011  0.0590  0.0000 </r>
        <r>  0.0000  0.0440  0.0000 </r>
        <r>  0.0000  0.1447  0.0000 </r>
        <r>  0.0011  0.0590  0.0000 </r>
        <r>  0.0000  0.1447  0.0000 </r>
        <r>  0.0000  0.0440  0.0000 </r>
       </set>
       <set comment="band 24">
        <r>  0.0002  0.0049  0.0000 </r>
        <r>  0.0001  0.0023  0.0000 </r>
        <r>  0.0002  0.0019  0.0000 </r>
        <r>  0.0002  0.0040  0.0000 </r>
        <r>  0.0005  0.0015  0.0000 </r>
        <r>  0.0005  0.0015  0.0000 </r>
        <r>  0.0002  0.0040  0.0000 </r>
        <r>  0.0001  0.0023  0.0000 </r>
        <r>  0.0002  0.0049  0.0000 </r>
        <r>  0.0042  0.0105  0.0073 </r>
        <r>  0.0001  0.0958  0.0000 </r>
        <r>  0.0002  0.0702  0.0000 </r>
        <r>  0.0001  0.0861  0.0000 </r>
        <r>  0.0001  0.0958  0.0000 </r>
        <r>  0.0001  0.0861  0.0000 </r>
        <r>  0.0002  0.0702  0.0000 </r>
       </set>
       <set comment="band 25">
        <r>  0.0001  0.0034  0.0000 </r>
        <r>  0.0009  0.0027  0.0000 </r>
        <r>  0.0007  0.0015  0.0000 </r>
        <r>  0.0000  0.0057  0.0000 </r>
        <r>  0.0001  0.0009  0.0000 </r>
        <r>  0.0001  0.0009  0.0000 </r>
        <r>  0.0000  0.0057  0.0000 </r>
        <r>  0.0009  0.0027  0.0000 </r>
        <r>  0.0001  0.0034  0.0000 </r>
        <r>  0.0672  0.0010  0.0012 </r>
        <r>  0.0001  0.0905  0.0000 </r>
        <r>  0.0003  0.0989  0.0000 </r>
        <r>  0.0007  0.0521  0.0000 </r>
        <r>  0.0001  0.0905  0.0000 </r>
        <r>  0.0007  0.0521  0.0000 </r>
        <r>  0.0003  0.0989  0.0000 </r>
       </set>
       <set comment="band 26">
        <r>  0.0011  0.0049  0.0000 </r>
        <r>  0.0061  0.0086  0.0000 </r>
        <r>  0.0004  0.0256  0.0000 </r>
        <r>  0.0009  0.0014  0.0000 </r>
        <r>  0.0002  0.0010  0.0000 </r>
        <r>  0.0002  0.0010  0.0000 </r>
        <r>  0.0009  0.0014  0.0000 </r>
        <r>  0.0061  0.0086  0.0000 </r>
        <r>  0.0011  0.0049  0.0000 </r>
        <r>  0.0001  0.3378  0.0002 </r>
        <r>  0.0063  0.0047  0.0000 </r>
        <r>  0.0009  0.0067  0.0000 </r>
        <r>  0.0220  0.0461  0.0000 </r>
        <r>  0.0063  0.0047  0.0000 </r>
        <r>  0.0220  0.0461  0.0000 </r>
        <r>  0.0009  0.0067  0.0000 </r>
       </set>
       <set comment="band 27">
        <r>  0.0008  0.0043  0.0000 </r>
        <r>  0.0002  0.0027  0.0000 </r>
        <r>  0.0003  0.0154  0.0000 </r>
        <r>  0.0031  0.0101  0.0000 </r>
        <r>  0.0000  0.0033  0.0000 </r>
        <r>  0.0000  0.0033  0.0000 </r>
        <r>  0.0031  0.0101  0.0000 </r>
        <r>  0.0002  0.0027  0.0000 </r>
        <r>  0.0008  0.0043  0.0000 </r>
        <r>  0.0000  0.3652  0.0002 </r>
        <r>  0.0149  0.0441  0.0000 </r>
        <r>  0.0055  0.0157  0.0000 </r>
        <r>  0.0050  0.0118  0.0000 </r>
        <r>  0.0149  0.0441  0.0000 </r>
        <r>  0.0050  0.0118  0.0000 </r>
        <r>  0.0055  0.0157  0.0000 </r>
       </set>
       <set comment="band 28">
        <r>  0.0024  0.0078  0.0000 </r>
        <r>  0.0013  0.0017  0.0000 </r>
        <r>  0.0064  0.0044  0.0000 </r>
        <r>  0.0008  0.0048  0.0000 </r>
        <r>  0.0007  0.0005  0.0000 </r>
        <r>  0.0007  0.0005  0.0000 </r>
        <r>  0.0008  0.0048  0.0000 </r>
        <r>  0.0013  0.0017  0.0000 </r>
        <r>  0.0024  0.0078  0.0000 </r>
        <r>  0.0000  0.3649  0.0013 </r>
        <r>  0.0056  0.0175  0.0000 </r>
        <r>  0.0131  0.0544  0.0000 </r>
        <r>  0.0003  0.0127  0.0000 </r>
        <r>  0.0056  0.0175  0.0000 </r>
        <r>  0.0003  0.0127  0.0000 </r>
        <r>  0.0131  0.0544  0.0000 </r>
       </set>
       <set comment="band 29">
        <r>  0.0015  0.0146  0.0000 </r>
        <r>  0.0050  0.0087  0.0000 </r>
        <r>  0.0000  0.0016  0.0000 </r>
        <r>  0.0015  0.0134  0.0000 </r>
        <r>  0.0056  0.0077  0.0000 </r>
        <r>  0.0056  0.0077  0.0000 </r>
        <r>  0.0015  0.0134  0.0000 </r>
        <r>  0.0050  0.0087  0.0000 </r>
        <r>  0.0015  0.0146  0.0000 </r>
        <r>  0.0000  0.0122  0.0170 </r>
        <r>  0.0006  0.0110  0.0000 </r>
        <r>  0.0005  0.0154  0.0000 </r>
        <r>  0.0165  0.0110  0.0000 </r>
        <r>  0.0006  0.0110  0.0000 </r>
        <r>  0.0165  0.0110  0.0000 </r>
        <r>  0.0005  0.0154  0.0000 </r>
       </set>
       <set comment="band 30">
        <r>  0.0083  0.0085  0.0000 </r>
        <r>  0.0064  0.0097  0.0000 </r>
        <r>  0.0059  0.0044  0.0000 </r>
        <r>  0.0002  0.0151  0.0000 </r>
        <r>  0.0207  0.0056  0.0000 </r>
        <r>  0.0207  0.0056  0.0000 </r>
        <r>  0.0002  0.0151  0.0000 </r>
        <r>  0.0064  0.0097  0.0000 </r>
        <r>  0.0083  0.0085  0.0000 </r>
        <r>  0.0009  0.0057  0.0141 </r>
        <r>  0.0158  0.0103  0.0000 </r>
        <r>  0.0071  0.0119  0.0000 </r>
        <r>  0.0033  0.0192  0.0000 </r>
        <r>  0.0158  0.0103  0.0000 </r>
        <r>  0.0033  0.0192  0.0000 </r>
        <r>  0.0071  0.0119  0.0000 </r>
       </set>
       <set comment="band 31">
        <r>  0.0026  0.0134  0.0000 </r>
        <r>  0.0006  0.0113  0.0000 </r>
        <r>  0.0015  0.0169  0.0000 </r>
        <r>  0.0007  0.0142  0.0000 </r>
        <r>  0.0117  0.0247  0.0000 </r>
        <r>  0.0117  0.0247  0.0000 </r>
        <r>  0.0007  0.0142  0.0000 </r>
        <r>  0.0006  0.0113  0.0000 </r>
        <r>  0.0026  0.0134  0.0000 </r>
        <r>  0.0003  0.0250  0.0106 </r>
        <r>  0.0043  0.0127  0.0000 </r>
        <r>  0.0066  0.0113  0.0000 </r>
        <r>  0.0006  0.0118  0.0000 </r>
        <r>  0.0043  0.0127  0.0000 </r>
        <r>  0.0006  0.0118  0.0000 </r>
        <r>  0.0066  0.0113  0.0000 </r>
       </set>
       <set comment="band 32">
        <r>  0.0030  0.0063  0.0000 </r>
        <r>  0.0021  0.0165  0.0000 </r>
        <r>  0.0272  0.0107  0.0000 </r>
        <r>  0.0051  0.0098  0.0000 </r>
        <r>  0.0008  0.0126  0.0000 </r>
        <r>  0.0008  0.0126  0.0000 </r>
        <r>  0.0051  0.0098  0.0000 </r>
        <r>  0.0021  0.0165  0.0000 </r>
        <r>  0.0030  0.0063  0.0000 </r>
        <r>  0.0000  0.0093  0.0307 </r>
        <r>  0.0001  0.0157  0.0000 </r>
        <r>  0.0082  0.0100  0.0000 </r>
        <r>  0.0015  0.0090  0.0000 </r>
        <r>  0.0001  0.0157  0.0000 </r>
        <r>  0.0015  0.0090  0.0000 </r>
        <r>  0.0082  0.0100  0.0000 </r>
       </set>
       <set comment="band 33">
        <r>  0.0065  0.0114  0.0000 </r>
        <r>  0.0109  0.0064  0.0000 </r>
        <r>  0.0004  0.0087  0.0000 </r>
        <r>  0.0008  0.0139  0.0000 </r>
        <r>  0.0021  0.0325  0.0000 </r>
        <r>  0.0021  0.0325  0.0000 </r>
        <r>  0.0008  0.0139  0.0000 </r>
        <r>  0.0109  0.0064  0.0000 </r>
        <r>  0.0065  0.0114  0.0000 </r>
        <r>  0.0007  0.0306  0.0159 </r>
        <r>  0.0087  0.0132  0.0000 </r>
        <r>  0.0015  0.0062  0.0000 </r>
        <r>  0.0031  0.0065  0.0000 </r>
        <r>  0.0087  0.0132  0.0000 </r>
        <r>  0.0031  0.0065  0.0000 </r>
        <r>  0.0015  0.0062  0.0000 </r>
       </set>
       <set comment="band 34">
        <r>  0.0000  0.0112  0.0000 </r>
        <r>  0.0012  0.0228  0.0000 </r>
        <r>  0.0007  0.0362  0.0000 </r>
        <r>  0.0103  0.0036  0.0000 </r>
        <r>  0.0335  0.0070  0.0000 </r>
        <r>  0.0335  0.0070  0.0000 </r>
        <r>  0.0103  0.0036  0.0000 </r>
        <r>  0.0012  0.0228  0.0000 </r>
        <r>  0.0000  0.0112  0.0000 </r>
        <r>  0.0011  0.0154  0.0112 </r>
        <r>  0.0017  0.0142  0.0000 </r>
        <r>  0.0117  0.0098  0.0000 </r>
        <r>  0.0023  0.0106  0.0000 </r>
        <r>  0.0017  0.0142  0.0000 </r>
        <r>  0.0023  0.0106  0.0000 </r>
        <r>  0.0117  0.0098  0.0000 </r>
       </set>
       <set comment="band 35">
        <r>  0.0025  0.0117  0.0000 </r>
        <r>  0.0005  0.0100  0.0000 </r>
        <r>  0.0373  0.0035  0.0000 </r>
        <r>  0.0078  0.0057  0.0000 </r>
        <r>  0.0004  0.0307  0.0000 </r>
        <r>  0.0004  0.0307  0.0000 </r>
        <r>  0.0078  0.0057  0.0000 </r>
        <r>  0.0005  0.0100  0.0000 </r>
        <r>  0.0025  0.0117  0.0000 </r>
        <r>  0.0037  0.0247  0.0111 </r>
        <r>  0.0046  0.0115  0.0000 </r>
        <r>  0.0049  0.0270  0.0000 </r>
        <r>  0.0098  0.0086  0.0000 </r>
        <r>  0.0046  0.0115  0.0000 </r>
        <r>  0.0098  0.0086  0.0000 </r>
        <r>  0.0049  0.0270  0.0000 </r>
       </set>
       <set comment="band 36">
        <r>  0.0006  0.0247  0.0000 </r>
        <r>  0.0022  0.0127  0.0000 </r>
        <r>  0.0055  0.0095  0.0000 </r>
        <r>  0.0023  0.0092  0.0000 </r>
        <r>  0.0007  0.0270  0.0000 </r>
        <r>  0.0007  0.0270  0.0000 </r>
        <r>  0.0023  0.0092  0.0000 </r>
        <r>  0.0022  0.0127  0.0000 </r>
        <r>  0.0006  0.0247  0.0000 </r>
        <r>  0.0026  0.0106  0.0078 </r>
        <r>  0.0001  0.0053  0.0000 </r>
        <r>  0.0002  0.0149  0.0000 </r>
        <r>  0.0007  0.0118  0.0000 </r>
        <r>  0.0001  0.0053  0.0000 </r>
        <r>  0.0007  0.0118  0.0000 </r>
        <r>  0.0002  0.0149  0.0000 </r>
       </set>
       <set comment="band 37">
        <r>  0.0113  0.0235  0.0000 </r>
        <r>  0.0001  0.0096  0.0000 </r>
        <r>  0.0028  0.0009  0.0000 </r>
        <r>  0.0040  0.0119  0.0000 </r>
        <r>  0.0225  0.0151  0.0000 </r>
        <r>  0.0225  0.0151  0.0000 </r>
        <r>  0.0040  0.0119  0.0000 </r>
        <r>  0.0001  0.0096  0.0000 </r>
        <r>  0.0113  0.0235  0.0000 </r>
        <r>  0.0002  0.0045  0.0340 </r>
        <r>  0.0009  0.0050  0.0000 </r>
        <r>  0.0036  0.0148  0.0000 </r>
        <r>  0.0009  0.0028  0.0000 </r>
        <r>  0.0009  0.0050  0.0000 </r>
        <r>  0.0009  0.0028  0.0000 </r>
        <r>  0.0036  0.0148  0.0000 </r>
       </set>
       <set comment="band 38">
        <r>  0.0016  0.0114  0.0000 </r>
        <r>  0.0095  0.0228  0.0000 </r>
        <r>  0.0074  0.0170  0.0000 </r>
        <r>  0.0010  0.0102  0.0000 </r>
        <r>  0.0020  0.0272  0.0000 </r>
        <r>  0.0020  0.0272  0.0000 </r>
        <r>  0.0010  0.0102  0.0000 </r>
        <r>  0.0095  0.0228  0.0000 </r>
        <r>  0.0016  0.0114  0.0000 </r>
        <r>  0.0000  0.0052  0.0165 </r>
        <r>  0.0019  0.0098  0.0000 </r>
        <r>  0.0011  0.0112  0.0000 </r>
        <r>  0.0013  0.0083  0.0000 </r>
        <r>  0.0019  0.0098  0.0000 </r>
        <r>  0.0013  0.0083  0.0000 </r>
        <r>  0.0011  0.0112  0.0000 </r>
       </set>
       <set comment="band 39">
        <r>  0.0017  0.0073  0.0000 </r>
        <r>  0.0006  0.0052  0.0000 </r>
        <r>  0.0003  0.0406  0.0000 </r>
        <r>  0.0048  0.0264  0.0000 </r>
        <r>  0.0029  0.0265  0.0000 </r>
        <r>  0.0029  0.0265  0.0000 </r>
        <r>  0.0048  0.0264  0.0000 </r>
        <r>  0.0006  0.0052  0.0000 </r>
        <r>  0.0017  0.0073  0.0000 </r>
        <r>  0.0007  0.0149  0.0126 </r>
        <r>  0.0018  0.0170  0.0000 </r>
        <r>  0.0002  0.0095  0.0000 </r>
        <r>  0.0018  0.0155  0.0000 </r>
        <r>  0.0018  0.0170  0.0000 </r>
        <r>  0.0018  0.0155  0.0000 </r>
        <r>  0.0002  0.0095  0.0000 </r>
       </set>
       <set comment="band 40">
        <r>  0.0073  0.0078  0.0000 </r>
        <r>  0.0088  0.0151  0.0000 </r>
        <r>  0.0023  0.0647  0.0000 </r>
        <r>  0.0008  0.0208  0.0000 </r>
        <r>  0.0038  0.0082  0.0000 </r>
        <r>  0.0038  0.0082  0.0000 </r>
        <r>  0.0008  0.0208  0.0000 </r>
        <r>  0.0088  0.0151  0.0000 </r>
        <r>  0.0073  0.0078  0.0000 </r>
        <r>  0.0003  0.0100  0.0200 </r>
        <r>  0.0033  0.0045  0.0000 </r>
        <r>  0.0033  0.0166  0.0000 </r>
        <r>  0.0010  0.0209  0.0000 </r>
        <r>  0.0033  0.0045  0.0000 </r>
        <r>  0.0010  0.0209  0.0000 </r>
        <r>  0.0033  0.0166  0.0000 </r>
       </set>
       <set comment="band 41">
        <r>  0.0063  0.0162  0.0000 </r>
        <r>  0.0129  0.0018  0.0000 </r>
        <r>  0.0020  0.0334  0.0000 </r>
        <r>  0.0008  0.0285  0.0000 </r>
        <r>  0.0028  0.0120  0.0000 </r>
        <r>  0.0028  0.0120  0.0000 </r>
        <r>  0.0008  0.0285  0.0000 </r>
        <r>  0.0129  0.0018  0.0000 </r>
        <r>  0.0063  0.0162  0.0000 </r>
        <r>  0.0001  0.0139  0.0115 </r>
        <r>  0.0006  0.0132  0.0000 </r>
        <r>  0.0023  0.0056  0.0000 </r>
        <r>  0.0016  0.0081  0.0000 </r>
        <r>  0.0006  0.0132  0.0000 </r>
        <r>  0.0016  0.0081  0.0000 </r>
        <r>  0.0023  0.0056  0.0000 </r>
       </set>
       <set comment="band 42">
        <r>  0.0052  0.0146  0.0000 </r>
        <r>  0.0022  0.0022  0.0000 </r>
        <r>  0.0004  0.0231  0.0000 </r>
        <r>  0.0312  0.0099  0.0000 </r>
        <r>  0.0085  0.0228  0.0000 </r>
        <r>  0.0085  0.0228  0.0000 </r>
        <r>  0.0312  0.0099  0.0000 </r>
        <r>  0.0022  0.0022  0.0000 </r>
        <r>  0.0052  0.0146  0.0000 </r>
        <r>  0.0011  0.0095  0.0381 </r>
        <r>  0.0048  0.0254  0.0000 </r>
        <r>  0.0031  0.0069  0.0000 </r>
        <r>  0.0020  0.0067  0.0000 </r>
        <r>  0.0048  0.0254  0.0000 </r>
        <r>  0.0020  0.0067  0.0000 </r>
        <r>  0.0031  0.0069  0.0000 </r>
       </set>
      </set>
     </set>
    </set>
   </array>
  </projected>
 </calculation>
 <structure name="finalpos" >
  <crystal>
   <varray name="basis" >
    <v>       6.77386727       0.18456999      -3.47606746 </v>
    <v>      -1.94097990       5.77729661      -3.49074049 </v>
    <v>      -0.05944516      -0.14181263       7.00700863 </v>
   </varray>
   <i name="volume">    271.26142437 </i>
   <varray name="rec_basis" >
    <v>       0.14740959       0.05090282       0.00228078 </v>
    <v>      -0.00295041       0.17421538       0.00350086 </v>
    <v>       0.07165776       0.11204243       0.14558976 </v>
   </varray>
  </crystal>
  <varray name="positions" >
   <v>       0.14052348       0.42090803       0.44144287 </v>
   <v>       0.15187945       0.02325619       0.73030907 </v>
   <v>       0.00000000       0.00000000       0.00000000 </v>
   <v>       0.14109775       0.70350445       0.11944246 </v>
   <v>       0.53690604       0.82408803       0.66801542 </v>
   <v>       0.46309396       0.17591197       0.33198458 </v>
   <v>       0.85890225       0.29649555       0.88055854 </v>
   <v>       0.84812055      -0.02325619       0.26969093 </v>
   <v>      -0.14052348       0.57909197       0.55855713 </v>
   <v>       0.50000000       0.50000000       0.00000000 </v>
   <v>       0.23568724       0.09989878       0.47930187 </v>
   <v>       0.24771540       0.39621668       0.15461570 </v>
   <v>       0.24602484       0.76287525      -0.13663919 </v>
   <v>       0.76431276       0.90010122       0.52069813 </v>
   <v>       0.75397516       0.23712475       0.13663919 </v>
   <v>       0.75228460       0.60378332       0.84538430 </v>
  </varray>
 </structure>
</modeling>
