CIS                                     
           1
     7.442309   -0.040052   -4.223883
    -2.356265    7.056057   -4.227226
     0.138527    0.186740    8.914310
   Li   Bi   S 
   9   1   6
Direct configuration=     1
   0.99533169  0.51461851  0.30934897
   0.20505907  0.00501802  0.69118463
   0.00000000  0.00000000  0.00000000
   0.31354410  0.79491538  0.30883118
   0.48515717  0.68527771  0.69041371
   0.51484283  0.31472229  0.30958629
   0.68645590  0.20508462  0.69116982
   0.79494093  0.99498198  0.30881537
   0.00466831  0.48538149  0.69065103
   0.50000000  0.50000000  0.00000000
   0.27218438  0.27191917  0.54574398
   0.18202772  0.35260299  0.00059197
   0.35230012  0.81827013  0.99985464
   0.72781562  0.72808083  0.45425602
   0.64769988  0.18172987  0.00014536
   0.81797228  0.64739701  0.99940803
CIS                                     
           1
     7.348848   -0.039879   -4.170906
    -2.327048    6.967338   -4.174312
     0.134139    0.180601    8.797887
   Li   Bi   S 
   9   1   6
Direct configuration=     2
   0.99404078  0.51375625  0.30790135
   0.20564116  0.00630203  0.69262706
  -0.00000000 -0.00000000  0.00000000
   0.31338052  0.79433342  0.30738963
   0.48601674  0.68544560  0.69186806
   0.51398326  0.31455440  0.30813194
   0.68661948  0.20566658  0.69261137
   0.79435884  0.99369797  0.30737294
   0.00595922  0.48624375  0.69209865
   0.50000000  0.50000000  0.00000000
   0.27212822  0.27187868  0.54571697
   0.18231936  0.35246360  0.00061793
   0.35214848  0.81794989  0.99986346
   0.72787178  0.72812132  0.45428303
   0.64785152  0.18205011  0.00013654
   0.81768064  0.64753640  0.99938207
CIS                                     
           1
     7.068465   -0.039358   -4.011972
    -2.239398    6.701181   -4.015571
     0.120975    0.162184    8.448617
   Li   Bi   S 
   9   1   6
Direct configuration=     3
   0.99011636  0.51113406  0.30349861
   0.20741210  0.01020549  0.69701402
  -0.00000000 -0.00000000  0.00000000
   0.31288120  0.79256302  0.30300551
   0.48863056  0.68595813  0.69629114
   0.51136944  0.31404187  0.30370886
   0.68711880  0.20743698  0.69699549
   0.79258790  0.98979451  0.30298598
   0.00988364  0.48886594  0.69650139
   0.50000000  0.50000000  0.00000000
   0.27195755  0.27175561  0.54563482
   0.18320542  0.35204017  0.00069688
   0.35168773  0.81697694  0.99989022
   0.72804245  0.72824439  0.45436518
   0.64831227  0.18302306  0.00010978
   0.81679458  0.64795983  0.99930312
CIS                                     
           1
     6.507698   -0.038318   -3.694106
    -2.064096    6.168866   -3.698089
     0.094646    0.125350    7.750079
   Li   Bi   S 
   9   1   6
Direct configuration=     4
   0.98194017  0.50566506  0.29431307
   0.21111072  0.01833807  0.70616655
  -0.00000000 -0.00000000  0.00000000
   0.31182761  0.78886637  0.29385993
   0.49408078  0.68703988  0.70551805
   0.50591922  0.31296012  0.29448195
   0.68817239  0.21113363  0.70614107
   0.78888928  0.98166193  0.29383345
   0.01805983  0.49433494  0.70568693
   0.50000000  0.50000000  0.00000000
   0.27160234  0.27149937  0.54546338
   0.18504803  0.35116023  0.00086164
   0.35072937  0.81495370  0.99994559
   0.72839766  0.72850063  0.45453662
   0.64927063  0.18504630  0.00005441
   0.81495197  0.64883977  0.99913836
CIS                                     
           1
     6.425589   -0.038607   -3.646742
    -2.039383    6.091612   -3.651733
     0.094400    0.123765    7.652409
   Li   Bi   S 
   9   1   6
Direct configuration=     5
   0.97783866  0.50216464  0.28893626
   0.21294055  0.02238973  0.71149751
  -0.00000000 -0.00000000  0.00000000
   0.31050897  0.78700778  0.28849813
   0.49756822  0.68837009  0.71092640
   0.50243178  0.31162991  0.28907360
   0.68949103  0.21299222  0.71150287
   0.78705945  0.97761027  0.28850249
   0.02216134  0.49783536  0.71106374
   0.50000000  0.50000000  0.00000000
   0.26499237  0.26492188  0.53251460
   0.17847563  0.34749304  0.00110214
   0.34687710  0.82165178  0.99989330
   0.73500763  0.73507812  0.46748540
   0.65312290  0.17834822  0.00010670
   0.82152437  0.65250696  0.99889786
CIS                                     
           1
     6.179261   -0.039477   -3.504652
    -1.965244    5.859852   -3.512663
     0.093661    0.119008    7.359397
   Li   Bi   S 
   9   1   6
Direct configuration=     6
   0.96537690  0.49152860  0.27260046
   0.21850025  0.03469959  0.72769425
  -0.00000000 -0.00000000  0.00000000
   0.30650374  0.78136080  0.27220818
   0.50816299  0.69241270  0.72735755
   0.49183701  0.30758730  0.27264245
   0.69349626  0.21863920  0.72779282
   0.78149975  0.96530041  0.27230575
   0.03462310  0.50847140  0.72739954
   0.50000000  0.50000000  0.00000000
   0.24491047  0.24493656  0.49317397
   0.15850359  0.33634941  0.00183228
   0.33517572  0.84199933  0.99973622
   0.75508953  0.75506344  0.50682603
   0.66482428  0.15800067  0.00026378
   0.84149641  0.66365059  0.99816772
CIS                                     
           1
     6.278253   -0.038322   -3.560317
    -1.995554    5.952120   -3.569356
     0.090436    0.113205    7.467981
   Li   Bi   S 
   9   1   6
Direct configuration=     7
   0.96697372  0.49055183  0.27191996
   0.21802546  0.03306868  0.72832697
  -0.00000000  0.00000000  0.00000000
   0.30418270  0.78173502  0.27150357
   0.50913722  0.69474587  0.72804384
   0.49086278  0.30525413  0.27195616
   0.69581730  0.21826498  0.72849743
   0.78197454  0.96693132  0.27167303
   0.03302628  0.50944817  0.72808004
   0.50000000  0.50000000  0.00000000
   0.24323737  0.24329594  0.49017748
   0.15408595  0.33637229  0.00207812
   0.33524451  0.84674176  0.99993738
   0.75676263  0.75670406  0.50982252
   0.66475549  0.15325824  0.00006262
   0.84591405  0.66362771  0.99792188
CIS                                     
           1
     6.310515   -0.037946   -3.578458
    -2.005432    5.982191   -3.587833
     0.089385    0.111314    7.503369
   Li   Bi   S 
   9   1   6
Direct configuration=     8
   0.96748567  0.49023801  0.27170099
   0.21787346  0.03254570  0.72853038
  -0.00000000  0.00000000  0.00000000
   0.30343799  0.78185503  0.27127722
   0.50944986  0.69549465  0.72826453
   0.49055014  0.30450535  0.27173547
   0.69656201  0.21814497  0.72872378
   0.78212654  0.96745430  0.27146962
   0.03251433  0.50976199  0.72829901
   0.50000000  0.50000000  0.00000000
   0.24269973  0.24276850  0.48921408
   0.15266914  0.33638016  0.00215752
   0.33526649  0.84826345  0.00000225
   0.75730027  0.75723150  0.51078592
   0.66473351  0.15173655 -0.00000225
   0.84733086  0.66361984  0.99784248
CIS                                     
           1
     6.309342   -0.035997   -3.576419
    -2.004060    5.979741   -3.587258
     0.089411    0.109474    7.499128
   Li   Bi   S 
   9   1   6
Direct configuration=     9
   0.96776784  0.48797891  0.26948703
   0.21764876  0.03220568  0.73066279
  -0.00000000  0.00000000  0.00000000
   0.30088007  0.78199896  0.26906796
   0.51170700  0.69809939  0.73052844
   0.48829300  0.30190061  0.26947156
   0.69911993  0.21800104  0.73093304
   0.78235124  0.96779432  0.26933721
   0.03223216  0.51202109  0.73051297
   0.50000000  0.50000000  0.00000000
   0.24273811  0.24284104  0.48960086
   0.15203519  0.33711445  0.00255851
   0.33580123  0.84912467  0.00009152
   0.75726189  0.75715896  0.51039914
   0.66419877  0.15087533 -0.00009152
   0.84796481  0.66288555  0.99744149
CIS                                     
           1
     6.305822   -0.030149   -3.570301
    -1.999943    5.972392   -3.585536
     0.089491    0.103956    7.486406
   Li   Bi   S 
   9   1   6
Direct configuration=    10
   0.96861452  0.48119663  0.26283936
   0.21697520  0.03118729  0.73706496
  -0.00000000  0.00000000  0.00000000
   0.29320504  0.78243140  0.26243823
   0.51847886  0.70591662  0.73732323
   0.48152114  0.29408338  0.26267677
   0.70679496  0.21756860  0.73756277
   0.78302480  0.96881271  0.26293504
   0.03138548  0.51880337  0.73716064
   0.50000000  0.50000000  0.00000000
   0.24285334  0.24305907  0.49076203
   0.15013306  0.33931920  0.00376328
   0.33740537  0.85170895  0.00035910
   0.75714666  0.75694093  0.50923797
   0.66259463  0.14829105 -0.00035910
   0.84986694  0.66068080  0.99623672
CIS                                     
           1
     6.298782   -0.018453   -3.558067
    -1.991709    5.957694   -3.582090
     0.089649    0.092920    7.460961
   Li   Bi   S 
   9   1   6
Direct configuration=    11
   0.97030881  0.46760205  0.24950923
   0.21563128  0.02916066  0.74989901
   0.00000000  0.00000000  0.00000000
   0.27784746  0.78330029  0.24916690
   0.53202529  0.72156932  0.75093127
   0.46797471  0.27843068  0.24906873
   0.72215254  0.21669971  0.75083410
   0.78436872  0.97083934  0.25010099
   0.02969119  0.53239795  0.75049077
   0.50000000  0.50000000  0.00000000
   0.24308430  0.24349749  0.49308939
   0.14632716  0.34373988  0.00618357
   0.34061326  0.85688124  0.00089296
   0.75691570  0.75650251  0.50691061
   0.65938674  0.14311876 -0.00089296
   0.85367284  0.65626012  0.99381643
CIS                                     
           1
     6.297187   -0.018019   -3.554584
    -1.993001    5.952604   -3.582463
     0.105505    0.110103    7.481665
   Li   Bi   S 
   9   1   6
Direct configuration=    12
   0.97193239  0.46457632  0.24779427
   0.21398162  0.02737594  0.75155262
   0.00000000  0.00000000  0.00000000
   0.27407243  0.78487280  0.24750441
   0.53505220  0.72535909  0.75278104
   0.46494780  0.27464091  0.24721896
   0.72592757  0.21512720  0.75249659
   0.78601838  0.97262406  0.24844738
   0.02806761  0.53542368  0.75220573
   0.50000000  0.50000000  0.00000000
   0.24203518  0.24254634  0.49192228
   0.14790101  0.34425425  0.00709674
   0.34061357  0.85608727  0.00087866
   0.75796482  0.75745366  0.50807772
   0.65938643  0.14391273 -0.00087866
   0.85209899  0.65574575  0.99290326
CIS                                     
           1
     6.292403   -0.016717   -3.544134
    -1.996876    5.937334   -3.583582
     0.153070    0.161651    7.543776
   Li   Bi   S 
   9   1   6
Direct configuration=    13
   0.97681711  0.45550552  0.24267060
   0.20901259  0.02200371  0.75648361
   0.00000000  0.00000000  0.00000000
   0.26276330  0.78960897  0.24255276
   0.54412198  0.73672190  0.75830302
   0.45587802  0.26327810  0.24169698
   0.73723670  0.21039103  0.75744824
   0.79098741  0.97799629  0.24351639
   0.02318289  0.54449448  0.75732940
   0.50000000  0.50000000  0.00000000
   0.23889732  0.23970044  0.48844010
   0.15261533  0.34579070  0.00981992
   0.34061355  0.85370347  0.00083439
   0.76110268  0.76029956  0.51155990
   0.65938645  0.14629653 -0.00083439
   0.84738467  0.65420930  0.99018008
CIS                                     
           1
     6.282834   -0.014113   -3.523234
    -2.004626    5.906795   -3.585820
     0.248201    0.264748    7.667998
   Li   Bi   S 
   9   1   6
Direct configuration=    14
   0.98666900  0.43740093  0.23254771
   0.19895624  0.01115263  0.76617034
   0.00000000  0.00000000  0.00000000
   0.24023828  0.79919115  0.23285972
   0.56219793  0.75941029  0.76918672
   0.43780207  0.24058971  0.23081328
   0.75976172  0.20080885  0.76714128
   0.80104376  0.98884737  0.23382966
   0.01333100  0.56259907  0.76745229
   0.50000000  0.50000000  0.00000000
   0.23267730  0.23405296  0.48158814
   0.16200182  0.34882464  0.01517052
   0.34060785  0.84892459  0.00073786
   0.76732270  0.76594704  0.51841186
   0.65939215  0.15107541 -0.00073786
   0.83799818  0.65117536  0.98482948
CIS                                     
           1
     6.287920   -0.015497   -3.534342
    -2.000507    5.923026   -3.584631
     0.197640    0.209953    7.601975
   Li   Bi   S 
   9   1   6
Direct configuration=    15
   0.98134859  0.44698695  0.23780214
   0.20442229  0.01702955  0.76119941
   0.00000000  0.00000000  0.00000000
   0.25211669  0.79398610  0.23779851
   0.55265380  0.74738734  0.76356420
   0.44734620  0.25261266  0.23643580
   0.74788331  0.20601390  0.76220249
   0.79557771  0.98297045  0.23880059
   0.01865141  0.55301305  0.76219786
   0.50000000  0.50000000  0.00000000
   0.23592707  0.23701001  0.48511615
   0.15705514  0.34725138  0.01242365
   0.34061671  0.85147641  0.00079730
   0.76407293  0.76298999  0.51488385
   0.65938329  0.14852359 -0.00079730
   0.84294486  0.65274862  0.98757635
CIS                                     
           1
     6.311814   -0.008353   -3.551611
    -2.004330    5.933859   -3.607442
     0.188906    0.190045    7.621907
   Li   Bi   S 
   9   1   6
Direct configuration=    16
   0.98587371  0.44518028  0.24112480
   0.19846793  0.01171750  0.75793435
   0.00000000  0.00000000  0.00000000
   0.24841683  0.79947409  0.24037065
   0.55438622  0.75006171  0.76060064
   0.44561378  0.24993829  0.23939936
   0.75158317  0.20052591  0.75963035
   0.80153207  0.98828250  0.24206565
   0.01412629  0.55481972  0.75887520
   0.50000000  0.50000000  0.00000000
   0.23469198  0.23617086  0.48559318
   0.15923513  0.34602436  0.01367312
   0.33808682  0.84854083  0.00013975
   0.76530802  0.76382914  0.51440682
   0.66191318  0.15145917 -0.00013975
   0.84076487  0.65397564  0.98632688
CIS                                     
           1
     6.383497    0.013078   -3.603419
    -2.015800    5.966357   -3.675878
     0.162704    0.130320    7.681705
   Li   Bi   S 
   9   1   6
Direct configuration=    17
   0.99941729  0.43978762  0.25107942
   0.18065612 -0.00419986  0.74810941
   0.00000000  0.00000000  0.00000000
   0.23738134  0.81594613  0.24812473
   0.55953969  0.75803355  0.75172432
   0.44046031  0.24196645  0.24827568
   0.76261866  0.18405387  0.75187627
   0.81934388  0.00419986  0.25189059
   0.00058271  0.56021238  0.74892058
   0.50000000  0.50000000  0.00000000
   0.23100578  0.23366744  0.48702012
   0.16575724  0.34235498  0.01741273
   0.33052439  0.83975323 -0.00184951
   0.76899422  0.76633256  0.51297988
   0.66947561  0.16024677  0.00184951
   0.83424276  0.65764502  0.98258727
CIS                                     
           1
     6.526864    0.055941   -3.707033
    -2.038741    6.031353   -3.812748
     0.110301    0.010870    7.801299
   Li   Bi   S 
   9   1   6
Direct configuration=    18
   0.02631606  0.42916518  0.27090983
   0.14533330 -0.03592670  0.72828134
   0.00000000  0.00000000  0.00000000
   0.21569088  0.84893953  0.26385888
   0.56958888  0.77367439  0.73405561
   0.43041112  0.22632561  0.26594439
   0.78430912  0.15106047  0.73614212
   0.85466670  0.03592670  0.27171866
  -0.02631606  0.57083482  0.72909017
   0.50000000  0.50000000  0.00000000
   0.22374559  0.22874320  0.48984963
   0.17869573  0.33508557  0.02483991
   0.31555938  0.82229009 -0.00592706
   0.77625441  0.77125680  0.51015037
   0.68444062  0.17770991  0.00592706
   0.82130427  0.66491443  0.97516009
CIS                                     
           1
     6.429987    0.026977   -3.637018
    -2.023239    5.987434   -3.720261
     0.145711    0.091586    7.720486
   Li   Bi   S 
   9   1   6
Direct configuration=    19
   0.00838751  0.43612701  0.25761193
   0.16881521 -0.01462016  0.74191913
   0.00000000  0.00000000  0.00000000
   0.22984559  0.82657572  0.25292094
   0.56313164  0.76350115  0.74588796
   0.43686836  0.23649885  0.25411204
   0.77015441  0.17342428  0.74708006
   0.83118479  0.01462016  0.25808087
  -0.00838751  0.56387299  0.74238807
   0.50000000  0.50000000  0.00000000
   0.22850604  0.23196335  0.48796894
   0.17009208  0.33990609  0.01988955
   0.32546629  0.83394762 -0.00304002
   0.77149396  0.76803665  0.51203106
   0.67453371  0.16605238  0.00304002
   0.82990792  0.66009391  0.98011045
CIS                                     
           1
     6.414404    0.027080   -3.597167
    -2.030544    5.973481   -3.701355
     0.149289    0.068429    7.642667
   Li   Bi   S 
   9   1   6
Direct configuration=    20
   0.01349296  0.43430004  0.26194419
   0.16199997 -0.01968555  0.73880520
   0.00000000  0.00000000  0.00000000
   0.22592587  0.83247899  0.25501831
   0.56610429  0.76636959  0.74348182
   0.43389571  0.23363041  0.25651818
   0.77407413  0.16752101  0.74498269
   0.83800003  0.01968555  0.26119480
  -0.01349296  0.56569996  0.73805581
   0.50000000  0.50000000  0.00000000
   0.22599138  0.23032804  0.48660577
   0.17248182  0.33970355  0.02314597
   0.32323082  0.83537515 -0.00302079
   0.77400862  0.76967196  0.51339423
   0.67676918  0.16462485  0.00302079
   0.82751818  0.66029645  0.97685403
CIS                                     
           1
     6.398583    0.027185   -3.556706
    -2.037961    5.959315   -3.682160
     0.152921    0.044918    7.563658
   Li   Bi   S 
   9   1   6
Direct configuration=    21
   0.01868762  0.43245732  0.26637621
   0.15505218 -0.02485237  0.73563535
   0.00000000  0.00000000  0.00000000
   0.22194818  0.83849443  0.25718690
   0.56913470  0.76927963  0.74099573
   0.43086530  0.23072037  0.25900427
   0.77805182  0.16150557  0.74281410
   0.84494782  0.02485237  0.26436465
  -0.01868762  0.56754268  0.73362379
   0.50000000  0.50000000  0.00000000
   0.22342818  0.22865864  0.48521593
   0.17491500  0.33950983  0.02648274
   0.32095815  0.83682794 -0.00299258
   0.77657182  0.77134136  0.51478407
   0.67904185  0.16317206  0.00299258
   0.82508500  0.66049017  0.97351726
CIS                                     
           1
     6.424948    0.038382   -3.549976
    -2.037904    5.983991   -3.678554
     0.148345    0.033346    7.539749
   Li   Bi   S 
   9   1   6
Direct configuration=    22
   0.01999938  0.43203806  0.26861486
   0.15451322 -0.02451415  0.73584920
   0.00000000  0.00000000  0.00000000
   0.22072098  0.83878500  0.25643780
   0.57041875  0.76928973  0.73981758
   0.42958125  0.23071027  0.26018242
   0.77927902  0.16121500  0.74356320
   0.84548678  0.02451415  0.26415080
  -0.01999938  0.56796194  0.73138514
   0.50000000  0.50000000  0.00000000
   0.22249029  0.22886849  0.48402200
   0.17515529  0.34142464  0.02948242
   0.32158365  0.83857080 -0.00337181
   0.77750971  0.77113151  0.51597800
   0.67841635  0.16142920  0.00337181
   0.82484471  0.65857536  0.97051758
CIS                                     
           1
     6.462990    0.054536   -3.540265
    -2.037822    6.019594   -3.673350
     0.141742    0.016648    7.505252
   Li   Bi   S 
   9   1   6
Direct configuration=    23
   0.02188807  0.43143828  0.27185443
   0.15373889 -0.02402614  0.73616079
   0.00000000  0.00000000  0.00000000
   0.21895660  0.83920371  0.25535759
   0.57226091  0.76929764  0.73810237
   0.42773909  0.23070236  0.26189763
   0.78104340  0.16079629  0.74464341
   0.84626111  0.02402614  0.26383921
  -0.02188807  0.56856172  0.72814557
   0.50000000  0.50000000  0.00000000
   0.22114078  0.22916923  0.48229567
   0.17550223  0.34418377  0.03382096
   0.32247826  0.84107256 -0.00393280
   0.77885922  0.77083077  0.51770433
   0.67752174  0.15892744  0.00393280
   0.82449777  0.65581623  0.96617904
CIS                                     
           1
     6.467635    0.064941   -3.531797
    -2.033952    6.013121   -3.672618
     0.137596    0.000360    7.479246
   Li   Bi   S 
   9   1   6
Direct configuration=    24
   0.02190799  0.43012980  0.27462100
   0.15426084 -0.02166753  0.73745431
   0.00000000  0.00000000  0.00000000
   0.21731387  0.83827389  0.25303569
   0.57409229  0.76879947  0.73620602
   0.42590771  0.23120053  0.26379398
   0.78268613  0.16172611  0.74696531
   0.84573916  0.02166753  0.26254569
  -0.02190799  0.56987020  0.72537900
   0.50000000  0.50000000  0.00000000
   0.21968140  0.22932776  0.48124866
   0.17664872  0.34693492  0.03674813
   0.32303256  0.84020095 -0.00535598
   0.78031860  0.77067224  0.51875134
   0.67696744  0.15979905  0.00535598
   0.82335128  0.65306508  0.96325187
CIS                                     
           1
     6.481569    0.096155   -3.506394
    -2.022345    5.993699   -3.670422
     0.125158   -0.048501    7.401229
   Li   Bi   S 
   9   1   6
Direct configuration=    25
   0.02198011  0.42622236  0.28296457
   0.15582827 -0.01457630  0.74135422
   0.00000000  0.00000000  0.00000000
   0.21238279  0.83547114  0.24604372
   0.57957241  0.76727857  0.73047153
   0.42042759  0.23272143  0.26952847
   0.78761721  0.16452886  0.75395728
   0.84417173  0.01457630  0.25864578
  -0.02198011  0.57377764  0.71703543
   0.50000000  0.50000000  0.00000000
   0.21530411  0.22980291  0.47810181
   0.18009392  0.35521503  0.04557125
   0.32468828  0.83756895 -0.00965380
   0.78469589  0.77019709  0.52189819
   0.67531172  0.16243105  0.00965380
   0.81990608  0.64478497  0.95442875
CIS                                     
           1
     6.495022    0.097895   -3.510235
    -2.035537    5.996162   -3.693975
     0.130436   -0.065731    7.418162
   Li   Bi   S 
   9   1   6
Direct configuration=    26
   0.02192935  0.42575284  0.28593973
   0.15710217 -0.01209359  0.74250257
   0.00000000  0.00000000  0.00000000
   0.21091397  0.83348800  0.24361754
   0.58061853  0.76679991  0.72801896
   0.41938147  0.23320009  0.27198104
   0.78908603  0.16651200  0.75638346
   0.84289783  0.01209359  0.25749743
  -0.02192935  0.57424716  0.71406027
   0.50000000  0.50000000  0.00000000
   0.21339830  0.22856145  0.47724826
   0.18142284  0.35767017  0.04832651
   0.32454355  0.83692143 -0.01077147
   0.78660170  0.77143855  0.52275174
   0.67545645  0.16307857  0.01077147
   0.81857716  0.64232983  0.95167349
CIS                                     
           1
     6.535380    0.103114   -3.521756
    -2.075115    6.003550   -3.764637
     0.146268   -0.117422    7.468962
   Li   Bi   S 
   9   1   6
Direct configuration=    27
   0.02177571  0.42437044  0.29485265
   0.16092966 -0.00463955  0.74597104
   0.00000000  0.00000000  0.00000000
   0.20650535  0.82752129  0.23632476
   0.58374683  0.76534261  0.72065973
   0.41625317  0.23465739  0.27934027
   0.79349465  0.17247871  0.76367624
   0.83907034  0.00463955  0.25402896
  -0.02177571  0.57562956  0.70514735
   0.50000000  0.50000000  0.00000000
   0.20768602  0.22483272  0.47467898
   0.18541538  0.36505528  0.05661140
   0.32410640  0.83497015 -0.01412894
   0.79231398  0.77516728  0.52532102
   0.67589360  0.16502985  0.01412894
   0.81458462  0.63494472  0.94338860
CIS                                     
           1
     6.616098    0.113551   -3.544800
    -2.154270    6.018326   -3.905960
     0.177933   -0.220803    7.570562
   Li   Bi   S 
   9   1   6
Direct configuration=    28
   0.02146152  0.42176148  0.31260591
   0.16861942  0.01030541  0.75304865
   0.00000000  0.00000000  0.00000000
   0.19767431  0.81548319  0.22165265
   0.58994247  0.76230028  0.70593033
   0.41005753  0.23769972  0.29406967
   0.80232569  0.18451681  0.77834835
   0.83138058 -0.01030541  0.24695135
  -0.02146152  0.57823852  0.68739409
   0.50000000  0.50000000  0.00000000
   0.19629201  0.21734857  0.46948813
   0.19343569  0.37994472  0.07329724
   0.32321408  0.83101510 -0.02087145
   0.80370799  0.78265143  0.53051187
   0.67678592  0.16898490  0.02087145
   0.80656431  0.62005528  0.92670276
CIS                                     
           1
     6.580022    0.108886   -3.534501
    -2.118893    6.011722   -3.842798
     0.163780   -0.174598    7.525154
   Li   Bi   S 
   9   1   6
Direct configuration=    29
   0.02160585  0.42279023  0.30473103
   0.16515142  0.00358998  0.74975954
   0.00000000  0.00000000  0.00000000
   0.20163491  0.82095870  0.22829015
   0.58722872  0.76377400  0.71252673
   0.41277128  0.23622600  0.28747327
   0.79836509  0.17904130  0.77171085
   0.83484858 -0.00358998  0.25024046
  -0.02160585  0.57720977  0.69526897
   0.50000000  0.50000000  0.00000000
   0.20135806  0.22071854  0.47185550
   0.18981837  0.37318127  0.06573320
   0.32362948  0.83283012 -0.01783201
   0.79864194  0.77928146  0.52814450
   0.67637052  0.16716988  0.01783201
   0.81018163  0.62681873  0.93426680
CIS                                     
           1
     6.581993    0.114188   -3.534588
    -2.120753    6.005850   -3.854372
     0.165835   -0.185790    7.528989
   Li   Bi   S 
   9   1   6
Direct configuration=    30
   0.02189353  0.42280093  0.30701918
   0.16646324  0.00557052  0.75085162
   0.00000000  0.00000000  0.00000000
   0.20031913  0.81886944  0.22602457
   0.58796559  0.76337896  0.71051318
   0.41203441  0.23662104  0.28948682
   0.79968087  0.18113056  0.77397643
   0.83353676 -0.00557052  0.24914838
  -0.02189353  0.57719907  0.69298082
   0.50000000  0.50000000  0.00000000
   0.19974770  0.21931802  0.47134548
   0.19148018  0.37538596  0.06901289
   0.32350985  0.83263190 -0.01825321
   0.80025230  0.78068198  0.52865452
   0.67649015  0.16736810  0.01825321
   0.80851982  0.62461404  0.93098711
CIS                                     
           1
     6.587904    0.130093   -3.534849
    -2.126331    5.988233   -3.889093
     0.171997   -0.219367    7.540493
   Li   Bi   S 
   9   1   6
Direct configuration=    31
   0.02275800  0.42284518  0.31388707
   0.17040068  0.01152093  0.75414081
   0.00000000  0.00000000  0.00000000
   0.19636866  0.81258589  0.21921207
   0.59017262  0.76217931  0.70446466
   0.40982738  0.23782069  0.29553534
   0.80363134  0.18741411  0.78078893
   0.82959932 -0.01152093  0.24585919
  -0.02275800  0.57715482  0.68611293
   0.50000000  0.50000000  0.00000000
   0.19491658  0.21511351  0.46980818
   0.19646923  0.38202092  0.07886955
   0.32315049  0.83203458 -0.01951866
   0.80508342  0.78488649  0.53019182
   0.67684951  0.16796542  0.01951866
   0.80353077  0.61797908  0.92113045
CIS                                     
           1
     6.599726    0.161904   -3.535370
    -2.137488    5.953000   -3.958535
     0.184321   -0.286520    7.563503
   Li   Bi   S 
   9   1   6
Direct configuration=    32
   0.02449572  0.42300696  0.32764426
   0.17828769  0.02347536  0.76079754
   0.00000000  0.00000000  0.00000000
   0.18844859  0.79992333  0.20549153
   0.59456487  0.75969211  0.69231963
   0.40543513  0.24030789  0.30768037
   0.81155141  0.20007667  0.79450947
   0.82171231 -0.02347536  0.23920246
  -0.02449572  0.57699304  0.67235574
   0.50000000  0.50000000  0.00000000
   0.18525414  0.20668658  0.46668988
   0.20646922  0.39541734  0.09868974
   0.32242886  0.83082379 -0.02206093
   0.81474586  0.79331342  0.53331012
   0.67757114  0.16917621  0.02206093
   0.79353078  0.60458266  0.90131026
CIS                                     
           1
     6.623370    0.225526   -3.536413
    -2.159802    5.882533   -4.097421
     0.208970   -0.420826    7.609522
   Li   Bi   S 
   9   1   6
Direct configuration=    33
   0.02800777  0.42362768  0.35525080
   0.19411179  0.04760561  0.77443038
  -0.00000000  0.00000000  0.00000000
   0.17252941  0.77420671  0.17765845
   0.60326036  0.75436012  0.66782964
   0.39673964  0.24563988  0.33217036
   0.82747059  0.22579329  0.82234255
   0.80588821 -0.04760561  0.22556962
  -0.02800777  0.57637232  0.64474920
   0.50000000  0.50000000  0.00000000
   0.16592759  0.18975741  0.46027598
   0.22655997  0.42272777  0.13877023
   0.32097355  0.82833630 -0.02719246
   0.83407241  0.81024259  0.53972402
   0.67902645  0.17166370  0.02719246
   0.77344003  0.57727223  0.86122977
CIS                                     
           1
     6.606417    0.179909   -3.535665
    -2.143803    5.933058   -3.997839
     0.191297   -0.324528    7.576526
   Li   Bi   S 
   9   1   6
Direct configuration=    34
   0.02543250  0.42274395  0.33530521
   0.18268893  0.02996520  0.76417914
   0.00000000  0.00000000  0.00000000
   0.18406465  0.79323647  0.19820674
   0.59715886  0.75871445  0.68569983
   0.40284114  0.24128555  0.31430017
   0.81593535  0.20676353  0.80179426
   0.81731107 -0.02996520  0.23582086
  -0.02543250  0.57725605  0.66469479
   0.50000000  0.50000000  0.00000000
   0.17978974  0.20201483  0.46513681
   0.21201477  0.40236859  0.10936301
   0.32203546  0.83021838 -0.02344105
   0.82021026  0.79798517  0.53486319
   0.67796454  0.16978162  0.02344105
   0.78798523  0.59763141  0.89063699
CIS                                     
           1
     6.586724    0.203556   -3.535518
    -2.111102    5.904956   -3.989623
     0.174466   -0.337182    7.547355
   Li   Bi   S 
   9   1   6
Direct configuration=    35
   0.02805810  0.42413326  0.33998441
   0.18714433  0.03485526  0.76742546
   0.00000000  0.00000000  0.00000000
   0.17980270  0.78582253  0.19115020
   0.59773669  0.75712770  0.67868533
   0.40226331  0.24287230  0.32131467
   0.82019730  0.21417747  0.80885080
   0.81285567 -0.03485526  0.23257454
  -0.02805810  0.57586674  0.66001559
   0.50000000  0.50000000  0.00000000
   0.17534713  0.19724818  0.46525036
   0.21843706  0.41035057  0.12286956
   0.32145444  0.83062508 -0.02302537
   0.82465287  0.80275182  0.53474964
   0.67854556  0.16937492  0.02302537
   0.78156294  0.58964943  0.87713044
CIS                                     
           1
     6.527645    0.274499   -3.535076
    -2.012999    5.820650   -3.964975
     0.123975   -0.375146    7.459840
   Li   Bi   S 
   9   1   6
Direct configuration=    36
   0.03597839  0.42832273  0.35410331
   0.20051408  0.04956500  0.77720842
   0.00000000  0.00000000  0.00000000
   0.16700404  0.76347430  0.16986093
   0.59942296  0.75228632  0.65750063
   0.40057704  0.24771368  0.34249937
   0.83299596  0.23652570  0.83014007
   0.79948592 -0.04956500  0.22279158
  -0.03597839  0.57167727  0.64589669
   0.50000000  0.50000000  0.00000000
   0.16204634  0.18293464  0.46561365
   0.23778297  0.43443102  0.16362752
   0.31970819  0.83186132 -0.02176774
   0.83795366  0.81706536  0.53438635
   0.68029181  0.16813868  0.02176774
   0.76221703  0.56556898  0.83637248