  16  16   1   0
  0.1978881E+02  0.6204655E-09  0.6495613E-09  0.7856009E-09  0.1000000E-15
  1.000000000000000E-004
  CAR 
 CIS                                     
      7.38853994    -12.13778392  301      1.07909654      1.00000000
    -12.138  0.0000E+00  0.0000E+00
    -12.073  0.0000E+00  0.0000E+00
    -12.008  0.0000E+00  0.0000E+00
    -11.943  0.0000E+00  0.0000E+00
    -11.877  0.0000E+00  0.0000E+00
    -11.812  0.0000E+00  0.0000E+00
    -11.747  0.0000E+00  0.0000E+00
    -11.682  0.0000E+00  0.0000E+00
    -11.617  0.0000E+00  0.0000E+00
    -11.552  0.0000E+00  0.0000E+00
    -11.487  0.1245E-12  0.8102E-14
    -11.422  0.6974E-08  0.4540E-09
    -11.357  0.1490E-04  0.9703E-06
    -11.292  0.1401E-02  0.9216E-04
    -11.227  0.1002E-01  0.7441E-03
    -11.161  0.2577E-01  0.2421E-02
    -11.096  0.6320E-01  0.6535E-02
    -11.031  0.8631E-01  0.1215E-01
    -10.966  0.1361E+00  0.2101E-01
    -10.901  0.1280E+00  0.2934E-01
    -10.836  0.9675E-01  0.3564E-01
    -10.771  0.6560E-01  0.3991E-01
    -10.706  0.7282E-01  0.4465E-01
    -10.641  0.9866E-01  0.5107E-01
    -10.576  0.1363E+00  0.5994E-01
    -10.511  0.1501E+00  0.6971E-01
    -10.446  0.9770E-01  0.7607E-01
    -10.380  0.1268E+00  0.8432E-01
    -10.315  0.5072E+00  0.1173E+00
    -10.250  0.5154E+00  0.1509E+00
    -10.185  0.1510E+00  0.1607E+00
    -10.120  0.1373E-01  0.1616E+00
    -10.055  0.2104E-03  0.1616E+00
     -9.990  0.2531E-06  0.1616E+00
     -9.925  0.1482E-10  0.1616E+00
     -9.860  0.3318E-16  0.1616E+00
     -9.795  0.0000E+00  0.1616E+00
     -9.730  0.0000E+00  0.1616E+00
     -9.664  0.0000E+00  0.1616E+00
     -9.599  0.0000E+00  0.1616E+00
     -9.534  0.0000E+00  0.1616E+00
     -9.469  0.0000E+00  0.1616E+00
     -9.404  0.0000E+00  0.1616E+00
     -9.339  0.0000E+00  0.1616E+00
     -9.274  0.0000E+00  0.1616E+00
     -9.209  0.0000E+00  0.1616E+00
     -9.144  0.0000E+00  0.1616E+00
     -9.079  0.0000E+00  0.1616E+00
     -9.014  0.0000E+00  0.1616E+00
     -8.948  0.0000E+00  0.1616E+00
     -8.883  0.0000E+00  0.1616E+00
     -8.818  0.0000E+00  0.1616E+00
     -8.753  0.0000E+00  0.1616E+00
     -8.688  0.0000E+00  0.1616E+00
     -8.623  0.0000E+00  0.1616E+00
     -8.558  0.0000E+00  0.1616E+00
     -8.493  0.0000E+00  0.1616E+00
     -8.428  0.0000E+00  0.1616E+00
     -8.363  0.0000E+00  0.1616E+00
     -8.298  0.0000E+00  0.1616E+00
     -8.233  0.0000E+00  0.1616E+00
     -8.167  0.0000E+00  0.1616E+00
     -8.102  0.0000E+00  0.1616E+00
     -8.037  0.0000E+00  0.1616E+00
     -7.972  0.0000E+00  0.1616E+00
     -7.907  0.0000E+00  0.1616E+00
     -7.842  0.0000E+00  0.1616E+00
     -7.777  0.0000E+00  0.1616E+00
     -7.712  0.0000E+00  0.1616E+00
     -7.647  0.0000E+00  0.1616E+00
     -7.582  0.0000E+00  0.1616E+00
     -7.517  0.0000E+00  0.1616E+00
     -7.451  0.0000E+00  0.1616E+00
     -7.386  0.0000E+00  0.1616E+00
     -7.321  0.0000E+00  0.1616E+00
     -7.256  0.0000E+00  0.1616E+00
     -7.191  0.0000E+00  0.1616E+00
     -7.126  0.0000E+00  0.1616E+00
     -7.061  0.0000E+00  0.1616E+00
     -6.996  0.0000E+00  0.1616E+00
     -6.931  0.0000E+00  0.1616E+00
     -6.866  0.0000E+00  0.1616E+00
     -6.801  0.0000E+00  0.1616E+00
     -6.736  0.0000E+00  0.1616E+00
     -6.670  0.0000E+00  0.1616E+00
     -6.605  0.0000E+00  0.1616E+00
     -6.540  0.0000E+00  0.1616E+00
     -6.475  0.0000E+00  0.1616E+00
     -6.410  0.0000E+00  0.1616E+00
     -6.345  0.0000E+00  0.1616E+00
     -6.280  0.0000E+00  0.1616E+00
     -6.215  0.0000E+00  0.1616E+00
     -6.150  0.0000E+00  0.1616E+00
     -6.085  0.0000E+00  0.1616E+00
     -6.020  0.0000E+00  0.1616E+00
     -5.954  0.0000E+00  0.1616E+00
     -5.889  0.0000E+00  0.1616E+00
     -5.824  0.0000E+00  0.1616E+00
     -5.759  0.0000E+00  0.1616E+00
     -5.694  0.0000E+00  0.1616E+00
     -5.629  0.0000E+00  0.1616E+00
     -5.564  0.0000E+00  0.1616E+00
     -5.499  0.0000E+00  0.1616E+00
     -5.434  0.0000E+00  0.1616E+00
     -5.369  0.0000E+00  0.1616E+00
     -5.304  0.0000E+00  0.1616E+00
     -5.238  0.0000E+00  0.1616E+00
     -5.173  0.0000E+00  0.1616E+00
     -5.108  0.0000E+00  0.1616E+00
     -5.043  0.0000E+00  0.1616E+00
     -4.978  0.0000E+00  0.1616E+00
     -4.913  0.0000E+00  0.1616E+00
     -4.848  0.0000E+00  0.1616E+00
     -4.783  0.0000E+00  0.1616E+00
     -4.718  0.1434E-13  0.1616E+00
     -4.653  0.1399E-08  0.1616E+00
     -4.588  0.5141E-05  0.1616E+00
     -4.523  0.7919E-03  0.1617E+00
     -4.457  0.6574E-02  0.1621E+00
     -4.392  0.5261E-02  0.1624E+00
     -4.327  0.1580E-01  0.1635E+00
     -4.262  0.3256E-01  0.1656E+00
     -4.197  0.4820E-01  0.1687E+00
     -4.132  0.5098E-01  0.1720E+00
     -4.067  0.2922E-01  0.1739E+00
     -4.002  0.7001E-01  0.1785E+00
     -3.937  0.1294E+00  0.1869E+00
     -3.872  0.3732E-01  0.1894E+00
     -3.807  0.4334E-01  0.1922E+00
     -3.741  0.7877E-01  0.1973E+00
     -3.676  0.1484E-01  0.1983E+00
     -3.611  0.6148E-02  0.1987E+00
     -3.546  0.4380E-01  0.2015E+00
     -3.481  0.4775E-01  0.2046E+00
     -3.416  0.6290E-02  0.2050E+00
     -3.351  0.5624E-02  0.2054E+00
     -3.286  0.1684E-01  0.2065E+00
     -3.221  0.6909E-01  0.2110E+00
     -3.156  0.3431E-01  0.2132E+00
     -3.091  0.1796E-01  0.2144E+00
     -3.025  0.8034E-01  0.2196E+00
     -2.960  0.9253E-01  0.2256E+00
     -2.895  0.5077E-01  0.2290E+00
     -2.830  0.3174E-01  0.2310E+00
     -2.765  0.5010E-02  0.2313E+00
     -2.700  0.2867E-01  0.2332E+00
     -2.635  0.5632E-01  0.2369E+00
     -2.570  0.3899E-01  0.2394E+00
     -2.505  0.1201E-01  0.2402E+00
     -2.440  0.1153E-01  0.2409E+00
     -2.375  0.1050E-01  0.2416E+00
     -2.310  0.7004E-03  0.2417E+00
     -2.244  0.2349E-05  0.2417E+00
     -2.179  0.3770E-06  0.2417E+00
     -2.114  0.2092E-03  0.2417E+00
     -2.049  0.8441E-02  0.2422E+00
     -1.984  0.4866E-01  0.2454E+00
     -1.919  0.7632E-01  0.2504E+00
     -1.854  0.5126E-01  0.2537E+00
     -1.789  0.9521E-01  0.2599E+00
     -1.724  0.1494E+00  0.2696E+00
     -1.659  0.1464E+00  0.2792E+00
     -1.594  0.1671E+00  0.2900E+00
     -1.528  0.1284E+00  0.2984E+00
     -1.463  0.1632E+00  0.3090E+00
     -1.398  0.1354E+00  0.3178E+00
     -1.333  0.8125E-01  0.3231E+00
     -1.268  0.2176E-01  0.3245E+00
     -1.203  0.1653E-01  0.3256E+00
     -1.138  0.5666E-01  0.3293E+00
     -1.073  0.1533E+00  0.3393E+00
     -1.008  0.1976E+00  0.3521E+00
     -0.943  0.1397E+00  0.3612E+00
     -0.878  0.8236E-01  0.3666E+00
     -0.813  0.1384E+00  0.3756E+00
     -0.747  0.1295E+00  0.3840E+00
     -0.682  0.8652E-01  0.3897E+00
     -0.617  0.1065E+00  0.3966E+00
     -0.552  0.1117E+00  0.4039E+00
     -0.487  0.1258E+00  0.4120E+00
     -0.422  0.1187E+00  0.4198E+00
     -0.357  0.1110E+00  0.4270E+00
     -0.292  0.1486E+00  0.4367E+00
     -0.227  0.1599E+00  0.4471E+00
     -0.162  0.1635E+00  0.4577E+00
     -0.097  0.2206E+00  0.4721E+00
     -0.031  0.1856E+00  0.4842E+00
      0.034  0.1785E+00  0.4958E+00
      0.099  0.1343E+00  0.5045E+00
      0.164  0.1440E+00  0.5139E+00
      0.229  0.1577E+00  0.5241E+00
      0.294  0.1286E+00  0.5325E+00
      0.359  0.1787E+00  0.5441E+00
      0.424  0.1975E+00  0.5570E+00
      0.489  0.1144E+00  0.5644E+00
      0.554  0.1513E+00  0.5743E+00
      0.619  0.1919E+00  0.5868E+00
      0.685  0.2982E+00  0.6062E+00
      0.750  0.2795E+00  0.6244E+00
      0.815  0.2192E+00  0.6386E+00
      0.880  0.1102E+00  0.6458E+00
      0.945  0.9871E-02  0.6465E+00
      1.010  0.6261E-04  0.6465E+00
      1.075  0.1851E-07  0.6465E+00
      1.140  0.2200E-12  0.6465E+00
      1.205  0.0000E+00  0.6465E+00
      1.270  0.0000E+00  0.6465E+00
      1.335  0.0000E+00  0.6465E+00
      1.400  0.0000E+00  0.6465E+00
      1.466  0.0000E+00  0.6465E+00
      1.531  0.0000E+00  0.6465E+00
      1.596  0.0000E+00  0.6465E+00
      1.661  0.0000E+00  0.6465E+00
      1.726  0.0000E+00  0.6465E+00
      1.791  0.0000E+00  0.6465E+00
      1.856  0.0000E+00  0.6465E+00
      1.921  0.0000E+00  0.6465E+00
      1.986  0.0000E+00  0.6465E+00
      2.051  0.0000E+00  0.6465E+00
      2.116  0.0000E+00  0.6465E+00
      2.182  0.0000E+00  0.6465E+00
      2.247  0.0000E+00  0.6465E+00
      2.312  0.0000E+00  0.6465E+00
      2.377  0.0000E+00  0.6465E+00
      2.442  0.0000E+00  0.6465E+00
      2.507  0.0000E+00  0.6465E+00
      2.572  0.0000E+00  0.6465E+00
      2.637  0.0000E+00  0.6465E+00
      2.702  0.0000E+00  0.6465E+00
      2.767  0.0000E+00  0.6465E+00
      2.832  0.0000E+00  0.6465E+00
      2.897  0.0000E+00  0.6465E+00
      2.963  0.0000E+00  0.6465E+00
      3.028  0.0000E+00  0.6465E+00
      3.093  0.0000E+00  0.6465E+00
      3.158  0.0000E+00  0.6465E+00
      3.223  0.3318E-16  0.6465E+00
      3.288  0.1383E-10  0.6465E+00
      3.353  0.2114E-06  0.6465E+00
      3.418  0.1278E-03  0.6465E+00
      3.483  0.3645E-02  0.6467E+00
      3.548  0.6788E-02  0.6472E+00
      3.613  0.9281E-03  0.6472E+00
      3.679  0.6939E-05  0.6472E+00
      3.744  0.2192E-08  0.6472E+00
      3.809  0.2615E-13  0.6472E+00
      3.874  0.6586E-15  0.6472E+00
      3.939  0.1612E-09  0.6472E+00
      4.004  0.1460E-05  0.6472E+00
      4.069  0.5327E-03  0.6472E+00
      4.134  0.9589E-02  0.6479E+00
      4.199  0.1183E-01  0.6486E+00
      4.264  0.3049E-02  0.6488E+00
      4.329  0.2281E-01  0.6503E+00
      4.395  0.2021E-01  0.6516E+00
      4.460  0.2442E-01  0.6532E+00
      4.525  0.1118E+00  0.6605E+00
      4.590  0.1330E+00  0.6692E+00
      4.655  0.1441E+00  0.6785E+00
      4.720  0.1014E+00  0.6851E+00
      4.785  0.6144E-01  0.6891E+00
      4.850  0.7035E-01  0.6937E+00
      4.915  0.1334E+00  0.7024E+00
      4.980  0.1170E+00  0.7100E+00
      5.045  0.7867E-01  0.7151E+00
      5.110  0.1273E+00  0.7234E+00
      5.176  0.6368E-01  0.7276E+00
      5.241  0.2776E-01  0.7294E+00
      5.306  0.3501E-01  0.7317E+00
      5.371  0.8673E-01  0.7373E+00
      5.436  0.8968E-01  0.7431E+00
      5.501  0.1011E+00  0.7497E+00
      5.566  0.1233E+00  0.7578E+00
      5.631  0.7819E-01  0.7628E+00
      5.696  0.1532E+00  0.7728E+00
      5.761  0.1443E+00  0.7822E+00
      5.826  0.5296E-01  0.7856E+00
      5.892  0.6325E-01  0.7898E+00
      5.957  0.1004E+00  0.7963E+00
      6.022  0.1315E+00  0.8049E+00
      6.087  0.1426E+00  0.8141E+00
      6.152  0.1261E+00  0.8223E+00
      6.217  0.1098E+00  0.8295E+00
      6.282  0.1408E+00  0.8387E+00
      6.347  0.3785E-01  0.8411E+00
      6.412  0.2731E-01  0.8429E+00
      6.477  0.5713E-01  0.8466E+00
      6.542  0.2674E-01  0.8484E+00
      6.607  0.1980E-02  0.8485E+00
      6.673  0.1599E-04  0.8485E+00
      6.738  0.7068E-08  0.8485E+00
      6.803  0.1248E-12  0.8485E+00
      6.868  0.0000E+00  0.8485E+00
      6.933  0.0000E+00  0.8485E+00
      6.998  0.0000E+00  0.8485E+00
      7.063  0.0000E+00  0.8485E+00
      7.128  0.0000E+00  0.8485E+00
      7.193  0.0000E+00  0.8485E+00
      7.258  0.0000E+00  0.8485E+00
      7.323  0.0000E+00  0.8485E+00
      7.389  0.0000E+00  0.8485E+00
      7.38853994    -12.13778392  301      1.07909654      1.00000000
    -12.138  0.0000E+00  0.0000E+00  0.0000E+00
    -12.073  0.0000E+00  0.0000E+00  0.0000E+00
    -12.008  0.0000E+00  0.0000E+00  0.0000E+00
    -11.943  0.0000E+00  0.0000E+00  0.0000E+00
    -11.877  0.0000E+00  0.0000E+00  0.0000E+00
    -11.812  0.0000E+00  0.0000E+00  0.0000E+00
    -11.747  0.0000E+00  0.0000E+00  0.0000E+00
    -11.682  0.0000E+00  0.0000E+00  0.0000E+00
    -11.617  0.0000E+00  0.0000E+00  0.0000E+00
    -11.552  0.0000E+00  0.0000E+00  0.0000E+00
    -11.487  0.5540E-14  0.2409E-16  0.0000E+00
    -11.422  0.3104E-09  0.1350E-11  0.0000E+00
    -11.357  0.6630E-06  0.2922E-08  0.0000E+00
    -11.292  0.6208E-04  0.3555E-06  0.0000E+00
    -11.227  0.4184E-03  0.1026E-04  0.0000E+00
    -11.161  0.8941E-03  0.7729E-04  0.0000E+00
    -11.096  0.1802E-02  0.3148E-03  0.0000E+00
    -11.031  0.1946E-02  0.5935E-03  0.0000E+00
    -10.966  0.1796E-02  0.1189E-02  0.0000E+00
    -10.901  0.1016E-02  0.1194E-02  0.0000E+00
    -10.836  0.3653E-03  0.8194E-03  0.0000E+00
    -10.771  0.2095E-03  0.6132E-03  0.0000E+00
    -10.706  0.2758E-03  0.7436E-03  0.0000E+00
    -10.641  0.7836E-03  0.1200E-02  0.0000E+00
    -10.576  0.1931E-02  0.1250E-02  0.0000E+00
    -10.511  0.1201E-02  0.1065E-02  0.0000E+00
    -10.446  0.9599E-03  0.7039E-03  0.0000E+00
    -10.380  0.2359E-02  0.1143E-02  0.0000E+00
    -10.315  0.9214E-02  0.4685E-02  0.0000E+00
    -10.250  0.6103E-02  0.5276E-02  0.0000E+00
    -10.185  0.9025E-03  0.1659E-02  0.0000E+00
    -10.120  0.3613E-04  0.1488E-03  0.0000E+00
    -10.055  0.2298E-06  0.2240E-05  0.0000E+00
     -9.990  0.1079E-09  0.2654E-08  0.0000E+00
     -9.925  0.2847E-14  0.1540E-12  0.0000E+00
     -9.860  0.2637E-20  0.3424E-18  0.0000E+00
     -9.795  0.0000E+00  0.0000E+00  0.0000E+00
     -9.730  0.0000E+00  0.0000E+00  0.0000E+00
     -9.664  0.0000E+00  0.0000E+00  0.0000E+00
     -9.599  0.0000E+00  0.0000E+00  0.0000E+00
     -9.534  0.0000E+00  0.0000E+00  0.0000E+00
     -9.469  0.0000E+00  0.0000E+00  0.0000E+00
     -9.404  0.0000E+00  0.0000E+00  0.0000E+00
     -9.339  0.0000E+00  0.0000E+00  0.0000E+00
     -9.274  0.0000E+00  0.0000E+00  0.0000E+00
     -9.209  0.0000E+00  0.0000E+00  0.0000E+00
     -9.144  0.0000E+00  0.0000E+00  0.0000E+00
     -9.079  0.0000E+00  0.0000E+00  0.0000E+00
     -9.014  0.0000E+00  0.0000E+00  0.0000E+00
     -8.948  0.0000E+00  0.0000E+00  0.0000E+00
     -8.883  0.0000E+00  0.0000E+00  0.0000E+00
     -8.818  0.0000E+00  0.0000E+00  0.0000E+00
     -8.753  0.0000E+00  0.0000E+00  0.0000E+00
     -8.688  0.0000E+00  0.0000E+00  0.0000E+00
     -8.623  0.0000E+00  0.0000E+00  0.0000E+00
     -8.558  0.0000E+00  0.0000E+00  0.0000E+00
     -8.493  0.0000E+00  0.0000E+00  0.0000E+00
     -8.428  0.0000E+00  0.0000E+00  0.0000E+00
     -8.363  0.0000E+00  0.0000E+00  0.0000E+00
     -8.298  0.0000E+00  0.0000E+00  0.0000E+00
     -8.233  0.0000E+00  0.0000E+00  0.0000E+00
     -8.167  0.0000E+00  0.0000E+00  0.0000E+00
     -8.102  0.0000E+00  0.0000E+00  0.0000E+00
     -8.037  0.0000E+00  0.0000E+00  0.0000E+00
     -7.972  0.0000E+00  0.0000E+00  0.0000E+00
     -7.907  0.0000E+00  0.0000E+00  0.0000E+00
     -7.842  0.0000E+00  0.0000E+00  0.0000E+00
     -7.777  0.0000E+00  0.0000E+00  0.0000E+00
     -7.712  0.0000E+00  0.0000E+00  0.0000E+00
     -7.647  0.0000E+00  0.0000E+00  0.0000E+00
     -7.582  0.0000E+00  0.0000E+00  0.0000E+00
     -7.517  0.0000E+00  0.0000E+00  0.0000E+00
     -7.451  0.0000E+00  0.0000E+00  0.0000E+00
     -7.386  0.0000E+00  0.0000E+00  0.0000E+00
     -7.321  0.0000E+00  0.0000E+00  0.0000E+00
     -7.256  0.0000E+00  0.0000E+00  0.0000E+00
     -7.191  0.0000E+00  0.0000E+00  0.0000E+00
     -7.126  0.0000E+00  0.0000E+00  0.0000E+00
     -7.061  0.0000E+00  0.0000E+00  0.0000E+00
     -6.996  0.0000E+00  0.0000E+00  0.0000E+00
     -6.931  0.0000E+00  0.0000E+00  0.0000E+00
     -6.866  0.0000E+00  0.0000E+00  0.0000E+00
     -6.801  0.0000E+00  0.0000E+00  0.0000E+00
     -6.736  0.0000E+00  0.0000E+00  0.0000E+00
     -6.670  0.0000E+00  0.0000E+00  0.0000E+00
     -6.605  0.0000E+00  0.0000E+00  0.0000E+00
     -6.540  0.0000E+00  0.0000E+00  0.0000E+00
     -6.475  0.0000E+00  0.0000E+00  0.0000E+00
     -6.410  0.0000E+00  0.0000E+00  0.0000E+00
     -6.345  0.0000E+00  0.0000E+00  0.0000E+00
     -6.280  0.0000E+00  0.0000E+00  0.0000E+00
     -6.215  0.0000E+00  0.0000E+00  0.0000E+00
     -6.150  0.0000E+00  0.0000E+00  0.0000E+00
     -6.085  0.0000E+00  0.0000E+00  0.0000E+00
     -6.020  0.0000E+00  0.0000E+00  0.0000E+00
     -5.954  0.0000E+00  0.0000E+00  0.0000E+00
     -5.889  0.0000E+00  0.0000E+00  0.0000E+00
     -5.824  0.0000E+00  0.0000E+00  0.0000E+00
     -5.759  0.0000E+00  0.0000E+00  0.0000E+00
     -5.694  0.0000E+00  0.0000E+00  0.0000E+00
     -5.629  0.0000E+00  0.0000E+00  0.0000E+00
     -5.564  0.0000E+00  0.0000E+00  0.0000E+00
     -5.499  0.0000E+00  0.0000E+00  0.0000E+00
     -5.434  0.0000E+00  0.0000E+00  0.0000E+00
     -5.369  0.0000E+00  0.0000E+00  0.0000E+00
     -5.304  0.0000E+00  0.0000E+00  0.0000E+00
     -5.238  0.0000E+00  0.0000E+00  0.0000E+00
     -5.173  0.0000E+00  0.0000E+00  0.0000E+00
     -5.108  0.0000E+00  0.0000E+00  0.0000E+00
     -5.043  0.0000E+00  0.0000E+00  0.0000E+00
     -4.978  0.0000E+00  0.0000E+00  0.0000E+00
     -4.913  0.0000E+00  0.0000E+00  0.0000E+00
     -4.848  0.0000E+00  0.0000E+00  0.0000E+00
     -4.783  0.0000E+00  0.0000E+00  0.0000E+00
     -4.718  0.2362E-16  0.4238E-16  0.0000E+00
     -4.653  0.2305E-11  0.4136E-11  0.0000E+00
     -4.588  0.8469E-08  0.1520E-07  0.0000E+00
     -4.523  0.1305E-05  0.2341E-05  0.0000E+00
     -4.457  0.1082E-04  0.1944E-04  0.0000E+00
     -4.392  0.7011E-05  0.1705E-04  0.0000E+00
     -4.327  0.1102E-04  0.7858E-04  0.0000E+00
     -4.262  0.8815E-04  0.2270E-03  0.0000E+00
     -4.197  0.2115E-03  0.3235E-03  0.0000E+00
     -4.132  0.1261E-03  0.2171E-03  0.0000E+00
     -4.067  0.1610E-03  0.2829E-03  0.0000E+00
     -4.002  0.4600E-03  0.8193E-03  0.0000E+00
     -3.937  0.1019E-02  0.1340E-02  0.0000E+00
     -3.872  0.4658E-03  0.4554E-03  0.0000E+00
     -3.807  0.2640E-03  0.6612E-03  0.0000E+00
     -3.741  0.4094E-03  0.1138E-02  0.0000E+00
     -3.676  0.5577E-04  0.1969E-03  0.0000E+00
     -3.611  0.7252E-04  0.1327E-03  0.0000E+00
     -3.546  0.7966E-03  0.5886E-03  0.0000E+00
     -3.481  0.1054E-02  0.4127E-03  0.0000E+00
     -3.416  0.1424E-03  0.4123E-04  0.0000E+00
     -3.351  0.3886E-05  0.4119E-04  0.0000E+00
     -3.286  0.1157E-03  0.1967E-03  0.0000E+00
     -3.221  0.7142E-03  0.8198E-03  0.0000E+00
     -3.156  0.3873E-03  0.3656E-03  0.0000E+00
     -3.091  0.8478E-03  0.2210E-03  0.0000E+00
     -3.025  0.5238E-02  0.1644E-02  0.0000E+00
     -2.960  0.4178E-02  0.2077E-02  0.0000E+00
     -2.895  0.9213E-03  0.8239E-03  0.0000E+00
     -2.830  0.2848E-03  0.3486E-03  0.0000E+00
     -2.765  0.1841E-03  0.4137E-04  0.0000E+00
     -2.700  0.2466E-02  0.2168E-03  0.0000E+00
     -2.635  0.5722E-02  0.7314E-03  0.0000E+00
     -2.570  0.4639E-02  0.6687E-03  0.0000E+00
     -2.505  0.1835E-02  0.1559E-03  0.0000E+00
     -2.440  0.1357E-02  0.2688E-03  0.0000E+00
     -2.375  0.1212E-02  0.2517E-03  0.0000E+00
     -2.310  0.8081E-04  0.1678E-04  0.0000E+00
     -2.244  0.2711E-06  0.5630E-07  0.0000E+00
     -2.179  0.9120E-08  0.2059E-07  0.0000E+00
     -2.114  0.4691E-05  0.1151E-04  0.0000E+00
     -2.049  0.1591E-03  0.4833E-03  0.0000E+00
     -1.984  0.9489E-03  0.2842E-02  0.0000E+00
     -1.919  0.1932E-02  0.3983E-02  0.0000E+00
     -1.854  0.1861E-02  0.2166E-02  0.0000E+00
     -1.789  0.5620E-02  0.3770E-02  0.0000E+00
     -1.724  0.8080E-02  0.5070E-02  0.0000E+00
     -1.659  0.1142E-01  0.4596E-02  0.0000E+00
     -1.594  0.2313E-01  0.6544E-02  0.0000E+00
     -1.528  0.1449E-01  0.4192E-02  0.0000E+00
     -1.463  0.1181E-01  0.4465E-02  0.0000E+00
     -1.398  0.7699E-02  0.3583E-02  0.0000E+00
     -1.333  0.5155E-02  0.2887E-02  0.0000E+00
     -1.268  0.1774E-02  0.1988E-02  0.0000E+00
     -1.203  0.5760E-02  0.7419E-03  0.0000E+00
     -1.138  0.1842E-01  0.2633E-02  0.0000E+00
     -1.073  0.3638E-01  0.1257E-01  0.0000E+00
     -1.008  0.4457E-01  0.1480E-01  0.0000E+00
     -0.943  0.2960E-01  0.7891E-02  0.0000E+00
     -0.878  0.1426E-01  0.4975E-02  0.0000E+00
     -0.813  0.3642E-01  0.5687E-02  0.0000E+00
     -0.747  0.2867E-01  0.5089E-02  0.0000E+00
     -0.682  0.1172E-01  0.6379E-02  0.0000E+00
     -0.617  0.1366E-01  0.1051E-01  0.0000E+00
     -0.552  0.1328E-01  0.1035E-01  0.0000E+00
     -0.487  0.2639E-01  0.8517E-02  0.0000E+00
     -0.422  0.3084E-01  0.6322E-02  0.0000E+00
     -0.357  0.3002E-01  0.6458E-02  0.0000E+00
     -0.292  0.3215E-01  0.1181E-01  0.0000E+00
     -0.227  0.3966E-01  0.1595E-01  0.0000E+00
     -0.162  0.4429E-01  0.1503E-01  0.0000E+00
     -0.097  0.4139E-01  0.1949E-01  0.0000E+00
     -0.031  0.2739E-01  0.1740E-01  0.0000E+00
      0.034  0.1405E-01  0.1703E-01  0.0000E+00
      0.099  0.1121E-01  0.1681E-01  0.0000E+00
      0.164  0.1519E-01  0.1887E-01  0.0000E+00
      0.229  0.1407E-01  0.1879E-01  0.0000E+00
      0.294  0.6756E-02  0.1602E-01  0.0000E+00
      0.359  0.1201E-01  0.2389E-01  0.0000E+00
      0.424  0.1788E-01  0.2101E-01  0.0000E+00
      0.489  0.1043E-01  0.1250E-01  0.0000E+00
      0.554  0.1673E-01  0.1951E-01  0.0000E+00
      0.619  0.2026E-01  0.2858E-01  0.0000E+00
      0.685  0.1576E-01  0.5103E-01  0.0000E+00
      0.750  0.9456E-02  0.4240E-01  0.0000E+00
      0.815  0.6349E-02  0.2689E-01  0.0000E+00
      0.880  0.4838E-02  0.9440E-02  0.0000E+00
      0.945  0.5682E-03  0.7686E-03  0.0000E+00
      1.010  0.4091E-05  0.5325E-05  0.0000E+00
      1.075  0.1317E-08  0.1744E-08  0.0000E+00
      1.140  0.1666E-13  0.2245E-13  0.0000E+00
      1.205  0.0000E+00  0.0000E+00  0.0000E+00
      1.270  0.0000E+00  0.0000E+00  0.0000E+00
      1.335  0.0000E+00  0.0000E+00  0.0000E+00
      1.400  0.0000E+00  0.0000E+00  0.0000E+00
      1.466  0.0000E+00  0.0000E+00  0.0000E+00
      1.531  0.0000E+00  0.0000E+00  0.0000E+00
      1.596  0.0000E+00  0.0000E+00  0.0000E+00
      1.661  0.0000E+00  0.0000E+00  0.0000E+00
      1.726  0.0000E+00  0.0000E+00  0.0000E+00
      1.791  0.0000E+00  0.0000E+00  0.0000E+00
      1.856  0.0000E+00  0.0000E+00  0.0000E+00
      1.921  0.0000E+00  0.0000E+00  0.0000E+00
      1.986  0.0000E+00  0.0000E+00  0.0000E+00
      2.051  0.0000E+00  0.0000E+00  0.0000E+00
      2.116  0.0000E+00  0.0000E+00  0.0000E+00
      2.182  0.0000E+00  0.0000E+00  0.0000E+00
      2.247  0.0000E+00  0.0000E+00  0.0000E+00
      2.312  0.0000E+00  0.0000E+00  0.0000E+00
      2.377  0.0000E+00  0.0000E+00  0.0000E+00
      2.442  0.0000E+00  0.0000E+00  0.0000E+00
      2.507  0.0000E+00  0.0000E+00  0.0000E+00
      2.572  0.0000E+00  0.0000E+00  0.0000E+00
      2.637  0.0000E+00  0.0000E+00  0.0000E+00
      2.702  0.0000E+00  0.0000E+00  0.0000E+00
      2.767  0.0000E+00  0.0000E+00  0.0000E+00
      2.832  0.0000E+00  0.0000E+00  0.0000E+00
      2.897  0.0000E+00  0.0000E+00  0.0000E+00
      2.963  0.0000E+00  0.0000E+00  0.0000E+00
      3.028  0.0000E+00  0.0000E+00  0.0000E+00
      3.093  0.0000E+00  0.0000E+00  0.0000E+00
      3.158  0.0000E+00  0.0000E+00  0.0000E+00
      3.223  0.4753E-16  0.3038E-18  0.0000E+00
      3.288  0.1981E-10  0.1266E-12  0.0000E+00
      3.353  0.3029E-06  0.1936E-08  0.0000E+00
      3.418  0.1830E-03  0.1170E-05  0.0000E+00
      3.483  0.5221E-02  0.3337E-04  0.0000E+00
      3.548  0.9723E-02  0.6213E-04  0.0000E+00
      3.613  0.1329E-02  0.8496E-05  0.0000E+00
      3.679  0.9940E-05  0.6352E-07  0.0000E+00
      3.744  0.3140E-08  0.2007E-10  0.0000E+00
      3.809  0.3745E-13  0.2393E-15  0.0000E+00
      3.874  0.5661E-15  0.5262E-16  0.0000E+00
      3.939  0.1386E-09  0.1288E-10  0.0000E+00
      4.004  0.1255E-05  0.1167E-06  0.0000E+00
      4.069  0.4579E-03  0.4256E-04  0.0000E+00
      4.134  0.8243E-02  0.7662E-03  0.0000E+00
      4.199  0.1017E-01  0.9457E-03  0.0000E+00
      4.264  0.2306E-02  0.2758E-03  0.0000E+00
      4.329  0.1632E-01  0.2313E-02  0.0000E+00
      4.395  0.1449E-01  0.2196E-02  0.0000E+00
      4.460  0.2348E-02  0.5035E-02  0.0000E+00
      4.525  0.9960E-02  0.2300E-01  0.0000E+00
      4.590  0.2548E-01  0.2362E-01  0.0000E+00
      4.655  0.2440E-01  0.1927E-01  0.0000E+00
      4.720  0.1861E-01  0.1159E-01  0.0000E+00
      4.785  0.2569E-01  0.9021E-02  0.0000E+00
      4.850  0.2209E-01  0.1028E-01  0.0000E+00
      4.915  0.2418E-01  0.2508E-01  0.0000E+00
      4.980  0.2536E-01  0.2276E-01  0.0000E+00
      5.045  0.3156E-01  0.1555E-01  0.0000E+00
      5.110  0.4207E-01  0.2390E-01  0.0000E+00
      5.176  0.2827E-01  0.9803E-02  0.0000E+00
      5.241  0.1154E-01  0.4674E-02  0.0000E+00
      5.306  0.5577E-02  0.6189E-02  0.0000E+00
      5.371  0.2222E-01  0.1420E-01  0.0000E+00
      5.436  0.6279E-01  0.1701E-01  0.0000E+00
      5.501  0.8452E-01  0.1685E-01  0.0000E+00
      5.566  0.1283E+00  0.3684E-01  0.0000E+00
      5.631  0.6615E-01  0.2137E-01  0.0000E+00
      5.696  0.6499E-01  0.2667E-01  0.0000E+00
      5.761  0.7028E-01  0.1973E-01  0.0000E+00
      5.826  0.2866E-01  0.1013E-01  0.0000E+00
      5.892  0.2708E-01  0.1517E-01  0.0000E+00
      5.957  0.3906E-01  0.2004E-01  0.0000E+00
      6.022  0.5897E-01  0.2806E-01  0.0000E+00
      6.087  0.8001E-01  0.3452E-01  0.0000E+00
      6.152  0.6664E-01  0.3327E-01  0.0000E+00
      6.217  0.7367E-01  0.2314E-01  0.0000E+00
      6.282  0.8228E-01  0.2790E-01  0.0000E+00
      6.347  0.1153E-01  0.7537E-02  0.0000E+00
      6.412  0.1022E-01  0.9466E-02  0.0000E+00
      6.477  0.3894E-01  0.1476E-01  0.0000E+00
      6.542  0.2239E-01  0.5219E-02  0.0000E+00
      6.607  0.2244E-02  0.2767E-03  0.0000E+00
      6.673  0.2091E-04  0.1926E-05  0.0000E+00
      6.738  0.9527E-08  0.8351E-09  0.0000E+00
      6.803  0.1692E-12  0.1473E-13  0.0000E+00
      6.868  0.0000E+00  0.0000E+00  0.0000E+00
      6.933  0.0000E+00  0.0000E+00  0.0000E+00
      6.998  0.0000E+00  0.0000E+00  0.0000E+00
      7.063  0.0000E+00  0.0000E+00  0.0000E+00
      7.128  0.0000E+00  0.0000E+00  0.0000E+00
      7.193  0.0000E+00  0.0000E+00  0.0000E+00
      7.258  0.0000E+00  0.0000E+00  0.0000E+00
      7.323  0.0000E+00  0.0000E+00  0.0000E+00
      7.389  0.0000E+00  0.0000E+00  0.0000E+00
      7.38853994    -12.13778392  301      1.07909654      1.00000000
    -12.138  0.0000E+00  0.0000E+00  0.0000E+00
    -12.073  0.0000E+00  0.0000E+00  0.0000E+00
    -12.008  0.0000E+00  0.0000E+00  0.0000E+00
    -11.943  0.0000E+00  0.0000E+00  0.0000E+00
    -11.877  0.0000E+00  0.0000E+00  0.0000E+00
    -11.812  0.0000E+00  0.0000E+00  0.0000E+00
    -11.747  0.0000E+00  0.0000E+00  0.0000E+00
    -11.682  0.0000E+00  0.0000E+00  0.0000E+00
    -11.617  0.0000E+00  0.0000E+00  0.0000E+00
    -11.552  0.0000E+00  0.0000E+00  0.0000E+00
    -11.487  0.5540E-14  0.2409E-16  0.0000E+00
    -11.422  0.3104E-09  0.1350E-11  0.0000E+00
    -11.357  0.6630E-06  0.2922E-08  0.0000E+00
    -11.292  0.6208E-04  0.3555E-06  0.0000E+00
    -11.227  0.4184E-03  0.1026E-04  0.0000E+00
    -11.161  0.8945E-03  0.7699E-04  0.0000E+00
    -11.096  0.1818E-02  0.3039E-03  0.0000E+00
    -11.031  0.1984E-02  0.5637E-03  0.0000E+00
    -10.966  0.1819E-02  0.1144E-02  0.0000E+00
    -10.901  0.9980E-03  0.1176E-02  0.0000E+00
    -10.836  0.3074E-03  0.8433E-03  0.0000E+00
    -10.771  0.1898E-03  0.6352E-03  0.0000E+00
    -10.706  0.2691E-03  0.7749E-03  0.0000E+00
    -10.641  0.8000E-03  0.1275E-02  0.0000E+00
    -10.576  0.1962E-02  0.1303E-02  0.0000E+00
    -10.511  0.1264E-02  0.1041E-02  0.0000E+00
    -10.446  0.1040E-02  0.6830E-03  0.0000E+00
    -10.380  0.2435E-02  0.1044E-02  0.0000E+00
    -10.315  0.8379E-02  0.4740E-02  0.0000E+00
    -10.250  0.6508E-02  0.5325E-02  0.0000E+00
    -10.185  0.1095E-02  0.1609E-02  0.0000E+00
    -10.120  0.3629E-04  0.1475E-03  0.0000E+00
    -10.055  0.2218E-06  0.2238E-05  0.0000E+00
     -9.990  0.1068E-09  0.2654E-08  0.0000E+00
     -9.925  0.2842E-14  0.1540E-12  0.0000E+00
     -9.860  0.2637E-20  0.3424E-18  0.0000E+00
     -9.795  0.0000E+00  0.0000E+00  0.0000E+00
     -9.730  0.0000E+00  0.0000E+00  0.0000E+00
     -9.664  0.0000E+00  0.0000E+00  0.0000E+00
     -9.599  0.0000E+00  0.0000E+00  0.0000E+00
     -9.534  0.0000E+00  0.0000E+00  0.0000E+00
     -9.469  0.0000E+00  0.0000E+00  0.0000E+00
     -9.404  0.0000E+00  0.0000E+00  0.0000E+00
     -9.339  0.0000E+00  0.0000E+00  0.0000E+00
     -9.274  0.0000E+00  0.0000E+00  0.0000E+00
     -9.209  0.0000E+00  0.0000E+00  0.0000E+00
     -9.144  0.0000E+00  0.0000E+00  0.0000E+00
     -9.079  0.0000E+00  0.0000E+00  0.0000E+00
     -9.014  0.0000E+00  0.0000E+00  0.0000E+00
     -8.948  0.0000E+00  0.0000E+00  0.0000E+00
     -8.883  0.0000E+00  0.0000E+00  0.0000E+00
     -8.818  0.0000E+00  0.0000E+00  0.0000E+00
     -8.753  0.0000E+00  0.0000E+00  0.0000E+00
     -8.688  0.0000E+00  0.0000E+00  0.0000E+00
     -8.623  0.0000E+00  0.0000E+00  0.0000E+00
     -8.558  0.0000E+00  0.0000E+00  0.0000E+00
     -8.493  0.0000E+00  0.0000E+00  0.0000E+00
     -8.428  0.0000E+00  0.0000E+00  0.0000E+00
     -8.363  0.0000E+00  0.0000E+00  0.0000E+00
     -8.298  0.0000E+00  0.0000E+00  0.0000E+00
     -8.233  0.0000E+00  0.0000E+00  0.0000E+00
     -8.167  0.0000E+00  0.0000E+00  0.0000E+00
     -8.102  0.0000E+00  0.0000E+00  0.0000E+00
     -8.037  0.0000E+00  0.0000E+00  0.0000E+00
     -7.972  0.0000E+00  0.0000E+00  0.0000E+00
     -7.907  0.0000E+00  0.0000E+00  0.0000E+00
     -7.842  0.0000E+00  0.0000E+00  0.0000E+00
     -7.777  0.0000E+00  0.0000E+00  0.0000E+00
     -7.712  0.0000E+00  0.0000E+00  0.0000E+00
     -7.647  0.0000E+00  0.0000E+00  0.0000E+00
     -7.582  0.0000E+00  0.0000E+00  0.0000E+00
     -7.517  0.0000E+00  0.0000E+00  0.0000E+00
     -7.451  0.0000E+00  0.0000E+00  0.0000E+00
     -7.386  0.0000E+00  0.0000E+00  0.0000E+00
     -7.321  0.0000E+00  0.0000E+00  0.0000E+00
     -7.256  0.0000E+00  0.0000E+00  0.0000E+00
     -7.191  0.0000E+00  0.0000E+00  0.0000E+00
     -7.126  0.0000E+00  0.0000E+00  0.0000E+00
     -7.061  0.0000E+00  0.0000E+00  0.0000E+00
     -6.996  0.0000E+00  0.0000E+00  0.0000E+00
     -6.931  0.0000E+00  0.0000E+00  0.0000E+00
     -6.866  0.0000E+00  0.0000E+00  0.0000E+00
     -6.801  0.0000E+00  0.0000E+00  0.0000E+00
     -6.736  0.0000E+00  0.0000E+00  0.0000E+00
     -6.670  0.0000E+00  0.0000E+00  0.0000E+00
     -6.605  0.0000E+00  0.0000E+00  0.0000E+00
     -6.540  0.0000E+00  0.0000E+00  0.0000E+00
     -6.475  0.0000E+00  0.0000E+00  0.0000E+00
     -6.410  0.0000E+00  0.0000E+00  0.0000E+00
     -6.345  0.0000E+00  0.0000E+00  0.0000E+00