 vasp.5.4.4.18Apr17-6-g9f103f2a35 (build Oct 27 2022 13:04:57) complex          
  
 executed on             LinuxIFC date 2024.06.29  13:27:27
 running on   14 total cores
 distrk:  each k-point on   14 cores,    1 groups
 distr:  one band on NCORES_PER_BAND=   1 cores,   14 groups


--------------------------------------------------------------------------------------------------------


 INCAR:
 POTCAR:    PAW_PBE Na 08Apr2002                  
 POTCAR:    PAW_PBE Al 04Jan2001                  
 POTCAR:    PAW_PBE Se 06Sep2000                  

 ----------------------------------------------------------------------------- 
|                                                                             |
|           W    W    AA    RRRRR   N    N  II  N    N   GGGG   !!!           |
|           W    W   A  A   R    R  NN   N  II  NN   N  G    G  !!!           |
|           W    W  A    A  R    R  N N  N  II  N N  N  G       !!!           |
|           W WW W  AAAAAA  RRRRR   N  N N  II  N  N N  G  GGG   !            |
|           WW  WW  A    A  R   R   N   NN  II  N   NN  G    G                |
|           W    W  A    A  R    R  N    N  II  N    N   GGGG   !!!           |
|                                                                             |
|      For optimal performance we recommend to set                            |
|        NCORE= 4 - approx SQRT( number of cores)                             |
|      NCORE specifies how many cores store one orbital (NPAR=cpu/NCORE).     |
|      This setting can  greatly improve the performance of VASP for DFT.     |
|      The default,   NCORE=1            might be grossly inefficient         |
|      on modern multi-core architectures or massively parallel machines.     |
|      Do your own testing !!!!                                               |
|      Unfortunately you need to use the default for GW and RPA calculations. |
|      (for HF NCORE is supported but not extensively tested yet)             |
|                                                                             |
 ----------------------------------------------------------------------------- 

 POTCAR:    PAW_PBE Na 08Apr2002                  
   VRHFIN =Na: s1p0                                                             
   LEXCH  = PE                                                                  
   EATOM  =     5.1581 eV,    0.3791 Ry                                         
                                                                                
   TITEL  = PAW_PBE Na 08Apr2002                                                
   LULTRA =        F    use ultrasoft PP ?                                      
   IUNSCR =        1    unscreen: 0-lin 1-nonlin 2-no                           
   RPACOR =    1.800    partial core radius                                     
   POMASS =   22.990; ZVAL   =    1.000    mass and valenz                      
   RCORE  =    2.200    outmost cutoff radius                                   
   RWIGS  =    3.320; RWIGS  =    1.757    wigner-seitz radius (au A)           
   ENMAX  =  101.968; ENMIN  =   76.476 eV                                      
   ICORE  =        2    local potential                                         
   LCOR   =        T    correct aug charges                                     
   LPAW   =        T    paw PP                                                  
   EAUG   =  250.695                                                            
   DEXC   =    0.000                                                            
   RMAX   =    2.245    core radius for proj-oper                               
   RAUG   =    1.300    factor for augmentation sphere                          
   RDEP   =    2.259    radius for radial grids                                 
   RDEPT  =    2.115    core radius for aug-charge                              
                                                                                
   Atomic configuration                                                         
    6 entries                                                                   
     n  l   j            E        occ.                                          
     1  0  0.50     -1033.6933   2.0000                                         
     2  0  0.50       -56.7526   2.0000                                         
     2  1  1.50       -28.6721   6.0000                                         
     3  0  0.50        -2.7440   1.0000                                         
     3  1  0.50        -1.3606   0.0000                                         
     3  2  1.50        -1.3606   0.0000                                         
   Description                                                                  
     l       E           TYP  RCUT    TYP  RCUT                                 
     0     -2.7439560     23  2.200                                             
     0     27.2116520     23  2.200                                             
     1     -1.3605826     23  2.200                                             
     2     -1.3605826     23  2.200                                             
  local pseudopotential read in
  partial core-charges read in
  partial kinetic energy density read in
  atomic valenz-charges read in
  non local Contribution for L=           0  read in
    real space projection operators read in
  non local Contribution for L=           0  read in
    real space projection operators read in
  non local Contribution for L=           1  read in
    real space projection operators read in
    PAW grid and wavefunctions read in
 
   number of l-projection  operators is LMAX  =           3
   number of lm-projection operators is LMMAX =           5
 
 POTCAR:    PAW_PBE Al 04Jan2001                  
   VRHFIN =Al: s2p1                                                             
   LEXCH  = PE                                                                  
   EATOM  =    53.5387 eV,    3.9350 Ry                                         
                                                                                
   TITEL  = PAW_PBE Al 04Jan2001                                                
   LULTRA =        F    use ultrasoft PP ?                                      
   IUNSCR =        1    unscreen: 0-lin 1-nonlin 2-no                           
   RPACOR =    1.500    partial core radius                                     
   POMASS =   26.981; ZVAL   =    3.000    mass and valenz                      
   RCORE  =    1.900    outmost cutoff radius                                   
   RWIGS  =    2.650; RWIGS  =    1.402    wigner-seitz radius (au A)           
   ENMAX  =  240.300; ENMIN  =  180.225 eV                                      
   ICORE  =        2    local potential                                         
   LCOR   =        T    correct aug charges                                     
   LPAW   =        T    paw PP                                                  
   EAUG   =  291.052                                                            
   DEXC   =    0.000                                                            
   RMAX   =    1.939    core radius for proj-oper                               
   RAUG   =    1.300    factor for augmentation sphere                          
   RDEP   =    1.966    radius for radial grids                                 
   RDEPT  =    1.856    core radius for aug-charge                              
                                                                                
   Atomic configuration                                                         
    6 entries                                                                   
     n  l   j            E        occ.                                          
     1  0  0.50     -1511.1048   2.0000                                         
     2  0  0.50      -108.1629   2.0000                                         
     2  1  1.50       -69.6402   6.0000                                         
     3  0  0.50        -7.7528   2.0000                                         
     3  1  1.50        -2.7121   1.0000                                         
     3  2  2.50        -2.7212   0.0000                                         
   Description                                                                  
     l       E           TYP  RCUT    TYP  RCUT                                 
     0     -7.7528455     23  1.900                                             
     0     -3.3096929     23  1.900                                             
     1     -2.7120682     23  1.900                                             
     1     13.6058260     23  1.900                                             
     2     -2.7211652      7  1.900                                             
  local pseudopotential read in
  partial core-charges read in
  partial kinetic energy density read in
  atomic valenz-charges read in
  non local Contribution for L=           0  read in
    real space projection operators read in
  non local Contribution for L=           0  read in
    real space projection operators read in
  non local Contribution for L=           1  read in
    real space projection operators read in
  non local Contribution for L=           1  read in
    real space projection operators read in
    PAW grid and wavefunctions read in
 
   number of l-projection  operators is LMAX  =           4
   number of lm-projection operators is LMMAX =           8
 
 POTCAR:    PAW_PBE Se 06Sep2000                  
   VRHFIN =Se: s2p4                                                             
   LEXCH  = PE                                                                  
   EATOM  =   257.1286 eV,   18.8984 Ry                                         
                                                                                
   TITEL  = PAW_PBE Se 06Sep2000                                                
   LULTRA =        F    use ultrasoft PP ?                                      
   IUNSCR =        1    unscreen: 0-lin 1-nonlin 2-no                           
   RPACOR =    1.900    partial core radius                                     
   POMASS =   78.960; ZVAL   =    6.000    mass and valenz                      
   RCORE  =    2.100    outmost cutoff radius                                   
   RWIGS  =    2.200; RWIGS  =    1.164    wigner-seitz radius (au A)           
   ENMAX  =  211.555; ENMIN  =  158.666 eV                                      
   ICORE  =        3    local potential                                         
   LCOR   =        T    correct aug charges                                     
   LPAW   =        T    paw PP                                                  
   EAUG   =  446.842                                                            
   DEXC   =    0.000                                                            
   RMAX   =    2.147    core radius for proj-oper                               
   RAUG   =    1.300    factor for augmentation sphere                          
   RDEP   =    2.177    radius for radial grids                                 
   RDEPT  =    1.928    core radius for aug-charge                              
                                                                                
   Atomic configuration                                                         
   10 entries                                                                   
     n  l   j            E        occ.                                          
     1  0  0.50    -12503.4787   2.0000                                         
     2  0  0.50     -1606.9547   2.0000                                         
     2  1  1.50     -1413.3140   6.0000                                         
     3  0  0.50      -213.4885   2.0000                                         
     3  1  1.50      -152.9538   6.0000                                         
     3  2  2.50       -53.1221  10.0000                                         
     4  0  0.50       -17.2865   2.0000                                         
     4  1  0.50        -6.5110   4.0000                                         
     4  2  2.50        -6.8029   0.0000                                         
     4  3  2.50        -6.8029   0.0000                                         
   Description                                                                  
     l       E           TYP  RCUT    TYP  RCUT                                 
     0    -17.2865377     23  2.100                                             
     0    -15.3094411     23  2.100                                             
     1     -6.5110275     23  2.100                                             
     1     -0.0695192     23  2.100                                             
     2     -6.8029130     23  2.100                                             
     3     -1.3605826      7  2.100                                             
  local pseudopotential read in
  partial core-charges read in
  partial kinetic energy density read in
  atomic valenz-charges read in
  non local Contribution for L=           0  read in
    real space projection operators read in
  non local Contribution for L=           0  read in
    real space projection operators read in
  non local Contribution for L=           1  read in
    real space projection operators read in
  non local Contribution for L=           1  read in
    real space projection operators read in
  non local Contribution for L=           2  read in
    real space projection operators read in
    PAW grid and wavefunctions read in
 
   number of l-projection  operators is LMAX  =           5
   number of lm-projection operators is LMMAX =          13
 
 Optimization of the real space projectors (new method)

 maximal supplied QI-value         = 17.01
 optimisation between [QCUT,QGAM] = [  8.84, 17.69] = [ 21.90, 87.61] Ry 
 Optimized for a Real-space Cutoff    1.22 Angstroem

   l    n(q)    QCUT    max X(q) W(low)/X(q) W(high)/X(q)  e(spline) 
   0      6     8.844    45.123    0.62E-03    0.70E-03    0.80E-07
   0      6     8.844    12.364    0.51E-03    0.48E-03    0.55E-07
   1      6     8.844     8.302    0.36E-03    0.27E-03    0.23E-07
 Optimization of the real space projectors (new method)

 maximal supplied QI-value         = 19.84
 optimisation between [QCUT,QGAM] = [  8.73, 17.66] = [ 21.34, 87.33] Ry 
 Optimized for a Real-space Cutoff    1.12 Angstroem

   l    n(q)    QCUT    max X(q) W(low)/X(q) W(high)/X(q)  e(spline) 
   0      6     8.731   176.870    0.15E-02    0.11E-03    0.68E-07
   0      6     8.731   105.762    0.15E-02    0.11E-03    0.66E-07
   1      5     8.731    55.370    0.19E-02    0.30E-02    0.57E-07
   1      5     8.731    20.208    0.17E-02    0.27E-02    0.55E-07
 Optimization of the real space projectors (new method)

 maximal supplied QI-value         = 17.95
 optimisation between [QCUT,QGAM] = [  8.80, 17.59] = [ 21.67, 86.68] Ry 
 Optimized for a Real-space Cutoff    1.19 Angstroem

   l    n(q)    QCUT    max X(q) W(low)/X(q) W(high)/X(q)  e(spline) 
   0      6     8.797   133.320    0.14E-02    0.11E-02    0.95E-07
   0      6     8.797   111.601    0.15E-02    0.12E-02    0.10E-06
   1      6     8.797    47.222    0.19E-02    0.96E-03    0.11E-06
   1      6     8.797    33.775    0.19E-02    0.99E-03    0.11E-06
   2      5     8.797     3.720    0.16E-02    0.14E-02    0.40E-07
  PAW_PBE Na 08Apr2002                  :
 energy of atom  1       EATOM=   -5.1581
 kinetic energy error for atom=    0.0001 (will be added to EATOM!!)
  PAW_PBE Al 04Jan2001                  :
 energy of atom  2       EATOM=  -53.5387
 kinetic energy error for atom=    0.0011 (will be added to EATOM!!)
  PAW_PBE Se 06Sep2000                  :
 energy of atom  3       EATOM= -257.1286
 kinetic energy error for atom=    0.0040 (will be added to EATOM!!)
 
 
 POSCAR: Na4 Al4 Se8                             
  positions in direct lattice
  No initial velocities read in
 exchange correlation table for  LEXCH =        8
   RHO(1)=    0.500       N(1)  =     2000
   RHO(2)=  100.500       N(2)  =     4000
 


--------------------------------------------------------------------------------------------------------


 ion  position               nearest neighbor table
   1  0.118  0.917  0.378-  12 2.43   9 2.43  15 2.44  16 2.45   6 3.74   2 3.81   2 3.81   4 3.82
                             4 3.82
   2  0.618  0.083  0.622-  11 2.43  10 2.43  16 2.44  15 2.45   5 3.74   1 3.81   1 3.81   3 3.82
                             3 3.82
   3  0.618  0.583  0.878-  10 2.43  11 2.43  13 2.44  14 2.45   8 3.74   4 3.81   4 3.81   2 3.82
                             2 3.82
   4  0.118  0.417  0.122-   9 2.43  12 2.43  14 2.44  13 2.45   7 3.74   3 3.81   3 3.81   1 3.82
                             1 3.82
   5  0.621  0.574  0.374-  10 2.25  14 2.26  15 2.26   9 2.26   2 3.74
   6  0.121  0.426  0.626-   9 2.25  13 2.26  16 2.26  10 2.26   1 3.74
   7  0.121  0.926  0.874-  12 2.25  16 2.26  13 2.26  11 2.26   4 3.74
   8  0.621  0.074  0.126-  11 2.25  15 2.26  14 2.26  12 2.26   3 3.74
   9  0.985  0.564  0.386-   6 2.25   5 2.26   4 2.43   1 2.43
  10  0.485  0.436  0.614-   5 2.25   6 2.26   3 2.43   2 2.43
  11  0.485  0.936  0.886-   8 2.25   7 2.26   2 2.43   3 2.43
  12  0.985  0.064  0.114-   7 2.25   8 2.26   1 2.43   4 2.43
  13  0.010  0.595  0.861-   6 2.26   7 2.26   3 2.44   4 2.45
  14  0.510  0.405  0.139-   5 2.26   8 2.26   4 2.44   3 2.45
  15  0.510  0.905  0.361-   8 2.26   5 2.26   1 2.44   2 2.45
  16  0.010  0.095  0.639-   7 2.26   6 2.26   2 2.44   1 2.45
 
  LATTYP: Found a simple orthorhombic cell.
 ALAT       =     6.2046547700
 B/A-ratio  =     1.0468935019
 C/A-ratio  =     1.2661476506
  
  Lattice vectors:
  
 A1 = (   6.2046547700,   0.0000000000,   0.0000000000)
 A2 = (   0.0000000000,   6.4956127600,   0.0000000000)
 A3 = (   0.0000000000,   0.0000000000,   7.8560090600)


Analysis of symmetry for initial positions (statically):
=====================================================================
 Subroutine PRICEL returns:
 Original cell was already a primitive cell.
 

 Routine SETGRP: Setting up the symmetry group for a 
 simple orthorhombic supercell.


 Subroutine GETGRP returns: Found  4 space group operations
 (whereof  1 operations were pure point group operations)
 out of a pool of  8 trial point group operations.


The static configuration has the point symmetry C_1 .
 The point group associated with its full space group is C_2v.


Analysis of symmetry for dynamics (positions and initial velocities):
=====================================================================
 Subroutine PRICEL returns:
 Original cell was already a primitive cell.
 

 Routine SETGRP: Setting up the symmetry group for a 
 simple orthorhombic supercell.


 Subroutine GETGRP returns: Found  4 space group operations
 (whereof  1 operations were pure point group operations)
 out of a pool of  8 trial point group operations.


The dynamic configuration has the point symmetry C_1 .
 The point group associated with its full space group is C_2v.


 Subroutine INISYM returns: Found  4 space group operations
 (whereof  1 operations are pure point group operations),
 and found     1 'primitive' translations

 
 
 KPOINTS: pymatgen with grid density = 807 / numbe

Automatic generation of k-mesh.
Space group operators:
 irot       det(A)        alpha          n_x          n_y          n_z        tau_x        tau_y        tau_z
    1     1.000000     0.000000     1.000000     0.000000     0.000000     0.000000     0.000000     0.000000
    2    -1.000000   180.000000     0.000000     0.000000     1.000000     0.000000     0.500000     0.500000
    3    -1.000000   179.999999     0.000000     1.000000     0.000000     0.500000     0.500000     0.500000
    4     1.000000   180.000000     1.000000     0.000000     0.000000     0.500000     0.000000     0.000000
 
 Subroutine IBZKPT returns following result:
 ===========================================
 
 Found      8 irreducible k-points:
 
 Following reciprocal coordinates:
            Coordinates               Weight
  0.000000  0.000000  0.000000      1.000000
  0.333333  0.000000  0.000000      2.000000
  0.000000  0.333333  0.000000      2.000000
  0.333333  0.333333  0.000000      4.000000
  0.000000  0.000000  0.333333      2.000000
  0.333333  0.000000  0.333333      4.000000
  0.000000  0.333333  0.333333      4.000000
  0.333333  0.333333  0.333333      8.000000
 
 Following cartesian coordinates:
            Coordinates               Weight
  0.000000  0.000000  0.000000      1.000000
  0.053723  0.000000  0.000000      2.000000
  0.000000  0.051317  0.000000      2.000000
  0.053723  0.051317  0.000000      4.000000
  0.000000  0.000000  0.042430      2.000000
  0.053723  0.000000  0.042430      4.000000
  0.000000  0.051317  0.042430      4.000000
  0.053723  0.051317  0.042430      8.000000
 


--------------------------------------------------------------------------------------------------------




 Dimension of arrays:
   k-points           NKPTS =      8   k-points in BZ     NKDIM =      8   number of bands    NBANDS=     42
   number of dos      NEDOS =    301   number of ions     NIONS =     16
   non local maximal  LDIM  =      5   non local SUM 2l+1 LMDIM =     13
   total plane-waves  NPLWV =  28224
   max r-space proj   IRMAX =    730   max aug-charges    IRDMAX=   2292
   dimension x,y,z NGX =    28 NGY =   28 NGZ =   36
   dimension x,y,z NGXF=    42 NGYF=   48 NGZF=   54
   support grid    NGXF=    42 NGYF=   48 NGZF=   54
   ions per type =               4   4   8
   NGX,Y,Z   is equivalent  to a cutoff of   7.50,  7.17,  7.62 a.u.
   NGXF,Y,Z  is equivalent  to a cutoff of  11.25, 12.28, 11.43 a.u.

 SYSTEM =  CIS                                     
 POSCAR =  Na4 Al4 Se8                             

 Startparameter for this run:
   NWRITE =      2    write-flag & timer
   PREC   = medium    normal or accurate (medium, high low for compatibility)
   ISTART =      0    job   : 0-new  1-cont  2-samecut
   ICHARG =      2    charge: 1-file 2-atom 10-const
   ISPIN  =      1    spin polarized calculation?
   LNONCOLLINEAR =      F non collinear calculations
   LSORBIT =      F    spin-orbit coupling
   INIWAV =      1    electr: 0-lowe 1-rand  2-diag
   LASPH  =      T    aspherical Exc in radial PAW
   METAGGA=      F    non-selfconsistent MetaGGA calc.

 Electronic Relaxation 1
   ENCUT  =  300.0 eV  22.05 Ry    4.70 a.u.   8.76  9.17 11.09*2*pi/ulx,y,z
   ENINI  =  300.0     initial cutoff
   ENAUG  =  446.8 eV  augmentation charge cutoff
   NELM   =     60;   NELMIN=  2; NELMDL= -5     # of ELM steps 
   EDIFF  = 0.1E-03   stopping-criterion for ELM
   LREAL  =      T    real-space projection
   NLSPLINE    = F    spline interpolate recip. space projectors
   LCOMPAT=      F    compatible to vasp.4.4
   GGA_COMPAT  = T    GGA compatible to vasp.4.4-vasp.4.6
   LMAXPAW     = -100 max onsite density
   LMAXMIX     =    4 max onsite mixed and CHGCAR
   VOSKOWN=      0    Vosko Wilk Nusair interpolation
   ROPT   =   -0.00200  -0.00200  -0.00200
 Ionic relaxation
   EDIFFG = -.5E-01   stopping-criterion for IOM
   NSW    =     99    number of steps for IOM
   NBLOCK =      1;   KBLOCK =     99    inner block; outer block 
   IBRION =      2    ionic relax: 0-MD 1-quasi-New 2-CG
   NFREE  =      1    steps in history (QN), initial steepest desc. (CG)
   ISIF   =      3    stress and relaxation
   IWAVPR =     11    prediction:  0-non 1-charg 2-wave 3-comb
   ISYM   =      2    0-nonsym 1-usesym 2-fastsym
   LCORR  =      T    Harris-Foulkes like correction to forces

   POTIM  = 0.1000    time-step for ionic-motion
   TEIN   =    0.0    initial temperature
   TEBEG  =    0.0;   TEEND  =   0.0 temperature during run
   SMASS  =  -3.00    Nose mass-parameter (am)
   estimated Nose-frequenzy (Omega)   =  0.10E-29 period in steps =****** mass=  -0.880E-27a.u.
   SCALEE = 1.0000    scale energy and forces
   NPACO  =    256;   APACO  = 16.0  distance and # of slots for P.C.
   PSTRESS=    0.0 pullay stress

  Mass of Ions in am
   POMASS =  22.99 26.98 78.96
  Ionic Valenz
   ZVAL   =   1.00  3.00  6.00
  Atomic Wigner-Seitz radii
   RWIGS  =  -1.00 -1.00 -1.00
  virtual crystal weights 
   VCA    =   1.00  1.00  1.00
   NELECT =      64.0000    total number of electrons
   NUPDOWN=      -1.0000    fix difference up-down

 DOS related values:
   EMIN   =  10.00;   EMAX   =-10.00  energy-range for DOS
   EFERMI =   0.00
   ISMEAR =     0;   SIGMA  =   0.05  broadening in eV -4-tet -1-fermi 0-gaus

 Electronic relaxation 2 (details)
   IALGO  =     38    algorithm
   LDIAG  =      T    sub-space diagonalisation (order eigenvalues)
   LSUBROT=      F    optimize rotation matrix (better conditioning)
   TURBO    =      0    0=normal 1=particle mesh
   IRESTART =      0    0=no restart 2=restart with 2 vectors
   NREBOOT  =      0    no. of reboots
   NMIN     =      0    reboot dimension
   EREF     =   0.00    reference energy to select bands
   IMIX   =      4    mixing-type and parameters
     AMIX     =   0.40;   BMIX     =  1.00
     AMIX_MAG =   1.60;   BMIX_MAG =  1.00
     AMIN     =   0.10
     WC   =   100.;   INIMIX=   1;  MIXPRE=   1;  MAXMIX= -45

 Intra band minimization:
   WEIMIN = 0.0010     energy-eigenvalue tresh-hold
   EBREAK =  0.60E-06  absolut break condition
   DEPER  =   0.30     relativ break condition  

   TIME   =   0.40     timestep for ELM

  volume/ion in A,a.u.               =      19.79       133.54
  Fermi-wavevector in a.u.,A,eV,Ry     =   0.960775  1.815601 12.559376  0.923088
  Thomas-Fermi vector in A             =   2.090089
 
 Write flags
   LWAVE        =      F    write WAVECAR
   LDOWNSAMPLE  =      F    k-point downsampling of WAVECAR
   LCHARG       =      F    write CHGCAR
   LVTOT        =      F    write LOCPOT, total local potential
   LVHAR        =      F    write LOCPOT, Hartree potential only
   LELF         =      F    write electronic localiz. function (ELF)
   LORBIT       =     10    0 simple, 1 ext, 2 COOP (PROOUT), +10 PAW based schemes


 Dipole corrections
   LMONO  =      F    monopole corrections only (constant potential shift)
   LDIPOL =      F    correct potential (dipole corrections)
   IDIPOL =      0    1-x, 2-y, 3-z, 4-all directions 
   EPSILON=  1.0000000 bulk dielectric constant

 Exchange correlation treatment:
   GGA     =    --    GGA type
   LEXCH   =     8    internal setting for exchange type
   VOSKOWN=      0    Vosko Wilk Nusair interpolation
   LHFCALC =     F    Hartree Fock is set to
   LHFONE  =     F    Hartree Fock one center treatment
   AEXX    =    0.0000 exact exchange contribution

 Linear response parameters
   LEPSILON=     F    determine dielectric tensor
   LRPA    =     F    only Hartree local field effects (RPA)
   LNABLA  =     F    use nabla operator in PAW spheres
   LVEL    =     F    velocity operator in full k-point grid
   LINTERFAST=   F  fast interpolation
   KINTER  =     0    interpolate to denser k-point grid
   CSHIFT  =0.1000    complex shift for real part using Kramers Kronig
   OMEGAMAX=  -1.0    maximum frequency
   DEG_THRESHOLD= 0.2000000E-02 threshold for treating states as degnerate
   RTIME   =   -0.100 relaxation time in fs
  (WPLASMAI=    0.000 imaginary part of plasma frequency in eV, 0.658/RTIME)
   DFIELD  = 0.0000000 0.0000000 0.0000000 field for delta impulse in time
 
 Orbital magnetization related:
   ORBITALMAG=     F  switch on orbital magnetization
   LCHIMAG   =     F  perturbation theory with respect to B field
   DQ        =  0.001000  dq finite difference perturbation B field
   LLRAUG    =     F  two centre corrections for induced B field



--------------------------------------------------------------------------------------------------------


 conjugate gradient relaxation of ions
 charge density and potential will be updated during run
 non-spin polarized calculation
 Variant of blocked Davidson
 Davidson routine will perform the subspace rotation
 perform sub-space diagonalisation
    after iterative eigenvector-optimisation
 modified Broyden-mixing scheme, WC =      100.0
 initial mixing is a Kerker type mixing with AMIX =  0.4000 and BMIX =      1.0000
 Hartree-type preconditioning will be used
 using additional bands           10
 real space projection scheme for non local part
 use partial core corrections
 calculate Harris-corrections to forces 
   (improved forces if not selfconsistent)
 use gradient corrections 
 use of overlap-Matrix (Vanderbilt PP)
 Gauss-broadening in eV      SIGMA  =   0.05


--------------------------------------------------------------------------------------------------------


  energy-cutoff  :      300.00
  volume of cell :      316.62
      direct lattice vectors                 reciprocal lattice vectors
     6.204654770  0.000000000  0.000000000     0.161169322  0.000000000  0.000000000
     0.000000000  6.495612760  0.000000000     0.000000000  0.153950064  0.000000000
     0.000000000  0.000000000  7.856009060     0.000000000  0.000000000  0.127291096

  length of vectors
     6.204654770  6.495612760  7.856009060     0.161169322  0.153950064  0.127291096


 
 k-points in units of 2pi/SCALE and weight: pymatgen with grid density = 807 / numbe
   0.00000000  0.00000000  0.00000000       0.037
   0.05372311  0.00000000  0.00000000       0.074
   0.00000000  0.05131669  0.00000000       0.074
   0.05372311  0.05131669  0.00000000       0.148
   0.00000000  0.00000000  0.04243037       0.074
   0.05372311  0.00000000  0.04243037       0.148
   0.00000000  0.05131669  0.04243037       0.148
   0.05372311  0.05131669  0.04243037       0.296
 
 k-points in reciprocal lattice and weights: pymatgen with grid density = 807 / numbe
   0.00000000  0.00000000  0.00000000       0.037
   0.33333333  0.00000000  0.00000000       0.074
   0.00000000  0.33333333  0.00000000       0.074
   0.33333333  0.33333333  0.00000000       0.148
   0.00000000  0.00000000  0.33333333       0.074
   0.33333333  0.00000000  0.33333333       0.148
   0.00000000  0.33333333  0.33333333       0.148
   0.33333333  0.33333333  0.33333333       0.296
 
 position of ions in fractional coordinates (direct lattice) 
   0.11781030  0.91663944  0.37770555
   0.61781030  0.08336056  0.62229445
   0.61781030  0.58336056  0.87770555
   0.11781030  0.41663944  0.12229445
   0.62137382  0.57375842  0.37387979
   0.12137382  0.42624158  0.62612021
   0.12137382  0.92624158  0.87387979
   0.62137382  0.07375842  0.12612021
   0.98548412  0.56443509  0.38646431
   0.48548412  0.43556491  0.61353569
   0.48548412  0.93556491  0.88646431
   0.98548412  0.06443509  0.11353569
   0.01033277  0.59524702  0.86128656
   0.51033277  0.40475298  0.13871344
   0.51033277  0.90475298  0.36128656
   0.01033277  0.09524702  0.63871344
 
 position of ions in cartesian coordinates  (Angst):
   0.73097224  5.95413484  2.96725822
   3.83329962  0.54147792  4.88875084
   3.83329962  3.78928430  6.89526275
   0.73097224  2.70632846  0.96074631
   3.85541004  3.72691251  2.93720302
   0.75308265  2.76870025  4.91880604
   0.75308265  6.01650663  6.86520755
   3.85541004  0.47910613  0.99080151
   6.11458875  3.66635177  3.03606712
   3.01226136  2.82926099  4.81994194
   3.01226136  6.07706737  6.96407165
   6.11458875  0.41854539  0.89193741
   0.06411127  3.86649414  6.76627502
   3.16643866  2.62911862  1.08973404
   3.16643866  5.87692500  2.83827049
   0.06411127  0.61868776  5.01773857
 


--------------------------------------------------------------------------------------------------------


 k-point  1 :   0.0000 0.0000 0.0000  plane waves:    3729
 k-point  2 :   0.3333 0.0000 0.0000  plane waves:    3728
 k-point  3 :   0.0000 0.3333 0.0000  plane waves:    3742
 k-point  4 :   0.3333 0.3333 0.0000  plane waves:    3742
 k-point  5 :   0.0000 0.0000 0.3333  plane waves:    3756
 k-point  6 :   0.3333 0.0000 0.3333  plane waves:    3731
 k-point  7 :   0.0000 0.3333 0.3333  plane waves:    3733
 k-point  8 :   0.3333 0.3333 0.3333  plane waves:    3733

 maximum and minimum number of plane-waves per node :      3756     3728

 maximum number of plane-waves:      3756
 maximum index in each direction: 
   IXMAX=    8   IYMAX=    9   IZMAX=   11
   IXMIN=   -9   IYMIN=   -9   IZMIN=  -11


 serial   3D FFT for wavefunctions
 parallel 3D FFT for charge:
    minimum data exchange during FFTs selected (reduces bandwidth)


 total amount of memory used by VASP MPI-rank0    34689. kBytes
=======================================================================

   base      :      30000. kBytes
   nonlr-proj:        998. kBytes
   fftplans  :        400. kBytes
   grid      :       1652. kBytes
   one-center:        129. kBytes
   wavefun   :       1510. kBytes
 
     INWAV:  cpu time    0.0001: real time    0.0002
 Broyden mixing: mesh for mixing (old mesh)
   NGX = 17   NGY = 19   NGZ = 23
  (NGX  = 42   NGY  = 48   NGZ  = 54)
  gives a total of   7429 points

 initial charge density was supplied:
 charge density of overlapping atoms calculated
 number of electron      64.0000000 magnetization 
 keeping initial charge density in first step


--------------------------------------------------------------------------------------------------------


 Maximum index for non-local projection operator          655
 Maximum index for augmentation-charges          184 (set IRDMAX)


--------------------------------------------------------------------------------------------------------


 First call to EWALD:  gamma=   0.260
 Maximum number of real-space cells 3x 3x 2
 Maximum number of reciprocal cells 3x 3x 3

    FEWALD:  cpu time    0.0023: real time    0.0023


--------------------------------------- Iteration      1(   1)  ---------------------------------------


    POTLOK:  cpu time    0.0141: real time    0.0343
    SETDIJ:  cpu time    0.1658: real time    0.1664
     EDDAV:  cpu time    0.2243: real time    0.2257
       DOS:  cpu time    0.0004: real time    0.0004
    --------------------------------------------
      LOOP:  cpu time    0.4046: real time    0.4267

 eigenvalue-minimisations  :   672
 total energy-change (2. order) : 0.2615770E+03  (-0.1797944E+04)
 number of electron      64.0000000 magnetization 
 augmentation part       64.0000000 magnetization 

 Free energy of the ion-electron system (eV)
  ---------------------------------------------------
  alpha Z        PSCENC =        78.26948400
  Ewald energy   TEWEN  =     -2141.52124434
  -Hartree energ DENC   =      -284.17812978
  -exchange      EXHF   =         0.00000000
  -V(xc)+E(xc)   XCENC  =      -252.74645649
  PAW double counting   =      2106.70890229    -1718.66637366
  entropy T*S    EENTRO =        -0.00698747
  eigenvalues    EBANDS =       181.93876216
  atomic energy  EATOM  =      2291.77909288
  Solvation  Ediel_sol  =         0.00000000
  ---------------------------------------------------
  free energy    TOTEN  =       261.57704960 eV

  energy without entropy =      261.58403706  energy(sigma->0) =      261.58054333


--------------------------------------------------------------------------------------------------------




--------------------------------------- Iteration      1(   2)  ---------------------------------------


     EDDAV:  cpu time    0.2600: real time    0.2629
       DOS:  cpu time    0.0002: real time    0.0002
    --------------------------------------------
      LOOP:  cpu time    0.2602: real time    0.2630

 eigenvalue-minimisations  :   910
 total energy-change (2. order) :-0.2995692E+03  (-0.2919575E+03)
 number of electron      64.0000000 magnetization 
 augmentation part       64.0000000 magnetization 

 Free energy of the ion-electron system (eV)
  ---------------------------------------------------
  alpha Z        PSCENC =        78.26948400
  Ewald energy   TEWEN  =     -2141.52124434
  -Hartree energ DENC   =      -284.17812978
  -exchange      EXHF   =         0.00000000
  -V(xc)+E(xc)   XCENC  =      -252.74645649
  PAW double counting   =      2106.70890229    -1718.66637366
  entropy T*S    EENTRO =        -0.00000000
  eigenvalues    EBANDS =      -117.63740025
  atomic energy  EATOM  =      2291.77909288
  Solvation  Ediel_sol  =         0.00000000
  ---------------------------------------------------
  free energy    TOTEN  =       -37.99212535 eV

  energy without entropy =      -37.99212535  energy(sigma->0) =      -37.99212535


--------------------------------------------------------------------------------------------------------




--------------------------------------- Iteration      1(   3)  ---------------------------------------


     EDDAV:  cpu time    0.2613: real time    0.2623
       DOS:  cpu time    0.0002: real time    0.0002
    --------------------------------------------
      LOOP:  cpu time    0.2615: real time    0.2625

 eigenvalue-minimisations  :   896
 total energy-change (2. order) :-0.2147035E+02  (-0.2141087E+02)
 number of electron      64.0000000 magnetization 
 augmentation part       64.0000000 magnetization 

 Free energy of the ion-electron system (eV)
  ---------------------------------------------------
  alpha Z        PSCENC =        78.26948400
  Ewald energy   TEWEN  =     -2141.52124434
  -Hartree energ DENC   =      -284.17812978
  -exchange      EXHF   =         0.00000000
  -V(xc)+E(xc)   XCENC  =      -252.74645649
  PAW double counting   =      2106.70890229    -1718.66637366
  entropy T*S    EENTRO =        -0.00000000
  eigenvalues    EBANDS =      -139.10774795
  atomic energy  EATOM  =      2291.77909288
  Solvation  Ediel_sol  =         0.00000000
  ---------------------------------------------------
  free energy    TOTEN  =       -59.46247305 eV

  energy without entropy =      -59.46247305  energy(sigma->0) =      -59.46247305


--------------------------------------------------------------------------------------------------------




--------------------------------------- Iteration      1(   4)  ---------------------------------------


     EDDAV:  cpu time    0.2460: real time    0.2473
       DOS:  cpu time    0.0002: real time    0.0002
    --------------------------------------------
      LOOP:  cpu time    0.2462: real time    0.2475

 eigenvalue-minimisations  :   826
 total energy-change (2. order) :-0.4119538E+00  (-0.4117511E+00)
 number of electron      64.0000000 magnetization 
 augmentation part       64.0000000 magnetization 

 Free energy of the ion-electron system (eV)
  ---------------------------------------------------
  alpha Z        PSCENC =        78.26948400
  Ewald energy   TEWEN  =     -2141.52124434
  -Hartree energ DENC   =      -284.17812978
  -exchange      EXHF   =         0.00000000
  -V(xc)+E(xc)   XCENC  =      -252.74645649
  PAW double counting   =      2106.70890229    -1718.66637366
  entropy T*S    EENTRO =        -0.00000000
  eigenvalues    EBANDS =      -139.51970180
  atomic energy  EATOM  =      2291.77909288
  Solvation  Ediel_sol  =         0.00000000
  ---------------------------------------------------
  free energy    TOTEN  =       -59.87442690 eV

  energy without entropy =      -59.87442690  energy(sigma->0) =      -59.87442690


--------------------------------------------------------------------------------------------------------




--------------------------------------- Iteration      1(   5)  ---------------------------------------


     EDDAV:  cpu time    0.3568: real time    0.3577
       DOS:  cpu time    0.0003: real time    0.0003
    CHARGE:  cpu time    0.0123: real time    0.0123
    MIXING:  cpu time    0.0005: real time    0.0006
    --------------------------------------------
      LOOP:  cpu time    0.3700: real time    0.3709

 eigenvalue-minimisations  :   924
 total energy-change (2. order) :-0.1388258E-01  (-0.1387958E-01)
 number of electron      64.0000367 magnetization 
 augmentation part       -9.5203321 magnetization 

 Broyden mixing:
  rms(total) = 0.11317E+01    rms(broyden)= 0.11316E+01
  rms(prec ) = 0.15051E+01
  weight for this iteration     100.00

 Free energy of the ion-electron system (eV)
  ---------------------------------------------------
  alpha Z        PSCENC =        78.26948400
  Ewald energy   TEWEN  =     -2141.52124434
  -Hartree energ DENC   =      -284.17812978
  -exchange      EXHF   =         0.00000000
  -V(xc)+E(xc)   XCENC  =      -252.74645649
  PAW double counting   =      2106.70890229    -1718.66637366
  entropy T*S    EENTRO =        -0.00000000
  eigenvalues    EBANDS =      -139.53358438
  atomic energy  EATOM  =      2291.77909288
  Solvation  Ediel_sol  =         0.00000000
  ---------------------------------------------------
  free energy    TOTEN  =       -59.88830948 eV

  energy without entropy =      -59.88830948  energy(sigma->0) =      -59.88830948


--------------------------------------------------------------------------------------------------------




--------------------------------------- Iteration      1(   6)  ---------------------------------------


    POTLOK:  cpu time    0.0078: real time    0.0080
    SETDIJ:  cpu time    0.1665: real time    0.1666
     EDDAV:  cpu time    0.2978: real time    0.2980
       DOS:  cpu time    0.0002: real time    0.0002
    CHARGE:  cpu time    0.0110: real time    0.0110
    MIXING:  cpu time    0.0006: real time    0.0006
    --------------------------------------------
      LOOP:  cpu time    0.4838: real time    0.4844

 eigenvalue-minimisations  :   798
 total energy-change (2. order) : 0.1982943E+01  (-0.3142946E+00)
 number of electron      64.0000356 magnetization 
 augmentation part       -9.2549540 magnetization 

 Broyden mixing:
  rms(total) = 0.74805E+00    rms(broyden)= 0.74804E+00
  rms(prec ) = 0.88431E+00
  weight for this iteration     100.00

 eigenvalues of (default mixing * dielectric matrix)
  average eigenvalue GAMMA=   2.2334
  2.2334

 Free energy of the ion-electron system (eV)
  ---------------------------------------------------
  alpha Z        PSCENC =        78.26948400
  Ewald energy   TEWEN  =     -2141.52124434
  -Hartree energ DENC   =      -309.14424401
  -exchange      EXHF   =         0.00000000
  -V(xc)+E(xc)   XCENC  =      -250.09609127
  PAW double counting   =      2954.91079521    -2568.11468017
  entropy T*S    EENTRO =        -0.00000000
  eigenvalues    EBANDS =      -113.98847905
  atomic energy  EATOM  =      2291.77909288
  Solvation  Ediel_sol  =         0.00000000
  ---------------------------------------------------
  free energy    TOTEN  =       -57.90536675 eV

  energy without entropy =      -57.90536675  energy(sigma->0) =      -57.90536675


--------------------------------------------------------------------------------------------------------




--------------------------------------- Iteration      1(   7)  ---------------------------------------


    POTLOK:  cpu time    0.0058: real time    0.0060
    SETDIJ:  cpu time    0.1665: real time    0.1665
     EDDAV:  cpu time    0.3111: real time    0.3115
       DOS:  cpu time    0.0002: real time    0.0002
    CHARGE:  cpu time    0.0107: real time    0.0107
    MIXING:  cpu time    0.0006: real time    0.0006
    --------------------------------------------
      LOOP:  cpu time    0.4949: real time    0.4955

 eigenvalue-minimisations  :   826
 total energy-change (2. order) : 0.3355718E+00  (-0.1826131E+00)
 number of electron      64.0000348 magnetization 
 augmentation part       -9.0351111 magnetization 

 Broyden mixing:
  rms(total) = 0.27886E+00    rms(broyden)= 0.27885E+00
  rms(prec ) = 0.30156E+00
  weight for this iteration     100.00

 eigenvalues of (default mixing * dielectric matrix)
  average eigenvalue GAMMA=   2.0131
  1.5148  2.5115

 Free energy of the ion-electron system (eV)
  ---------------------------------------------------
  alpha Z        PSCENC =        78.26948400
  Ewald energy   TEWEN  =     -2141.52124434
  -Hartree energ DENC   =      -332.35087377
  -exchange      EXHF   =         0.00000000
  -V(xc)+E(xc)   XCENC  =      -247.10812311
  PAW double counting   =      4319.81861888    -3934.30332448
  entropy T*S    EENTRO =        -0.00000000
  eigenvalues    EBANDS =       -92.15342496
  atomic energy  EATOM  =      2291.77909288
  Solvation  Ediel_sol  =         0.00000000
  ---------------------------------------------------
  free energy    TOTEN  =       -57.56979491 eV

  energy without entropy =      -57.56979491  energy(sigma->0) =      -57.56979491


--------------------------------------------------------------------------------------------------------




--------------------------------------- Iteration      1(   8)  ---------------------------------------


    POTLOK:  cpu time    0.0061: real time    0.0062
    SETDIJ:  cpu time    0.1668: real time    0.1668
     EDDAV:  cpu time    0.3153: real time    0.3156
       DOS:  cpu time    0.0002: real time    0.0002
    CHARGE:  cpu time    0.0110: real time    0.0110
    MIXING:  cpu time    0.0006: real time    0.0006
    --------------------------------------------
      LOOP:  cpu time    0.4999: real time    0.5003

 eigenvalue-minimisations  :   868
 total energy-change (2. order) :-0.1007345E-01  (-0.7931239E-02)
 number of electron      64.0000349 magnetization 
 augmentation part       -9.0493909 magnetization 

 Broyden mixing:
  rms(total) = 0.35266E-01    rms(broyden)= 0.35265E-01
  rms(prec ) = 0.41816E-01
  weight for this iteration     100.00

 eigenvalues of (default mixing * dielectric matrix)
  average eigenvalue GAMMA=   1.8172
  2.5669  1.4240  1.4606

 Free energy of the ion-electron system (eV)
  ---------------------------------------------------
  alpha Z        PSCENC =        78.26948400
  Ewald energy   TEWEN  =     -2141.52124434
  -Hartree energ DENC   =      -333.61913622
  -exchange      EXHF   =         0.00000000
  -V(xc)+E(xc)   XCENC  =      -246.39659405
  PAW double counting   =      4876.97132391    -4491.62819543
  entropy T*S    EENTRO =        -0.00000000
  eigenvalues    EBANDS =       -91.43459911
  atomic energy  EATOM  =      2291.77909288
  Solvation  Ediel_sol  =         0.00000000
  ---------------------------------------------------
  free energy    TOTEN  =       -57.57986836 eV

  energy without entropy =      -57.57986836  energy(sigma->0) =      -57.57986836


--------------------------------------------------------------------------------------------------------




--------------------------------------- Iteration      1(   9)  ---------------------------------------


    POTLOK:  cpu time    0.0058: real time    0.0060
    SETDIJ:  cpu time    0.1649: real time    0.1651
     EDDAV:  cpu time    0.2709: real time    0.2710
       DOS:  cpu time    0.0002: real time    0.0002
    CHARGE:  cpu time    0.0101: real time    0.0101
    MIXING:  cpu time    0.0005: real time    0.0005
    --------------------------------------------
      LOOP:  cpu time    0.4525: real time    0.4528

 eigenvalue-minimisations  :   882
 total energy-change (2. order) :-0.2518084E-02  (-0.6457545E-03)
 number of electron      64.0000349 magnetization 
 augmentation part       -9.0573005 magnetization 

 Broyden mixing:
  rms(total) = 0.12379E-01    rms(broyden)= 0.12379E-01
  rms(prec ) = 0.15279E-01
  weight for this iteration     100.00

 eigenvalues of (default mixing * dielectric matrix)
  average eigenvalue GAMMA=   1.7883
  2.4315  1.2863  1.7177  1.7177

 Free energy of the ion-electron system (eV)
  ---------------------------------------------------
  alpha Z        PSCENC =        78.26948400
  Ewald energy   TEWEN  =     -2141.52124434
  -Hartree energ DENC   =      -333.78259899
  -exchange      EXHF   =         0.00000000
  -V(xc)+E(xc)   XCENC  =      -246.29802380
  PAW double counting   =      4916.05658059    -4530.70751340
  entropy T*S    EENTRO =        -0.00000000
  eigenvalues    EBANDS =       -91.37816338
  atomic energy  EATOM  =      2291.77909288
  Solvation  Ediel_sol  =         0.00000000
  ---------------------------------------------------
  free energy    TOTEN  =       -57.58238645 eV

  energy without entropy =      -57.58238645  energy(sigma->0) =      -57.58238645


--------------------------------------------------------------------------------------------------------




--------------------------------------- Iteration      1(  10)  ---------------------------------------


    POTLOK:  cpu time    0.0066: real time    0.0067
    SETDIJ:  cpu time    0.1660: real time    0.1660
     EDDAV:  cpu time    0.2446: real time    0.2446
       DOS:  cpu time    0.0004: real time    0.0004
    CHARGE:  cpu time    0.0101: real time    0.0101
    MIXING:  cpu time    0.0005: real time    0.0005
    --------------------------------------------
      LOOP:  cpu time    0.4283: real time    0.4284

 eigenvalue-minimisations  :   896
 total energy-change (2. order) :-0.6117805E-03  (-0.6744481E-04)
 number of electron      64.0000349 magnetization 
 augmentation part       -9.0570328 magnetization 

 Broyden mixing:
  rms(total) = 0.45116E-02    rms(broyden)= 0.45115E-02
  rms(prec ) = 0.65793E-02
  weight for this iteration     100.00

 eigenvalues of (default mixing * dielectric matrix)
  average eigenvalue GAMMA=   1.8496
  2.6846  2.6846  0.9338  1.4724  1.4724

 Free energy of the ion-electron system (eV)
  ---------------------------------------------------
  alpha Z        PSCENC =        78.26948400
  Ewald energy   TEWEN  =     -2141.52124434
  -Hartree energ DENC   =      -333.94136118
  -exchange      EXHF   =         0.00000000
  -V(xc)+E(xc)   XCENC  =      -246.27962801
  PAW double counting   =      4891.68325961    -4506.31870218
  entropy T*S    EENTRO =        -0.00000000
  eigenvalues    EBANDS =       -91.25389901
  atomic energy  EATOM  =      2291.77909288
  Solvation  Ediel_sol  =         0.00000000
  ---------------------------------------------------
  free energy    TOTEN  =       -57.58299823 eV

  energy without entropy =      -57.58299823  energy(sigma->0) =      -57.58299823


--------------------------------------------------------------------------------------------------------




--------------------------------------- Iteration      1(  11)  ---------------------------------------


    POTLOK:  cpu time    0.0047: real time    0.0047
    SETDIJ:  cpu time    0.1622: real time    0.1622
     EDDAV:  cpu time    0.2526: real time    0.2526
       DOS:  cpu time    0.0002: real time    0.0002
    CHARGE:  cpu time    0.0117: real time    0.0117
    MIXING:  cpu time    0.0007: real time    0.0007
    --------------------------------------------
      LOOP:  cpu time    0.4321: real time    0.4321

 eigenvalue-minimisations  :   868
 total energy-change (2. order) :-0.2359529E-03  (-0.2425109E-04)
 number of electron      64.0000349 magnetization 
 augmentation part       -9.0571011 magnetization 

 Broyden mixing:
  rms(total) = 0.20008E-02    rms(broyden)= 0.20008E-02
  rms(prec ) = 0.27134E-02
  weight for this iteration     100.00

 eigenvalues of (default mixing * dielectric matrix)
  average eigenvalue GAMMA=   1.8606
  2.7429  2.7429  0.9998  1.5901  1.5439  1.5439

 Free energy of the ion-electron system (eV)
  ---------------------------------------------------
  alpha Z        PSCENC =        78.26948400
  Ewald energy   TEWEN  =     -2141.52124434
  -Hartree energ DENC   =      -334.04398969
  -exchange      EXHF   =         0.00000000
  -V(xc)+E(xc)   XCENC  =      -246.25837885
  PAW double counting   =      4887.83795615    -4502.46709263
  entropy T*S    EENTRO =        -0.00000000
  eigenvalues    EBANDS =       -91.17906170
  atomic energy  EATOM  =      2291.77909288
  Solvation  Ediel_sol  =         0.00000000
  ---------------------------------------------------
  free energy    TOTEN  =       -57.58323418 eV

  energy without entropy =      -57.58323418  energy(sigma->0) =      -57.58323418


--------------------------------------------------------------------------------------------------------




--------------------------------------- Iteration      1(  12)  ---------------------------------------


    POTLOK:  cpu time    0.0054: real time    0.0056
    SETDIJ:  cpu time    0.1640: real time    0.1640
     EDDAV:  cpu time    0.1587: real time    0.1587
       DOS:  cpu time    0.0001: real time    0.0001
    --------------------------------------------
      LOOP:  cpu time    0.3282: real time    0.3284

 eigenvalue-minimisations  :   644
 total energy-change (2. order) :-0.1749460E-04  (-0.3625622E-05)
 number of electron      64.0000349 magnetization 
 augmentation part       -9.0571011 magnetization 

 Free energy of the ion-electron system (eV)
  ---------------------------------------------------
  alpha Z        PSCENC =        78.26948400
  Ewald energy   TEWEN  =     -2141.52124434
  -Hartree energ DENC   =      -334.07884439
  -exchange      EXHF   =         0.00000000
  -V(xc)+E(xc)   XCENC  =      -246.25391795
  PAW double counting   =      4888.37987953    -4503.00932262
  entropy T*S    EENTRO =        -0.00000000
  eigenvalues    EBANDS =       -91.14837878
  atomic energy  EATOM  =      2291.77909288
  Solvation  Ediel_sol  =         0.00000000
  ---------------------------------------------------
  free energy    TOTEN  =       -57.58325167 eV

  energy without entropy =      -57.58325167  energy(sigma->0) =      -57.58325167


--------------------------------------------------------------------------------------------------------




 average (electrostatic) potential at core
  the test charge radii are     1.1212  1.0406  1.0808
  (the norm of the test charge is              1.0000)
       1 -38.2218       2 -38.2218       3 -38.2218       4 -38.2218       5 -76.1033
       6 -76.1033       7 -76.1033       8 -76.1033       9 -53.2898      10 -53.2898
      11 -53.2898      12 -53.2898      13 -53.3099      14 -53.3099      15 -53.3099
      16 -53.3099
 
 
 
 E-fermi :   3.4598     XC(G=0):  -9.1983     alpha+bet :-10.8473


 k-point     1 :       0.0000    0.0000    0.0000
  band No.  band energies     occupation 
      1      -9.9707      2.00000
      2      -9.0800      2.00000
      3      -9.0761      2.00000
      4      -8.5337      2.00000
      5      -8.5271      2.00000
      6      -8.3762      2.00000
      7      -8.3429      2.00000
      8      -8.2912      2.00000
      9      -2.6417      2.00000
     10      -1.9852      2.00000
     11      -1.4249      2.00000
     12      -0.5388      2.00000
     13      -0.3525      2.00000
     14      -0.3036      2.00000
     15      -0.2404      2.00000
     16      -0.0765      2.00000
     17       0.3884      2.00000
     18       0.5913      2.00000
     19       0.7929      2.00000
     20       1.2266      2.00000
     21       1.6238      2.00000
     22       1.6431      2.00000
     23       1.8603      2.00000
     24       1.9845      2.00000
     25       2.1393      2.00000
     26       2.1936      2.00000
     27       2.7866      2.00000
     28       2.8570      2.00000
     29       2.9034      2.00000
     30       3.0181      2.00000
     31       3.1778      2.00000
     32       3.2079      2.00000
     33       7.2468      0.00000
     34       7.3911      0.00000
     35       7.7404      0.00000
     36       7.8600      0.00000
     37       7.8670      0.00000
     38       7.8676      0.00000
     39       8.5363      0.00000
     40       9.1703      0.00000
     41       9.7999      0.00000
     42       9.8901      0.00000

 k-point     2 :       0.3333    0.0000    0.0000
  band No.  band energies     occupation 
      1      -9.7480      2.00000
      2      -9.2676      2.00000
      3      -8.9029      2.00000
      4      -8.5738      2.00000
      5      -8.5218      2.00000
      6      -8.4796      2.00000
      7      -8.4343      2.00000
      8      -8.3913      2.00000
      9      -2.5882      2.00000
     10      -2.0235      2.00000
     11      -1.4568      2.00000
     12      -0.9920      2.00000
     13      -0.1852      2.00000
     14      -0.1429      2.00000
     15      -0.1242      2.00000
     16       0.4545      2.00000
     17       0.4567      2.00000
     18       0.6664      2.00000
     19       0.8586      2.00000
     20       1.2201      2.00000
     21       1.3248      2.00000
     22       1.7573      2.00000
     23       1.8315      2.00000
     24       2.1288      2.00000
     25       2.3717      2.00000
     26       2.4146      2.00000
     27       2.4813      2.00000
     28       2.7246      2.00000
     29       2.9071      2.00000
     30       2.9252      2.00000
     31       3.1115      2.00000
     32       3.1321      2.00000
     33       6.9861      0.00000
     34       7.5663      0.00000
     35       7.7677      0.00000
     36       7.9738      0.00000
     37       8.1617      0.00000
     38       8.3105      0.00000
     39       8.4902      0.00000
     40       8.8272      0.00000
     41       9.0563      0.00000
     42       9.3866      0.00000

 k-point     3 :       0.0000    0.3333    0.0000
  band No.  band energies     occupation 
      1      -9.7684      2.00000
      2      -9.3088      2.00000
      3      -8.9480      2.00000
      4      -8.7119      2.00000
      5      -8.4759      2.00000
      6      -8.3840      2.00000
      7      -8.3652      2.00000
      8      -8.3360      2.00000
      9      -2.3863      2.00000
     10      -2.0419      2.00000
     11      -1.2160      2.00000
     12      -1.0082      2.00000
     13      -0.4708      2.00000
     14      -0.3104      2.00000
     15      -0.1794      2.00000
     16       0.0203      2.00000
     17       0.7199      2.00000
     18       0.8882      2.00000
     19       0.8996      2.00000
     20       1.4151      2.00000
     21       1.4779      2.00000
     22       1.6090      2.00000
     23       1.7919      2.00000
     24       1.8815      2.00000
     25       2.1333      2.00000
     26       2.3409      2.00000
     27       2.5564      2.00000
     28       2.7525      2.00000
     29       2.9174      2.00000
     30       2.9920      2.00000
     31       3.0168      2.00000
     32       3.1129      2.00000
     33       7.1977      0.00000
     34       7.2013      0.00000
     35       7.9067      0.00000
     36       8.0064      0.00000
     37       8.3151      0.00000
     38       8.3989      0.00000
     39       8.4796      0.00000
     40       8.9814      0.00000
     41       9.0347      0.00000
     42       9.1256      0.00000

 k-point     4 :       0.3333    0.3333    0.0000
  band No.  band energies     occupation 
      1      -9.5538      2.00000
      2      -9.1171      2.00000
      3      -9.1013      2.00000
      4      -8.7463      2.00000
      5      -8.5466      2.00000
      6      -8.4942      2.00000
      7      -8.4392      2.00000
      8      -8.4296      2.00000
      9      -2.3008      2.00000
     10      -1.7863      2.00000
     11      -1.7770      2.00000
     12      -1.4251      2.00000
     13      -0.0907      2.00000
     14      -0.0757      2.00000
     15       0.1407      2.00000
     16       0.4477      2.00000
     17       0.4997      2.00000
     18       1.0923      2.00000
     19       1.2053      2.00000
     20       1.4266      2.00000
     21       1.4763      2.00000
     22       1.5719      2.00000
     23       1.9263      2.00000
     24       1.9587      2.00000
     25       2.2464      2.00000
     26       2.2571      2.00000
     27       2.4285      2.00000
     28       2.4848      2.00000
     29       2.7894      2.00000
     30       2.9012      2.00000
     31       2.9649      2.00000
     32       3.0646      2.00000
     33       7.0090      0.00000
     34       7.2749      0.00000
     35       7.5168      0.00000
     36       7.6222      0.00000
     37       7.9202      0.00000
     38       8.3158      0.00000
     39       8.5237      0.00000
     40       8.7817      0.00000
     41       8.7865      0.00000
     42       9.1337      0.00000

 k-point     5 :       0.0000    0.0000    0.3333
  band No.  band energies     occupation 
      1      -9.8398      2.00000
      2      -9.4951      2.00000
      3      -8.7309      2.00000
      4      -8.5301      2.00000
      5      -8.4630      2.00000
      6      -8.4295      2.00000
      7      -8.4112      2.00000
      8      -8.3183      2.00000
      9      -2.4597      2.00000
     10      -2.1382      2.00000
     11      -1.2746      2.00000
     12      -0.9424      2.00000
     13      -0.4806      2.00000
     14      -0.1812      2.00000
     15       0.2064      2.00000
     16       0.2166      2.00000
     17       0.4332      2.00000
     18       0.7100      2.00000
     19       0.9175      2.00000
     20       0.9418      2.00000
     21       1.5361      2.00000
     22       1.6477      2.00000
     23       1.8372      2.00000
     24       1.9733      2.00000
     25       2.1690      2.00000
     26       2.3119      2.00000
     27       2.4620      2.00000
     28       2.5156      2.00000
     29       2.7134      2.00000
     30       2.7641      2.00000
     31       3.0667      2.00000
     32       3.0696      2.00000
     33       7.0976      0.00000
     34       7.4913      0.00000
     35       8.1166      0.00000
     36       8.3813      0.00000
     37       8.5781      0.00000
     38       8.7347      0.00000
     39       8.8246      0.00000
     40       9.2410      0.00000
     41       9.2538      0.00000
     42       9.7206      0.00000

 k-point     6 :       0.3333    0.0000    0.3333
  band No.  band energies     occupation 
      1      -9.6374      2.00000
      2      -9.3876      2.00000
      3      -8.8870      2.00000
      4      -8.6913      2.00000
      5      -8.5163      2.00000
      6      -8.4352      2.00000
      7      -8.4122      2.00000
      8      -8.3757      2.00000
      9      -2.4527      2.00000
     10      -2.1942      2.00000
     11      -1.1772      2.00000
     12      -0.9543      2.00000
     13      -0.2417      2.00000
     14      -0.1083      2.00000
     15       0.2293      2.00000
     16       0.2540      2.00000
     17       0.4281      2.00000
     18       0.6563      2.00000
     19       1.1064      2.00000
     20       1.1574      2.00000
     21       1.3711      2.00000
     22       1.3934      2.00000
     23       1.7060      2.00000
     24       2.0214      2.00000
     25       2.1781      2.00000
     26       2.2947      2.00000
     27       2.5535      2.00000
     28       2.6266      2.00000
     29       2.6545      2.00000
     30       2.9142      2.00000
     31       3.0046      2.00000
     32       3.1186      2.00000
     33       7.3799      0.00000
     34       7.8845      0.00000
     35       8.1358      0.00000
     36       8.1631      0.00000
     37       8.3620      0.00000
     38       8.5224      0.00000
     39       8.9198      0.00000
     40       8.9472      0.00000
     41       9.0453      0.00000
     42       9.4026      0.00000

 k-point     7 :       0.0000    0.3333    0.3333
  band No.  band energies     occupation 
      1      -9.6606      2.00000
      2      -9.4211      2.00000
      3      -8.9309      2.00000
      4      -8.7806      2.00000
      5      -8.4671      2.00000
      6      -8.3901      2.00000
      7      -8.3457      2.00000
      8      -8.3273      2.00000
      9      -2.2508      2.00000
     10      -2.0904      2.00000
     11      -1.0183      2.00000
     12      -0.9012      2.00000
     13      -0.5178      2.00000
     14      -0.2718      2.00000
     15      -0.1071      2.00000
     16       0.0282      2.00000
     17       0.6143      2.00000
     18       0.6852      2.00000
     19       1.0613      2.00000
     20       1.2727      2.00000
     21       1.3171      2.00000
     22       1.6724      2.00000
     23       1.7262      2.00000
     24       1.8218      2.00000
     25       2.0194      2.00000
     26       2.3014      2.00000
     27       2.5414      2.00000
     28       2.6439      2.00000
     29       2.7497      2.00000
     30       2.8686      2.00000
     31       3.0549      2.00000
     32       3.1140      2.00000
     33       7.3206      0.00000
     34       7.5455      0.00000
     35       8.1280      0.00000
     36       8.2722      0.00000
     37       8.4027      0.00000
     38       8.5424      0.00000
     39       8.8002      0.00000
     40       8.9170      0.00000
     41       9.2081      0.00000
     42       9.5623      0.00000

 k-point     8 :       0.3333    0.3333    0.3333
  band No.  band energies     occupation 
      1      -9.4617      2.00000
      2      -9.2636      2.00000
      3      -8.9580      2.00000
      4      -8.8044      2.00000
      5      -8.5894      2.00000
      6      -8.5319      2.00000
      7      -8.4383      2.00000
      8      -8.4182      2.00000
      9      -2.1634      2.00000
     10      -1.9716      2.00000
     11      -1.4151      2.00000
     12      -1.2520      2.00000
     13      -0.1277      2.00000
     14       0.0001      2.00000
     15       0.2574      2.00000
     16       0.3481      2.00000
     17       0.6102      2.00000
     18       0.7447      2.00000
     19       1.0011      2.00000
     20       1.3130      2.00000
     21       1.3786      2.00000
     22       1.5310      2.00000
     23       1.7572      2.00000
     24       1.8295      2.00000
     25       2.0108      2.00000
     26       2.1520      2.00000
     27       2.4256      2.00000
     28       2.6084      2.00000
     29       2.8629      2.00000
     30       2.8900      2.00000
     31       2.9741      2.00000
     32       3.1182      2.00000
     33       7.1876      0.00000
     34       7.6095      0.00000
     35       7.8238      0.00000
     36       7.9139      0.00000
     37       8.1523      0.00000
     38       8.4688      0.00000
     39       8.6039      0.00000
     40       8.7384      0.00000
     41       9.1883      0.00000
     42       9.3806      0.00000


--------------------------------------------------------------------------------------------------------


 soft charge-density along one line, spin component           1
         0         1         2         3         4         5         6         7         8         9
 total charge-density along one line
 
 pseudopotential strength for first ion, spin component:           1
  1.450   6.408  -0.000  -0.000   0.000
  6.408  27.990  -0.001  -0.001   0.001
 -0.000  -0.001   5.987  -0.000   0.000
 -0.000  -0.001  -0.000   5.988   0.000
  0.000   0.001   0.000   0.000   5.987
 total augmentation occupancy for first ion, spin component:           1
  1.029   0.010  -0.010  -0.005   0.005
  0.010   0.000  -0.000  -0.000   0.000
 -0.010  -0.000   0.057   0.001   0.001
 -0.005  -0.000   0.001   0.063   0.000
  0.005   0.000   0.001   0.000   0.058


------------------------ aborting loop because EDIFF is reached ----------------------------------------


 


 total charge     
 
# of ion       s       p       d       tot
------------------------------------------
    1        0.122   0.113   0.000   0.236
    2        0.122   0.113   0.000   0.235
    3        0.121   0.113   0.000   0.235
    4        0.123   0.113   0.000   0.236
    5        0.399   0.441   0.000   0.840
    6        0.399   0.441   0.000   0.841
    7        0.400   0.441   0.000   0.841
    8        0.399   0.441   0.000   0.840
    9        1.443   2.652   0.024   4.118
   10        1.443   2.653   0.024   4.119
   11        1.443   2.653   0.024   4.119
   12        1.443   2.652   0.024   4.118
   13        1.444   2.645   0.024   4.113
   14        1.444   2.646   0.024   4.114
   15        1.443   2.645   0.024   4.112
   16        1.443   2.645   0.024   4.112
--------------------------------------------------
tot         13.631  23.406   0.190  37.228
 
    CHARGE:  cpu time    0.0093: real time    0.0093
    FORLOC:  cpu time    0.0007: real time    0.0007
    FORNL :  cpu time    0.0382: real time    0.0383
    STRESS:  cpu time    0.1100: real time    0.1100
    FORCOR:  cpu time    0.0050: real time    0.0050
    FORHAR:  cpu time    0.0015: real time    0.0015
    MIXING:  cpu time    0.0004: real time    0.0004
    OFIELD:  cpu time    0.0000: real time    0.0000

  FORCE on cell =-STRESS in cart. coord.  units (eV):
  Direction    XX          YY          ZZ          XY          YZ          ZX
  --------------------------------------------------------------------------------------
  Alpha Z    78.26948    78.26948    78.26948
  Ewald    -698.14614  -721.51928  -721.85889    -0.00000    -0.00000     0.00000
  Hartree   120.17661   113.61585   100.31526    -0.00000    -0.00000    -0.00000
  E(xc)    -233.99196  -234.11177  -234.50658     0.00000    -0.00000     0.00000
  Local    -318.16464  -290.39418  -272.16102    -0.00000     0.00000     0.00000
  n-local   460.84141   461.01361   464.10382    -0.03302    -0.06142    -0.04833
  augment   -34.41212   -34.50784   -34.43050    -0.00000     0.00000    -0.00000
  Kinetic   671.97880   673.58954   671.11779    -0.49836     0.28849     0.17342
  Fock        0.00000     0.00000     0.00000     0.00000     0.00000     0.00000
  -------------------------------------------------------------------------------------
  Total      46.55144    45.95541    50.84937     0.00000     0.00000     0.00000
  in kB     235.56133   232.54529   257.30984     0.00000     0.00000     0.00000
  external pressure =      241.81 kB  Pullay stress =        0.00 kB


 VOLUME and BASIS-vectors are now :
 -----------------------------------------------------------------------------
  energy-cutoff  :      300.00
  volume of cell :      316.62
      direct lattice vectors                 reciprocal lattice vectors
     6.204654770  0.000000000  0.000000000     0.161169322  0.000000000  0.000000000
     0.000000000  6.495612760  0.000000000     0.000000000  0.153950064  0.000000000
     0.000000000  0.000000000  7.856009060     0.000000000  0.000000000  0.127291096

  length of vectors
     6.204654770  6.495612760  7.856009060     0.161169322  0.153950064  0.127291096


 FORCES acting on ions
    electron-ion (+dipol)            ewald-force                    non-local-force                 convergence-correction
 -----------------------------------------------------------------------------------------------
   -.543E-01 -.169E+01 -.522E+00   0.118E+00 0.147E+01 0.424E+00   -.194E+00 0.458E+00 0.272E+00   -.122E-04 0.177E-04 -.121E-05
   -.543E-01 0.169E+01 0.522E+00   0.118E+00 -.147E+01 -.424E+00   -.194E+00 -.458E+00 -.272E+00   -.122E-04 -.177E-04 0.121E-05
   -.543E-01 0.169E+01 -.522E+00   0.118E+00 -.147E+01 0.424E+00   -.194E+00 -.458E+00 0.272E+00   -.122E-04 -.177E-04 -.121E-05
   -.543E-01 -.169E+01 0.522E+00   0.118E+00 0.147E+01 -.424E+00   -.194E+00 0.458E+00 -.272E+00   -.122E-04 0.177E-04 0.121E-05
   -.535E+00 -.826E+00 0.104E+01   0.499E+00 0.750E+00 -.910E+00   0.578E-01 -.275E-01 -.143E+00   0.442E-04 0.963E-04 -.492E-04
   -.535E+00 0.826E+00 -.104E+01   0.499E+00 -.750E+00 0.910E+00   0.578E-01 0.275E-01 0.143E+00   0.442E-04 -.963E-04 0.492E-04
   -.535E+00 0.826E+00 0.104E+01   0.499E+00 -.750E+00 -.910E+00   0.578E-01 0.275E-01 -.143E+00   0.442E-04 -.963E-04 -.492E-04
   -.535E+00 -.826E+00 -.104E+01   0.499E+00 0.750E+00 0.910E+00   0.578E-01 -.275E-01 0.143E+00   0.442E-04 0.963E-04 0.492E-04
   -.183E+02 -.118E+02 0.274E+02   0.192E+02 0.121E+02 -.284E+02   -.953E+00 -.755E+00 0.115E+01   0.103E-02 0.649E-03 -.182E-02
   -.183E+02 0.118E+02 -.274E+02   0.192E+02 -.121E+02 0.284E+02   -.953E+00 0.755E+00 -.115E+01   0.103E-02 -.649E-03 0.182E-02
   -.183E+02 0.118E+02 0.274E+02   0.192E+02 -.121E+02 -.284E+02   -.953E+00 0.755E+00 0.115E+01   0.103E-02 -.649E-03 -.182E-02
   -.183E+02 -.118E+02 -.274E+02   0.192E+02 0.121E+02 0.284E+02   -.953E+00 -.755E+00 -.115E+01   0.103E-02 0.649E-03 0.182E-02
   0.190E+02 0.158E+02 -.271E+02   -.198E+02 -.163E+02 0.281E+02   0.999E+00 0.630E+00 -.113E+01   -.121E-02 -.983E-03 0.166E-02
   0.190E+02 -.158E+02 0.271E+02   -.198E+02 0.163E+02 -.281E+02   0.999E+00 -.630E+00 0.113E+01   -.121E-02 0.983E-03 -.166E-02
   0.190E+02 -.158E+02 -.271E+02   -.198E+02 0.163E+02 0.281E+02   0.999E+00 -.630E+00 -.113E+01   -.121E-02 0.983E-03 0.166E-02
   0.190E+02 0.158E+02 0.271E+02   -.198E+02 -.163E+02 -.281E+02   0.999E+00 0.630E+00 0.113E+01   -.121E-02 -.983E-03 -.166E-02
 -----------------------------------------------------------------------------------------------
   0.343E+00 0.315E-12 0.354E-05   0.107E-13 -.107E-13 0.711E-14   -.361E+00 0.000E+00 0.000E+00   -.603E-03 0.105E-13 -.211E-13
 
 
 POSITION                                       TOTAL-FORCE (eV/Angst)
 -----------------------------------------------------------------------------------
      0.73097      5.95413      2.96726        -0.128792      0.235163      0.174411
      3.83330      0.54148      4.88875        -0.128792     -0.235163     -0.174411
      3.83330      3.78928      6.89526        -0.128792     -0.235163      0.174411
      0.73097      2.70633      0.96075        -0.128792      0.235163     -0.174411
      3.85541      3.72691      2.93720         0.023003     -0.103100     -0.015364
      0.75308      2.76870      4.91881         0.023003      0.103100      0.015364
      0.75308      6.01651      6.86521         0.023003      0.103100     -0.015364
      3.85541      0.47911      0.99080         0.023003     -0.103100      0.015364
      6.11459      3.66635      3.03607        -0.124045     -0.382872      0.180258
      3.01226      2.82926      4.81994        -0.124045      0.382872     -0.180258
      3.01226      6.07707      6.96407        -0.124045      0.382872      0.180258
      6.11459      0.41855      0.89194        -0.124045     -0.382872     -0.180258
      0.06411      3.86649      6.76628         0.229835      0.065860     -0.121250
      3.16644      2.62912      1.08973         0.229835     -0.065860      0.121250
      3.16644      5.87693      2.83827         0.229835     -0.065860     -0.121250
      0.06411      0.61869      5.01774         0.229835      0.065860      0.121250
 -----------------------------------------------------------------------------------
    total drift:                               -0.018021      0.000000      0.000004


--------------------------------------------------------------------------------------------------------



  FREE ENERGIE OF THE ION-ELECTRON SYSTEM (eV)
  ---------------------------------------------------
  free  energy   TOTEN  =       -57.58325167 eV

  energy  without entropy=      -57.58325167  energy(sigma->0) =      -57.58325167
 


--------------------------------------------------------------------------------------------------------


    POTLOK:  cpu time    0.1666: real time    0.1666


--------------------------------------------------------------------------------------------------------




--------------------------------------------------------------------------------------------------------


    WAVPRE:  cpu time    0.0079: real time    0.2381
    FEWALD:  cpu time    0.0007: real time    0.0017
    GENKIN:  cpu time    0.0105: real time    0.0105
    ORTHCH:  cpu time    0.0226: real time    0.0226
     LOOP+:  cpu time    5.2005: real time    5.4865


--------------------------------------- Iteration      2(   1)  ---------------------------------------


    POTLOK:  cpu time    0.0140: real time    0.0686
    SETDIJ:  cpu time    0.1612: real time    0.1621
     EDDAV:  cpu time    0.1884: real time    0.1900
       DOS:  cpu time    0.0003: real time    0.0003
    CHARGE:  cpu time    0.0100: real time    0.0101
    MIXING:  cpu time    0.0002: real time    0.0002
    --------------------------------------------
      LOOP:  cpu time    0.3741: real time    0.4311

 eigenvalue-minimisations  :   742
 total energy-change (2. order) :-0.4666641E+01  (-0.2629151E+01)
 number of electron      64.0000307 magnetization 
 augmentation part       -9.4135278 magnetization 

 Broyden mixing:
  rms(total) = 0.60997E+00    rms(broyden)= 0.60991E+00
  rms(prec ) = 0.87587E+00
  weight for this iteration     100.00

 Free energy of the ion-electron system (eV)
  ---------------------------------------------------
  alpha Z        PSCENC =        71.87538258
  Ewald energy   TEWEN  =     -2080.74218389
  -Hartree energ DENC   =      -325.40798599
  -exchange      EXHF   =         0.00000000
  -V(xc)+E(xc)   XCENC  =      -248.79466976
  PAW double counting   =      4889.57384588    -4504.20442431
  entropy T*S    EENTRO =        -0.00000000
  eigenvalues    EBANDS =      -156.32893269
  atomic energy  EATOM  =      2291.77909288
  Solvation  Ediel_sol  =         0.00000000
  ---------------------------------------------------
  free energy    TOTEN  =       -62.24987530 eV

  energy without entropy =      -62.24987530  energy(sigma->0) =      -62.24987530


--------------------------------------------------------------------------------------------------------




--------------------------------------- Iteration      2(   2)  ---------------------------------------


    POTLOK:  cpu time    0.0045: real time    0.0046
    SETDIJ:  cpu time    0.1622: real time    0.1630
     EDDAV:  cpu time    0.2371: real time    0.2374
       DOS:  cpu time    0.0002: real time    0.0002
    CHARGE:  cpu time    0.0099: real time    0.0099
    MIXING:  cpu time    0.0003: real time    0.0003
    --------------------------------------------
      LOOP:  cpu time    0.4140: real time    0.4153

 eigenvalue-minimisations  :   812
 total energy-change (2. order) : 0.1073881E+01  (-0.1960577E+00)
 number of electron      64.0000301 magnetization 
 augmentation part       -9.2166108 magnetization 

 Broyden mixing:
  rms(total) = 0.23968E+00    rms(broyden)= 0.23968E+00
  rms(prec ) = 0.35941E+00
  weight for this iteration     100.00

 eigenvalues of (default mixing * dielectric matrix)
  average eigenvalue GAMMA=   1.5615
  1.5615

 Free energy of the ion-electron system (eV)
  ---------------------------------------------------
  alpha Z        PSCENC =        71.87538258
  Ewald energy   TEWEN  =     -2080.74218389
  -Hartree energ DENC   =      -342.85997426
  -exchange      EXHF   =         0.00000000
  -V(xc)+E(xc)   XCENC  =      -248.31186135
  PAW double counting   =      4545.40017274    -4160.01343696
  entropy T*S    EENTRO =        -0.00000000
  eigenvalues    EBANDS =      -138.30318584
  atomic energy  EATOM  =      2291.77909288
  Solvation  Ediel_sol  =         0.00000000
  ---------------------------------------------------
  free energy    TOTEN  =       -61.17599410 eV

  energy without entropy =      -61.17599410  energy(sigma->0) =      -61.17599410


--------------------------------------------------------------------------------------------------------




--------------------------------------- Iteration      2(   3)  ---------------------------------------


    POTLOK:  cpu time    0.0047: real time    0.0048
    SETDIJ:  cpu time    0.1643: real time    0.1643
     EDDAV:  cpu time    0.2358: real time    0.2358
       DOS:  cpu time    0.0001: real time    0.0001
    CHARGE:  cpu time    0.0107: real time    0.0107
    MIXING:  cpu time    0.0004: real time    0.0004
    --------------------------------------------
[...]
     12      -2.5749      2.00000
     13      -1.9457      2.00000
     14      -1.9239      2.00000
     15      -1.6927      2.00000
     16      -1.6182      2.00000
     17      -0.9762      2.00000
     18      -0.9498      2.00000
     19      -0.8481      2.00000
     20      -0.5621      2.00000
     21      -0.3243      2.00000
     22      -0.2421      2.00000
     23      -0.2359      2.00000
     24      -0.1080      2.00000
     25       0.0368      2.00000
     26       0.1198      2.00000
     27       0.3672      2.00000
     28       0.5396      2.00000
     29       0.5431      2.00000
     30       0.6497      2.00000
     31       0.7071      2.00000
     32       0.7198      2.00000
     33       4.3189      0.00000
     34       4.7514      0.00000
     35       4.7735      0.00000
     36       4.9633      0.00000
     37       5.1624      0.00000
     38       5.6868      0.00000
     39       5.8113      0.00000
     40       6.0076      0.00000
     41       6.2070      0.00000
     42       6.2576      0.00000

 k-point     4 :       0.3333    0.3333    0.0000
  band No.  band energies     occupation 
      1     -11.0070      2.00000
      2     -10.7653      2.00000
      3     -10.7620      2.00000
      4     -10.5272      2.00000
      5     -10.3442      2.00000
      6     -10.3311      2.00000
      7     -10.3251      2.00000
      8     -10.2910      2.00000
      9      -4.0535      2.00000
     10      -3.5541      2.00000
     11      -3.5245      2.00000
     12      -3.0387      2.00000
     13      -1.6228      2.00000
     14      -1.5519      2.00000
     15      -1.5062      2.00000
     16      -1.4020      2.00000
     17      -1.1182      2.00000
     18      -0.8987      2.00000
     19      -0.8319      2.00000
     20      -0.6373      2.00000
     21      -0.4212      2.00000
     22      -0.3197      2.00000
     23      -0.1222      2.00000
     24      -0.0824      2.00000
     25       0.0535      2.00000
     26       0.1404      2.00000
     27       0.1749      2.00000
     28       0.2770      2.00000
     29       0.6290      2.00000
     30       0.6433      2.00000
     31       0.7203      2.00000
     32       0.7798      2.00000
     33       4.5083      0.00000
     34       4.5819      0.00000
     35       4.6703      0.00000
     36       4.8964      0.00000
     37       5.3253      0.00000
     38       5.4188      0.00000
     39       5.6930      0.00000
     40       5.6962      0.00000
     41       6.0787      0.00000
     42       6.2220      0.00000

 k-point     5 :       0.0000    0.0000    0.3333
  band No.  band energies     occupation 
      1     -11.1846      2.00000
      2     -11.0074      2.00000
      3     -10.5397      2.00000
      4     -10.3695      2.00000
      5     -10.3380      2.00000
      6     -10.3272      2.00000
      7     -10.2700      2.00000
      8     -10.2206      2.00000
      9      -4.3358      2.00000
     10      -3.9822      2.00000
     11      -2.9171      2.00000
     12      -2.4408      2.00000
     13      -1.9418      2.00000
     14      -1.9418      2.00000
     15      -1.5506      2.00000
     16      -1.4706      2.00000
     17      -1.3045      2.00000
     18      -1.0373      2.00000
     19      -0.9440      2.00000
     20      -0.8691      2.00000
     21      -0.2543      2.00000
     22      -0.2212      2.00000
     23      -0.1577      2.00000
     24       0.0333      2.00000
     25       0.1847      2.00000
     26       0.3073      2.00000
     27       0.3256      2.00000
     28       0.3647      2.00000
     29       0.5429      2.00000
     30       0.5779      2.00000
     31       0.6182      2.00000
     32       0.6928      2.00000
     33       4.1395      0.00000
     34       4.8158      0.00000
     35       5.0501      0.00000
     36       5.2485      0.00000
     37       5.5510      0.00000
     38       5.6097      0.00000
     39       5.6995      0.00000
     40       6.0422      0.00000
     41       6.0989      0.00000
     42       6.4347      0.00000

 k-point     6 :       0.3333    0.0000    0.3333
  band No.  band energies     occupation 
      1     -11.0760      2.00000
      2     -10.9579      2.00000
      3     -10.5869      2.00000
      4     -10.4773      2.00000
      5     -10.3458      2.00000
      6     -10.3311      2.00000
      7     -10.2766      2.00000
      8     -10.2555      2.00000
      9      -4.2017      2.00000
     10      -3.9719      2.00000
     11      -2.9757      2.00000
     12      -2.7061      2.00000
     13      -1.7977      2.00000
     14      -1.7799      2.00000
     15      -1.5175      2.00000
     16      -1.5138      2.00000
     17      -1.1167      2.00000
     18      -1.0217      2.00000
     19      -0.7535      2.00000
     20      -0.6927      2.00000
     21      -0.5099      2.00000
     22      -0.5040      2.00000
     23      -0.2263      2.00000
     24      -0.0725      2.00000
     25       0.1323      2.00000
     26       0.2108      2.00000
     27       0.3803      2.00000
     28       0.4019      2.00000
     29       0.4891      2.00000
     30       0.6342      2.00000
     31       0.7590      2.00000
     32       0.8330      2.00000
     33       4.5822      0.00000
     34       4.6383      0.00000
     35       4.9279      0.00000
     36       5.1065      0.00000
     37       5.4521      0.00000
     38       5.4904      0.00000
     39       5.9759      0.00000
     40       5.9847      0.00000
     41       6.2364      0.00000
     42       6.2774      0.00000

 k-point     7 :       0.0000    0.3333    0.3333
  band No.  band energies     occupation 
      1     -11.0813      2.00000
      2     -10.9643      2.00000
      3     -10.6050      2.00000
      4     -10.5042      2.00000
      5     -10.3195      2.00000
      6     -10.3032      2.00000
      7     -10.2825      2.00000
      8     -10.2446      2.00000
      9      -4.1553      2.00000
     10      -3.9482      2.00000
     11      -2.8860      2.00000
     12      -2.6358      2.00000
     13      -1.9946      2.00000
     14      -1.8402      2.00000
     15      -1.7073      2.00000
     16      -1.6255      2.00000
     17      -1.0718      2.00000
     18      -1.0096      2.00000
     19      -0.7362      2.00000
     20      -0.6171      2.00000
     21      -0.4455      2.00000
     22      -0.3350      2.00000
     23      -0.1316      2.00000
     24      -0.0896      2.00000
     25      -0.0097      2.00000
     26       0.1823      2.00000
     27       0.2902      2.00000
     28       0.5073      2.00000
     29       0.5256      2.00000
     30       0.5907      2.00000
     31       0.7396      2.00000
     32       0.7824      2.00000
     33       4.5633      0.00000
     34       4.7911      0.00000
     35       4.8805      0.00000
     36       5.0631      0.00000
     37       5.5034      0.00000
     38       5.7230      0.00000
     39       5.8616      0.00000
     40       5.9932      0.00000
     41       6.1152      0.00000
     42       6.4555      0.00000

 k-point     8 :       0.3333    0.3333    0.3333
  band No.  band energies     occupation 
      1     -10.9686      2.00000
      2     -10.8736      2.00000
      3     -10.6573      2.00000
      4     -10.5621      2.00000
      5     -10.3627      2.00000
      6     -10.3391      2.00000
      7     -10.3035      2.00000
      8     -10.2893      2.00000
      9      -3.9810      2.00000
     10      -3.7927      2.00000
     11      -3.2359      2.00000
     12      -3.0220      2.00000
     13      -1.7376      2.00000
     14      -1.6354      2.00000
     15      -1.4531      2.00000
     16      -1.3888      2.00000
     17      -1.0773      2.00000
     18      -1.0137      2.00000
     19      -0.8236      2.00000
     20      -0.6075      2.00000
     21      -0.4919      2.00000
     22      -0.3547      2.00000
     23      -0.2271      2.00000
     24      -0.1297      2.00000
     25      -0.0094      2.00000
     26       0.0355      2.00000
     27       0.3392      2.00000
     28       0.4095      2.00000
     29       0.6328      2.00000
     30       0.6780      2.00000
     31       0.7089      2.00000
     32       0.8229      2.00000
     33       4.4905      0.00000
     34       4.6553      0.00000
     35       4.9142      0.00000
     36       5.0721      0.00000
     37       5.3658      0.00000
     38       5.5460      0.00000
     39       5.6720      0.00000
     40       5.9258      0.00000
     41       6.0822      0.00000
     42       6.2163      0.00000


--------------------------------------------------------------------------------------------------------


 soft charge-density along one line, spin component           1
         0         1         2         3         4         5         6         7         8         9
 total charge-density along one line
 
 pseudopotential strength for first ion, spin component:           1
  1.430   6.390  -0.001  -0.000   0.000
  6.390  28.149   0.001   0.000   0.000
 -0.001   0.001   5.457   0.000   0.000
 -0.000   0.000   0.000   5.457   0.000
  0.000   0.000   0.000   0.000   5.457
 total augmentation occupancy for first ion, spin component:           1
  0.488   0.002  -0.013  -0.002   0.006
  0.002   0.000  -0.000  -0.000   0.000
 -0.013  -0.000   0.018   0.001   0.001
 -0.002  -0.000   0.001   0.023  -0.000
  0.006   0.000   0.001  -0.000   0.019


------------------------ aborting loop because EDIFF is reached ----------------------------------------


 


 total charge     
 
# of ion       s       p       d       tot
------------------------------------------
    1        0.056   0.038   0.000   0.095
    2        0.056   0.038   0.000   0.095
    3        0.056   0.038   0.000   0.095
    4        0.057   0.038   0.000   0.095
    5        0.387   0.348   0.000   0.735
    6        0.387   0.348   0.000   0.735
    7        0.387   0.348   0.000   0.735
    8        0.387   0.348   0.000   0.735
    9        1.435   2.483   0.015   3.933
   10        1.435   2.483   0.015   3.933
   11        1.435   2.483   0.015   3.933
   12        1.435   2.484   0.015   3.934
   13        1.436   2.478   0.016   3.930
   14        1.436   2.478   0.016   3.930
   15        1.436   2.478   0.016   3.929
   16        1.436   2.478   0.016   3.929
--------------------------------------------------
tot         13.256  21.391   0.124  34.772
 
    CHARGE:  cpu time    0.0090: real time    0.0090
    FORLOC:  cpu time    0.0007: real time    0.0007
    FORNL :  cpu time    0.0338: real time    0.0338
    STRESS:  cpu time    0.0852: real time    0.0852
    FORCOR:  cpu time    0.0042: real time    0.0042
    FORHAR:  cpu time    0.0013: real time    0.0013
    MIXING:  cpu time    0.0003: real time    0.0003
    OFIELD:  cpu time    0.0000: real time    0.0000

  FORCE on cell =-STRESS in cart. coord.  units (eV):
  Direction    XX          YY          ZZ          XY          YZ          ZX
  --------------------------------------------------------------------------------------
  Alpha Z    56.24251    56.24251    56.24251
  Ewald    -616.38388  -643.55318  -599.47499     0.00000     0.00000     0.00000
  Hartree   166.58968   160.47077   149.35991    -0.00000    -0.00000    -0.00000
  E(xc)    -223.23380  -223.29889  -223.47895     0.00000     0.00000     0.00000
  Local    -410.20044  -380.18728  -402.10851    -0.00000    -0.00000     0.00000
  n-local   425.32793   424.17658   429.91945    -0.09713    -0.09930    -0.08214
  augment   -36.17280   -36.36347   -35.72125     0.00000    -0.00000     0.00000
  Kinetic   637.43928   642.19209   625.10035    -0.42643    -0.06693    -0.06019
  Fock        0.00000     0.00000     0.00000     0.00000     0.00000     0.00000
  -------------------------------------------------------------------------------------
  Total      -0.39152    -0.32087    -0.16147     0.00000     0.00000     0.00000
  in kB      -1.42361    -1.16674    -0.58715     0.00000     0.00000     0.00000
  external pressure =       -1.06 kB  Pullay stress =        0.00 kB


 VOLUME and BASIS-vectors are now :
 -----------------------------------------------------------------------------
  energy-cutoff  :      300.00
  volume of cell :      440.62
      direct lattice vectors                 reciprocal lattice vectors
     6.834537584  0.000000000  0.000000000     0.146315678  0.000000000  0.000000000
     0.000000000  6.966608720  0.000000000     0.000000000  0.143541864  0.000000000
     0.000000000  0.000000000  9.254159090     0.000000000  0.000000000  0.108059521

  length of vectors
     6.834537584  6.966608720  9.254159090     0.146315678  0.143541864  0.108059521


 FORCES acting on ions
    electron-ion (+dipol)            ewald-force                    non-local-force                 convergence-correction
 -----------------------------------------------------------------------------------------------
   0.140E-01 -.248E+01 -.378E+00   0.125E+00 0.206E+01 0.307E+00   -.178E+00 0.418E+00 0.921E-01   -.911E-04 -.830E-04 -.551E-04
   0.140E-01 0.248E+01 0.378E+00   0.125E+00 -.206E+01 -.307E+00   -.178E+00 -.418E+00 -.921E-01   -.911E-04 0.830E-04 0.551E-04
   0.140E-01 0.248E+01 -.378E+00   0.125E+00 -.206E+01 0.307E+00   -.178E+00 -.418E+00 0.921E-01   -.911E-04 0.830E-04 -.551E-04
   0.140E-01 -.248E+01 0.378E+00   0.125E+00 0.206E+01 -.307E+00   -.178E+00 0.418E+00 -.921E-01   -.911E-04 -.830E-04 0.551E-04
   0.103E+01 0.175E+01 0.520E+00   -.927E+00 -.152E+01 -.510E+00   -.888E-01 -.185E+00 -.135E-01   0.303E-03 -.382E-03 -.317E-03
   0.103E+01 -.175E+01 -.520E+00   -.927E+00 0.152E+01 0.510E+00   -.888E-01 0.185E+00 0.135E-01   0.303E-03 0.382E-03 0.317E-03
   0.103E+01 -.175E+01 0.520E+00   -.927E+00 0.152E+01 -.510E+00   -.888E-01 0.185E+00 -.135E-01   0.303E-03 0.382E-03 -.317E-03
   0.103E+01 0.175E+01 -.520E+00   -.927E+00 -.152E+01 0.510E+00   -.888E-01 -.185E+00 0.135E-01   0.303E-03 -.382E-03 0.317E-03
   -.206E+02 -.796E+01 0.292E+02   0.216E+02 0.827E+01 -.307E+02   -.110E+01 -.308E+00 0.151E+01   -.140E-02 -.114E-02 0.106E-02
   -.206E+02 0.796E+01 -.292E+02   0.216E+02 -.827E+01 0.307E+02   -.110E+01 0.308E+00 -.151E+01   -.140E-02 0.114E-02 -.106E-02
   -.206E+02 0.796E+01 0.292E+02   0.216E+02 -.827E+01 -.307E+02   -.110E+01 0.308E+00 0.151E+01   -.140E-02 0.114E-02 0.106E-02
   -.206E+02 -.796E+01 -.292E+02   0.216E+02 0.827E+01 0.307E+02   -.110E+01 -.308E+00 -.151E+01   -.140E-02 -.114E-02 -.106E-02
   0.199E+02 0.189E+02 -.287E+02   -.208E+02 -.197E+02 0.300E+02   0.928E+00 0.779E+00 -.139E+01   0.362E-02 -.187E-03 -.456E-02
   0.199E+02 -.189E+02 0.287E+02   -.208E+02 0.197E+02 -.300E+02   0.928E+00 -.779E+00 0.139E+01   0.362E-02 0.187E-03 0.456E-02
   0.199E+02 -.189E+02 -.287E+02   -.208E+02 0.197E+02 0.300E+02   0.928E+00 -.779E+00 -.139E+01   0.362E-02 0.187E-03 -.456E-02
   0.199E+02 0.189E+02 0.287E+02   -.208E+02 -.197E+02 -.300E+02   0.928E+00 0.779E+00 0.139E+01   0.362E-02 -.187E-03 0.456E-02
 -----------------------------------------------------------------------------------------------
   0.163E+01 0.141E-11 -.270E-04   -.355E-14 -.107E-13 -.142E-13   -.174E+01 0.111E-15 0.000E+00   0.975E-02 0.205E-12 0.669E-12
 
 
 POSITION                                       TOTAL-FORCE (eV/Angst)
 -----------------------------------------------------------------------------------
      0.76185      6.44931      3.51371        -0.033199     -0.009904      0.020643
      4.17912      0.51729      5.74045        -0.033199      0.009904     -0.020643
      4.17912      4.00060      8.14079        -0.033199      0.009904      0.020643
      0.76185      2.96601      1.11337        -0.033199     -0.009904     -0.020643
      4.24243      3.89718      3.46341         0.021691      0.043539     -0.003917
      0.82517      3.06943      5.79075         0.021691     -0.043539      0.003917
      0.82517      6.55273      8.09049         0.021691     -0.043539     -0.003917
      4.24243      0.41388      1.16367         0.021691      0.043539      0.003917
      6.64684      3.73107      3.71334        -0.004910     -0.001008      0.010336
      3.22957      3.23554      5.54082        -0.004910      0.001008     -0.010336
      3.22957      6.71885      8.34042        -0.004910      0.001008      0.010336
      6.64684      0.24776      0.91374        -0.004910     -0.001008     -0.010336
      0.20680      4.22338      7.81493         0.016418     -0.024692     -0.010196
      3.62407      2.74323      1.43923         0.016418      0.024692      0.010196
      3.62407      6.22654      3.18785         0.016418      0.024692     -0.010196
      0.20680      0.74007      6.06631         0.016418     -0.024692      0.010196
 -----------------------------------------------------------------------------------
    total drift:                               -0.104213      0.000000     -0.000027


--------------------------------------------------------------------------------------------------------



  FREE ENERGIE OF THE ION-ELECTRON SYSTEM (eV)
  ---------------------------------------------------
  free  energy   TOTEN  =       -64.91591342 eV

  energy  without entropy=      -64.91591342  energy(sigma->0) =      -64.91591342
 
 d Force =-0.1676248E-03[-0.551E-03, 0.216E-03]  d Energy = 0.6800265E-03-0.848E-03
 d Force =-0.2177101E+00[-0.220E+00,-0.216E+00]  d Ewald  = 0.1057251E+01-0.127E+01


--------------------------------------------------------------------------------------------------------


    POTLOK:  cpu time    0.1651: real time    0.1651


--------------------------------------------------------------------------------------------------------




--------------------------------------------------------------------------------------------------------


  
 reached required accuracy - stopping structural energy minimisation
     LOOP+:  cpu time    1.9794: real time    2.0652
    4ORBIT:  cpu time    0.0000: real time    0.0000
 


 total charge     
 
# of ion       s       p       d       tot
------------------------------------------
    1        0.056   0.038   0.000   0.095
    2        0.056   0.038   0.000   0.095
    3        0.056   0.038   0.000   0.095
    4        0.057   0.038   0.000   0.095
    5        0.387   0.348   0.000   0.735
    6        0.387   0.348   0.000   0.735
    7        0.387   0.348   0.000   0.735
    8        0.387   0.348   0.000   0.735
    9        1.435   2.483   0.015   3.933
   10        1.435   2.483   0.015   3.933
   11        1.435   2.483   0.015   3.933
   12        1.435   2.484   0.015   3.934
   13        1.436   2.478   0.016   3.930
   14        1.436   2.478   0.016   3.930
   15        1.436   2.478   0.016   3.929
   16        1.436   2.478   0.016   3.929
--------------------------------------------------
tot         13.256  21.391   0.124  34.772
 

 total amount of memory used by VASP MPI-rank0    34689. kBytes
=======================================================================

   base      :      30000. kBytes
   nonlr-proj:        998. kBytes
   fftplans  :        400. kBytes
   grid      :       1652. kBytes
   one-center:        129. kBytes
   wavefun   :       1510. kBytes
 
  
  
 General timing and accounting informations for this job:
 ========================================================
  
                  Total CPU time used (sec):       64.337
                            User time (sec):       63.142
                          System time (sec):        1.195
                         Elapsed time (sec):       68.505
  
                   Maximum memory used (kb):       66972.
                   Average memory used (kb):           0.
  
                          Minor page faults:        29991
                          Major page faults:            0
                 Voluntary context switches:         1222
