PROCAR new format
# of k-points:    8         # of bands:   42         # of ions:   16

 k-point     1 :    0.00000000 0.00000000 0.00000000     weight = 0.03703704

band     1 # energy  -11.25022375 # occ.  2.00000000
 
ion      s      p      d    tot
    1  0.000  0.000  0.000  0.000
    2  0.000  0.000  0.000  0.000
    3  0.000  0.000  0.000  0.000
    4  0.000  0.000  0.000  0.000
    5  0.010  0.000  0.000  0.010
    6  0.010  0.000  0.000  0.010
    7  0.010  0.000  0.000  0.010
    8  0.010  0.000  0.000  0.010
    9  0.077  0.000  0.000  0.078
   10  0.077  0.000  0.000  0.078
   11  0.077  0.000  0.000  0.078
   12  0.077  0.000  0.000  0.078
   13  0.076  0.000  0.000  0.076
   14  0.076  0.000  0.000  0.076
   15  0.076  0.000  0.000  0.076
   16  0.076  0.000  0.000  0.076
tot    0.655  0.003  0.001  0.659
 
band     2 # energy  -10.77687536 # occ.  2.00000000
 
ion      s      p      d    tot
    1  0.000  0.000  0.000  0.000
    2  0.000  0.000  0.000  0.000
    3  0.000  0.000  0.000  0.000
    4  0.000  0.000  0.000  0.000
    5  0.006  0.001  0.000  0.008
    6  0.006  0.001  0.000  0.008
    7  0.006  0.001  0.000  0.008
    8  0.006  0.001  0.000  0.008
    9  0.001  0.000  0.000  0.001
   10  0.001  0.000  0.000  0.001
   11  0.001  0.000  0.000  0.001
   12  0.001  0.000  0.000  0.001
   13  0.163  0.001  0.000  0.164
   14  0.163  0.001  0.000  0.164
   15  0.163  0.001  0.000  0.164
   16  0.163  0.001  0.000  0.164
tot    0.683  0.009  0.001  0.692
 
band     3 # energy  -10.76491779 # occ.  2.00000000
 
ion      s      p      d    tot
    1  0.000  0.000  0.000  0.000
    2  0.000  0.000  0.000  0.000
    3  0.000  0.000  0.000  0.000
    4  0.000  0.000  0.000  0.000
    5  0.007  0.001  0.000  0.008
    6  0.007  0.001  0.000  0.008
    7  0.007  0.001  0.000  0.008
    8  0.007  0.001  0.000  0.008
    9  0.162  0.001  0.000  0.163
   10  0.162  0.001  0.000  0.163
   11  0.162  0.001  0.000  0.163
   12  0.162  0.001  0.000  0.163
   13  0.002  0.000  0.000  0.003
   14  0.002  0.000  0.000  0.003
   15  0.002  0.000  0.000  0.003
   16  0.002  0.000  0.000  0.003
tot    0.683  0.009  0.001  0.692
 
band     4 # energy  -10.32652239 # occ.  2.00000000
 
ion      s      p      d    tot
    1  0.000  0.000  0.000  0.000
    2  0.000  0.000  0.000  0.000
    3  0.000  0.000  0.000  0.000
    4  0.000  0.000  0.000  0.000
    5  0.000  0.003  0.000  0.003
    6  0.000  0.003  0.000  0.003
    7  0.000  0.003  0.000  0.003
    8  0.000  0.003  0.000  0.003
    9  0.177  0.000  0.000  0.177
   10  0.177  0.000  0.000  0.177
   11  0.177  0.000  0.000  0.177
   12  0.177  0.000  0.000  0.177
   13  0.001  0.000  0.000  0.001
   14  0.001  0.000  0.000  0.001
   15  0.001  0.000  0.000  0.001
   16  0.001  0.000  0.000  0.001
tot    0.713  0.012  0.000  0.725
 
band     5 # energy  -10.32353150 # occ.  2.00000000
 
ion      s      p      d    tot
    1  0.000  0.000  0.000  0.000
    2  0.000  0.000  0.000  0.000
    3  0.000  0.000  0.000  0.000
    4  0.000  0.000  0.000  0.000
    5  0.000  0.003  0.000  0.003
    6  0.000  0.003  0.000  0.003
    7  0.000  0.003  0.000  0.003
    8  0.000  0.003  0.000  0.003
    9  0.068  0.000  0.000  0.068
   10  0.068  0.000  0.000  0.068
   11  0.068  0.000  0.000  0.068
   12  0.068  0.000  0.000  0.068
   13  0.111  0.000  0.000  0.111
   14  0.111  0.000  0.000  0.111
   15  0.111  0.000  0.000  0.111
   16  0.111  0.000  0.000  0.111
tot    0.715  0.013  0.000  0.728
 
band     6 # energy  -10.31242368 # occ.  2.00000000
 
ion      s      p      d    tot
    1  0.000  0.000  0.000  0.000
    2  0.000  0.000  0.000  0.000
    3  0.000  0.000  0.000  0.000
    4  0.000  0.000  0.000  0.000
    5  0.000  0.003  0.000  0.003
    6  0.000  0.003  0.000  0.003
    7  0.000  0.003  0.000  0.003
    8  0.000  0.003  0.000  0.003
    9  0.002  0.000  0.000  0.002
   10  0.002  0.000  0.000  0.002
   11  0.002  0.000  0.000  0.002
   12  0.002  0.000  0.000  0.002
   13  0.176  0.000  0.000  0.177
   14  0.176  0.000  0.000  0.177
   15  0.176  0.000  0.000  0.177
   16  0.176  0.000  0.000  0.177
tot    0.716  0.011  0.000  0.727
 
band     7 # energy  -10.29960222 # occ.  2.00000000
 
ion      s      p      d    tot
    1  0.000  0.000  0.000  0.000
    2  0.000  0.000  0.000  0.000
    3  0.000  0.000  0.000  0.000
    4  0.000  0.000  0.000  0.000
    5  0.000  0.003  0.000  0.003
    6  0.000  0.003  0.000  0.003
    7  0.000  0.003  0.000  0.003
    8  0.000  0.003  0.000  0.003
    9  0.089  0.000  0.000  0.089
   10  0.089  0.000  0.000  0.089
   11  0.089  0.000  0.000  0.089
   12  0.089  0.000  0.000  0.089
   13  0.091  0.000  0.000  0.091
   14  0.091  0.000  0.000  0.091
   15  0.091  0.000  0.000  0.091
   16  0.091  0.000  0.000  0.091
tot    0.717  0.013  0.000  0.730
 
band     8 # energy  -10.20082640 # occ.  2.00000000
 
ion      s      p      d    tot
    1  0.000  0.000  0.000  0.000
    2  0.000  0.000  0.000  0.000
    3  0.000  0.000  0.000  0.000
    4  0.000  0.000  0.000  0.000
    5  0.000  0.002  0.000  0.002
    6  0.000  0.002  0.000  0.002
    7  0.000  0.002  0.000  0.002
    8  0.000  0.002  0.000  0.002
    9  0.113  0.000  0.000  0.113
   10  0.113  0.000  0.000  0.113
   11  0.113  0.000  0.000  0.113
   12  0.113  0.000  0.000  0.113
   13  0.068  0.000  0.000  0.069
   14  0.068  0.000  0.000  0.069
   15  0.068  0.000  0.000  0.069
   16  0.068  0.000  0.000  0.069
tot    0.725  0.012  0.000  0.737
 
band     9 # energy   -4.47016513 # occ.  2.00000000
 
ion      s      p      d    tot
    1  0.000  0.000  0.000  0.000
    2  0.000  0.000  0.000  0.000
    3  0.000  0.000  0.000  0.000
    4  0.000  0.000  0.000  0.000
    5  0.053  0.000  0.000  0.053
    6  0.053  0.000  0.000  0.053
    7  0.053  0.000  0.000  0.053
    8  0.053  0.000  0.000  0.053
    9  0.000  0.031  0.001  0.031
   10  0.000  0.031  0.001  0.031
   11  0.000  0.031  0.001  0.031
   12  0.000  0.031  0.001  0.031
   13  0.000  0.032  0.001  0.033
   14  0.000  0.032  0.001  0.033
   15  0.000  0.032  0.001  0.033
   16  0.000  0.032  0.001  0.033
tot    0.212  0.253  0.006  0.471
 
band    10 # energy   -3.59062129 # occ.  2.00000000
 
ion      s      p      d    tot
    1  0.000  0.000  0.000  0.000
    2  0.000  0.000  0.000  0.000
    3  0.000  0.000  0.000  0.000
    4  0.000  0.000  0.000  0.000
    5  0.037  0.004  0.000  0.041
    6  0.037  0.004  0.000  0.041
    7  0.037  0.004  0.000  0.041
    8  0.037  0.004  0.000  0.041
    9  0.000  0.058  0.001  0.059
   10  0.000  0.058  0.001  0.059
   11  0.000  0.058  0.001  0.059
   12  0.000  0.058  0.001  0.059
   13  0.009  0.010  0.000  0.019
   14  0.009  0.010  0.000  0.019
   15  0.009  0.010  0.000  0.019
   16  0.009  0.010  0.000  0.019
tot    0.184  0.289  0.004  0.478
 
band    11 # energy   -3.35162676 # occ.  2.00000000
 
ion      s      p      d    tot
    1  0.000  0.000  0.000  0.000
    2  0.000  0.000  0.000  0.000
    3  0.000  0.000  0.000  0.000
    4  0.000  0.000  0.000  0.000
    5  0.039  0.004  0.000  0.043
    6  0.039  0.004  0.000  0.043
    7  0.039  0.004  0.000  0.043
    8  0.039  0.004  0.000  0.043
    9  0.011  0.006  0.000  0.018
   10  0.011  0.006  0.000  0.018
   11  0.011  0.006  0.000  0.018
   12  0.011  0.006  0.000  0.018
   13  0.000  0.063  0.001  0.064
   14  0.000  0.063  0.001  0.064
   15  0.000  0.063  0.001  0.064
   16  0.000  0.063  0.001  0.064
tot    0.201  0.296  0.005  0.502
 
band    12 # energy   -2.03796477 # occ.  2.00000000
 
ion      s      p      d    tot
    1  0.000  0.001  0.000  0.001
    2  0.000  0.001  0.000  0.001
    3  0.000  0.001  0.000  0.001
    4  0.000  0.001  0.000  0.001
    5  0.000  0.017  0.000  0.017
    6  0.000  0.017  0.000  0.017
    7  0.000  0.017  0.000  0.017
    8  0.000  0.017  0.000  0.017
    9  0.000  0.053  0.000  0.053
   10  0.000  0.053  0.000  0.053
   11  0.000  0.053  0.000  0.053
   12  0.000  0.053  0.000  0.053
   13  0.000  0.036  0.000  0.037
   14  0.000  0.036  0.000  0.037
   15  0.000  0.036  0.000  0.037
   16  0.000  0.036  0.000  0.037
tot    0.004  0.424  0.002  0.431
 
band    13 # energy   -2.00819188 # occ.  2.00000000
 
ion      s      p      d    tot
    1  0.000  0.000  0.000  0.000
    2  0.000  0.000  0.000  0.000
    3  0.000  0.000  0.000  0.000
    4  0.000  0.000  0.000  0.000
    5  0.000  0.018  0.000  0.018
    6  0.000  0.018  0.000  0.018
    7  0.000  0.018  0.000  0.018
    8  0.000  0.018  0.000  0.018
    9  0.000  0.065  0.000  0.065
   10  0.000  0.065  0.000  0.065
   11  0.000  0.065  0.000  0.065
   12  0.000  0.065  0.000  0.065
   13  0.000  0.029  0.000  0.030
   14  0.000  0.029  0.000  0.030
   15  0.000  0.029  0.000  0.030
   16  0.000  0.029  0.000  0.030
tot    0.003  0.450  0.002  0.455
 
band    14 # energy   -1.84718992 # occ.  2.00000000
 
ion      s      p      d    tot
    1  0.000  0.000  0.000  0.001
    2  0.000  0.000  0.000  0.001
    3  0.000  0.000  0.000  0.001
    4  0.000  0.000  0.000  0.001
    5  0.000  0.016  0.000  0.016
    6  0.000  0.016  0.000  0.016
    7  0.000  0.016  0.000  0.016
    8  0.000  0.016  0.000  0.016
    9  0.000  0.022  0.000  0.022
   10  0.000  0.022  0.000  0.022
   11  0.000  0.022  0.000  0.022
   12  0.000  0.022  0.000  0.022
   13  0.001  0.069  0.000  0.070
   14  0.001  0.069  0.000  0.070
   15  0.001  0.069  0.000  0.070
   16  0.001  0.069  0.000  0.070
tot    0.007  0.427  0.002  0.437
 
band    15 # energy   -1.78862844 # occ.  2.00000000
 
ion      s      p      d    tot
    1  0.004  0.000  0.000  0.004
    2  0.004  0.000  0.000  0.004
    3  0.004  0.000  0.000  0.004
    4  0.004  0.000  0.000  0.004
    5  0.031  0.002  0.000  0.032
    6  0.031  0.002  0.000  0.032
    7  0.031  0.002  0.000  0.032
    8  0.031  0.002  0.000  0.032
    9  0.006  0.034  0.001  0.041
   10  0.006  0.034  0.001  0.041
   11  0.006  0.034  0.001  0.041
   12  0.006  0.034  0.001  0.041
   13  0.006  0.041  0.001  0.047
   14  0.006  0.041  0.001  0.047
   15  0.006  0.041  0.001  0.047
   16  0.006  0.041  0.001  0.047
tot    0.185  0.308  0.005  0.498
 
band    16 # energy   -1.71971740 # occ.  2.00000000
 
ion      s      p      d    tot
    1  0.001  0.000  0.000  0.001
    2  0.001  0.000  0.000  0.001
    3  0.001  0.000  0.000  0.001
    4  0.001  0.000  0.000  0.001
    5  0.000  0.015  0.000  0.015
    6  0.000  0.015  0.000  0.015
    7  0.000  0.015  0.000  0.015
    8  0.000  0.015  0.000  0.015
    9  0.002  0.064  0.000  0.066
   10  0.002  0.064  0.000  0.066
   11  0.002  0.064  0.000  0.066
   12  0.002  0.064  0.000  0.066
   13  0.000  0.027  0.000  0.028
   14  0.000  0.027  0.000  0.028
   15  0.000  0.027  0.000  0.028
   16  0.000  0.027  0.000  0.028
tot    0.013  0.428  0.002  0.443
 
band    17 # energy   -1.19835777 # occ.  2.00000000
 
ion      s      p      d    tot
    1  0.004  0.000  0.000  0.004
    2  0.004  0.000  0.000  0.004
    3  0.004  0.000  0.000  0.004
    4  0.004  0.000  0.000  0.004
    5  0.004  0.007  0.000  0.011
    6  0.004  0.007  0.000  0.011
    7  0.004  0.007  0.000  0.011
    8  0.004  0.007  0.000  0.011
    9  0.000  0.065  0.000  0.066
   10  0.000  0.065  0.000  0.066
   11  0.000  0.065  0.000  0.066
   12  0.000  0.065  0.000  0.066
   13  0.003  0.025  0.000  0.029
   14  0.003  0.025  0.000  0.029
   15  0.003  0.025  0.000  0.029
   16  0.003  0.025  0.000  0.029
tot    0.046  0.393  0.002  0.441
 
band    18 # energy   -1.13113206 # occ.  2.00000000
 
ion      s      p      d    tot
    1  0.000  0.000  0.000  0.001
    2  0.000  0.000  0.000  0.001
    3  0.000  0.000  0.000  0.001
    4  0.000  0.000  0.000  0.001
    5  0.003  0.014  0.000  0.017
    6  0.003  0.014  0.000  0.017
    7  0.003  0.014  0.000  0.017
    8  0.003  0.014  0.000  0.017
    9  0.001  0.017  0.000  0.019
   10  0.001  0.017  0.000  0.019
   11  0.001  0.017  0.000  0.019
   12  0.001  0.017  0.000  0.019
   13  0.000  0.086  0.000  0.087
   14  0.000  0.086  0.000  0.087
   15  0.000  0.086  0.000  0.087
   16  0.000  0.086  0.000  0.087
tot    0.021  0.468  0.004  0.492
 
band    19 # energy   -1.10434949 # occ.  2.00000000
 
ion      s      p      d    tot
    1  0.001  0.001  0.000  0.002
    2  0.001  0.001  0.000  0.002
    3  0.001  0.001  0.000  0.002
    4  0.001  0.001  0.000  0.002
    5  0.000  0.009  0.000  0.009
    6  0.000  0.009  0.000  0.009
    7  0.000  0.009  0.000  0.009
    8  0.000  0.009  0.000  0.009
    9  0.001  0.050  0.000  0.051
   10  0.001  0.050  0.000  0.051
   11  0.001  0.050  0.000  0.051
   12  0.001  0.050  0.000  0.051
   13  0.002  0.044  0.000  0.046
   14  0.002  0.044  0.000  0.046
   15  0.002  0.044  0.000  0.046
   16  0.002  0.044  0.000  0.046
tot    0.016  0.411  0.001  0.428
 
band    20 # energy   -0.77922172 # occ.  2.00000000
 
ion      s      p      d    tot
    1  0.001  0.000  0.000  0.002
    2  0.001  0.000  0.000  0.002
    3  0.001  0.000  0.000  0.002
    4  0.001  0.000  0.000  0.002
    5  0.002  0.011  0.000  0.013
    6  0.002  0.011  0.000  0.013
    7  0.002  0.011  0.000  0.013
    8  0.002  0.011  0.000  0.013
    9  0.001  0.051  0.000  0.053
   10  0.001  0.051  0.000  0.053
   11  0.001  0.051  0.000  0.053
   12  0.001  0.051  0.000  0.053
   13  0.000  0.055  0.000  0.056
   14  0.000  0.055  0.000  0.056
   15  0.000  0.055  0.000  0.056
   16  0.000  0.055  0.000  0.056
tot    0.017  0.473  0.003  0.492
 
band    21 # energy   -0.23387966 # occ.  2.00000000
 
ion      s      p      d    tot
    1  0.001  0.001  0.000  0.002
    2  0.001  0.001  0.000  0.002
    3  0.001  0.001  0.000  0.002
    4  0.001  0.001  0.000  0.002
    5  0.001  0.001  0.000  0.001
    6  0.001  0.001  0.000  0.001
    7  0.001  0.001  0.000  0.001
    8  0.001  0.001  0.000  0.001
    9  0.000  0.070  0.000  0.070
   10  0.000  0.070  0.000  0.070
   11  0.000  0.070  0.000  0.070
   12  0.000  0.070  0.000  0.070
   13  0.001  0.037  0.000  0.038
   14  0.001  0.037  0.000  0.038
   15  0.001  0.037  0.000  0.038
   16  0.001  0.037  0.000  0.038
tot    0.011  0.436  0.001  0.449
 
band    22 # energy   -0.15620409 # occ.  2.00000000
 
ion      s      p      d    tot
    1  0.000  0.001  0.000  0.001
    2  0.000  0.001  0.000  0.001
    3  0.000  0.001  0.000  0.001
    4  0.000  0.001  0.000  0.001
    5  0.000  0.005  0.000  0.005
    6  0.000  0.005  0.000  0.005
    7  0.000  0.005  0.000  0.005
    8  0.000  0.005  0.000  0.005
    9  0.000  0.070  0.000  0.071
   10  0.000  0.070  0.000  0.071
   11  0.000  0.070  0.000  0.071
   12  0.000  0.070  0.000  0.071
   13  0.001  0.041  0.000  0.042
   14  0.001  0.041  0.000  0.042
   15  0.001  0.041  0.000  0.042
   16  0.001  0.041  0.000  0.042
tot    0.004  0.472  0.002  0.478
 
band    23 # energy   -0.08764502 # occ.  2.00000000
 
ion      s      p      d    tot
    1  0.000  0.002  0.000  0.002
    2  0.000  0.002  0.000  0.002
    3  0.000  0.002  0.000  0.002
    4  0.000  0.002  0.000  0.002
    5  0.000  0.008  0.000  0.008
    6  0.000  0.008  0.000  0.008
    7  0.000  0.008  0.000  0.008
    8  0.000  0.008  0.000  0.008
    9  0.001  0.026  0.000  0.027
   10  0.001  0.026  0.000  0.027
   11  0.001  0.026  0.000  0.027
   12  0.001  0.026  0.000  0.027
   13  0.001  0.087  0.000  0.088
   14  0.001  0.087  0.000  0.088
   15  0.001  0.087  0.000  0.088
   16  0.001  0.087  0.000  0.088
tot    0.005  0.492  0.003  0.500
 
band    24 # energy    0.12387038 # occ.  2.00000000
 
ion      s      p      d    tot
    1  0.004  0.001  0.000  0.005
    2  0.004  0.001  0.000  0.005
    3  0.004  0.001  0.000  0.005
    4  0.004  0.001  0.000  0.005
    5  0.000  0.001  0.000  0.001
    6  0.000  0.001  0.000  0.001
    7  0.000  0.001  0.000  0.001
    8  0.000  0.001  0.000  0.001
    9  0.000  0.027  0.000  0.027
   10  0.000  0.027  0.000  0.027
   11  0.000  0.027  0.000  0.027
   12  0.000  0.027  0.000  0.027
   13  0.000  0.085  0.000  0.085
   14  0.000  0.085  0.000  0.085
   15  0.000  0.085  0.000  0.085
   16  0.000  0.085  0.000  0.085
tot    0.018  0.455  0.001  0.473
 
band    25 # energy    0.18956372 # occ.  2.00000000
 
ion      s      p      d    tot
    1  0.000  0.002  0.000  0.003
    2  0.000  0.002  0.000  0.003
    3  0.000  0.002  0.000  0.003
    4  0.000  0.002  0.000  0.003
    5  0.000  0.006  0.000  0.006
    6  0.000  0.006  0.000  0.006
    7  0.000  0.006  0.000  0.006
    8  0.000  0.006  0.000  0.006
    9  0.000  0.039  0.000  0.039
   10  0.000  0.039  0.000  0.039
   11  0.000  0.039  0.000  0.039
   12  0.000  0.039  0.000  0.039
   13  0.000  0.079  0.000  0.079
   14  0.000  0.079  0.000  0.079
   15  0.000  0.079  0.000  0.079
   16  0.000  0.079  0.000  0.079
tot    0.002  0.504  0.002  0.509
 
band    26 # energy    0.25705251 # occ.  2.00000000
 
ion      s      p      d    tot
    1  0.001  0.001  0.000  0.003
    2  0.001  0.001  0.000  0.003
    3  0.001  0.001  0.000  0.003
    4  0.001  0.001  0.000  0.003
    5  0.001  0.007  0.000  0.009
    6  0.001  0.007  0.000  0.009
    7  0.001  0.007  0.000  0.009
    8  0.001  0.007  0.000  0.009
    9  0.001  0.090  0.001  0.091
   10  0.001  0.090  0.001  0.091
   11  0.001  0.090  0.001  0.091
   12  0.001  0.090  0.001  0.091
   13  0.000  0.032  0.000  0.032
   14  0.000  0.032  0.000  0.032
   15  0.000  0.032  0.000  0.032
   16  0.000  0.032  0.000  0.032
tot    0.013  0.521  0.003  0.537
 
band    27 # energy    0.39780171 # occ.  2.00000000
 
ion      s      p      d    tot
    1  0.000  0.002  0.000  0.002
    2  0.000  0.002  0.000  0.002
    3  0.000  0.002  0.000  0.002
    4  0.000  0.002  0.000  0.002
    5  0.002  0.001  0.000  0.003
    6  0.002  0.001  0.000  0.003
    7  0.002  0.001  0.000  0.003
    8  0.002  0.001  0.000  0.003
    9  0.000  0.050  0.000  0.050
   10  0.000  0.050  0.000  0.050
   11  0.000  0.050  0.000  0.050
   12  0.000  0.050  0.000  0.050
   13  0.001  0.072  0.000  0.073
   14  0.001  0.072  0.000  0.073
   15  0.001  0.072  0.000  0.073
   16  0.001  0.072  0.000  0.073
tot    0.012  0.502  0.001  0.514
 
band    28 # energy    0.42426302 # occ.  2.00000000
 
ion      s      p      d    tot
    1  0.000  0.001  0.000  0.001
    2  0.000  0.001  0.000  0.001
    3  0.000  0.001  0.000  0.001
    4  0.000  0.001  0.000  0.001
    5  0.000  0.002  0.000  0.002
    6  0.000  0.002  0.000  0.002
    7  0.000  0.002  0.000  0.002
    8  0.000  0.002  0.000  0.002
    9  0.000  0.063  0.000  0.063
   10  0.000  0.063  0.000  0.063
   11  0.000  0.063  0.000  0.063
   12  0.000  0.063  0.000  0.063
   13  0.000  0.070  0.000  0.070
   14  0.000  0.070  0.000  0.070
   15  0.000  0.070  0.000  0.070
   16  0.000  0.070  0.000  0.070
tot    0.000  0.545  0.001  0.546
 
band    29 # energy    0.62167977 # occ.  2.00000000
 
ion      s      p      d    tot
    1  0.002  0.002  0.000  0.004
    2  0.002  0.002  0.000  0.004
    3  0.002  0.002  0.000  0.004
    4  0.002  0.002  0.000  0.004
    5  0.000  0.001  0.000  0.001
    6  0.000  0.001  0.000  0.001
    7  0.000  0.001  0.000  0.001
    8  0.000  0.001  0.000  0.001
    9  0.000  0.041  0.000  0.042
   10  0.000  0.041  0.000  0.042
   11  0.000  0.041  0.000  0.042
   12  0.000  0.041  0.000  0.042
   13  0.000  0.081  0.000  0.081
   14  0.000  0.081  0.000  0.081
   15  0.000  0.081  0.000  0.081
   16  0.000  0.081  0.000  0.081
tot    0.009  0.502  0.001  0.513
 
band    30 # energy    0.64888087 # occ.  2.00000000
 
ion      s      p      d    tot
    1  0.000  0.001  0.000  0.001
    2  0.000  0.001  0.000  0.001
    3  0.000  0.001  0.000  0.001
    4  0.000  0.001  0.000  0.001
    5  0.000  0.001  0.000  0.001
    6  0.000  0.001  0.000  0.001
    7  0.000  0.001  0.000  0.001
    8  0.000  0.001  0.000  0.001
    9  0.000  0.117  0.000  0.117
   10  0.000  0.117  0.000  0.117
   11  0.000  0.117  0.000  0.117
   12  0.000  0.117  0.000  0.117
   13  0.000  0.010  0.000  0.010
   14  0.000  0.010  0.000  0.010
   15  0.000  0.010  0.000  0.010
   16  0.000  0.010  0.000  0.010
tot    0.001  0.517  0.001  0.519
 
band    31 # energy    0.71798386 # occ.  2.00000000
 
ion      s      p      d    tot
    1  0.000  0.001  0.000  0.001
    2  0.000  0.001  0.000  0.001
    3  0.000  0.001  0.000  0.001
    4  0.000  0.001  0.000  0.001
    5  0.000  0.002  0.000  0.002
    6  0.000  0.002  0.000  0.002
    7  0.000  0.002  0.000  0.002
    8  0.000  0.002  0.000  0.002
    9  0.000  0.063  0.000  0.064
   10  0.000  0.063  0.000  0.064
   11  0.000  0.063  0.000  0.064
   12  0.000  0.063  0.000  0.064
   13  0.000  0.072  0.000  0.072
   14  0.000  0.072  0.000  0.072
   15  0.000  0.072  0.000  0.072
   16  0.000  0.072  0.000  0.072
tot    0.000  0.552  0.001  0.554
 
band    32 # energy    0.81024724 # occ.  2.00000000
 
ion      s      p      d    tot
    1  0.000  0.000  0.000  0.001
    2  0.000  0.000  0.000  0.001
    3  0.000  0.000  0.000  0.001
    4  0.000  0.000  0.000  0.001
    5  0.000  0.001  0.000  0.001
    6  0.000  0.001  0.000  0.001
    7  0.000  0.001  0.000  0.001
    8  0.000  0.001  0.000  0.001
    9  0.000  0.075  0.000  0.075
   10  0.000  0.075  0.000  0.075
   11  0.000  0.075  0.000  0.075
   12  0.000  0.075  0.000  0.075
   13  0.000  0.062  0.000  0.062
   14  0.000  0.062  0.000  0.062
   15  0.000  0.062  0.000  0.062
   16  0.000  0.062  0.000  0.062
tot    0.001  0.553  0.001  0.555
 
band    33 # energy    3.49900288 # occ.  0.00000000
 
ion      s      p      d    tot
    1  0.014  0.000  0.000  0.015
    2  0.014  0.000  0.000  0.015
    3  0.014  0.000  0.000  0.015
    4  0.014  0.000  0.000  0.015
    5  0.025  0.000  0.000  0.025
    6  0.025  0.000  0.000  0.025
    7  0.025  0.000  0.000  0.025
    8  0.025  0.000  0.000  0.025
    9  0.023  0.007  0.000  0.029
   10  0.023  0.007  0.000  0.029
   11  0.023  0.007  0.000  0.029
   12  0.023  0.007  0.000  0.029
   13  0.023  0.007  0.000  0.031
   14  0.023  0.007  0.000  0.031
   15  0.023  0.007  0.000  0.031
   16  0.023  0.007  0.000  0.031
tot    0.340  0.055  0.002  0.397
 
band    34 # energy    4.69815631 # occ.  0.00000000
 
ion      s      p      d    tot
    1  0.012  0.001  0.000  0.013
    2  0.012  0.001  0.000  0.013
    3  0.012  0.001  0.000  0.013
    4  0.012  0.001  0.000  0.013
    5  0.030  0.005  0.000  0.036
    6  0.030  0.005  0.000  0.036
    7  0.030  0.005  0.000  0.036
    8  0.030  0.005  0.000  0.036
    9  0.007  0.015  0.004  0.026
   10  0.007  0.015  0.004  0.026
   11  0.007  0.015  0.004  0.026
   12  0.007  0.015  0.004  0.026
   13  0.008  0.013  0.005  0.026
   14  0.008  0.013  0.005  0.026
   15  0.008  0.013  0.005  0.026
   16  0.008  0.013  0.005  0.026
tot    0.231  0.137  0.037  0.405
 
band    35 # energy    4.87756892 # occ.  0.00000000
 
ion      s      p      d    tot
    1  0.008  0.001  0.000  0.010
    2  0.008  0.001  0.000  0.010
    3  0.008  0.001  0.000  0.010
    4  0.008  0.001  0.000  0.010
    5  0.029  0.008  0.000  0.038
    6  0.029  0.008  0.000  0.038
    7  0.029  0.008  0.000  0.038
    8  0.029  0.008  0.000  0.038
    9  0.008  0.011  0.006  0.025
   10  0.008  0.011  0.006  0.025
   11  0.008  0.011  0.006  0.025
   12  0.008  0.011  0.006  0.025
   13  0.007  0.018  0.003  0.028
   14  0.007  0.018  0.003  0.028
   15  0.007  0.018  0.003  0.028
   16  0.007  0.018  0.003  0.028
tot    0.210  0.153  0.037  0.400
 
band    36 # energy    4.97718719 # occ.  0.00000000
 
ion      s      p      d    tot
    1  0.010  0.002  0.000  0.012
    2  0.010  0.002  0.000  0.012
    3  0.010  0.002  0.000  0.012
    4  0.010  0.002  0.000  0.012
    5  0.011  0.014  0.000  0.024
    6  0.011  0.014  0.000  0.024
    7  0.011  0.014  0.000  0.024
    8  0.011  0.014  0.000  0.024
    9  0.002  0.010  0.007  0.018
   10  0.002  0.010  0.007  0.018
   11  0.002  0.010  0.007  0.018
   12  0.002  0.010  0.007  0.018
   13  0.000  0.008  0.006  0.014
   14  0.000  0.008  0.006  0.014
   15  0.000  0.008  0.006  0.014
   16  0.000  0.008  0.006  0.014
tot    0.092  0.131  0.051  0.275
 
band    37 # energy    5.30996807 # occ.  0.00000000
 
ion      s      p      d    tot
    1  0.000  0.001  0.000  0.002
    2  0.000  0.001  0.000  0.002
    3  0.000  0.001  0.000  0.002
    4  0.000  0.001  0.000  0.002
    5  0.007  0.017  0.000  0.024
    6  0.007  0.017  0.000  0.024
    7  0.007  0.017  0.000  0.024
    8  0.007  0.017  0.000  0.024
    9  0.002  0.016  0.006  0.025
   10  0.002  0.016  0.006  0.025
   11  0.002  0.016  0.006  0.025
   12  0.002  0.016  0.006  0.025
   13  0.002  0.008  0.007  0.017
   14  0.002  0.008  0.007  0.017
   15  0.002  0.008  0.007  0.017
   16  0.002  0.008  0.007  0.017
tot    0.046  0.171  0.052  0.269
 
band    38 # energy    5.55901807 # occ.  0.00000000
 
ion      s      p      d    tot
    1  0.004  0.002  0.000  0.006
    2  0.004  0.002  0.000  0.006
    3  0.004  0.002  0.000  0.006
    4  0.004  0.002  0.000  0.006
    5  0.006  0.020  0.000  0.026
    6  0.006  0.020  0.000  0.026
    7  0.006  0.020  0.000  0.026
    8  0.006  0.020  0.000  0.026
    9  0.001  0.002  0.008  0.011
   10  0.001  0.002  0.008  0.011
   11  0.001  0.002  0.008  0.011
   12  0.001  0.002  0.008  0.011
   13  0.001  0.007  0.009  0.016
   14  0.001  0.007  0.009  0.016
   15  0.001  0.007  0.009  0.016
   16  0.001  0.007  0.009  0.016
tot    0.047  0.125  0.067  0.238
 
band    39 # energy    5.61223569 # occ.  0.00000000
 
ion      s      p      d    tot
    1  0.002  0.002  0.000  0.004
    2  0.002  0.002  0.000  0.004
    3  0.002  0.002  0.000  0.004
    4  0.002  0.002  0.000  0.004
    5  0.004  0.019  0.000  0.024
    6  0.004  0.019  0.000  0.024
    7  0.004  0.019  0.000  0.024
    8  0.004  0.019  0.000  0.024
    9  0.000  0.001  0.007  0.008
   10  0.000  0.001  0.007  0.008
   11  0.000  0.001  0.007  0.008
   12  0.000  0.001  0.007  0.008
   13  0.000  0.015  0.007  0.023
   14  0.000  0.015  0.007  0.023
   15  0.000  0.015  0.007  0.023
   16  0.000  0.015  0.007  0.023
tot    0.027  0.150  0.058  0.234
 
band    40 # energy    6.14071817 # occ.  0.00000000
 
ion      s      p      d    tot
    1  0.002  0.001  0.000  0.004
    2  0.002  0.001  0.000  0.004
    3  0.002  0.001  0.000  0.004
    4  0.002  0.001  0.000  0.004
    5  0.004  0.034  0.000  0.038
    6  0.004  0.034  0.000  0.038
    7  0.004  0.034  0.000  0.038
    8  0.004  0.034  0.000  0.038
    9  0.006  0.007  0.005  0.018
   10  0.006  0.007  0.005  0.018
   11  0.006  0.007  0.005  0.018
   12  0.006  0.007  0.005  0.018
   13  0.009  0.012  0.007  0.029
   14  0.009  0.012  0.007  0.029
   15  0.009  0.012  0.007  0.029
   16  0.009  0.012  0.007  0.029
tot    0.087  0.218  0.048  0.353
 
band    41 # energy    6.47154234 # occ.  0.00000000
 
ion      s      p      d    tot
    1  0.007  0.001  0.000  0.008
    2  0.007  0.001  0.000  0.008
    3  0.007  0.001  0.000  0.008
    4  0.007  0.001  0.000  0.008
    5  0.022  0.002  0.000  0.025
    6  0.022  0.002  0.000  0.025
    7  0.022  0.002  0.000  0.025
    8  0.022  0.002  0.000  0.025
    9  0.000  0.017  0.005  0.022
   10  0.000  0.017  0.005  0.022
   11  0.000  0.017  0.005  0.022
   12  0.000  0.017  0.005  0.022
   13  0.000  0.026  0.007  0.033
   14  0.000  0.026  0.007  0.033
   15  0.000  0.026  0.007  0.033
   16  0.000  0.026  0.007  0.033
tot    0.119  0.183  0.051  0.353
 
band    42 # energy    6.50097977 # occ.  0.00000000
 
ion      s      p      d    tot
    1  0.014  0.001  0.000  0.015
    2  0.014  0.001  0.000  0.015
    3  0.014  0.001  0.000  0.015
    4  0.014  0.001  0.000  0.015
    5  0.001  0.010  0.000  0.011
    6  0.001  0.010  0.000  0.011
    7  0.001  0.010  0.000  0.011
    8  0.001  0.010  0.000  0.011
    9  0.005  0.009  0.008  0.022
   10  0.005  0.009  0.008  0.022
   11  0.005  0.009  0.008  0.022
   12  0.005  0.009  0.008  0.022
   13  0.004  0.017  0.001  0.022
   14  0.004  0.017  0.001  0.022
   15  0.004  0.017  0.001  0.022
   16  0.004  0.017  0.001  0.022
tot    0.095  0.146  0.037  0.278
 

 k-point     2 :    0.33333333 0.00000000 0.00000000     weight = 0.07407407

band     1 # energy  -11.12544779 # occ.  2.00000000
 
ion      s      p      d    tot
    1  0.000  0.000  0.000  0.000
    2  0.000  0.000  0.000  0.000
    3  0.000  0.000  0.000  0.000
    4  0.000  0.000  0.000  0.000
    5  0.009  0.000  0.000  0.010
    6  0.009  0.000  0.000  0.010
    7  0.009  0.000  0.000  0.010
    8  0.009  0.000  0.000  0.010
    9  0.068  0.000  0.000  0.069
   10  0.068  0.000  0.000  0.069
   11  0.068  0.000  0.000  0.069
   12  0.068  0.000  0.000  0.069
   13  0.087  0.000  0.000  0.088
   14  0.087  0.000  0.000  0.088
   15  0.087  0.000  0.000  0.088
   16  0.087  0.000  0.000  0.088
tot    0.662  0.004  0.001  0.667
 
band     2 # energy  -10.87745553 # occ.  2.00000000
 
ion      s      p      d    tot
    1  0.000  0.000  0.000  0.000
    2  0.000  0.000  0.000  0.000
    3  0.000  0.000  0.000  0.000
    4  0.000  0.000  0.000  0.000
    5  0.008  0.001  0.000  0.008
    6  0.008  0.001  0.000  0.008
    7  0.008  0.001  0.000  0.008
    8  0.008  0.001  0.000  0.008
    9  0.031  0.000  0.000  0.031
   10  0.031  0.000  0.000  0.031
   11  0.031  0.000  0.000  0.031
   12  0.031  0.000  0.000  0.031
   13  0.131  0.001  0.000  0.131
   14  0.131  0.001  0.000  0.131
   15  0.131  0.001  0.000  0.131
   16  0.131  0.001  0.000  0.131
tot    0.677  0.007  0.001  0.685
 
band     3 # energy  -10.64924432 # occ.  2.00000000
 
ion      s      p      d    tot
    1  0.000  0.000  0.000  0.000
    2  0.000  0.000  0.000  0.000
    3  0.000  0.000  0.000  0.000
    4  0.000  0.000  0.000  0.000
    5  0.005  0.002  0.000  0.007
    6  0.005  0.002  0.000  0.007
    7  0.005  0.002  0.000  0.007
    8  0.005  0.002  0.000  0.007
    9  0.163  0.001  0.000  0.164