 running on   14 total cores
 distrk:  each k-point on   14 cores,    1 groups
 distr:  one band on    1 cores,   14 groups
 using from now: INCAR     
 vasp.5.4.4.18Apr17-6-g9f103f2a35 (build Oct 27 2022 13:04:57) complex          
  
 POSCAR found type information on POSCAR  Na Al Se
 POSCAR found :  3 types and      16 ions
 scaLAPACK will be used

 ----------------------------------------------------------------------------- 
|                                                                             |
|           W    W    AA    RRRRR   N    N  II  N    N   GGGG   !!!           |
|           W    W   A  A   R    R  NN   N  II  NN   N  G    G  !!!           |
|           W    W  A    A  R    R  N N  N  II  N N  N  G       !!!           |
|           W WW W  AAAAAA  RRRRR   N  N N  II  N  N N  G  GGG   !            |
|           WW  WW  A    A  R   R   N   NN  II  N   NN  G    G                |
|           W    W  A    A  R    R  N    N  II  N    N   GGGG   !!!           |
|                                                                             |
|      For optimal performance we recommend to set                            |
|        NCORE= 4 - approx SQRT( number of cores)                             |
|      NCORE specifies how many cores store one orbital (NPAR=cpu/NCORE).     |
|      This setting can  greatly improve the performance of VASP for DFT.     |
|      The default,   NCORE=1            might be grossly inefficient         |
|      on modern multi-core architectures or massively parallel machines.     |
|      Do your own testing !!!!                                               |
|      Unfortunately you need to use the default for GW and RPA calculations. |
|      (for HF NCORE is supported but not extensively tested yet)             |
|                                                                             |
 ----------------------------------------------------------------------------- 

 LDA part: xc-table for Pade appr. of Perdew
 POSCAR, INCAR and KPOINTS ok, starting setup
 FFT: planning ...
 WAVECAR not read
 entering main loop
       N       E                     dE             d eps       ncg     rms          rms(c)
DAV:   1     0.261577049597E+03    0.26158E+03   -0.17979E+04   672   0.802E+02
DAV:   2    -0.379921253491E+02   -0.29957E+03   -0.29196E+03   910   0.174E+02
DAV:   3    -0.594624730510E+02   -0.21470E+02   -0.21411E+02   896   0.533E+01
DAV:   4    -0.598744268961E+02   -0.41195E+00   -0.41175E+00   826   0.868E+00
DAV:   5    -0.598883094794E+02   -0.13883E-01   -0.13880E-01   924   0.148E+00    0.113E+01
DAV:   6    -0.579053667487E+02    0.19829E+01   -0.31429E+00   798   0.524E+00    0.748E+00
DAV:   7    -0.575697949092E+02    0.33557E+00   -0.18261E+00   826   0.410E+00    0.279E+00
DAV:   8    -0.575798683619E+02   -0.10073E-01   -0.79312E-02   868   0.108E+00    0.353E-01
DAV:   9    -0.575823864454E+02   -0.25181E-02   -0.64575E-03   882   0.325E-01    0.124E-01
DAV:  10    -0.575829982260E+02   -0.61178E-03   -0.67445E-04   896   0.106E-01    0.451E-02
DAV:  11    -0.575832341789E+02   -0.23595E-03   -0.24251E-04   868   0.631E-02    0.200E-02
DAV:  12    -0.575832516735E+02   -0.17495E-04   -0.36256E-05   644   0.250E-02
   1 F= -.57583252E+02 E0= -.57583252E+02  d E =-.575833E+02
 curvature:   0.00 expect dE= 0.000E+00 dE for cont linesearch  0.000E+00
 trial: gam= 0.00000 g(F)=  0.147E-01 g(S)=  0.414E+01 ort = 0.000E+00 (trialstep = 0.100E+01)
 search vector abs. value=  0.415E+01
 bond charge predicted
       N       E                     dE             d eps       ncg     rms          rms(c)
DAV:   1    -0.622498752951E+02   -0.46666E+01   -0.26292E+01   742   0.174E+01    0.610E+00
DAV:   2    -0.611759941002E+02    0.10739E+01   -0.19606E+00   812   0.456E+00    0.240E+00
DAV:   3    -0.609521247223E+02    0.22387E+00   -0.97632E-01   770   0.299E+00    0.108E+00
DAV:   4    -0.609484700492E+02    0.36547E-02   -0.22264E-02   868   0.569E-01    0.740E-01
DAV:   5    -0.609449054445E+02    0.35646E-02   -0.99149E-03   854   0.337E-01    0.327E-01
DAV:   6    -0.609447852323E+02    0.12021E-03   -0.10074E-03   868   0.110E-01    0.494E-02
DAV:   7    -0.609447952755E+02   -0.10043E-04   -0.72172E-05   602   0.349E-02
   2 F= -.60944795E+02 E0= -.60944795E+02  d E =-.336154E+01
 trial-energy change:   -3.361544  1 .order   -3.431749   -4.154246   -2.709253
 step:   2.8749(harm=  2.8749)  dis= 0.01062  next Energy=   -63.554826 (dE=-0.597E+01)
 bond charge predicted
       N       E                     dE             d eps       ncg     rms          rms(c)
DAV:   1    -0.682437328508E+02   -0.72989E+01   -0.87192E+01   742   0.300E+01    0.103E+01
DAV:   2    -0.645196689732E+02    0.37241E+01   -0.72690E+00   826   0.840E+00    0.399E+00
DAV:   3    -0.638259269355E+02    0.69374E+00   -0.31748E+00   756   0.525E+00    0.154E+00
DAV:   4    -0.638026576247E+02    0.23269E-01   -0.80752E-02   868   0.104E+00    0.970E-01
DAV:   5    -0.637926375255E+02    0.10020E-01   -0.27067E-02   854   0.543E-01    0.516E-01
DAV:   6    -0.637928188475E+02   -0.18132E-03   -0.22740E-03   812   0.168E-01    0.912E-02
DAV:   7    -0.637928989179E+02   -0.80070E-04   -0.11385E-04   672   0.456E-02
   3 F= -.63792899E+02 E0= -.63792899E+02  d E =-.620965E+01
 curvature:  -1.44 expect dE=-0.236E+00 dE for cont linesearch -0.134E+00
 ZBRENT: extrapolating
 opt :   3.4352  next Energy=   -63.967520 (dE=-0.638E+01)
 bond charge predicted
       N       E                     dE             d eps       ncg     rms          rms(c)
DAV:   1    -0.643813011318E+02   -0.58848E+00   -0.77472E+00   756   0.913E+00    0.318E+00
DAV:   2    -0.640489855861E+02    0.33232E+00   -0.64148E-01   798   0.244E+00    0.117E+00
DAV:   3    -0.639907534977E+02    0.58232E-01   -0.25762E-01   840   0.149E+00    0.537E-01
DAV:   4    -0.639886916359E+02    0.20619E-02   -0.63705E-03   868   0.294E-01    0.337E-01
DAV:   5    -0.639876684039E+02    0.10232E-02   -0.33743E-03   882   0.186E-01    0.146E-01
DAV:   6    -0.639876901971E+02   -0.21793E-04   -0.12156E-04   616   0.437E-02
   4 F= -.63987690E+02 E0= -.63987690E+02  d E =-.640444E+01
 curvature:  -1.87 expect dE=-0.171E+00 dE for cont linesearch -0.967E-02
 ZBRENT: extrapolating
 opt :   3.6175  next Energy=   -64.000295 (dE=-0.642E+01)
 bond charge predicted
       N       E                     dE             d eps       ncg     rms          rms(c)
DAV:   1    -0.640412947135E+02   -0.53626E-01   -0.82573E-01   756   0.299E+00    0.105E+00
DAV:   2    -0.640059107284E+02    0.35384E-01   -0.68431E-02   812   0.791E-01    0.379E-01
DAV:   3    -0.639997953709E+02    0.61154E-02   -0.26725E-02   840   0.478E-01    0.183E-01
DAV:   4    -0.639995713102E+02    0.22406E-03   -0.65701E-04   840   0.949E-02    0.114E-01
DAV:   5    -0.639994516295E+02    0.11968E-03   -0.40051E-04   840   0.636E-02    0.449E-02
DAV:   6    -0.639994532614E+02   -0.16320E-05   -0.12439E-05   490   0.141E-02
   5 F= -.63999453E+02 E0= -.63999453E+02  d E =-.641620E+01
 curvature:  -2.43 expect dE=-0.228E+00 dE for cont linesearch -0.287E-04
 trial: gam= 0.02420 g(F)=  0.925E-01 g(S)=  0.987E-03 ort =-0.700E-02 (trialstep = 0.152E+01)
 search vector abs. value=  0.956E-01
 bond charge predicted
       N       E                     dE             d eps       ncg     rms          rms(c)
DAV:   1    -0.641256930836E+02   -0.12624E+00   -0.19491E+00   672   0.491E+00    0.644E-01
DAV:   2    -0.641341044086E+02   -0.84113E-02   -0.10789E-01   896   0.113E+00    0.232E-01
DAV:   3    -0.641334605537E+02    0.64385E-03   -0.20983E-03   882   0.192E-01    0.180E-01
DAV:   4    -0.641331253057E+02    0.33525E-03   -0.11795E-03   882   0.120E-01    0.668E-02
DAV:   5    -0.641331359071E+02   -0.10601E-04   -0.18743E-04   616   0.495E-02
   6 F= -.64133136E+02 E0= -.64133136E+02  d E =-.133683E+00
 ZBRENT: can't locate minimum, use default step
 trial-energy change:   -0.133683  1 .order   -0.134426   -0.142242   -0.126610
 step:   6.0940(harm= 13.8628)  dis= 0.04936  next Energy=   -64.646604 (dE=-0.647E+00)
 bond charge predicted
       N       E                     dE             d eps       ncg     rms          rms(c)
DAV:   1    -0.643889660722E+02   -0.25584E+00   -0.17479E+01   672   0.147E+01    0.215E+00
DAV:   2    -0.644668851293E+02   -0.77919E-01   -0.97559E-01   896   0.340E+00    0.793E-01
DAV:   3    -0.644609702276E+02    0.59149E-02   -0.18271E-02   882   0.562E-01    0.600E-01
DAV:   4    -0.644576764392E+02    0.32938E-02   -0.11219E-02   868   0.362E-01    0.211E-01
DAV:   5    -0.644577672059E+02   -0.90767E-04   -0.18875E-03   868   0.148E-01    0.585E-02
DAV:   6    -0.644577637594E+02    0.34465E-05   -0.30440E-05   630   0.248E-02
   7 F= -.64457764E+02 E0= -.64457764E+02  d E =-.458310E+00
 curvature:  -4.29 expect dE=-0.149E+00 dE for cont linesearch -0.140E+00
 ZBRENT: increasing intervall
 opt :  15.2350  next Energy=   -64.719057 (dE=-0.720E+00)
 bond charge predicted
       N       E                     dE             d eps       ncg     rms          rms(c)
DAV:   1    -0.644756189966E+02   -0.17852E-01   -0.69423E+01   672   0.293E+01    0.515E+00
DAV:   2    -0.648109475732E+02   -0.33533E+00   -0.40528E+00   896   0.695E+00    0.200E+00
DAV:   3    -0.647855240775E+02    0.25423E-01   -0.72584E-02   882   0.110E+00    0.147E+00
DAV:   4    -0.647700030228E+02    0.15521E-01   -0.51897E-02   882   0.751E-01    0.484E-01
DAV:   5    -0.647702454299E+02   -0.24241E-03   -0.74022E-03   896   0.293E-01    0.926E-02
DAV:   6    -0.647702403576E+02    0.50723E-05   -0.10852E-04   630   0.471E-02
   8 F= -.64770240E+02 E0= -.64770240E+02  d E =-.770787E+00
 curvature:  -8.01 expect dE=-0.759E-01 dE for cont linesearch -0.832E-02
 ZBRENT: extrapolating
 opt :  17.2202  next Energy=   -64.780131 (dE=-0.781E+00)
 bond charge predicted
       N       E                     dE             d eps       ncg     rms          rms(c)
DAV:   1    -0.647708325950E+02   -0.58717E-03   -0.33456E+00   672   0.644E+00    0.854E-01
DAV:   2    -0.647853987177E+02   -0.14566E-01   -0.18579E-01   896   0.148E+00    0.308E-01
DAV:   3    -0.647842567690E+02    0.11419E-02   -0.34208E-03   868   0.240E-01    0.238E-01
DAV:   4    -0.647836633528E+02    0.59342E-03   -0.21819E-03   882   0.160E-01    0.891E-02
DAV:   5    -0.647836875509E+02   -0.24198E-04   -0.35202E-04   812   0.645E-02
   9 F= -.64783688E+02 E0= -.64783688E+02  d E =-.784234E+00
 curvature:  -9.53 expect dE=-0.118E+00 dE for cont linesearch -0.331E-03
 trial: gam= 0.14304 g(F)=  0.585E-02 g(S)=  0.650E-02 ort = 0.182E-02 (trialstep = 0.466E+01)
 search vector abs. value=  0.148E-01
 bond charge predicted
       N       E                     dE             d eps       ncg     rms          rms(c)
DAV:   1    -0.648550256681E+02   -0.71362E-01   -0.20890E+00   672   0.502E+00    0.103E+00
DAV:   2    -0.648312883517E+02    0.23737E-01   -0.11013E-01   896   0.123E+00    0.462E-01
DAV:   3    -0.648232332610E+02    0.80551E-02   -0.22119E-02   840   0.467E-01    0.190E-01
DAV:   4    -0.648224496448E+02    0.78362E-03   -0.17573E-03   896   0.156E-01    0.123E-01
DAV:   5    -0.648222827703E+02    0.16687E-03   -0.46938E-04   896   0.806E-02    0.341E-02
DAV:   6    -0.648222917002E+02   -0.89299E-05   -0.48892E-05   518   0.266E-02
  10 F= -.64822292E+02 E0= -.64822292E+02  d E =-.386041E-01
 trial-energy change:   -0.038604  1 .order   -0.037264   -0.058776   -0.015751
 step:   6.0373(harm=  6.3699)  dis= 0.01300  next Energy=   -64.824647 (dE=-0.410E-01)
 bond charge predicted
       N       E                     dE             d eps       ncg     rms          rms(c)
DAV:   1    -0.648282547089E+02   -0.59719E-02   -0.18168E-01   672   0.149E+00    0.304E-01
DAV:   2    -0.648261903054E+02    0.20644E-02   -0.96144E-03   896   0.362E-01    0.134E-01
DAV:   3    -0.648254933014E+02    0.69700E-03   -0.19245E-03   840   0.138E-01    0.569E-02
DAV:   4    -0.648254235786E+02    0.69723E-04   -0.13186E-04   644   0.459E-02
  11 F= -.64825424E+02 E0= -.64825424E+02  d E =-.417360E-01
 curvature:  -3.60 expect dE=-0.138E-01 dE for cont linesearch -0.530E-03
 ZBRENT: increasing intervall
 opt :   8.7861  next Energy=   -64.824257 (dE=-0.406E-01)
 bond charge predicted
       N       E                     dE             d eps       ncg     rms          rms(c)
DAV:   1    -0.648329406455E+02   -0.74473E-02   -0.71340E-01   672   0.294E+00    0.604E-01
DAV:   2    -0.648247716925E+02    0.81690E-02   -0.37784E-02   882   0.717E-01    0.263E-01
DAV:   3    -0.648220448221E+02    0.27269E-02   -0.75251E-03   840   0.272E-01    0.113E-01
DAV:   4    -0.648217797307E+02    0.26509E-03   -0.60432E-04   896   0.913E-02    0.748E-02
DAV:   5    -0.648217202914E+02    0.59439E-04   -0.15154E-04   616   0.480E-02
  12 F= -.64821720E+02 E0= -.64821720E+02  d E =-.380327E-01
 curvature:   7.93 expect dE= 0.687E-01 dE for cont linesearch  0.687E-02
 ZBRENT: bracketing found
 ZBRENT: interpolating
 opt :   6.8394  next Energy=   -64.826016 (dE=-0.423E-01)
 bond charge predicted
       N       E                     dE             d eps       ncg     rms          rms(c)
DAV:   1    -0.648314826694E+02   -0.97029E-02   -0.36437E-01   672   0.211E+00    0.439E-01
DAV:   2    -0.648273622919E+02    0.41204E-02   -0.19464E-02   882   0.516E-01    0.190E-01
DAV:   3    -0.648259923769E+02    0.13699E-02   -0.38765E-03   840   0.196E-01    0.808E-02
DAV:   4    -0.648258739527E+02    0.11842E-03   -0.27351E-04   756   0.646E-02    0.533E-02
DAV:   5    -0.648258508878E+02    0.23065E-04   -0.11089E-04   518   0.404E-02
  13 F= -.64825851E+02 E0= -.64825851E+02  d E =-.421633E-01
 curvature:  -0.68 expect dE=-0.300E-02 dE for cont linesearch -0.431E-05
 trial: gam= 0.38787 g(F)=  0.247E-02 g(S)=  0.192E-02 ort =-0.306E-03 (trialstep = 0.510E+01)
 search vector abs. value=  0.638E-02
 bond charge predicted
       N       E                     dE             d eps       ncg     rms          rms(c)
DAV:   1    -0.648500603441E+02   -0.24186E-01   -0.75891E-01   672   0.308E+00    0.452E-01
DAV:   2    -0.648476759650E+02    0.23844E-02   -0.32087E-02   896   0.683E-01    0.227E-01
DAV:   3    -0.648460017785E+02    0.16742E-02   -0.23455E-03   896   0.196E-01    0.129E-01
DAV:   4    -0.648454803764E+02    0.52140E-03   -0.14781E-03   896   0.149E-01    0.291E-02
DAV:   5    -0.648454995181E+02   -0.19142E-04   -0.18820E-04   672   0.547E-02
  14 F= -.64845500E+02 E0= -.64845500E+02  d E =-.196486E-01
 ZBRENT: can't locate minimum, use default step
 trial-energy change:   -0.019649  1 .order   -0.019953   -0.021760   -0.018147
 step:  20.3926(harm= 30.7107)  dis= 0.04324  next Energy=   -64.891390 (dE=-0.655E-01)
 bond charge predicted
       N       E                     dE             d eps       ncg     rms          rms(c)
DAV:   1    -0.649190447574E+02   -0.73564E-01   -0.68357E+00   672   0.924E+00    0.136E+00
DAV:   2    -0.648988527767E+02    0.20192E-01   -0.28955E-01   896   0.205E+00    0.679E-01
DAV:   3    -0.648841288135E+02    0.14724E-01   -0.20588E-02   868   0.580E-01    0.391E-01
DAV:   4    -0.648794427820E+02    0.46860E-02   -0.13419E-02   896   0.448E-01    0.855E-02
DAV:   5    -0.648796421919E+02   -0.19941E-03   -0.18713E-03   784   0.166E-01    0.770E-02
DAV:   6    -0.648796594736E+02   -0.17282E-04   -0.97365E-05   630   0.377E-02
  15 F= -.64879659E+02 E0= -.64879659E+02  d E =-.538086E-01
 curvature: -19.23 expect dE=-0.680E-01 dE for cont linesearch -0.653E-03
 trial: gam= 0.67962 g(F)=  0.145E-02 g(S)=  0.208E-02 ort = 0.465E-03 (trialstep = 0.731E+01)
 search vector abs. value=  0.711E-02
 bond charge predicted
       N       E                     dE             d eps       ncg     rms          rms(c)
DAV:   1    -0.649206629352E+02   -0.41021E-01   -0.22613E+00   672   0.528E+00    0.980E-01
DAV:   2    -0.649051993911E+02    0.15464E-01   -0.12254E-01   896   0.126E+00    0.431E-01
DAV:   3    -0.648996879553E+02    0.55114E-02   -0.16512E-02   784   0.404E-01    0.198E-01
DAV:   4    -0.648990549383E+02    0.63302E-03   -0.10890E-03   882   0.123E-01    0.116E-01
DAV:   5    -0.648989280811E+02    0.12686E-03   -0.40740E-04   826   0.738E-02    0.344E-02
DAV:   6    -0.648989375854E+02   -0.95043E-05   -0.31221E-05   462   0.225E-02
  16 F= -.64898938E+02 E0= -.64898938E+02  d E =-.192781E-01
 trial-energy change:   -0.019278  1 .order   -0.018659   -0.028171   -0.009148
 step:  10.0859(harm= 10.8317)  dis= 0.02633  next Energy=   -64.900704 (dE=-0.210E-01)
 bond charge predicted
       N       E                     dE             d eps       ncg     rms          rms(c)
DAV:   1    -0.649030230339E+02   -0.40950E-02   -0.32448E-01   672   0.200E+00    0.364E-01
DAV:   2    -0.649008056178E+02    0.22174E-02   -0.17530E-02   896   0.476E-01    0.165E-01
DAV:   3    -0.649000036132E+02    0.80200E-03   -0.24004E-03   784   0.154E-01    0.739E-02
DAV:   4    -0.648999147523E+02    0.88861E-04   -0.13844E-04   574   0.469E-02
  17 F= -.64899915E+02 E0= -.64899915E+02  d E =-.202553E-01
 curvature:  -9.55 expect dE=-0.191E-01 dE for cont linesearch -0.189E-03
 trial: gam= 0.81065 g(F)=  0.127E-02 g(S)=  0.727E-03 ort =-0.375E-03 (trialstep = 0.787E+01)
 search vector abs. value=  0.606E-02
 bond charge predicted
       N       E                     dE             d eps       ncg     rms          rms(c)
DAV:   1    -0.649047069963E+02   -0.47034E-02   -0.22320E+00   672   0.523E+00    0.604E-01
DAV:   2    -0.649122068777E+02   -0.74999E-02   -0.12512E-01   882   0.123E+00    0.278E-01
DAV:   3    -0.649111083366E+02    0.10985E-02   -0.22788E-03   896   0.198E-01    0.206E-01
DAV:   4    -0.649103609742E+02    0.74736E-03   -0.19882E-03   896   0.171E-01    0.418E-02
DAV:   5    -0.649103935089E+02   -0.32535E-04   -0.32251E-04   770   0.662E-02
  18 F= -.64910394E+02 E0= -.64910394E+02  d E =-.104788E-01
 trial-energy change:   -0.010479  1 .order   -0.009449   -0.013302   -0.005596
 step:  10.6133(harm= 13.5825)  dis= 0.02844  next Energy=   -64.911413 (dE=-0.115E-01)
 bond charge predicted
       N       E                     dE             d eps       ncg     rms          rms(c)
DAV:   1    -0.649108751388E+02   -0.51416E-03   -0.27394E-01   672   0.183E+00    0.217E-01
DAV:   2    -0.649118140840E+02   -0.93895E-03   -0.15584E-02   882   0.435E-01    0.939E-02
DAV:   3    -0.649116817962E+02    0.13229E-03   -0.27079E-04   826   0.700E-02    0.691E-02
DAV:   4    -0.649115962098E+02    0.85586E-04   -0.24983E-04   532   0.626E-02
  19 F= -.64911596E+02 E0= -.64911596E+02  d E =-.116815E-01
 curvature: -17.78 expect dE=-0.209E-01 dE for cont linesearch -0.684E-03
 ZBRENT: increasing intervall
 opt :  16.1024  next Energy=   -64.912994 (dE=-0.131E-01)
 bond charge predicted
       N       E                     dE             d eps       ncg     rms          rms(c)
DAV:   1    -0.649095293030E+02    0.21525E-02   -0.10901E+00   672   0.365E+00    0.416E-01
DAV:   2    -0.649131861402E+02   -0.36568E-02   -0.61124E-02   882   0.863E-01    0.194E-01
DAV:   3    -0.649126577451E+02    0.52840E-03   -0.11212E-03   868   0.139E-01    0.144E-01
DAV:   4    -0.649122988639E+02    0.35888E-03   -0.95449E-04   882   0.118E-01    0.294E-02
DAV:   5    -0.649123131036E+02   -0.14240E-04   -0.13714E-04   476   0.457E-02
  20 F= -.64912313E+02 E0= -.64912313E+02  d E =-.123984E-01
 curvature: -36.34 expect dE=-0.397E-01 dE for cont linesearch -0.522E-03
 ZBRENT: bracketing found
 ZBRENT: interpolating
 opt :  14.0208  next Energy=   -64.912620 (dE=-0.127E-01)
 bond charge predicted
       N       E                     dE             d eps       ncg     rms          rms(c)
DAV:   1    -0.649121044422E+02    0.19442E-03   -0.15633E-01   672   0.138E+00    0.150E-01
DAV:   2    -0.649126266446E+02   -0.52220E-03   -0.87201E-03   882   0.328E-01    0.786E-02
DAV:   3    -0.649125478637E+02    0.78781E-04   -0.13804E-04   616   0.522E-02
  21 F= -.64912548E+02 E0= -.64912548E+02  d E =-.126331E-01
 curvature: -21.39 expect dE=-0.233E-01 dE for cont linesearch -0.101E-03
 trial: gam= 0.09421 g(F)=  0.761E-03 g(S)=  0.330E-03 ort =-0.170E-03 (trialstep = 0.910E+01)
 search vector abs. value=  0.111E-02
 bond charge predicted
       N       E                     dE             d eps       ncg     rms          rms(c)
DAV:   1    -0.649225374980E+02   -0.99109E-02   -0.50022E-01   672   0.252E+00    0.545E-01
DAV:   2    -0.649170585820E+02    0.54789E-02   -0.32169E-02   854   0.652E-01    0.235E-01
DAV:   3    -0.649154067858E+02    0.16518E-02   -0.55734E-03   770   0.224E-01    0.864E-02
DAV:   4    -0.649152756869E+02    0.13110E-03   -0.23745E-04   770   0.597E-02    0.594E-02
DAV:   5    -0.649152333931E+02    0.42294E-04   -0.14029E-04   434   0.414E-02
  22 F= -.64915233E+02 E0= -.64915233E+02  d E =-.268553E-02
 trial-energy change:   -0.002686  1 .order   -0.002757   -0.009783    0.004270
 step:   6.3345(harm=  6.3345)  dis= 0.00539  next Energy=   -64.915953 (dE=-0.341E-02)
 bond charge predicted
       N       E                     dE             d eps       ncg     rms          rms(c)
DAV:   1    -0.649166047932E+02   -0.13291E-02   -0.47010E-02   672   0.774E-01    0.172E-01
DAV:   2    -0.649160718658E+02    0.53293E-03   -0.29939E-03   868   0.198E-01    0.748E-02
DAV:   3    -0.649159213890E+02    0.15048E-03   -0.53398E-04   742   0.690E-02    0.265E-02
DAV:   4    -0.649159134196E+02    0.79695E-05   -0.19900E-05   336   0.182E-02
  23 F= -.64915913E+02 E0= -.64915913E+02  d E =-.336556E-02
 curvature:  -3.28 expect dE=-0.121E-02 dE for cont linesearch -0.137E-05
 trial: gam= 0.35467 g(F)=  0.198E-03 g(S)=  0.170E-03 ort =-0.215E-04 (trialstep = 0.855E+01)
 search vector abs. value=  0.493E-03
 reached required accuracy - stopping structural energy minimisation
