<?xml version="1.0" encoding="ISO-8859-1"?>
<modeling>
 <generator>
  <i name="program" type="string">vasp </i>
  <i name="version" type="string">5.4.4.18Apr17-6-g9f103f2a35  </i>
  <i name="subversion" type="string">(build Oct 27 2022 13:04:57) complex            parallel </i>
  <i name="platform" type="string">LinuxIFC </i>
  <i name="date" type="string">2024 06 29 </i>
  <i name="time" type="string">13:27:27 </i>
 </generator>
 <incar>
  <i type="string" name="SYSTEM"> CIS</i>
  <i type="int" name="ISTART">     0</i>
  <i type="string" name="PREC">medium</i>
  <i type="int" name="ICHARG">     2</i>
  <i type="int" name="IBRION">     2</i>
  <i name="EDIFF">      0.00010000</i>
  <i name="EDIFFG">     -0.05000000</i>
  <i type="int" name="NSW">    99</i>
  <i type="int" name="ISIF">     3</i>
  <i name="ENCUT">    300.00000000</i>
  <i name="POTIM">      0.10000000</i>
  <i type="string" name="LREAL"> Auto</i>
  <i type="int" name="ISMEAR">     0</i>
  <i name="SIGMA">      0.05000000</i>
  <i type="int" name="LMAXMIX">     4</i>
  <i type="logical" name="LWAVE"> F  </i>
  <i type="logical" name="LCHARG"> F  </i>
  <i type="int" name="LORBIT">    10</i>
  <i type="logical" name="LASPH"> T  </i>
  <v type="int" name="KPOINT_BSE">    -1     0     0     0</v>
  <i type="logical" name="LASPH"> T  </i>
 </incar>
 <structure name="primitive_cell" >
  <crystal>
   <varray name="basis" >
    <v>       6.20465477       0.00000000       0.00000000 </v>
    <v>       0.00000000       6.49561276       0.00000000 </v>
    <v>       0.00000000       0.00000000       7.85600906 </v>
   </varray>
   <i name="volume">    316.62100571 </i>
   <varray name="rec_basis" >
    <v>       0.16116932       0.00000000       0.00000000 </v>
    <v>       0.00000000       0.15395006       0.00000000 </v>
    <v>       0.00000000       0.00000000       0.12729110 </v>
   </varray>
  </crystal>
  <varray name="positions" >
   <v>       0.11781030      -0.08336056       0.37770555 </v>
   <v>      -0.01451588       0.06443509       0.11353569 </v>
   <v>      -0.01451588      -0.43556491       0.38646431 </v>
   <v>      -0.48966723      -0.09524702       0.36128656 </v>
   <v>       0.01033277       0.09524702      -0.36128656 </v>
   <v>       0.12137382       0.42624158      -0.37387979 </v>
   <v>      -0.37862618       0.07375842       0.12612021 </v>
   <v>      -0.37862618      -0.42624158       0.37387979 </v>
   <v>      -0.38218970       0.08336056      -0.37770555 </v>
   <v>       0.11781030       0.41663944       0.12229445 </v>
   <v>       0.12137382      -0.07375842      -0.12612021 </v>
   <v>       0.48548412       0.43556491      -0.38646431 </v>
   <v>       0.01033277      -0.40475298      -0.13871344 </v>
   <v>      -0.48966723       0.40475298       0.13871344 </v>
   <v>       0.48548412      -0.06443509      -0.11353569 </v>
   <v>      -0.38218970      -0.41663944      -0.12229445 </v>
  </varray>
 </structure>
 <varray name="primitive_index" >
  <v type="int" >        1 </v>
  <v type="int" >       12 </v>
  <v type="int" >        9 </v>
  <v type="int" >       15 </v>
  <v type="int" >       16 </v>
  <v type="int" >        6 </v>
  <v type="int" >        8 </v>
  <v type="int" >        5 </v>
  <v type="int" >        2 </v>
  <v type="int" >        4 </v>
  <v type="int" >        7 </v>
  <v type="int" >       10 </v>
  <v type="int" >       13 </v>
  <v type="int" >       14 </v>
  <v type="int" >       11 </v>
  <v type="int" >        3 </v>
 </varray>
 <kpoints>
  <generation param="Monkhorst-Pack">
   <v type="int" name="divisions">       3        3        3 </v>
   <v name="usershift">      0.00000000       0.00000000       0.00000000 </v>
   <v name="genvec1">      0.33333333       0.00000000       0.00000000 </v>
   <v name="genvec2">      0.00000000       0.33333333       0.00000000 </v>
   <v name="genvec3">      0.00000000       0.00000000       0.33333333 </v>
   <v name="shift">      0.00000000       0.00000000       0.00000000 </v>
  </generation>
  <varray name="kpointlist" >
   <v>       0.00000000       0.00000000       0.00000000 </v>
   <v>       0.33333333       0.00000000       0.00000000 </v>
   <v>       0.00000000       0.33333333       0.00000000 </v>
   <v>       0.33333333       0.33333333       0.00000000 </v>
   <v>       0.00000000       0.00000000       0.33333333 </v>
   <v>       0.33333333       0.00000000       0.33333333 </v>
   <v>       0.00000000       0.33333333       0.33333333 </v>
   <v>       0.33333333       0.33333333       0.33333333 </v>
  </varray>
  <varray name="weights" >
   <v>       0.03703704 </v>
   <v>       0.07407407 </v>
   <v>       0.07407407 </v>
   <v>       0.14814815 </v>
   <v>       0.07407407 </v>
   <v>       0.14814815 </v>
   <v>       0.14814815 </v>
   <v>       0.29629630 </v>
  </varray>
 </kpoints>
 <parameters>
  <separator name="general" >
   <i type="string" name="SYSTEM">CIS</i>
   <i type="logical" name="LCOMPAT"> F  </i>
  </separator>
  <separator name="electronic" >
   <i type="string" name="PREC">medium</i>
   <i name="ENMAX">    300.00000000</i>
   <i name="ENAUG">    446.84200000</i>
   <i name="EDIFF">      0.00010000</i>
   <i type="int" name="IALGO">    38</i>
   <i type="int" name="IWAVPR">    11</i>
   <i type="int" name="NBANDS">    42</i>
   <i name="NELECT">     64.00000000</i>
   <i type="int" name="TURBO">     0</i>
   <i type="int" name="IRESTART">     0</i>
   <i type="int" name="NREBOOT">     0</i>
   <i type="int" name="NMIN">     0</i>
   <i name="EREF">      0.00000000</i>
   <separator name="electronic smearing" >
    <i type="int" name="ISMEAR">     0</i>
    <i name="SIGMA">      0.05000000</i>
    <i name="KSPACING">      0.50000000</i>
    <i type="logical" name="KGAMMA"> T  </i>
   </separator>
   <separator name="electronic projectors" >
    <i type="logical" name="LREAL"> T  </i>
    <v name="ROPT">     -0.00200000     -0.00200000     -0.00200000</v>
    <i type="int" name="LMAXPAW">  -100</i>
    <i type="int" name="LMAXMIX">     4</i>
    <i type="logical" name="NLSPLINE"> F  </i>
   </separator>
   <separator name="electronic startup" >
    <i type="int" name="ISTART">     0</i>
    <i type="int" name="ICHARG">     2</i>
    <i type="int" name="INIWAV">     1</i>
   </separator>
   <separator name="electronic spin" >
    <i type="int" name="ISPIN">     1</i>
    <i type="logical" name="LNONCOLLINEAR"> F  </i>
    <v name="MAGMOM">      1.00000000      1.00000000      1.00000000      1.00000000      1.00000000      1.00000000      1.00000000      1.00000000      1.00000000      1.00000000      1.00000000      1.00000000      1.00000000      1.00000000      1.00000000      1.00000000</v>
    <i name="NUPDOWN">     -1.00000000</i>
    <i type="logical" name="LSORBIT"> F  </i>
    <v name="SAXIS">      0.00000000      0.00000000      1.00000000</v>
    <i type="logical" name="LSPIRAL"> F  </i>
    <v name="QSPIRAL">      0.00000000      0.00000000      0.00000000</v>
    <i type="logical" name="LZEROZ"> F  </i>
   </separator>
   <separator name="electronic exchange-correlation" >
    <i type="logical" name="LASPH"> T  </i>
    <i type="logical" name="LMETAGGA"> F  </i>
   </separator>
   <separator name="electronic convergence" >
    <i type="int" name="NELM">    60</i>
    <i type="int" name="NELMDL">    -5</i>
    <i type="int" name="NELMIN">     2</i>
    <i name="ENINI">    300.00000000</i>
    <separator name="electronic convergence detail" >
     <i type="logical" name="LDIAG"> T  </i>
     <i type="logical" name="LSUBROT"> F  </i>
     <i name="WEIMIN">      0.00100000</i>
     <i name="EBREAK">      0.00000060</i>
     <i name="DEPER">      0.30000000</i>
     <i type="int" name="NRMM">     4</i>
     <i name="TIME">      0.40000000</i>
    </separator>
   </separator>
   <separator name="electronic mixer" >
    <i name="AMIX">      0.40000000</i>
    <i name="BMIX">      1.00000000</i>
    <i name="AMIN">      0.10000000</i>
    <i name="AMIX_MAG">      1.60000000</i>
    <i name="BMIX_MAG">      1.00000000</i>
    <separator name="electronic mixer details" >
     <i type="int" name="IMIX">     4</i>
     <i type="logical" name="MIXFIRST"> F  </i>
     <i type="int" name="MAXMIX">   -45</i>
     <i name="WC">    100.00000000</i>
     <i type="int" name="INIMIX">     1</i>
     <i type="int" name="MIXPRE">     1</i>
     <i type="int" name="MREMOVE">     5</i>
    </separator>
   </separator>
   <separator name="electronic dipolcorrection" >
    <i type="logical" name="LDIPOL"> F  </i>
    <i type="logical" name="LMONO"> F  </i>
    <i type="int" name="IDIPOL">     0</i>
    <i name="EPSILON">      1.00000000</i>
    <v name="DIPOL">   -100.00000000   -100.00000000   -100.00000000</v>
    <i name="EFIELD">      0.00000000</i>
   </separator>
  </separator>
  <separator name="grids" >
   <i type="int" name="NGX">    28</i>
   <i type="int" name="NGY">    28</i>
   <i type="int" name="NGZ">    36</i>
   <i type="int" name="NGXF">    42</i>
   <i type="int" name="NGYF">    48</i>
   <i type="int" name="NGZF">    54</i>
   <i type="logical" name="ADDGRID"> F  </i>
  </separator>
  <separator name="ionic" >
   <i type="int" name="NSW">    99</i>
   <i type="int" name="IBRION">     2</i>
   <i type="int" name="MDALGO">     0</i>
   <i type="int" name="ISIF">     3</i>
   <i name="PSTRESS">      0.00000000</i>
   <i name="EDIFFG">     -0.05000000</i>
   <i type="int" name="NFREE">     1</i>
   <i name="POTIM">      0.10000000</i>
   <i name="SMASS">     -3.00000000</i>
   <i name="SCALEE">      1.00000000</i>
  </separator>
  <separator name="ionic md" >
   <i name="TEBEG">      0.00010000</i>
   <i name="TEEND">      0.00010000</i>
   <i type="int" name="NBLOCK">     1</i>
   <i type="int" name="KBLOCK">    99</i>
   <i type="int" name="NPACO">   256</i>
   <i name="APACO">     16.00000000</i>
  </separator>
  <separator name="symmetry" >
   <i type="int" name="ISYM">     2</i>
   <i name="SYMPREC">      0.00001000</i>
  </separator>
  <separator name="dos" >
   <i type="int" name="LORBIT">    10</i>
   <v name="RWIGS">     -1.00000000     -1.00000000     -1.00000000</v>
   <i type="int" name="NEDOS">   301</i>
   <i name="EMIN">     10.00000000</i>
   <i name="EMAX">    -10.00000000</i>
   <i name="EFERMI">      0.00000000</i>
  </separator>
  <separator name="writing" >
   <i type="int" name="NWRITE">     2</i>
   <i type="logical" name="LWAVE"> F  </i>
   <i type="logical" name="LDOWNSAMPLE"> F  </i>
   <i type="logical" name="LCHARG"> F  </i>
   <i type="logical" name="LPARD"> F  </i>
   <i type="logical" name="LVTOT"> F  </i>
   <i type="logical" name="LVHAR"> F  </i>
   <i type="logical" name="LELF"> F  </i>
   <i type="logical" name="LOPTICS"> F  </i>
   <v name="STM">      0.00000000      0.00000000      0.00000000      0.00000000      0.00000000      0.00000000      0.00000000</v>
  </separator>
  <separator name="performance" >
   <i type="int" name="NPAR">    14</i>
   <i type="int" name="NSIM">     4</i>
   <i type="int" name="NBLK">    -1</i>
   <i type="logical" name="LPLANE"> T  </i>
   <i type="logical" name="LSCALAPACK"> T  </i>
   <i type="logical" name="LSCAAWARE"> F  </i>
   <i type="logical" name="LSCALU"> F  </i>
   <i type="logical" name="LASYNC"> F  </i>
   <i type="logical" name="LORBITALREAL"> F  </i>
  </separator>
  <separator name="miscellaneous" >
   <i type="int" name="IDIOT">     3</i>
   <i type="int" name="ISPECIAL">     0</i>
   <i type="logical" name="LMUSIC"> F  </i>
   <v name="POMASS">     22.99000000     26.98100000     78.96000000</v>
   <v name="DARWINR">      0.00000000      0.00000000      0.00000000</v>
   <v name="DARWINV">      1.00000000      1.00000000      1.00000000</v>
   <i type="logical" name="LCORR"> T  </i>
  </separator>
  <i type="logical" name="GGA_COMPAT"> T  </i>
  <i type="logical" name="LBERRY"> F  </i>
  <i type="int" name="ICORELEVEL">     0</i>
  <i type="logical" name="LDAU"> F  </i>
  <i type="int" name="I_CONSTRAINED_M">     0</i>
  <separator name="electronic exchange-correlation" >
   <i type="string" name="GGA">--</i>
   <i type="int" name="VOSKOWN">     0</i>
   <i type="logical" name="LHFCALC"> F  </i>
   <i type="string" name="PRECFOCK"></i>
   <i type="logical" name="LSYMGRAD"> F  </i>
   <i type="logical" name="LHFONE"> F  </i>
   <i type="logical" name="LRHFCALC"> F  </i>
   <i type="logical" name="LTHOMAS"> F  </i>
   <i type="logical" name="LMODELHF"> F  </i>
   <i name="ENCUT4O">     -1.00000000</i>
   <i type="int" name="EXXOEP">     0</i>
   <i type="int" name="FOURORBIT">     0</i>
   <i name="AEXX">      0.00000000</i>
   <i name="HFALPHA">      0.00000000</i>
   <i name="MCALPHA">      0.00000000</i>
   <i name="ALDAX">      1.00000000</i>
   <i name="AGGAX">      1.00000000</i>
   <i name="ALDAC">      1.00000000</i>
   <i name="AGGAC">      1.00000000</i>
   <i type="int" name="NKREDX">     1</i>
   <i type="int" name="NKREDY">     1</i>
   <i type="int" name="NKREDZ">     1</i>
   <i type="logical" name="SHIFTRED"> F  </i>
   <i type="logical" name="ODDONLY"> F  </i>
   <i type="logical" name="EVENONLY"> F  </i>
   <i type="int" name="LMAXFOCK">     0</i>
   <i type="int" name="NMAXFOCKAE">     0</i>
   <i type="logical" name="LFOCKAEDFT"> F  </i>
   <i name="HFSCREEN">      0.00000000</i>
   <i name="HFSCREENC">      0.00000000</i>
   <i type="int" name="NBANDSGWLOW">     0</i>
  </separator>
  <separator name="vdW DFT" >
   <i type="logical" name="LUSE_VDW"> F  </i>
   <i name="Zab_VDW">     -0.84910000</i>
   <i name="PARAM1">      0.12340000</i>
   <i name="PARAM2">      1.00000000</i>
   <i name="PARAM3">      0.00000000</i>
  </separator>
  <separator name="model GW" >
   <i type="int" name="MODEL_GW">     0</i>
   <i name="MODEL_EPS0">     11.87328771</i>
   <i name="MODEL_ALPHA">      1.00000000</i>
  </separator>
  <separator name="linear response parameters" >
   <i type="logical" name="LEPSILON"> F  </i>
   <i type="logical" name="LRPA"> F  </i>
   <i type="logical" name="LNABLA"> F  </i>
   <i type="logical" name="LVEL"> F  </i>
   <i type="int" name="KINTER">     0</i>
   <i name="CSHIFT">      0.10000000</i>
   <i name="OMEGAMAX">     -1.00000000</i>
   <i name="DEG_THRESHOLD">      0.00200000</i>
   <i name="RTIME">     -0.10000000</i>
   <i name="WPLASMAI">      0.00000000</i>
   <v name="DFIELD">      0.00000000      0.00000000      0.00000000</v>
   <v name="WPLASMA">      0.00000000      0.00000000      0.00000000      0.00000000      0.00000000      0.00000000      0.00000000      0.00000000      0.00000000</v>
  </separator>
  <separator name="orbital magnetization" >
   <i type="logical" name="NUCIND"> F  </i>
   <v name="MAGPOS">      0.00000000      0.00000000      0.00000000</v>
   <i type="logical" name="LNICSALL"> T  </i>
   <i type="logical" name="ORBITALMAG"> F  </i>
   <i type="logical" name="LMAGBLOCH"> F  </i>
   <i type="logical" name="LCHIMAG"> F  </i>
   <i type="logical" name="LGAUGE"> T  </i>
   <i type="int" name="MAGATOM">     0</i>
   <v name="MAGDIPOL">      0.00000000      0.00000000      0.00000000</v>
   <v name="AVECCONST">      0.00000000      0.00000000      0.00000000</v>
  </separator>
  <separator name="response functions" >
   <i type="logical" name="LADDER"> F  </i>
   <i type="logical" name="LRPAFORCE"> F  </i>
   <i type="logical" name="LFXC"> F  </i>
   <i type="logical" name="LHARTREE"> T  </i>
   <i type="int" name="IBSE">     0</i>
   <v type="int" name="KPOINT">    -1     0     0     0</v>
   <i type="logical" name="LTCTE"> F  </i>
   <i type="logical" name="LTETE"> F  </i>
   <i type="logical" name="LTRIPLET"> F  </i>
   <i type="logical" name="LFXCEPS"> F  </i>
   <i type="logical" name="LFXHEG"> F  </i>
   <i type="int" name="NATURALO">     2</i>
   <i type="logical" name="L2ORDER"> F  </i>
   <i type="logical" name="LMP2LT"> F  </i>
   <i type="logical" name="LUSEW"> F  </i>
   <i name="ENCUTGW">     -2.00000000</i>
   <i name="ENCUTGWSOFT">     -2.00000000</i>
   <i name="ENCUTLF">     -1.00000000</i>
   <i type="int" name="LMAXMP2">    -1</i>
   <i name="SCISSOR">      0.00000000</i>
   <i type="int" name="NOMEGA">     0</i>
   <i type="int" name="NOMEGAR">     0</i>
   <i type="int" name="NBANDSGW">    -1</i>
   <i type="int" name="NBANDSO">    -1</i>
   <i type="int" name="NBANDSV">    -1</i>
   <i type="int" name="NELM">     1</i>
   <i type="int" name="NELMHF">     1</i>
   <i type="int" name="DIM">     3</i>
   <i type="int" name="ANTIRES">     0</i>
   <i name="OMEGAMAX">    -30.00000000</i>
   <i name="OMEGAMIN">    -30.00000000</i>
   <i name="OMEGATL">   -200.00000000</i>
   <i type="int" name="OMEGAGRID">   140</i>
   <i name="CSHIFT">     -0.10000000</i>
   <i type="logical" name="SELFENERGY"> F  </i>
   <i type="logical" name="LSPECTRAL"> F  </i>
   <i type="logical" name="LSPECTRALGW"> F  </i>
   <i type="logical" name="LSINGLES"> F  </i>
   <i type="logical" name="LFERMIGW"> F  </i>
   <i type="logical" name="ODDONLYGW"> F  </i>
   <i type="logical" name="EVENONLYGW"> F  </i>
   <i type="int" name="NKREDLFX">     1</i>
   <i type="int" name="NKREDLFY">     1</i>
   <i type="int" name="NKREDLFZ">     1</i>
   <i type="int" name="MAXMEM">  2800</i>
   <i type="int" name="TELESCOPE">     0</i>
   <i type="int" name="TAUPAR">     1</i>
   <i type="int" name="OMEGAPAR">    -1</i>
   <i name="LAMBDA">      1.00000000</i>
  </separator>
  <separator name="External order field" >
   <i name="OFIELD_KAPPA">      0.00000000</i>
   <v name="OFIELD_K">      0.00000000      0.00000000      0.00000000</v>
   <i name="OFIELD_Q6_NEAR">      0.00000000</i>
   <i name="OFIELD_Q6_FAR">      0.00000000</i>
   <i name="OFIELD_A">      0.00000000</i>
  </separator>
 </parameters>
 <atominfo>
  <atoms>      16 </atoms>
  <types>       3 </types>
  <array name="atoms" >
   <dimension dim="1">ion</dimension>
   <field type="string">element</field>
   <field type="int">atomtype</field>
   <set>
    <rc><c>Na</c><c>   1</c></rc>
    <rc><c>Na</c><c>   1</c></rc>
    <rc><c>Na</c><c>   1</c></rc>
    <rc><c>Na</c><c>   1</c></rc>
    <rc><c>Al</c><c>   2</c></rc>
    <rc><c>Al</c><c>   2</c></rc>
    <rc><c>Al</c><c>   2</c></rc>
    <rc><c>Al</c><c>   2</c></rc>
    <rc><c>Se</c><c>   3</c></rc>
    <rc><c>Se</c><c>   3</c></rc>
    <rc><c>Se</c><c>   3</c></rc>
    <rc><c>Se</c><c>   3</c></rc>
    <rc><c>Se</c><c>   3</c></rc>
    <rc><c>Se</c><c>   3</c></rc>
    <rc><c>Se</c><c>   3</c></rc>
    <rc><c>Se</c><c>   3</c></rc>
   </set>
  </array>
  <array name="atomtypes" >
   <dimension dim="1">type</dimension>
   <field type="int">atomspertype</field>
   <field type="string">element</field>
   <field>mass</field>
   <field>valence</field>
   <field type="string">pseudopotential</field>
   <set>
    <rc><c>   4</c><c>Na</c><c>     22.99000000</c><c>      1.00000000</c><c>  PAW_PBE Na 08Apr2002                  </c></rc>
    <rc><c>   4</c><c>Al</c><c>     26.98100000</c><c>      3.00000000</c><c>  PAW_PBE Al 04Jan2001                  </c></rc>
    <rc><c>   8</c><c>Se</c><c>     78.96000000</c><c>      6.00000000</c><c>  PAW_PBE Se 06Sep2000                  </c></rc>
   </set>
  </array>
 </atominfo>
 <structure name="initialpos" >
  <crystal>
   <varray name="basis" >
    <v>       6.20465477       0.00000000       0.00000000 </v>
    <v>       0.00000000       6.49561276       0.00000000 </v>
    <v>       0.00000000       0.00000000       7.85600906 </v>
   </varray>
   <i name="volume">    316.62100571 </i>
   <varray name="rec_basis" >
    <v>       0.16116932       0.00000000       0.00000000 </v>
    <v>       0.00000000       0.15395006       0.00000000 </v>
    <v>       0.00000000       0.00000000       0.12729110 </v>
   </varray>
  </crystal>
  <varray name="positions" >
   <v>       0.11781030       0.91663944       0.37770555 </v>
   <v>       0.61781030       0.08336056       0.62229445 </v>
   <v>       0.61781030       0.58336056       0.87770555 </v>
   <v>       0.11781030       0.41663944       0.12229445 </v>
   <v>       0.62137382       0.57375842       0.37387979 </v>
   <v>       0.12137382       0.42624158       0.62612021 </v>
   <v>       0.12137382       0.92624158       0.87387979 </v>
   <v>       0.62137382       0.07375842       0.12612021 </v>
   <v>       0.98548412       0.56443509       0.38646431 </v>
   <v>       0.48548412       0.43556491       0.61353569 </v>
   <v>       0.48548412       0.93556491       0.88646431 </v>
   <v>       0.98548412       0.06443509       0.11353569 </v>
   <v>       0.01033277       0.59524702       0.86128656 </v>
   <v>       0.51033277       0.40475298       0.13871344 </v>
   <v>       0.51033277       0.90475298       0.36128656 </v>
   <v>       0.01033277       0.09524702       0.63871344 </v>
  </varray>
 </structure>
 <calculation>
  <scstep>
   <time name="dav">    0.22    0.23</time>
   <time name="total">    0.40    0.43</time>
   <energy>
    <i name="alphaZ">     78.26948400 </i>
    <i name="ewald">  -2141.52124434 </i>
    <i name="hartreedc">   -284.17812978 </i>
    <i name="XCdc">   -252.74645649 </i>
    <i name="pawpsdc">   2106.70890229 </i>
    <i name="pawaedc">  -1718.66637366 </i>
    <i name="eentropy">     -0.00698747 </i>
    <i name="bandstr">    181.93876216 </i>
    <i name="atom">   2291.77909288 </i>
    <i name="e_fr_energy">    261.57704960 </i>
    <i name="e_wo_entrp">    261.58403706 </i>
    <i name="e_0_energy">    261.58054333 </i>
   </energy>
  </scstep>
  <scstep>
   <time name="dav">    0.26    0.26</time>
   <time name="total">    0.26    0.26</time>
   <energy>
    <i name="e_fr_energy">    -37.99212535 </i>
    <i name="e_wo_entrp">    -37.99212535 </i>
    <i name="e_0_energy">    -37.99212535 </i>
   </energy>
  </scstep>
  <scstep>
   <time name="dav">    0.26    0.26</time>
   <time name="total">    0.26    0.26</time>
   <energy>
    <i name="e_fr_energy">    -59.46247305 </i>
    <i name="e_wo_entrp">    -59.46247305 </i>
    <i name="e_0_energy">    -59.46247305 </i>
   </energy>
  </scstep>
  <scstep>
   <time name="dav">    0.25    0.25</time>
   <time name="total">    0.25    0.25</time>
   <energy>
    <i name="e_fr_energy">    -59.87442690 </i>
    <i name="e_wo_entrp">    -59.87442690 </i>
    <i name="e_0_energy">    -59.87442690 </i>
   </energy>
  </scstep>
  <scstep>
   <time name="dav">    0.36    0.36</time>
   <time name="total">    0.37    0.37</time>
   <energy>
    <i name="e_fr_energy">    -59.88830948 </i>
    <i name="e_wo_entrp">    -59.88830948 </i>
    <i name="e_0_energy">    -59.88830948 </i>
   </energy>
  </scstep>
  <scstep>
   <time name="dav">    0.30    0.30</time>
   <time name="total">    0.48    0.48</time>
   <energy>
    <i name="e_fr_energy">    -57.90536675 </i>
    <i name="e_wo_entrp">    -57.90536675 </i>
    <i name="e_0_energy">    -57.90536675 </i>
   </energy>
  </scstep>
  <scstep>
   <time name="dav">    0.31    0.31</time>
   <time name="total">    0.49    0.50</time>
   <energy>
    <i name="e_fr_energy">    -57.56979491 </i>
    <i name="e_wo_entrp">    -57.56979491 </i>
    <i name="e_0_energy">    -57.56979491 </i>
   </energy>
  </scstep>
  <scstep>
   <time name="dav">    0.32    0.32</time>
   <time name="total">    0.50    0.50</time>
   <energy>
    <i name="e_fr_energy">    -57.57986836 </i>
    <i name="e_wo_entrp">    -57.57986836 </i>
    <i name="e_0_energy">    -57.57986836 </i>
   </energy>
  </scstep>
  <scstep>
   <time name="dav">    0.27    0.27</time>
   <time name="total">    0.45    0.45</time>
   <energy>
    <i name="e_fr_energy">    -57.58238645 </i>
    <i name="e_wo_entrp">    -57.58238645 </i>
    <i name="e_0_energy">    -57.58238645 </i>
   </energy>
  </scstep>
  <scstep>
   <time name="dav">    0.24    0.24</time>
   <time name="total">    0.43    0.43</time>
   <energy>
    <i name="e_fr_energy">    -57.58299823 </i>
    <i name="e_wo_entrp">    -57.58299823 </i>
    <i name="e_0_energy">    -57.58299823 </i>
   </energy>
  </scstep>
  <scstep>
   <time name="dav">    0.25    0.25</time>
   <time name="total">    0.43    0.43</time>
   <energy>
    <i name="e_fr_energy">    -57.58323418 </i>
    <i name="e_wo_entrp">    -57.58323418 </i>
    <i name="e_0_energy">    -57.58323418 </i>
   </energy>
  </scstep>
  <scstep>
   <time name="dav">    0.16    0.16</time>
   <time name="total">    0.33    0.33</time>
   <energy>
    <i name="alphaZ">     78.26948400 </i>
    <i name="ewald">  -2141.52124434 </i>
    <i name="hartreedc">   -334.07884439 </i>
    <i name="XCdc">   -246.25391795 </i>
    <i name="pawpsdc">   4888.37987953 </i>
    <i name="pawaedc">  -4503.00932262 </i>
    <i name="eentropy">     -0.00000000 </i>
    <i name="bandstr">    -91.14837878 </i>
    <i name="atom">   2291.77909288 </i>
    <i name="e_fr_energy">    -57.58325167 </i>
    <i name="e_wo_entrp">    -57.58325167 </i>
    <i name="e_0_energy">    -57.58325167 </i>
   </energy>
  </scstep>
  <structure>
   <crystal>
    <varray name="basis" >
     <v>       6.20465477       0.00000000       0.00000000 </v>
     <v>       0.00000000       6.49561276       0.00000000 </v>
     <v>       0.00000000       0.00000000       7.85600906 </v>
    </varray>
    <i name="volume">    316.62100571 </i>
    <varray name="rec_basis" >
     <v>       0.16116932       0.00000000       0.00000000 </v>
     <v>       0.00000000       0.15395006       0.00000000 </v>
     <v>       0.00000000       0.00000000       0.12729110 </v>
    </varray>
   </crystal>
   <varray name="positions" >
    <v>       0.11781030       0.91663944       0.37770555 </v>
    <v>       0.61781030       0.08336056       0.62229445 </v>
    <v>       0.61781030       0.58336056       0.87770555 </v>
    <v>       0.11781030       0.41663944       0.12229445 </v>
    <v>       0.62137382       0.57375842       0.37387979 </v>
    <v>       0.12137382       0.42624158       0.62612021 </v>
    <v>       0.12137382       0.92624158       0.87387979 </v>
    <v>       0.62137382       0.07375842       0.12612021 </v>
    <v>       0.98548412       0.56443509       0.38646431 </v>
    <v>       0.48548412       0.43556491       0.61353569 </v>
    <v>       0.48548412       0.93556491       0.88646431 </v>
    <v>       0.98548412       0.06443509       0.11353569 </v>
    <v>       0.01033277       0.59524702       0.86128656 </v>
    <v>       0.51033277       0.40475298       0.13871344 </v>
    <v>       0.51033277       0.90475298       0.36128656 </v>
    <v>       0.01033277       0.09524702       0.63871344 </v>
   </varray>
  </structure>
  <varray name="forces" >
   <v>      -0.12879193       0.23516333       0.17441101 </v>
   <v>      -0.12879193      -0.23516333      -0.17441101 </v>
   <v>      -0.12879193      -0.23516333       0.17441101 </v>
   <v>      -0.12879193       0.23516333      -0.17441101 </v>
   <v>       0.02300257      -0.10310006      -0.01536365 </v>
   <v>       0.02300257       0.10310006       0.01536365 </v>
   <v>       0.02300257       0.10310006      -0.01536365 </v>
   <v>       0.02300257      -0.10310006       0.01536365 </v>
   <v>      -0.12404527      -0.38287154       0.18025830 </v>
   <v>      -0.12404527       0.38287154      -0.18025830 </v>
   <v>      -0.12404527       0.38287154       0.18025830 </v>
   <v>      -0.12404527      -0.38287154      -0.18025830 </v>
   <v>       0.22983463       0.06585963      -0.12125011 </v>
   <v>       0.22983463      -0.06585963       0.12125011 </v>
   <v>       0.22983463      -0.06585963      -0.12125011 </v>
   <v>       0.22983463       0.06585963       0.12125011 </v>
  </varray>
  <varray name="stress" >
   <v>     235.56132545       0.00000000       0.00000000 </v>
   <v>       0.00000000     232.54528703       0.00000000 </v>
   <v>       0.00000000       0.00000000     257.30984388 </v>
  </varray>
  <energy>
   <i name="e_fr_energy">    -57.58325167 </i>
   <i name="e_wo_entrp">    -57.58325167 </i>
   <i name="e_0_energy">     -0.00000000 </i>
  </energy>
  <time name="totalsc">    5.20    5.49</time>
 </calculation>
 <calculation>
  <scstep>
   <time name="dav">    0.19    0.19</time>
   <time name="total">    0.37    0.43</time>
   <energy>
    <i name="alphaZ">     71.87538258 </i>
    <i name="ewald">  -2080.74218389 </i>
    <i name="hartreedc">   -325.40798599 </i>
    <i name="XCdc">   -248.79466976 </i>
    <i name="pawpsdc">   4889.57384588 </i>
    <i name="pawaedc">  -4504.20442431 </i>
    <i name="eentropy">     -0.00000000 </i>
    <i name="bandstr">   -156.32893269 </i>
    <i name="atom">   2291.77909288 </i>
    <i name="e_fr_energy">    -62.24987530 </i>
    <i name="e_wo_entrp">    -62.24987530 </i>
    <i name="e_0_energy">    -62.24987530 </i>
   </energy>
  </scstep>
  <scstep>
   <time name="dav">    0.24    0.24</time>
   <time name="total">    0.41    0.42</time>
   <energy>
    <i name="e_fr_energy">    -61.17599410 </i>
    <i name="e_wo_entrp">    -61.17599410 </i>
    <i name="e_0_energy">    -61.17599410 </i>
   </energy>
  </scstep>
  <scstep>
   <time name="dav">    0.24    0.24</time>
   <time name="total">    0.42    0.42</time>
   <energy>
    <i name="e_fr_energy">    -60.95212472 </i>
    <i name="e_wo_entrp">    -60.95212472 </i>
    <i name="e_0_energy">    -60.95212472 </i>
   </energy>
  </scstep>
  <scstep>
   <time name="dav">    0.24    0.24</time>
   <time name="total">    0.42    0.42</time>
   <energy>
    <i name="e_fr_energy">    -60.94847005 </i>
    <i name="e_wo_entrp">    -60.94847005 </i>
    <i name="e_0_energy">    -60.94847005 </i>
   </energy>
  </scstep>
  <scstep>
   <time name="dav">    0.28    0.28</time>
   <time name="total">    0.47    0.47</time>
   <energy>
    <i name="e_fr_energy">    -60.94490544 </i>
    <i name="e_wo_entrp">    -60.94490544 </i>
    <i name="e_0_energy">    -60.94490544 </i>
   </energy>
  </scstep>
  <scstep>
   <time name="dav">    0.27    0.27</time>
   <time name="total">    0.45    0.45</time>
   <energy>
    <i name="e_fr_energy">    -60.94478523 </i>
    <i name="e_wo_entrp">    -60.94478523 </i>
    <i name="e_0_energy">    -60.94478523 </i>
   </energy>
  </scstep>
  <scstep>
   <time name="dav">    0.22    0.22</time>
   <time name="total">    0.39    0.39</time>
   <energy>
    <i name="alphaZ">     71.87538258 </i>
    <i name="ewald">  -2080.74218389 </i>
    <i name="hartreedc">   -355.90531174 </i>
    <i name="XCdc">   -248.19184759 </i>
    <i name="pawpsdc">   4499.88343295 </i>
    <i name="pawaedc">  -4114.08214765 </i>
    <i name="eentropy">     -0.00000000 </i>
    <i name="bandstr">   -125.56121281 </i>
    <i name="atom">   2291.77909288 </i>
    <i name="e_fr_energy">    -60.94479528 </i>
    <i name="e_wo_entrp">    -60.94479528 </i>
    <i name="e_0_energy">    -60.94479528 </i>
   </energy>
  </scstep>
  <structure>
   <crystal>
    <varray name="basis" >
     <v>       6.37883223       0.00000000       0.00000000 </v>
     <v>       0.00000000       6.67562333       0.00000000 </v>
     <v>       0.00000000       0.00000000       8.09690458 </v>
    </varray>
    <i name="volume">    344.78790721 </i>
    <varray name="rec_basis" >
     <v>       0.15676851       0.00000000       0.00000000 </v>
     <v>       0.00000000       0.14979875       0.00000000 </v>
     <v>       0.00000000       0.00000000       0.12350399 </v>
    </varray>
   </crystal>
   <varray name="positions" >
    <v>       0.11761002       0.91698875       0.37791976 </v>
    <v>       0.61761002       0.08301125       0.62208024 </v>
    <v>       0.61761002       0.58301125       0.87791976 </v>
    <v>       0.11761002       0.41698875       0.12208024 </v>
    <v>       0.62140959       0.57360528       0.37386092 </v>
    <v>       0.12140959       0.42639472       0.62613908 </v>
    <v>       0.12140959       0.92639472       0.87386092 </v>
    <v>       0.62140959       0.07360528       0.12613908 </v>
    <v>       0.98529122       0.56386638       0.38668570 </v>
    <v>       0.48529122       0.43613362       0.61331430 </v>
    <v>       0.48529122       0.93613362       0.88668570 </v>
    <v>       0.98529122       0.06386638       0.11331430 </v>
    <v>       0.01069017       0.59534485       0.86113764 </v>
    <v>       0.51069017       0.40465515       0.13886236 </v>
    <v>       0.51069017       0.90465515       0.36113764 </v>
    <v>       0.01069017       0.09534485       0.63886236 </v>
   </varray>
  </structure>
  <varray name="forces" >
   <v>      -0.07606121       0.17090974       0.10659332 </v>
   <v>      -0.07606121      -0.17090974      -0.10659332 </v>
   <v>      -0.07606121      -0.17090974       0.10659332 </v>
   <v>      -0.07606121       0.17090974      -0.10659332 </v>
   <v>      -0.00065005      -0.09948668      -0.00047623 </v>
   <v>      -0.00065005       0.09948668       0.00047623 </v>
   <v>      -0.00065005       0.09948668      -0.00047623 </v>
   <v>      -0.00065005      -0.09948668       0.00047623 </v>
   <v>      -0.26775426      -0.40318565       0.45054437 </v>
   <v>      -0.26775426       0.40318565      -0.45054437 </v>
   <v>      -0.26775426       0.40318565       0.45054437 </v>
   <v>      -0.26775426      -0.40318565      -0.45054437 </v>
   <v>       0.34446551       0.26688927      -0.38566073 </v>
   <v>       0.34446551      -0.26688927       0.38566073 </v>
   <v>       0.34446551      -0.26688927      -0.38566073 </v>
   <v>       0.34446551       0.26688927       0.38566073 </v>
  </varray>
  <varray name="stress" >
   <v>     140.61687979       0.00000000       0.00000000 </v>
   <v>       0.00000000     137.18069809       0.00000000 </v>
   <v>       0.00000000       0.00000000     154.98265364 </v>
  </varray>
  <energy>
   <i name="e_fr_energy">    -60.94479528 </i>
   <i name="e_wo_entrp">    -60.94479528 </i>
   <i name="e_0_energy">     -0.00000000 </i>
  </energy>
  <time name="totalsc">    3.51    3.67</time>
 </calculation>
 <calculation>
  <scstep>
   <time name="dav">    0.26    0.27</time>
   <time name="total">    0.46    0.49</time>
   <energy>
    <i name="alphaZ">     61.64562115 </i>
    <i name="ewald">  -1975.54758496 </i>
    <i name="hartreedc">   -339.34809773 </i>
    <i name="XCdc">   -252.70674687 </i>
    <i name="pawpsdc">   4498.53832031 </i>
    <i name="pawaedc">  -4112.73569260 </i>
    <i name="eentropy">     -0.00000000 </i>
    <i name="bandstr">   -239.86864504 </i>
    <i name="atom">   2291.77909288 </i>
    <i name="e_fr_energy">    -68.24373285 </i>
    <i name="e_wo_entrp">    -68.24373285 </i>
    <i name="e_0_energy">    -68.24373285 </i>
   </energy>
  </scstep>
  <scstep>
   <time name="dav">    0.29    0.30</time>
   <time name="total">    0.47    0.48</time>
   <energy>
    <i name="e_fr_energy">    -64.51966897 </i>
    <i name="e_wo_entrp">    -64.51966897 </i>
    <i name="e_0_energy">    -64.51966897 </i>
   </energy>
  </scstep>
  <scstep>
   <time name="dav">    0.27    0.27</time>
   <time name="total">    0.45    0.46</time>
   <energy>
    <i name="e_fr_energy">    -63.82592694 </i>
    <i name="e_wo_entrp">    -63.82592694 </i>
    <i name="e_0_energy">    -63.82592694 </i>
   </energy>
  </scstep>
  <scstep>
   <time name="dav">    0.31    0.31</time>
   <time name="total">    0.49    0.50</time>
   <energy>
    <i name="e_fr_energy">    -63.80265762 </i>
    <i name="e_wo_entrp">    -63.80265762 </i>
    <i name="e_0_energy">    -63.80265762 </i>
   </energy>
  </scstep>
  <scstep>
   <time name="dav">    0.30    0.30</time>
   <time name="total">    0.48    0.49</time>
   <energy>
    <i name="e_fr_energy">    -63.79263753 </i>
    <i name="e_wo_entrp">    -63.79263753 </i>
    <i name="e_0_energy">    -63.79263753 </i>
   </energy>
  </scstep>
  <scstep>
   <time name="dav">    0.16    0.16</time>
   <time name="total">    0.34    0.34</time>
   <energy>
    <i name="e_fr_energy">    -63.79281885 </i>
    <i name="e_wo_entrp">    -63.79281885 </i>
    <i name="e_0_energy">    -63.79281885 </i>
   </energy>
  </scstep>
  <scstep>
   <time name="dav">    0.13    0.13</time>
   <time name="total">    0.29    0.29</time>
   <energy>
    <i name="alphaZ">     61.64562115 </i>
    <i name="ewald">  -1975.54758496 </i>
    <i name="hartreedc">   -396.58124637 </i>
    <i name="XCdc">   -251.50593064 </i>
    <i name="pawpsdc">   3956.27708364 </i>
    <i name="pawaedc">  -3569.84392062 </i>
    <i name="eentropy">     -0.00000000 </i>
    <i name="bandstr">   -180.01601401 </i>
    <i name="atom">   2291.77909288 </i>
    <i name="e_fr_energy">    -63.79289892 </i>
    <i name="e_wo_entrp">    -63.79289892 </i>
    <i name="e_0_energy">    -63.79289892 </i>
   </energy>
  </scstep>
  <structure>
   <crystal>
    <varray name="basis" >
     <v>       6.70540206       0.00000000       0.00000000 </v>
     <v>       0.00000000       7.01312982       0.00000000 </v>
     <v>       0.00000000       0.00000000       8.54856582 </v>
    </varray>
    <i name="volume">    402.00361805 </i>
    <varray name="rec_basis" >
     <v>       0.14913349       0.00000000       0.00000000 </v>
     <v>       0.00000000       0.14258969       0.00000000 </v>
     <v>       0.00000000       0.00000000       0.11697869 </v>
    </varray>
   </crystal>
   <varray name="positions" >
    <v>       0.11724477       0.91762602       0.37830943 </v>
    <v>       0.61724477       0.08237398       0.62169057 </v>
    <v>       0.61724477       0.58237398       0.87830943 </v>
    <v>       0.11724477       0.41762602       0.12169057 </v>
    <v>       0.62147483       0.57332589       0.37382659 </v>
    <v>       0.12147483       0.42667411       0.62617341 </v>
    <v>       0.12147483       0.92667411       0.87382659 </v>
    <v>       0.62147483       0.07332589       0.12617341 </v>
    <v>       0.98493943       0.56282883       0.38708844 </v>
    <v>       0.48493943       0.43717117       0.61291156 </v>
    <v>       0.48493943       0.93717117       0.88708844 </v>
    <v>       0.98493943       0.06282883       0.11291156 </v>
    <v>       0.01134198       0.59552332       0.86086674 </v>
    <v>       0.51134198       0.40447668       0.13913326 </v>
    <v>       0.51134198       0.90447668       0.36086674 </v>
    <v>       0.01134198       0.09552332       0.63913326 </v>
   </varray>
  </structure>
  <varray name="forces" >
   <v>      -0.05342508       0.05765746       0.03756713 </v>
   <v>      -0.05342508      -0.05765746      -0.03756713 </v>
   <v>      -0.05342508      -0.05765746       0.03756713 </v>
   <v>      -0.05342508       0.05765746      -0.03756713 </v>
   <v>      -0.00121247      -0.08718144       0.02912678 </v>
   <v>      -0.00121247       0.08718144      -0.02912678 </v>
   <v>      -0.00121247       0.08718144       0.02912678 </v>
   <v>      -0.00121247      -0.08718144      -0.02912678 </v>
   <v>      -0.46155814      -0.46750114       0.75526567 </v>
   <v>      -0.46155814       0.46750114      -0.75526567 </v>
   <v>      -0.46155814       0.46750114       0.75526567 </v>
   <v>      -0.46155814      -0.46750114      -0.75526567 </v>
   <v>       0.51619569       0.46571524      -0.69877231 </v>
   <v>       0.51619569      -0.46571524       0.69877231 </v>
   <v>       0.51619569      -0.46571524      -0.69877231 </v>
   <v>       0.51619569       0.46571524       0.69877231 </v>
  </varray>
  <varray name="stress" >
   <v>      25.99166829       0.00000000       0.00000000 </v>
   <v>       0.00000000      23.43590896       0.00000000 </v>
   <v>       0.00000000       0.00000000      32.82133888 </v>
  </varray>
  <energy>
   <i name="e_fr_energy">    -63.79289892 </i>
   <i name="e_wo_entrp">    -63.79289892 </i>
   <i name="e_0_energy">     -0.00000000 </i>
  </energy>
  <time name="totalsc">    3.49    3.71</time>
 </calculation>
 <calculation>
  <scstep>
   <time name="dav">    0.19    0.19</time>
   <time name="total">    0.37    0.43</time>
   <energy>
    <i name="alphaZ">     58.96886209 </i>
    <i name="ewald">  -1946.14050101 </i>
    <i name="hartreedc">   -391.15314323 </i>
    <i name="XCdc">   -252.78582243 </i>
    <i name="pawpsdc">   3952.87582069 </i>
    <i name="pawaedc">  -3566.44438128 </i>
    <i name="eentropy">     -0.00000000 </i>
    <i name="bandstr">   -211.48122884 </i>
    <i name="atom">   2291.77909288 </i>
    <i name="e_fr_energy">    -64.38130113 </i>
    <i name="e_wo_entrp">    -64.38130113 </i>
    <i name="e_0_energy">    -64.38130113 </i>
   </energy>
  </scstep>
  <scstep>
   <time name="dav">    0.20    0.20</time>
   <time name="total">    0.38    0.38</time>
   <energy>
    <i name="e_fr_energy">    -64.04898559 </i>
    <i name="e_wo_entrp">    -64.04898559 </i>
    <i name="e_0_energy">    -64.04898559 </i>
   </energy>
  </scstep>
  <scstep>
   <time name="dav">    0.20    0.20</time>
   <time name="total">    0.38    0.38</time>
   <energy>
    <i name="e_fr_energy">    -63.99075350 </i>
    <i name="e_wo_entrp">    -63.99075350 </i>
    <i name="e_0_energy">    -63.99075350 </i>
   </energy>
  </scstep>
  <scstep>
   <time name="dav">    0.24    0.24</time>
   <time name="total">    0.42    0.42</time>
   <energy>
    <i name="e_fr_energy">    -63.98869164 </i>
    <i name="e_wo_entrp">    -63.98869164 </i>
    <i name="e_0_energy">    -63.98869164 </i>
   </energy>
  </scstep>
  <scstep>
   <time name="dav">    0.29    0.29</time>
   <time name="total">    0.47    0.47</time>
   <energy>
    <i name="e_fr_energy">    -63.98766840 </i>
    <i name="e_wo_entrp">    -63.98766840 </i>
    <i name="e_0_energy">    -63.98766840 </i>
   </energy>
  </scstep>
  <scstep>
   <time name="dav">    0.18    0.18</time>
   <time name="total">    0.35    0.35</time>
   <energy>
    <i name="alphaZ">     58.96886209 </i>
    <i name="ewald">  -1946.14050101 </i>
    <i name="hartreedc">   -408.73772330 </i>
    <i name="XCdc">   -252.41122986 </i>
    <i name="pawpsdc">   3823.50702709 </i>
    <i name="pawaedc">  -3436.92537293 </i>
    <i name="eentropy">     -0.00000000 </i>
    <i name="bandstr">   -194.02784517 </i>
    <i name="atom">   2291.77909288 </i>
    <i name="e_fr_energy">    -63.98769020 </i>
    <i name="e_wo_entrp">    -63.98769020 </i>
    <i name="e_0_energy">    -63.98769020 </i>
   </energy>
  </scstep>
  <structure>
   <crystal>
    <varray name="basis" >
     <v>       6.80299041       0.00000000       0.00000000 </v>
     <v>       0.00000000       7.11398635       0.00000000 </v>
     <v>       0.00000000       0.00000000       8.68353504 </v>
    </varray>
    <i name="volume">    420.25166942 </i>
    <varray name="rec_basis" >
     <v>       0.14699418       0.00000000       0.00000000 </v>
     <v>       0.00000000       0.14056816       0.00000000 </v>
     <v>       0.00000000       0.00000000       0.11516047 </v>
    </varray>
   </crystal>
   <varray name="positions" >
    <v>       0.11714094       0.91780729       0.37841972 </v>
    <v>       0.61714094       0.08219271       0.62158028 </v>
    <v>       0.61714094       0.58219271       0.87841972 </v>
    <v>       0.11714094       0.41780729       0.12158028 </v>
    <v>       0.62149337       0.57324641       0.37381688 </v>
    <v>       0.12149337       0.42675359       0.62618312 </v>
    <v>       0.12149337       0.92675359       0.87381688 </v>
    <v>       0.62149337       0.07324641       0.12618312 </v>
    <v>       0.98483943       0.56253371       0.38720243 </v>
    <v>       0.48483943       0.43746629       0.61279757 </v>
    <v>       0.48483943       0.93746629       0.88720243 </v>
    <v>       0.98483943       0.06253371       0.11279757 </v>
    <v>       0.01152727       0.59557409       0.86079007 </v>
    <v>       0.51152727       0.40442591       0.13920993 </v>
    <v>       0.51152727       0.90442591       0.36079007 </v>
    <v>       0.01152727       0.09557409       0.63920993 </v>
   </varray>
  </structure>
  <varray name="forces" >
   <v>      -0.05761795       0.04504065       0.03124357 </v>
   <v>      -0.05761795      -0.04504065      -0.03124357 </v>
   <v>      -0.05761795      -0.04504065       0.03124357 </v>
   <v>      -0.05761795       0.04504065      -0.03124357 </v>
   <v>      -0.01319738      -0.08361442       0.04005146 </v>
   <v>      -0.01319738       0.08361442      -0.04005146 </v>
   <v>      -0.01319738       0.08361442       0.04005146 </v>
   <v>      -0.01319738      -0.08361442      -0.04005146 </v>
   <v>      -0.50482512      -0.48937399       0.82053791 </v>
   <v>      -0.50482512       0.48937399      -0.82053791 </v>
   <v>      -0.50482512       0.48937399       0.82053791 </v>
   <v>      -0.50482512      -0.48937399      -0.82053791 </v>
   <v>       0.57564046       0.39919408      -0.76640156 </v>
   <v>       0.57564046      -0.39919408       0.76640156 </v>
   <v>       0.57564046      -0.39919408      -0.76640156 </v>
   <v>       0.57564046       0.39919408       0.76640156 </v>
  </varray>
  <varray name="stress" >
   <v>       4.98074489       0.00000000       0.00000000 </v>
   <v>       0.00000000       2.25809268       0.00000000 </v>
   <v>       0.00000000       0.00000000       8.37143049 </v>
  </varray>
  <energy>
   <i name="e_fr_energy">    -63.98769020 </i>
   <i name="e_wo_entrp">    -63.98769020 </i>
   <i name="e_0_energy">     -0.00000000 </i>
  </energy>
  <time name="totalsc">    2.92    3.07</time>
 </calculation>
 <calculation>
  <scstep>
   <time name="dav">    0.23    0.23</time>
   <time name="total">    0.42    0.45</time>
   <energy>
    <i name="alphaZ">     58.13142209 </i>
    <i name="ewald">  -1936.75968397 </i>
    <i name="hartreedc">   -406.87305894 </i>
    <i name="XCdc">   -252.82343079 </i>
    <i name="pawpsdc">   3826.49051657 </i>
    <i name="pawaedc">  -3439.90736580 </i>
    <i name="eentropy">     -0.00000000 </i>
    <i name="bandstr">   -204.07878675 </i>
    <i name="atom">   2291.77909288 </i>
    <i name="e_fr_energy">    -64.04129471 </i>
    <i name="e_wo_entrp">    -64.04129471 </i>
    <i name="e_0_energy">    -64.04129471 </i>
   </energy>
  </scstep>
  <scstep>
   <time name="dav">    0.24    0.24</time>
   <time name="total">    0.43    0.43</time>
   <energy>
    <i name="e_fr_energy">    -64.00591073 </i>
    <i name="e_wo_entrp">    -64.00591073 </i>
    <i name="e_0_energy">    -64.00591073 </i>
   </energy>
  </scstep>
  <scstep>
   <time name="dav">    0.29    0.29</time>
   <time name="total">    0.47    0.47</time>
   <energy>
    <i name="e_fr_energy">    -63.99979537 </i>
    <i name="e_wo_entrp">    -63.99979537 </i>
    <i name="e_0_energy">    -63.99979537 </i>
   </energy>
  </scstep>
  <scstep>
   <time name="dav">    0.29    0.29</time>
   <time name="total">    0.48    0.48</time>
   <energy>
    <i name="e_fr_energy">    -63.99957131 </i>
    <i name="e_wo_entrp">    -63.99957131 </i>
    <i name="e_0_energy">    -63.99957131 </i>
   </energy>
  </scstep>
  <scstep>
   <time name="dav">    0.29    0.29</time>
   <time name="total">    0.47    0.47</time>
   <energy>
    <i name="e_fr_energy">    -63.99945163 </i>
    <i name="e_wo_entrp">    -63.99945163 </i>
    <i name="e_0_energy">    -63.99945163 </i>
   </energy>
  </scstep>
  <scstep>
   <time name="dav">    0.20    0.20</time>
   <time name="total">    0.37    0.37</time>
   <energy>
    <i name="alphaZ">     58.13142209 </i>
    <i name="ewald">  -1936.75968397 </i>
    <i name="hartreedc">   -412.66005321 </i>
    <i name="XCdc">   -252.69845291 </i>
    <i name="pawpsdc">   3786.64098938 </i>
    <i name="pawaedc">  -3400.01279979 </i>
    <i name="eentropy">     -0.00000000 </i>
    <i name="bandstr">   -198.41996772 </i>
    <i name="atom">   2291.77909288 </i>
    <i name="e_fr_energy">    -63.99945326 </i>
    <i name="e_wo_entrp">    -63.99945326 </i>
    <i name="e_0_energy">    -63.99945326 </i>
   </energy>
  </scstep>
  <structure>
   <crystal>
    <varray name="basis" >
     <v>       6.83474250       0.00000000       0.00000000 </v>
     <v>       0.00000000       7.14680180       0.00000000 </v>
     <v>       0.00000000       0.00000000       8.72744966 </v>
    </varray>
    <i name="volume">    426.30580588 </i>
    <varray name="rec_basis" >
     <v>       0.14631129       0.00000000       0.00000000 </v>
     <v>       0.00000000       0.13992273       0.00000000 </v>
     <v>       0.00000000       0.00000000       0.11458101 </v>
    </varray>
   </crystal>
   <varray name="positions" >
    <v>       0.11710764       0.91786543       0.37845505 </v>
    <v>       0.61710764       0.08213457       0.62154495 </v>
    <v>       0.61710764       0.58213457       0.87845505 </v>
    <v>       0.11710764       0.41786543       0.12154495 </v>
    <v>       0.62149932       0.57322092       0.37381377 </v>
    <v>       0.12149932       0.42677908       0.62618623 </v>
    <v>       0.12149932       0.92677908       0.87381377 </v>
    <v>       0.62149932       0.07322092       0.12618623 </v>
    <v>       0.98480736       0.56243904       0.38723894 </v>
    <v>       0.48480736       0.43756096       0.61276106 </v>
    <v>       0.48480736       0.93756096       0.88723894 </v>
    <v>       0.98480736       0.06243904       0.11276106 </v>
    <v>       0.01158670       0.59559037       0.86076551 </v>
    <v>       0.51158670       0.40440963       0.13923449 </v>
    <v>       0.51158670       0.90440963       0.36076551 </v>
    <v>       0.01158670       0.09559037       0.63923449 </v>
   </varray>
  </structure>
  <varray name="forces" >
   <v>      -0.06504308       0.03396654       0.02584026 </v>
   <v>      -0.06504308      -0.03396654      -0.02584026 </v>
   <v>      -0.06504308      -0.03396654       0.02584026 </v>
   <v>      -0.06504308       0.03396654      -0.02584026 </v>
   <v>      -0.02251122      -0.08063830       0.04218638 </v>
   <v>      -0.02251122       0.08063830      -0.04218638 </v>
   <v>      -0.02251122       0.08063830       0.04218638 </v>
   <v>      -0.02251122      -0.08063830      -0.04218638 </v>
   <v>      -0.51273102      -0.45655537       0.83512368 </v>
   <v>      -0.51273102       0.45655537      -0.83512368 </v>
   <v>      -0.51273102       0.45655537       0.83512368 </v>
   <v>      -0.51273102      -0.45655537      -0.83512368 </v>
   <v>       0.60028532       0.49294927      -0.78167838 </v>
   <v>       0.60028532      -0.49294927       0.78167838 </v>
   <v>       0.60028532      -0.49294927      -0.78167838 </v>
   <v>       0.60028532       0.49294927       0.78167838 </v>
  </varray>
  <varray name="stress" >
   <v>      -1.25919388       0.00000000       0.00000000 </v>
   <v>       0.00000000      -4.49989670       0.00000000 </v>
   <v>       0.00000000       0.00000000       1.13491467 </v>
  </varray>
  <energy>
   <i name="e_fr_energy">    -63.99945326 </i>
   <i name="e_wo_entrp">    -63.99945326 </i>
   <i name="e_0_energy">     -0.00000000 </i>
  </energy>
  <time name="totalsc">    3.19    3.36</time>
 </calculation>
 <calculation>
  <scstep>
   <time name="dav">    0.21    0.21</time>
   <time name="total">    0.40    0.43</time>
   <energy>
    <i name="alphaZ">     58.01204817 </i>
    <i name="ewald">  -1931.38247422 </i>
    <i name="hartreedc">   -415.83721711 </i>
    <i name="XCdc">   -252.64017435 </i>
    <i name="pawpsdc">   3787.79217742 </i>
    <i name="pawaedc">  -3401.16349669 </i>
    <i name="eentropy">     -0.00000000 </i>
    <i name="bandstr">   -200.68564918 </i>
    <i name="atom">   2291.77909288 </i>
    <i name="e_fr_energy">    -64.12569308 </i>
    <i name="e_wo_entrp">    -64.12569308 </i>
    <i name="e_0_energy">    -64.12569308 </i>
   </energy>
  </scstep>
  <scstep>
   <time name="dav">    0.21    0.21</time>
   <time name="total">    0.39    0.39</time>
   <energy>
    <i name="e_fr_energy">    -64.13410441 </i>
    <i name="e_wo_entrp">    -64.13410441 </i>
    <i name="e_0_energy">    -64.13410441 </i>
   </energy>
  </scstep>
  <scstep>
   <time name="dav">    0.20    0.20</time>
   <time name="total">    0.38    0.38</time>
   <energy>
    <i name="e_fr_energy">    -64.13346055 </i>
    <i name="e_wo_entrp">    -64.13346055 </i>
    <i name="e_0_energy">    -64.13346055 </i>
   </energy>
  </scstep>
  <scstep>
   <time name="dav">    0.28    0.28</time>
   <time name="total">    0.46    0.46</time>
   <energy>
    <i name="e_fr_energy">    -64.13312531 </i>
    <i name="e_wo_entrp">    -64.13312531 </i>
    <i name="e_0_energy">    -64.13312531 </i>
   </energy>
  </scstep>
  <scstep>
   <time name="dav">    0.17    0.17</time>
   <time name="total">    0.34    0.34</time>
   <energy>
    <i name="alphaZ">     58.01204817 </i>
    <i name="ewald">  -1931.38247422 </i>
    <i name="hartreedc">   -417.03299797 </i>
    <i name="XCdc">   -252.62711589 </i>
    <i name="pawpsdc">   3803.91819467 </i>
    <i name="pawaedc">  -3417.30337260 </i>
    <i name="eentropy">     -0.00000000 </i>
    <i name="bandstr">   -199.49651096 </i>
    <i name="atom">   2291.77909288 </i>
    <i name="e_fr_energy">    -64.13313591 </i>
    <i name="e_wo_entrp">    -64.13313591 </i>
    <i name="e_0_energy">    -64.13313591 </i>
   </energy>
  </scstep>
  <structure>
   <crystal>
    <varray name="basis" >
     <v>       6.83971257       0.00000000       0.00000000 </v>
     <v>       0.00000000       7.14624240       0.00000000 </v>
     <v>       0.00000000       0.00000000       8.73973774 </v>
    </varray>
    <i name="volume">    427.18303390 </i>
    <varray name="rec_basis" >
     <v>       0.14620497       0.00000000       0.00000000 </v>
     <v>       0.00000000       0.13993368       0.00000000 </v>
     <v>       0.00000000       0.00000000       0.11441991 </v>
    </varray>
   </crystal>
   <varray name="positions" >
    <v>       0.11696105       0.91794700       0.37850568 </v>
    <v>       0.61696105       0.08205300       0.62149432 </v>
    <v>       0.61696105       0.58205300       0.87850568 </v>
    <v>       0.11696105       0.41794700       0.12149432 </v>
    <v>       0.62145210       0.57304993       0.37388420 </v>
    <v>       0.12145210       0.42695007       0.62611580 </v>
    <v>       0.12145210       0.92695007       0.87388420 </v>
    <v>       0.62145210       0.07304993       0.12611580 </v>
    <v>       0.98369816       0.56148094       0.38865288 </v>
    <v>       0.48369816       0.43851906       0.61134712 </v>
    <v>       0.48369816       0.93851906       0.88865288 </v>
    <v>       0.98369816       0.06148094       0.11134712 </v>
    <v>       0.01288970       0.59660755       0.85944399 </v>
    <v>       0.51288970       0.40339245       0.14055601 </v>
    <v>       0.51288970       0.90339245       0.35944399 </v>
    <v>       0.01288970       0.09660755       0.64055601 </v>
   </varray>
  </structure>
  <varray name="forces" >
   <v>      -0.02756068       0.04250823       0.02199651 </v>
   <v>      -0.02756068      -0.04250823      -0.02199651 </v>
   <v>      -0.02756068      -0.04250823       0.02199651 </v>
   <v>      -0.02756068       0.04250823      -0.02199651 </v>
   <v>       0.02000078      -0.09287011       0.03575543 </v>
   <v>       0.02000078       0.09287011      -0.03575543 </v>
   <v>       0.02000078       0.09287011       0.03575543 </v>
   <v>       0.02000078      -0.09287011      -0.03575543 </v>
   <v>      -0.50982168      -0.42820389       0.73041729 </v>
   <v>      -0.50982168       0.42820389      -0.73041729 </v>
   <v>      -0.50982168       0.42820389       0.73041729 </v>
   <v>      -0.50982168      -0.42820389      -0.73041729 </v>
   <v>       0.51738158       0.38359350      -0.70485438 </v>
   <v>       0.51738158      -0.38359350       0.70485438 </v>
   <v>       0.51738158      -0.38359350      -0.70485438 </v>
   <v>       0.51738158       0.38359350       0.70485438 </v>
  </varray>
  <varray name="stress" >
   <v>      -2.05343095       0.00000000       0.00000000 </v>
   <v>       0.00000000      -3.17258376       0.00000000 </v>
   <v>       0.00000000       0.00000000       2.21977587 </v>
  </varray>
  <energy>
   <i name="e_fr_energy">    -64.13313591 </i>
   <i name="e_wo_entrp">    -64.13313591 </i>
   <i name="e_0_energy">     -0.00000000 </i>
  </energy>
  <time name="totalsc">    2.48    2.59</time>
 </calculation>
 <calculation>
  <scstep>
   <time name="dav">    0.15    0.15</time>
   <time name="total">    0.33    0.36</time>
   <energy>
    <i name="alphaZ">     57.65626241 </i>
    <i name="ewald">  -1914.64036205 </i>
    <i name="hartreedc">   -427.07357561 </i>
    <i name="XCdc">   -252.46273187 </i>
    <i name="pawpsdc">   3805.03327882 </i>
    <i name="pawaedc">  -3418.41840614 </i>
    <i name="eentropy">     -0.00000000 </i>
    <i name="bandstr">   -206.26252451 </i>
    <i name="atom">   2291.77909288 </i>
    <i name="e_fr_energy">    -64.38896607 </i>
    <i name="e_wo_entrp">    -64.38896607 </i>
    <i name="e_0_energy">    -64.38896607 </i>
   </energy>
  </scstep>
  <scstep>
   <time name="dav">    0.19    0.19</time>
   <time name="total">    0.37    0.37</time>
   <energy>
    <i name="e_fr_energy">    -64.46688513 </i>
    <i name="e_wo_entrp">    -64.46688513 </i>
    <i name="e_0_energy">    -64.46688513 </i>
   </energy>
  </scstep>
  <scstep>
   <time name="dav">    0.20    0.20</time>
   <time name="total">    0.37    0.37</time>
   <energy>
    <i name="e_fr_energy">    -64.46097023 </i>
    <i name="e_wo_entrp">    -64.46097023 </i>
    <i name="e_0_energy">    -64.46097023 </i>
   </energy>
  </scstep>
  <scstep>
   <time name="dav">    0.26    0.26</time>
   <time name="total">    0.44    0.44</time>
   <energy>
    <i name="e_fr_energy">    -64.45767644 </i>
    <i name="e_wo_entrp">    -64.45767644 </i>
    <i name="e_0_energy">    -64.45767644 </i>
   </energy>
  </scstep>
  <scstep>
   <time name="dav">    0.27    0.27</time>
   <time name="total">    0.45    0.45</time>
   <energy>
    <i name="e_fr_energy">    -64.45776721 </i>
    <i name="e_wo_entrp">    -64.45776721 </i>
    <i name="e_0_energy">    -64.45776721 </i>
   </energy>
  </scstep>
  <scstep>
   <time name="dav">    0.22    0.22</time>
   <time name="total">    0.39    0.39</time>
   <energy>
    <i name="alphaZ">     57.65626241 </i>
    <i name="ewald">  -1914.64036205 </i>
    <i name="hartreedc">   -430.78902228 </i>
    <i name="XCdc">   -252.41016747 </i>
    <i name="pawpsdc">   3859.09867836 </i>
    <i name="pawaedc">  -3472.52552632 </i>
    <i name="eentropy">     -0.00000000 </i>
    <i name="bandstr">   -202.62671928 </i>
    <i name="atom">   2291.77909288 </i>
    <i name="e_fr_energy">    -64.45776376 </i>
    <i name="e_wo_entrp">    -64.45776376 </i>
    <i name="e_0_energy">    -64.45776376 </i>
   </energy>
  </scstep>
  <structure>
   <crystal>
    <varray name="basis" >
     <v>       6.85462280       0.00000000       0.00000000 </v>
     <v>       0.00000000       7.14456422       0.00000000 </v>
     <v>       0.00000000       0.00000000       8.77660198 </v>
    </varray>
    <i name="volume">    429.81909866 </i>
    <varray name="rec_basis" >
     <v>       0.14588695       0.00000000       0.00000000 </v>
     <v>       0.00000000       0.13996655       0.00000000 </v>
     <v>       0.00000000       0.00000000       0.11393931 </v>
    </varray>
   </crystal>
   <varray name="positions" >
    <v>       0.11652159       0.91819172       0.37865736 </v>
    <v>       0.61652159       0.08180828       0.62134264 </v>
    <v>       0.61652159       0.58180828       0.87865736 </v>
    <v>       0.11652159       0.41819172       0.12134264 </v>
    <v>       0.62131055       0.57253693       0.37409518 </v>
    <v>       0.12131055       0.42746307       0.62590482 </v>
    <v>       0.12131055       0.92746307       0.87409518 </v>
    <v>       0.62131055       0.07253693       0.12590482 </v>
    <v>       0.98037301       0.55860641       0.39288872 </v>
    <v>       0.48037301       0.44139359       0.60711128 </v>
    <v>       0.48037301       0.94139359       0.89288872 </v>
    <v>       0.98037301       0.05860641       0.10711128 </v>
    <v>       0.01679586       0.59965931       0.85548503 </v>
    <v>       0.51679586       0.40034069       0.14451497 </v>
    <v>       0.51679586       0.90034069       0.35548503 </v>
    <v>       0.01679586       0.09965931       0.64451497 </v>
   </varray>
  </structure>
  <varray name="forces" >
   <v>      -0.02992676       0.05566855       0.01172044 </v>
   <v>      -0.02992676      -0.05566855      -0.01172044 </v>
   <v>      -0.02992676      -0.05566855       0.01172044 </v>
   <v>      -0.02992676       0.05566855      -0.01172044 </v>
   <v>       0.05050670      -0.12931875       0.01312813 </v>
   <v>       0.05050670       0.12931875      -0.01312813 </v>
   <v>       0.05050670       0.12931875       0.01312813 </v>
   <v>       0.05050670      -0.12931875      -0.01312813 </v>
   <v>      -0.39004221      -0.32235606       0.42565947 </v>
   <v>      -0.39004221       0.32235606      -0.42565947 </v>
   <v>      -0.39004221       0.32235606       0.42565947 </v>
   <v>      -0.39004221      -0.32235606      -0.42565947 </v>
   <v>       0.36946228       0.24044328      -0.47265574 </v>
   <v>       0.36946228      -0.24044328       0.47265574 </v>
   <v>       0.36946228      -0.24044328      -0.47265574 </v>
   <v>       0.36946228       0.24044328       0.47265574 </v>
  </varray>
  <varray name="stress" >
   <v>      -2.71405289       0.00000000       0.00000000 </v>
   <v>       0.00000000      -2.66132949       0.00000000 </v>
   <v>       0.00000000       0.00000000       2.79970317 </v>
  </varray>
  <energy>
   <i name="e_fr_energy">    -64.45776376 </i>
   <i name="e_wo_entrp">    -64.45776376 </i>
   <i name="e_0_energy">     -0.00000000 </i>
  </energy>
  <time name="totalsc">    2.91    3.10</time>
 </calculation>
 <calculation>
  <scstep>
   <time name="dav">    0.23    0.23</time>
   <time name="total">    0.42    0.45</time>
   <energy>
    <i name="alphaZ">     56.95504626 </i>
    <i name="ewald">  -1878.64014261 </i>
    <i name="hartreedc">   -452.81897136 </i>
    <i name="XCdc">   -252.12317260 </i>
    <i name="pawpsdc">   3861.96512012 </i>
    <i name="pawaedc">  -3475.39140808 </i>
    <i name="eentropy">     -0.00000000 </i>
    <i name="bandstr">   -216.20118361 </i>
    <i name="atom">   2291.77909288 </i>
    <i name="e_fr_energy">    -64.47561900 </i>
    <i name="e_wo_entrp">    -64.47561900 </i>
    <i name="e_0_energy">    -64.47561900 </i>
   </energy>
  </scstep>
  <scstep>
   <time name="dav">    0.28    0.28</time>
   <time name="total">    0.46    0.46</time>
   <energy>
    <i name="e_fr_energy">    -64.81094757 </i>
    <i name="e_wo_entrp">    -64.81094757 </i>
    <i name="e_0_energy">    -64.81094757 </i>
   </energy>
  </scstep>
  <scstep>
   <time name="dav">    0.26    0.26</time>
   <time name="total">    0.44    0.44</time>
   <energy>
    <i name="e_fr_energy">    -64.78552408 </i>
    <i name="e_wo_entrp">    -64.78552408 </i>
    <i name="e_0_energy">    -64.78552408 </i>
   </energy>
  </scstep>
  <scstep>
   <time name="dav">    0.26    0.26</time>
   <time name="total">    0.44    0.44</time>
   <energy>
    <i name="e_fr_energy">    -64.77000302 </i>
    <i name="e_wo_entrp">    -64.77000302 </i>
    <i name="e_0_energy">    -64.77000302 </i>
   </energy>
  </scstep>
  <scstep>
   <time name="dav">    0.29    0.29</time>
   <time name="total">    0.47    0.48</time>
   <energy>
    <i name="e_fr_energy">    -64.77024543 </i>
    <i name="e_wo_entrp">    -64.77024543 </i>
    <i name="e_0_energy">    -64.77024543 </i>
   </energy>
  </scstep>
  <scstep>
   <time name="dav">    0.21    0.21</time>
   <time name="total">    0.38    0.38</time>
   <energy>
    <i name="alphaZ">     56.95504626 </i>
    <i name="ewald">  -1878.64014261 </i>
    <i name="hartreedc">   -460.81298917 </i>
    <i name="XCdc">   -251.96636721 </i>
    <i name="pawpsdc">   3975.87686016 </i>
    <i name="pawaedc">  -3589.39572789 </i>
    <i name="eentropy">     -0.00000000 </i>
    <i name="bandstr">   -208.56601279 </i>
    <i name="atom">   2291.77909288 </i>
    <i name="e_fr_energy">    -64.77024036 </i>
    <i name="e_wo_entrp">    -64.77024036 </i>
    <i name="e_0_energy">    -64.77024036 </i>
   </energy>
  </scstep>
  <structure>
   <crystal>
    <varray name="basis" >
     <v>       6.88444324       0.00000000       0.00000000 </v>
     <v>       0.00000000       7.14120786       0.00000000 </v>
     <v>       0.00000000       0.00000000       8.85033047 </v>
    </varray>
    <i name="volume">    435.11092287 </i>
    <varray name="rec_basis" >
     <v>       0.14525503       0.00000000       0.00000000 </v>
     <v>       0.00000000       0.14003233       0.00000000 </v>
     <v>       0.00000000       0.00000000       0.11299013 </v>
    </varray>
   </crystal>
   <varray name="positions" >
    <v>       0.11564459       0.91868128       0.37895945 </v>
    <v>       0.61564459       0.08131872       0.62104055 </v>
    <v>       0.61564459       0.58131872       0.87895945 </v>
    <v>       0.11564459       0.41868128       0.12104055 </v>
    <v>       0.62102806       0.57151067       0.37451538 </v>
    <v>       0.12102806       0.42848933       0.62548462 </v>
    <v>       0.12102806       0.92848933       0.87451538 </v>
    <v>       0.62102806       0.07151067       0.12548462 </v>
    <v>       0.97373716       0.55285601       0.40132483 </v>
    <v>       0.47373716       0.44714399       0.59867517 </v>
    <v>       0.47373716       0.94714399       0.90132483 </v>
    <v>       0.97373716       0.05285601       0.09867517 </v>
    <v>       0.02459120       0.60576428       0.84760035 </v>
    <v>       0.52459120       0.39423572       0.15239965 </v>
    <v>       0.52459120       0.89423572       0.34760035 </v>
    <v>       0.02459120       0.10576428       0.65239965 </v>
   </varray>
  </structure>
  <varray name="forces" >
   <v>      -0.02723403       0.05881847      -0.00433699 </v>
   <v>      -0.02723403      -0.05881847       0.00433699 </v>
   <v>      -0.02723403      -0.05881847      -0.00433699 </v>
   <v>      -0.02723403       0.05881847       0.00433699 </v>
   <v>       0.14441265      -0.19721805      -0.04158577 </v>
   <v>       0.14441265       0.19721805       0.04158577 </v>
   <v>       0.14441265       0.19721805      -0.04158577 </v>
   <v>       0.14441265      -0.19721805       0.04158577 </v>
   <v>      -0.19634836      -0.11651863      -0.02254391 </v>
   <v>      -0.19634836       0.11651863       0.02254391 </v>
   <v>      -0.19634836       0.11651863      -0.02254391 </v>
   <v>      -0.19634836      -0.11651863       0.02254391 </v>
   <v>       0.07916974      -0.03622945      -0.03044706 </v>
   <v>       0.07916974       0.03622945       0.03044706 </v>
   <v>       0.07916974       0.03622945      -0.03044706 </v>
   <v>       0.07916974      -0.03622945       0.03044706 </v>
  </varray>
  <varray name="stress" >
   <v>      -3.00939821       0.00000000       0.00000000 </v>
   <v>       0.00000000       1.07791671       0.00000000 </v>
   <v>       0.00000000       0.00000000       9.62301036 </v>
  </varray>
  <energy>
   <i name="e_fr_energy">    -64.77024036 </i>
   <i name="e_wo_entrp">    -64.77024036 </i>
   <i name="e_0_energy">     -0.00000000 </i>
  </energy>
  <time name="totalsc">    3.13    3.25</time>
 </calculation>
 <calculation>
  <scstep>
   <time name="dav">    0.18    0.18</time>
   <time name="total">    0.37    0.40</time>
   <energy>
    <i name="alphaZ">     56.80455535 </i>
    <i name="ewald">  -1870.44371166 </i>
    <i name="hartreedc">   -465.97388871 </i>
    <i name="XCdc">   -251.89680761 </i>
    <i name="pawpsdc">   3982.24081277 </i>
    <i name="pawaedc">  -3595.75823291 </i>
    <i name="eentropy">     -0.00000000 </i>
    <i name="bandstr">   -211.52265271 </i>
    <i name="atom">   2291.77909288 </i>
    <i name="e_fr_energy">    -64.77083260 </i>
    <i name="e_wo_entrp">    -64.77083260 </i>
    <i name="e_0_energy">    -64.77083260 </i>
   </energy>
  </scstep>
  <scstep>
   <time name="dav">    0.29    0.29</time>
   <time name="total">    0.47    0.47</time>
   <energy>
    <i name="e_fr_energy">    -64.78539872 </i>
    <i name="e_wo_entrp">    -64.78539872 </i>
    <i name="e_0_energy">    -64.78539872 </i>
   </energy>
  </scstep>
  <scstep>
   <time name="dav">    0.23    0.23</time>
   <time name="total">    0.41    0.41</time>
   <energy>
    <i name="e_fr_energy">    -64.78425677 </i>
    <i name="e_wo_entrp">    -64.78425677 </i>
    <i name="e_0_energy">    -64.78425677 </i>
   </energy>
  </scstep>
  <scstep>
   <time name="dav">    0.23    0.23</time>
   <time name="total">    0.41    0.41</time>
   <energy>
    <i name="e_fr_energy">    -64.78366335 </i>
    <i name="e_wo_entrp">    -64.78366335 </i>
    <i name="e_0_energy">    -64.78366335 </i>
   </energy>
  </scstep>
  <scstep>
   <time name="dav">    0.22    0.22</time>
   <time name="total">    0.38    0.38</time>
   <energy>
    <i name="alphaZ">     56.80455535 </i>
    <i name="ewald">  -1870.44371166 </i>
    <i name="hartreedc">   -467.69675271 </i>
    <i name="XCdc">   -251.86703890 </i>
    <i name="pawpsdc">   4009.30218465 </i>
    <i name="pawaedc">  -3622.84046574 </i>
    <i name="eentropy">     -0.00000000 </i>
    <i name="bandstr">   -209.82155143 </i>
    <i name="atom">   2291.77909288 </i>
    <i name="e_fr_energy">    -64.78368755 </i>
    <i name="e_wo_entrp">    -64.78368755 </i>
    <i name="e_0_energy">    -64.78368755 </i>
   </energy>
  </scstep>
  <structure>
   <crystal>
    <varray name="basis" >
     <v>       6.89091954       0.00000000       0.00000000 </v>
     <v>       0.00000000       7.14047894       0.00000000 </v>
     <v>       0.00000000       0.00000000       8.86634259 </v>
    </varray>
    <i name="volume">    436.26365150 </i>
    <varray name="rec_basis" >
     <v>       0.14511851       0.00000000       0.00000000 </v>
     <v>       0.00000000       0.14004663       0.00000000 </v>
     <v>       0.00000000       0.00000000       0.11278608 </v>
    </varray>
   </crystal>
   <varray name="positions" >
    <v>       0.11545495       0.91878765       0.37902451 </v>
    <v>       0.61545495       0.08121235       0.62097549 </v>
    <v>       0.61545495       0.58121235       0.87902451 </v>
    <v>       0.11545495       0.41878765       0.12097549 </v>
    <v>       0.62096698       0.57128769       0.37460588 </v>
    <v>       0.12096698       0.42871231       0.62539412 </v>
    <v>       0.12096698       0.92871231       0.87460588 </v>
    <v>       0.62096698       0.07128769       0.12539412 </v>
    <v>       0.97230225       0.55160657       0.40314169 </v>
    <v>       0.47230225       0.44839343       0.59685831 </v>
    <v>       0.47230225       0.94839343       0.90314169 </v>
    <v>       0.97230225       0.05160657       0.09685831 </v>
    <v>       0.02627683       0.60709077       0.84590224 </v>
    <v>       0.52627683       0.39290923       0.15409776 </v>
    <v>       0.52627683       0.89290923       0.34590224 </v>
    <v>       0.02627683       0.10709077       0.65409776 </v>
   </varray>
  </structure>
  <varray name="forces" >
   <v>      -0.01269804       0.05221173      -0.00730059 </v>
   <v>      -0.01269804      -0.05221173       0.00730059 </v>
   <v>      -0.01269804      -0.05221173      -0.00730059 </v>
   <v>      -0.01269804       0.05221173       0.00730059 </v>
   <v>       0.18539774      -0.21123251      -0.05492074 </v>
   <v>       0.18539774       0.21123251       0.05492074 </v>
   <v>       0.18539774       0.21123251      -0.05492074 </v>
   <v>       0.18539774      -0.21123251       0.05492074 </v>
   <v>      -0.17010648      -0.09129318      -0.13832558 </v>
   <v>      -0.17010648       0.09129318       0.13832558 </v>
   <v>      -0.17010648       0.09129318      -0.13832558 </v>
   <v>      -0.17010648      -0.09129318       0.13832558 </v>
   <v>      -0.00259322      -0.10047215       0.00363665 </v>
   <v>      -0.00259322       0.10047215      -0.00363665 </v>
   <v>      -0.00259322       0.10047215       0.00363665 </v>
   <v>      -0.00259322      -0.10047215      -0.00363665 </v>
  </varray>
  <varray name="stress" >
   <v>      -0.52878868       0.00000000       0.00000000 </v>
   <v>       0.00000000       2.94148078       0.00000000 </v>
   <v>       0.00000000       0.00000000      11.67971141 </v>
  </varray>
  <energy>
   <i name="e_fr_energy">    -64.78368755 </i>
   <i name="e_wo_entrp">    -64.78368755 </i>
   <i name="e_0_energy">     -0.00000000 </i>
  </energy>
  <time name="totalsc">    2.59    2.72</time>
 </calculation>
 <calculation>
  <scstep>
   <time name="dav">    0.22    0.22</time>
   <time name="total">    0.41    0.45</time>
   <energy>
    <i name="alphaZ">     56.14704325 </i>
    <i name="ewald">  -1861.18899534 </i>
    <i name="hartreedc">   -467.66466304 </i>
    <i name="XCdc">   -252.16363911 </i>
    <i name="pawpsdc">   4010.79491747 </i>
    <i name="pawaedc">  -3624.33303248 </i>
    <i name="eentropy">     -0.00000000 </i>
    <i name="bandstr">   -218.22574930 </i>
    <i name="atom">   2291.77909288 </i>
    <i name="e_fr_energy">    -64.85502567 </i>
    <i name="e_wo_entrp">    -64.85502567 </i>
    <i name="e_0_energy">    -64.85502567 </i>
   </energy>
  </scstep>
  <scstep>
   <time name="dav">    0.25    0.25</time>
   <time name="total">    0.43    0.43</time>
   <energy>
    <i name="e_fr_energy">    -64.83128835 </i>
    <i name="e_wo_entrp">    -64.83128835 </i>
    <i name="e_0_energy">    -64.83128835 </i>
   </energy>
  </scstep>
  <scstep>
   <time name="dav">    0.25    0.25</time>
   <time name="total">    0.43    0.43</time>
   <energy>
    <i name="e_fr_energy">    -64.82323326 </i>
    <i name="e_wo_entrp">    -64.82323326 </i>
    <i name="e_0_energy">    -64.82323326 </i>
   </energy>
  </scstep>
  <scstep>
   <time name="dav">    0.21    0.21</time>
   <time name="total">    0.39    0.39</time>
   <energy>
    <i name="e_fr_energy">    -64.82244964 </i>
    <i name="e_wo_entrp">    -64.82244964 </i>
    <i name="e_0_energy">    -64.82244964 </i>
   </energy>
  </scstep>
  <scstep>
   <time name="dav">    0.25    0.25</time>
   <time name="total">    0.42    0.42</time>
   <energy>
    <i name="e_fr_energy">    -64.82228277 </i>
    <i name="e_wo_entrp">    -64.82228277 </i>
    <i name="e_0_energy">    -64.82228277 </i>
   </energy>
  </scstep>
  <scstep>
   <time name="dav">    0.17    0.17</time>
   <time name="total">    0.34    0.34</time>
   <energy>
    <i name="alphaZ">     56.14704325 </i>
    <i name="ewald">  -1861.18899534 </i>
    <i name="hartreedc">   -472.79220144 </i>
    <i name="XCdc">   -252.06073748 </i>
    <i name="pawpsdc">   3985.40860160 </i>
    <i name="pawaedc">  -3598.91208068 </i>
    <i name="eentropy">     -0.00000000 </i>
    <i name="bandstr">   -213.20301449 </i>
    <i name="atom">   2291.77909288 </i>
    <i name="e_fr_energy">    -64.82229170 </i>
    <i name="e_wo_entrp">    -64.82229170 </i>
    <i name="e_0_energy">    -64.82229170 </i>
   </energy>
  </scstep>
  <structure>
   <crystal>
    <varray name="basis" >
     <v>       6.89032341       0.00000000       0.00000000 </v>
     <v>       0.00000000       7.15631566       0.00000000 </v>
     <v>       0.00000000       0.00000000       8.95109586 </v>
    </varray>
    <i name="volume">    441.37253371 </i>
    <varray name="rec_basis" >
     <v>       0.14513107       0.00000000       0.00000000 </v>
     <v>       0.00000000       0.13973671       0.00000000 </v>
     <v>       0.00000000       0.00000000       0.11171816 </v>
    </varray>
   </crystal>
   <varray name="positions" >
    <v>       0.11530839       0.91915236       0.37900928 </v>
    <v>       0.61530839       0.08084764       0.62099072 </v>
    <v>       0.61530839       0.58084764       0.87900928 </v>
    <v>       0.11530839       0.41915236       0.12099072 </v>
    <v>       0.62215691       0.56988186       0.37435755 </v>
    <v>       0.12215691       0.43011814       0.62564245 </v>
    <v>       0.12215691       0.93011814       0.87435755 </v>
    <v>       0.62215691       0.06988186       0.12564245 </v>
    <v>       0.97071001       0.55061154       0.40304912 </v>
    <v>       0.47071001       0.44938846       0.59695088 </v>
    <v>       0.47071001       0.94938846       0.90304912 </v>
    <v>       0.97071001       0.05061154       0.09695088 </v>
    <v>       0.02682570       0.60690344       0.84535120 </v>
    <v>       0.52682570       0.39309656       0.15464880 </v>
    <v>       0.52682570       0.89309656       0.34535120 </v>
    <v>       0.02682570       0.10690344       0.65464880 </v>
   </varray>
  </structure>
  <varray name="forces" >
   <v>      -0.02530829       0.04947636       0.00412889 </v>
   <v>      -0.02530829      -0.04947636      -0.00412889 </v>
   <v>      -0.02530829      -0.04947636       0.00412889 </v>
   <v>      -0.02530829       0.04947636      -0.00412889 </v>
   <v>      -0.00245483      -0.15658841      -0.02105928 </v>
   <v>      -0.00245483       0.15658841       0.02105928 </v>
   <v>      -0.00245483       0.15658841      -0.02105928 </v>
   <v>      -0.00245483      -0.15658841       0.02105928 </v>
   <v>       0.03150518      -0.12245129      -0.04942922 </v>
   <v>       0.03150518       0.12245129       0.04942922 </v>
   <v>       0.03150518       0.12245129      -0.04942922 </v>
   <v>       0.03150518      -0.12245129       0.04942922 </v>
   <v>      -0.00374206      -0.01318875       0.02747322 </v>
   <v>      -0.00374206       0.01318875      -0.02747322 </v>
   <v>      -0.00374206       0.01318875       0.02747322 </v>
   <v>      -0.00374206      -0.01318875      -0.02747322 </v>
  </varray>
  <varray name="stress" >
   <v>       0.50229179       0.00000000       0.00000000 </v>
   <v>       0.00000000      -4.07624159       0.00000000 </v>
   <v>       0.00000000       0.00000000       3.61108387 </v>
  </varray>
  <energy>
   <i name="e_fr_energy">    -64.82229170 </i>
   <i name="e_wo_entrp">    -64.82229170 </i>
   <i name="e_0_energy">     -0.00000000 </i>
  </energy>
  <time name="totalsc">    2.98    3.19</time>
 </calculation>
 <calculation>
  <scstep>
   <time name="dav">    0.17    0.17</time>
   <time name="total">    0.36    0.39</time>
   <energy>
    <i name="alphaZ">     55.95570611 </i>
    <i name="ewald">  -1858.45645098 </i>
    <i name="hartreedc">   -472.80357382 </i>
    <i name="XCdc">   -252.14606958 </i>
    <i name="pawpsdc">   3986.65002377 </i>
    <i name="pawaedc">  -3600.15358885 </i>
    <i name="eentropy">     -0.00000000 </i>
    <i name="bandstr">   -215.65339424 </i>
    <i name="atom">   2291.77909288 </i>
    <i name="e_fr_energy">    -64.82825471 </i>
    <i name="e_wo_entrp">    -64.82825471 </i>
    <i name="e_0_energy">    -64.82825471 </i>
   </energy>
  </scstep>
  <scstep>
   <time name="dav">    0.32    0.32</time>
   <time name="total">    0.49    0.50</time>
   <energy>
    <i name="e_fr_energy">    -64.82619031 </i>
    <i name="e_wo_entrp">    -64.82619031 </i>
    <i name="e_0_energy">    -64.82619031 </i>
   </energy>
  </scstep>
  <scstep>
   <time name="dav">    0.26    0.26</time>
   <time name="total">    0.44    0.44</time>
   <energy>
    <i name="e_fr_energy">    -64.82549330 </i>
    <i name="e_wo_entrp">    -64.82549330 </i>
    <i name="e_0_energy">    -64.82549330 </i>
   </energy>
  </scstep>
  <scstep>
   <time name="dav">    0.20    0.20</time>
[...]
        <r>  0.0001  0.0500  0.0003 </r>
       </set>
       <set comment="band 17">
        <r>  0.0020  0.0010  0.0000 </r>
        <r>  0.0081  0.0008  0.0000 </r>
        <r>  0.0013  0.0003  0.0000 </r>
        <r>  0.0011  0.0007  0.0000 </r>
        <r>  0.0011  0.0012  0.0000 </r>
        <r>  0.0003  0.0137  0.0000 </r>
        <r>  0.0012  0.0071  0.0000 </r>
        <r>  0.0004  0.0060  0.0000 </r>
        <r>  0.0027  0.0487  0.0002 </r>
        <r>  0.0004  0.0539  0.0002 </r>
        <r>  0.0001  0.0629  0.0001 </r>
        <r>  0.0017  0.0387  0.0002 </r>
        <r>  0.0017  0.0152  0.0003 </r>
        <r>  0.0005  0.0242  0.0001 </r>
        <r>  0.0008  0.0436  0.0001 </r>
        <r>  0.0021  0.0842  0.0002 </r>
       </set>
       <set comment="band 18">
        <r>  0.0039  0.0004  0.0000 </r>
        <r>  0.0007  0.0003  0.0000 </r>
        <r>  0.0069  0.0006  0.0000 </r>
        <r>  0.0011  0.0007  0.0000 </r>
        <r>  0.0007  0.0109  0.0000 </r>
        <r>  0.0004  0.0062  0.0000 </r>
        <r>  0.0011  0.0120  0.0000 </r>
        <r>  0.0001  0.0026  0.0000 </r>
        <r>  0.0009  0.0700  0.0002 </r>
        <r>  0.0016  0.0196  0.0003 </r>
        <r>  0.0017  0.0245  0.0002 </r>
        <r>  0.0006  0.0360  0.0001 </r>
        <r>  0.0024  0.1400  0.0003 </r>
        <r>  0.0007  0.0341  0.0003 </r>
        <r>  0.0002  0.0353  0.0002 </r>
        <r>  0.0018  0.0206  0.0002 </r>
       </set>
       <set comment="band 19">
        <r>  0.0039  0.0004  0.0000 </r>
        <r>  0.0035  0.0006  0.0000 </r>
        <r>  0.0027  0.0008  0.0000 </r>
        <r>  0.0038  0.0004  0.0000 </r>
        <r>  0.0012  0.0069  0.0000 </r>
        <r>  0.0029  0.0036  0.0000 </r>
        <r>  0.0020  0.0046  0.0000 </r>
        <r>  0.0013  0.0068  0.0000 </r>
        <r>  0.0019  0.0248  0.0001 </r>
        <r>  0.0020  0.0725  0.0002 </r>
        <r>  0.0033  0.0243  0.0003 </r>
        <r>  0.0009  0.0736  0.0002 </r>
        <r>  0.0019  0.0226  0.0002 </r>
        <r>  0.0020  0.0304  0.0001 </r>
        <r>  0.0011  0.0385  0.0002 </r>
        <r>  0.0013  0.0999  0.0002 </r>
       </set>
       <set comment="band 20">
        <r>  0.0005  0.0010  0.0000 </r>
        <r>  0.0000  0.0014  0.0000 </r>
        <r>  0.0005  0.0010  0.0000 </r>
        <r>  0.0013  0.0007  0.0000 </r>
        <r>  0.0001  0.0109  0.0000 </r>
        <r>  0.0004  0.0038  0.0000 </r>
        <r>  0.0003  0.0156  0.0000 </r>
        <r>  0.0004  0.0103  0.0000 </r>
        <r>  0.0010  0.0672  0.0003 </r>
        <r>  0.0003  0.0409  0.0002 </r>
        <r>  0.0013  0.0383  0.0003 </r>
        <r>  0.0006  0.0754  0.0005 </r>
        <r>  0.0007  0.0382  0.0003 </r>
        <r>  0.0004  0.0541  0.0003 </r>
        <r>  0.0013  0.0631  0.0003 </r>
        <r>  0.0000  0.0472  0.0003 </r>
       </set>
       <set comment="band 21">
        <r>  0.0009  0.0005  0.0000 </r>
        <r>  0.0011  0.0010  0.0000 </r>
        <r>  0.0015  0.0012  0.0000 </r>
        <r>  0.0038  0.0003  0.0000 </r>
        <r>  0.0020  0.0089  0.0000 </r>
        <r>  0.0018  0.0123  0.0000 </r>
        <r>  0.0024  0.0039  0.0000 </r>
        <r>  0.0022  0.0083  0.0000 </r>
        <r>  0.0006  0.0343  0.0005 </r>
        <r>  0.0016  0.0749  0.0004 </r>
        <r>  0.0011  0.0790  0.0003 </r>
        <r>  0.0028  0.0123  0.0004 </r>
        <r>  0.0005  0.0528  0.0003 </r>
        <r>  0.0000  0.0817  0.0004 </r>
        <r>  0.0013  0.0577  0.0003 </r>
        <r>  0.0001  0.0339  0.0002 </r>
       </set>
       <set comment="band 22">
        <r>  0.0039  0.0003  0.0000 </r>
        <r>  0.0014  0.0007  0.0000 </r>
        <r>  0.0017  0.0007  0.0000 </r>
        <r>  0.0006  0.0014  0.0000 </r>
        <r>  0.0024  0.0107  0.0000 </r>
        <r>  0.0026  0.0096  0.0000 </r>
        <r>  0.0005  0.0058  0.0000 </r>
        <r>  0.0010  0.0111  0.0000 </r>
        <r>  0.0010  0.0444  0.0005 </r>
        <r>  0.0003  0.0437  0.0003 </r>
        <r>  0.0007  0.0241  0.0002 </r>
        <r>  0.0003  0.0290  0.0002 </r>
        <r>  0.0007  0.0370  0.0002 </r>
        <r>  0.0028  0.1177  0.0005 </r>
        <r>  0.0005  0.0993  0.0005 </r>
        <r>  0.0007  0.0420  0.0004 </r>
       </set>
       <set comment="band 23">
        <r>  0.0034  0.0012  0.0000 </r>
        <r>  0.0046  0.0011  0.0000 </r>
        <r>  0.0003  0.0006  0.0000 </r>
        <r>  0.0016  0.0002  0.0000 </r>
        <r>  0.0001  0.0045  0.0000 </r>
        <r>  0.0004  0.0013  0.0000 </r>
        <r>  0.0011  0.0069  0.0000 </r>
        <r>  0.0017  0.0180  0.0000 </r>
        <r>  0.0001  0.0543  0.0001 </r>
        <r>  0.0001  0.0446  0.0002 </r>
        <r>  0.0003  0.0985  0.0008 </r>
        <r>  0.0007  0.1452  0.0007 </r>
        <r>  0.0005  0.0136  0.0002 </r>
        <r>  0.0005  0.0275  0.0004 </r>
        <r>  0.0009  0.0497  0.0003 </r>
        <r>  0.0004  0.0146  0.0001 </r>
       </set>
       <set comment="band 24">
        <r>  0.0000  0.0009  0.0000 </r>
        <r>  0.0013  0.0001  0.0000 </r>
        <r>  0.0053  0.0005  0.0000 </r>
        <r>  0.0018  0.0020  0.0000 </r>
        <r>  0.0005  0.0110  0.0000 </r>
        <r>  0.0006  0.0152  0.0000 </r>
        <r>  0.0004  0.0061  0.0000 </r>
        <r>  0.0010  0.0021  0.0000 </r>
        <r>  0.0007  0.1167  0.0006 </r>
        <r>  0.0005  0.0901  0.0007 </r>
        <r>  0.0001  0.0464  0.0002 </r>
        <r>  0.0007  0.0626  0.0002 </r>
        <r>  0.0004  0.0433  0.0004 </r>
        <r>  0.0006  0.0383  0.0002 </r>
        <r>  0.0004  0.0381  0.0002 </r>
        <r>  0.0001  0.0217  0.0002 </r>
       </set>
       <set comment="band 25">
        <r>  0.0006  0.0007  0.0000 </r>
        <r>  0.0005  0.0010  0.0000 </r>
        <r>  0.0003  0.0018  0.0000 </r>
        <r>  0.0008  0.0006  0.0000 </r>
        <r>  0.0006  0.0072  0.0000 </r>
        <r>  0.0001  0.0043  0.0000 </r>
        <r>  0.0009  0.0030  0.0000 </r>
        <r>  0.0000  0.0080  0.0000 </r>
        <r>  0.0008  0.0201  0.0004 </r>
        <r>  0.0009  0.0634  0.0001 </r>
        <r>  0.0020  0.1164  0.0003 </r>
        <r>  0.0004  0.0407  0.0004 </r>
        <r>  0.0013  0.0412  0.0002 </r>
        <r>  0.0011  0.0499  0.0004 </r>
        <r>  0.0007  0.0398  0.0003 </r>
        <r>  0.0002  0.0829  0.0001 </r>
       </set>
       <set comment="band 26">
        <r>  0.0003  0.0010  0.0000 </r>
        <r>  0.0000  0.0005  0.0000 </r>
        <r>  0.0014  0.0005  0.0000 </r>
        <r>  0.0012  0.0017  0.0000 </r>
        <r>  0.0006  0.0045  0.0000 </r>
        <r>  0.0008  0.0090  0.0000 </r>
        <r>  0.0003  0.0099  0.0000 </r>
        <r>  0.0007  0.0010  0.0000 </r>
        <r>  0.0008  0.0689  0.0002 </r>
        <r>  0.0011  0.0143  0.0003 </r>
        <r>  0.0001  0.0136  0.0003 </r>
        <r>  0.0007  0.0396  0.0001 </r>
        <r>  0.0009  0.1483  0.0005 </r>
        <r>  0.0010  0.0625  0.0001 </r>
        <r>  0.0003  0.0295  0.0001 </r>
        <r>  0.0022  0.0829  0.0006 </r>
       </set>
       <set comment="band 27">
        <r>  0.0006  0.0016  0.0000 </r>
        <r>  0.0021  0.0010  0.0000 </r>
        <r>  0.0003  0.0011  0.0000 </r>
        <r>  0.0016  0.0006  0.0000 </r>
        <r>  0.0004  0.0026  0.0000 </r>
        <r>  0.0000  0.0019  0.0000 </r>
        <r>  0.0000  0.0048  0.0000 </r>
        <r>  0.0008  0.0022  0.0000 </r>
        <r>  0.0002  0.0329  0.0001 </r>
        <r>  0.0006  0.0758  0.0003 </r>
        <r>  0.0001  0.0186  0.0001 </r>
        <r>  0.0014  0.0493  0.0002 </r>
        <r>  0.0000  0.0210  0.0003 </r>
        <r>  0.0001  0.1185  0.0001 </r>
        <r>  0.0004  0.0769  0.0004 </r>
        <r>  0.0008  0.0918  0.0001 </r>
       </set>
       <set comment="band 28">
        <r>  0.0016  0.0003  0.0000 </r>
        <r>  0.0002  0.0021  0.0000 </r>
        <r>  0.0001  0.0009  0.0000 </r>
        <r>  0.0008  0.0015  0.0000 </r>
        <r>  0.0001  0.0029  0.0000 </r>
        <r>  0.0001  0.0017  0.0000 </r>
        <r>  0.0001  0.0017  0.0000 </r>
        <r>  0.0000  0.0035  0.0000 </r>
        <r>  0.0005  0.0492  0.0001 </r>
        <r>  0.0002  0.0399  0.0001 </r>
        <r>  0.0005  0.0482  0.0003 </r>
        <r>  0.0001  0.0213  0.0001 </r>
        <r>  0.0001  0.1129  0.0001 </r>
        <r>  0.0000  0.0195  0.0002 </r>
        <r>  0.0005  0.1201  0.0001 </r>
        <r>  0.0004  0.0867  0.0001 </r>
       </set>
       <set comment="band 29">
        <r>  0.0008  0.0021  0.0000 </r>
        <r>  0.0003  0.0009  0.0000 </r>
        <r>  0.0001  0.0013  0.0000 </r>
        <r>  0.0005  0.0011  0.0000 </r>
        <r>  0.0002  0.0012  0.0000 </r>
        <r>  0.0001  0.0010  0.0000 </r>
        <r>  0.0008  0.0023  0.0000 </r>
        <r>  0.0000  0.0013  0.0000 </r>
        <r>  0.0001  0.1573  0.0002 </r>
        <r>  0.0001  0.0254  0.0000 </r>
        <r>  0.0001  0.1016  0.0001 </r>
        <r>  0.0000  0.0603  0.0001 </r>
        <r>  0.0004  0.0295  0.0001 </r>
        <r>  0.0005  0.0382  0.0003 </r>
        <r>  0.0001  0.0428  0.0002 </r>
        <r>  0.0003  0.0507  0.0005 </r>
       </set>
       <set comment="band 30">
        <r>  0.0000  0.0021  0.0000 </r>
        <r>  0.0003  0.0015  0.0000 </r>
        <r>  0.0002  0.0009  0.0000 </r>
        <r>  0.0005  0.0014  0.0000 </r>
        <r>  0.0001  0.0008  0.0000 </r>
        <r>  0.0002  0.0015  0.0000 </r>
        <r>  0.0000  0.0003  0.0000 </r>
        <r>  0.0003  0.0013  0.0000 </r>
        <r>  0.0001  0.0153  0.0001 </r>
        <r>  0.0002  0.1220  0.0001 </r>
        <r>  0.0000  0.0294  0.0001 </r>
        <r>  0.0001  0.1492  0.0001 </r>
        <r>  0.0001  0.0346  0.0003 </r>
        <r>  0.0001  0.0230  0.0001 </r>
        <r>  0.0004  0.0774  0.0003 </r>
        <r>  0.0000  0.0606  0.0001 </r>
       </set>
       <set comment="band 31">
        <r>  0.0004  0.0020  0.0000 </r>
        <r>  0.0002  0.0010  0.0000 </r>
        <r>  0.0003  0.0012  0.0000 </r>
        <r>  0.0016  0.0015  0.0000 </r>
        <r>  0.0003  0.0013  0.0000 </r>
        <r>  0.0001  0.0009  0.0000 </r>
        <r>  0.0002  0.0005  0.0000 </r>
        <r>  0.0004  0.0004  0.0000 </r>
        <r>  0.0001  0.1248  0.0001 </r>
        <r>  0.0001  0.0315  0.0001 </r>
        <r>  0.0002  0.1044  0.0000 </r>
        <r>  0.0001  0.0380  0.0001 </r>
        <r>  0.0002  0.0604  0.0001 </r>
        <r>  0.0001  0.0690  0.0003 </r>
        <r>  0.0000  0.0706  0.0002 </r>
        <r>  0.0003  0.0100  0.0002 </r>
       </set>
       <set comment="band 32">
        <r>  0.0004  0.0004  0.0000 </r>
        <r>  0.0007  0.0017  0.0000 </r>
        <r>  0.0005  0.0025  0.0000 </r>
        <r>  0.0000  0.0010  0.0000 </r>
        <r>  0.0001  0.0009  0.0000 </r>
        <r>  0.0002  0.0015  0.0000 </r>
        <r>  0.0002  0.0009  0.0000 </r>
        <r>  0.0001  0.0007  0.0000 </r>
        <r>  0.0002  0.0030  0.0000 </r>
        <r>  0.0002  0.1042  0.0001 </r>
        <r>  0.0003  0.0659  0.0001 </r>
        <r>  0.0000  0.0571  0.0000 </r>
        <r>  0.0003  0.0928  0.0002 </r>
        <r>  0.0001  0.0968  0.0001 </r>
        <r>  0.0002  0.0173  0.0002 </r>
        <r>  0.0000  0.0855  0.0001 </r>
       </set>
       <set comment="band 33">
        <r>  0.0005  0.0021  0.0000 </r>
        <r>  0.0005  0.0028  0.0000 </r>
        <r>  0.0004  0.0020  0.0000 </r>
        <r>  0.0002  0.0017  0.0000 </r>
        <r>  0.0660  0.0051  0.0000 </r>
        <r>  0.0033  0.0118  0.0000 </r>
        <r>  0.0032  0.0113  0.0000 </r>
        <r>  0.0493  0.0079  0.0000 </r>
        <r>  0.0095  0.0084  0.0052 </r>
        <r>  0.0011  0.0140  0.0072 </r>
        <r>  0.0095  0.0159  0.0063 </r>
        <r>  0.0037  0.0064  0.0042 </r>
        <r>  0.0001  0.0048  0.0030 </r>
        <r>  0.0166  0.0153  0.0064 </r>
        <r>  0.0081  0.0265  0.0075 </r>
        <r>  0.0016  0.0028  0.0039 </r>
       </set>
       <set comment="band 34">
        <r>  0.0004  0.0006  0.0000 </r>
        <r>  0.0003  0.0017  0.0000 </r>
        <r>  0.0000  0.0004  0.0000 </r>
        <r>  0.0006  0.0021  0.0000 </r>
        <r>  0.0281  0.0072  0.0000 </r>
        <r>  0.0640  0.0051  0.0000 </r>
        <r>  0.0333  0.0085  0.0000 </r>
        <r>  0.0382  0.0036  0.0000 </r>
        <r>  0.0079  0.0197  0.0055 </r>
        <r>  0.0114  0.0159  0.0058 </r>
        <r>  0.0031  0.0149  0.0033 </r>
        <r>  0.0133  0.0167  0.0050 </r>
        <r>  0.0106  0.0229  0.0063 </r>
        <r>  0.0011  0.0194  0.0046 </r>
        <r>  0.0055  0.0142  0.0036 </r>
        <r>  0.0085  0.0233  0.0056 </r>
       </set>
       <set comment="band 35">
        <r>  0.0005  0.0014  0.0000 </r>
        <r>  0.0006  0.0010  0.0000 </r>
        <r>  0.0009  0.0013  0.0000 </r>
        <r>  0.0002  0.0010  0.0000 </r>
        <r>  0.0079  0.0102  0.0000 </r>
        <r>  0.0195  0.0099  0.0000 </r>
        <r>  0.0927  0.0037  0.0000 </r>
        <r>  0.0031  0.0149  0.0000 </r>
        <r>  0.0020  0.0120  0.0058 </r>
        <r>  0.0088  0.0076  0.0042 </r>
        <r>  0.0117  0.0197  0.0072 </r>
        <r>  0.0051  0.0163  0.0110 </r>
        <r>  0.0045  0.0246  0.0062 </r>
        <r>  0.0003  0.0081  0.0030 </r>
        <r>  0.0054  0.0076  0.0030 </r>
        <r>  0.0079  0.0242  0.0067 </r>
       </set>
       <set comment="band 36">
        <r>  0.0029  0.0027  0.0000 </r>
        <r>  0.0013  0.0006  0.0000 </r>
        <r>  0.0021  0.0015  0.0000 </r>
        <r>  0.0013  0.0044  0.0000 </r>
        <r>  0.0061  0.0090  0.0000 </r>
        <r>  0.0430  0.0105  0.0000 </r>
        <r>  0.0067  0.0160  0.0000 </r>
        <r>  0.0348  0.0057  0.0000 </r>
        <r>  0.0095  0.0067  0.0083 </r>
        <r>  0.0044  0.0197  0.0034 </r>
        <r>  0.0025  0.0052  0.0056 </r>
        <r>  0.0049  0.0156  0.0067 </r>
        <r>  0.0156  0.0104  0.0062 </r>
        <r>  0.0009  0.0090  0.0056 </r>
        <r>  0.0059  0.0126  0.0033 </r>
        <r>  0.0056  0.0233  0.0039 </r>
       </set>
       <set comment="band 37">
        <r>  0.0022  0.0015  0.0000 </r>
        <r>  0.0048  0.0045  0.0000 </r>
        <r>  0.0063  0.0017  0.0000 </r>
        <r>  0.0021  0.0003  0.0000 </r>
        <r>  0.0067  0.0157  0.0000 </r>
        <r>  0.0120  0.0173  0.0000 </r>
        <r>  0.0024  0.0191  0.0000 </r>
        <r>  0.0108  0.0213  0.0000 </r>
        <r>  0.0037  0.0165  0.0041 </r>
        <r>  0.0155  0.0061  0.0041 </r>
        <r>  0.0103  0.0055  0.0061 </r>
        <r>  0.0061  0.0117  0.0031 </r>
        <r>  0.0012  0.0038  0.0086 </r>
        <r>  0.0003  0.0121  0.0046 </r>
        <r>  0.0036  0.0073  0.0069 </r>
        <r>  0.0089  0.0110  0.0068 </r>
       </set>
       <set comment="band 38">
        <r>  0.0157  0.0050  0.0000 </r>
        <r>  0.0006  0.0005  0.0000 </r>
        <r>  0.0162  0.0014  0.0000 </r>
        <r>  0.0003  0.0016  0.0000 </r>
        <r>  0.0139  0.0227  0.0000 </r>
        <r>  0.0009  0.0171  0.0000 </r>
        <r>  0.0063  0.0221  0.0000 </r>
        <r>  0.0011  0.0085  0.0000 </r>
        <r>  0.0033  0.0081  0.0076 </r>
        <r>  0.0060  0.0091  0.0082 </r>
        <r>  0.0013  0.0061  0.0034 </r>
        <r>  0.0080  0.0059  0.0048 </r>
        <r>  0.0052  0.0124  0.0030 </r>
        <r>  0.0046  0.0118  0.0046 </r>
        <r>  0.0079  0.0022  0.0060 </r>
        <r>  0.0098  0.0040  0.0081 </r>
       </set>
       <set comment="band 39">
        <r>  0.0004  0.0027  0.0000 </r>
        <r>  0.0048  0.0027  0.0000 </r>
        <r>  0.0001  0.0035  0.0000 </r>
        <r>  0.0033  0.0017  0.0000 </r>
        <r>  0.0104  0.0205  0.0000 </r>
        <r>  0.0102  0.0139  0.0000 </r>
        <r>  0.0090  0.0089  0.0000 </r>
        <r>  0.0107  0.0226  0.0000 </r>
        <r>  0.0046  0.0070  0.0042 </r>
        <r>  0.0007  0.0075  0.0118 </r>
        <r>  0.0001  0.0103  0.0098 </r>
        <r>  0.0010  0.0134  0.0043 </r>
        <r>  0.0025  0.0057  0.0014 </r>
        <r>  0.0095  0.0154  0.0086 </r>
        <r>  0.0082  0.0173  0.0088 </r>
        <r>  0.0042  0.0066  0.0037 </r>
       </set>
       <set comment="band 40">
        <r>  0.0043  0.0015  0.0000 </r>
        <r>  0.0018  0.0034  0.0000 </r>
        <r>  0.0011  0.0008  0.0000 </r>
        <r>  0.0149  0.0017  0.0000 </r>
        <r>  0.0028  0.0063  0.0000 </r>
        <r>  0.0124  0.0033  0.0000 </r>
        <r>  0.0024  0.0110  0.0000 </r>
        <r>  0.0017  0.0349  0.0000 </r>
        <r>  0.0013  0.0148  0.0038 </r>
        <r>  0.0009  0.0030  0.0031 </r>
        <r>  0.0016  0.0152  0.0074 </r>
        <r>  0.0043  0.0109  0.0085 </r>
        <r>  0.0015  0.0278  0.0054 </r>
        <r>  0.0105  0.0037  0.0068 </r>
        <r>  0.0033  0.0204  0.0062 </r>
        <r>  0.0021  0.0015  0.0078 </r>
       </set>
       <set comment="band 41">
        <r>  0.0035  0.0024  0.0000 </r>
        <r>  0.0086  0.0022  0.0000 </r>
        <r>  0.0021  0.0025  0.0000 </r>
        <r>  0.0111  0.0025  0.0000 </r>
        <r>  0.0153  0.0146  0.0000 </r>
        <r>  0.0011  0.0219  0.0000 </r>
        <r>  0.0002  0.0051  0.0000 </r>
        <r>  0.0006  0.0070  0.0000 </r>
        <r>  0.0088  0.0177  0.0098 </r>
        <r>  0.0012  0.0242  0.0060 </r>
        <r>  0.0013  0.0117  0.0029 </r>
        <r>  0.0054  0.0086  0.0032 </r>
        <r>  0.0025  0.0079  0.0091 </r>
        <r>  0.0044  0.0141  0.0052 </r>
        <r>  0.0029  0.0068  0.0049 </r>
        <r>  0.0021  0.0091  0.0052 </r>
       </set>
       <set comment="band 42">
        <r>  0.0049  0.0016  0.0000 </r>
        <r>  0.0040  0.0039  0.0000 </r>
        <r>  0.0006  0.0063  0.0000 </r>
        <r>  0.0026  0.0028  0.0000 </r>
        <r>  0.0046  0.0400  0.0000 </r>
        <r>  0.0010  0.0044  0.0000 </r>
        <r>  0.0072  0.0168  0.0000 </r>
        <r>  0.0062  0.0118  0.0000 </r>
        <r>  0.0006  0.0089  0.0062 </r>
        <r>  0.0042  0.0204  0.0041 </r>
        <r>  0.0108  0.0112  0.0046 </r>
        <r>  0.0030  0.0111  0.0056 </r>
        <r>  0.0027  0.0030  0.0038 </r>
        <r>  0.0047  0.0077  0.0116 </r>
        <r>  0.0041  0.0053  0.0099 </r>
        <r>  0.0005  0.0161  0.0037 </r>
       </set>
      </set>
     </set>
    </set>
   </array>
  </projected>
 </calculation>
 <structure name="finalpos" >
  <crystal>
   <varray name="basis" >
    <v>       6.83453758       0.00000000       0.00000000 </v>
    <v>       0.00000000       6.96660872       0.00000000 </v>
    <v>       0.00000000       0.00000000       9.25415909 </v>
   </varray>
   <i name="volume">    440.62335853 </i>
   <varray name="rec_basis" >
    <v>       0.14631568       0.00000000       0.00000000 </v>
    <v>       0.00000000       0.14354186       0.00000000 </v>
    <v>       0.00000000       0.00000000       0.10805952 </v>
   </varray>
  </crystal>
  <varray name="positions" >
   <v>       0.11147094       0.92574668       0.37968976 </v>
   <v>       0.61147094       0.07425332       0.62031024 </v>
   <v>       0.61147094       0.57425332       0.87968976 </v>
   <v>       0.11147094       0.42574668       0.12031024 </v>
   <v>       0.62073467       0.55940894       0.37425460 </v>
   <v>       0.12073467       0.44059106       0.62574540 </v>
   <v>       0.12073467       0.94059106       0.87425460 </v>
   <v>       0.62073467       0.05940894       0.12574540 </v>
   <v>       0.97253691       0.53556444       0.40126172 </v>
   <v>       0.47253691       0.46443556       0.59873828 </v>
   <v>       0.47253691       0.96443556       0.90126172 </v>
   <v>       0.97253691       0.03556444       0.09873828 </v>
   <v>       0.03025849       0.60623127       0.84447758 </v>
   <v>       0.53025849       0.39376873       0.15552242 </v>
   <v>       0.53025849       0.89376873       0.34447758 </v>
   <v>       0.03025849       0.10623127       0.65552242 </v>
  </varray>
 </structure>
</modeling>
