CIS                                     
           1
     6.204655    0.000000    0.000000
     0.000000    6.495613    0.000000
     0.000000    0.000000    7.856009
   Na   Al   Se
   4   4   8
Direct configuration=     1
   0.11781030  0.91663944  0.37770555
   0.61781030  0.08336056  0.62229445
   0.61781030  0.58336056  0.87770555
   0.11781030  0.41663944  0.12229445
   0.62137382  0.57375842  0.37387979
   0.12137382  0.42624158  0.62612021
   0.12137382  0.92624158  0.87387979
   0.62137382  0.07375842  0.12612021
   0.98548412  0.56443509  0.38646431
   0.48548412  0.43556491  0.61353569
   0.48548412  0.93556491  0.88646431
   0.98548412  0.06443509  0.11353569
   0.01033277  0.59524702  0.86128656
   0.51033277  0.40475298  0.13871344
   0.51033277  0.90475298  0.36128656
   0.01033277  0.09524702  0.63871344
CIS                                     
           1
     6.378832    0.000000    0.000000
     0.000000    6.675623    0.000000
     0.000000    0.000000    8.096905
   Na   Al   Se
   4   4   8
Direct configuration=     2
   0.11761002  0.91698875  0.37791976
   0.61761002  0.08301125  0.62208024
   0.61761002  0.58301125  0.87791976
   0.11761002  0.41698875  0.12208024
   0.62140959  0.57360528  0.37386092
   0.12140959  0.42639472  0.62613908
   0.12140959  0.92639472  0.87386092
   0.62140959  0.07360528  0.12613908
   0.98529122  0.56386638  0.38668570
   0.48529122  0.43613362  0.61331430
   0.48529122  0.93613362  0.88668570
   0.98529122  0.06386638  0.11331430
   0.01069017  0.59534485  0.86113764
   0.51069017  0.40465515  0.13886236
   0.51069017  0.90465515  0.36113764
   0.01069017  0.09534485  0.63886236
CIS                                     
           1
     6.705402    0.000000    0.000000
     0.000000    7.013130    0.000000
     0.000000    0.000000    8.548566
   Na   Al   Se
   4   4   8
Direct configuration=     3
   0.11724477  0.91762602  0.37830943
   0.61724477  0.08237398  0.62169057
   0.61724477  0.58237398  0.87830943
   0.11724477  0.41762602  0.12169057
   0.62147483  0.57332589  0.37382659
   0.12147483  0.42667411  0.62617341
   0.12147483  0.92667411  0.87382659
   0.62147483  0.07332589  0.12617341
   0.98493943  0.56282883  0.38708844
   0.48493943  0.43717117  0.61291156
   0.48493943  0.93717117  0.88708844
   0.98493943  0.06282883  0.11291156
   0.01134198  0.59552332  0.86086674
   0.51134198  0.40447668  0.13913326
   0.51134198  0.90447668  0.36086674
   0.01134198  0.09552332  0.63913326
CIS                                     
           1
     6.802990    0.000000    0.000000
     0.000000    7.113986    0.000000
     0.000000    0.000000    8.683535
   Na   Al   Se
   4   4   8
Direct configuration=     4
   0.11714094  0.91780729  0.37841972
   0.61714094  0.08219271  0.62158028
   0.61714094  0.58219271  0.87841972
   0.11714094  0.41780729  0.12158028
   0.62149337  0.57324641  0.37381688
   0.12149337  0.42675359  0.62618312
   0.12149337  0.92675359  0.87381688
   0.62149337  0.07324641  0.12618312
   0.98483943  0.56253371  0.38720243
   0.48483943  0.43746629  0.61279757
   0.48483943  0.93746629  0.88720243
   0.98483943  0.06253371  0.11279757
   0.01152727  0.59557409  0.86079007
   0.51152727  0.40442591  0.13920993
   0.51152727  0.90442591  0.36079007
   0.01152727  0.09557409  0.63920993
CIS                                     
           1
     6.834743    0.000000    0.000000
     0.000000    7.146802    0.000000
     0.000000    0.000000    8.727450
   Na   Al   Se
   4   4   8
Direct configuration=     5
   0.11710764  0.91786543  0.37845505
   0.61710764  0.08213457  0.62154495
   0.61710764  0.58213457  0.87845505
   0.11710764  0.41786543  0.12154495
   0.62149932  0.57322092  0.37381377
   0.12149932  0.42677908  0.62618623
   0.12149932  0.92677908  0.87381377
   0.62149932  0.07322092  0.12618623
   0.98480736  0.56243904  0.38723894
   0.48480736  0.43756096  0.61276106
   0.48480736  0.93756096  0.88723894
   0.98480736  0.06243904  0.11276106
   0.01158670  0.59559037  0.86076551
   0.51158670  0.40440963  0.13923449
   0.51158670  0.90440963  0.36076551
   0.01158670  0.09559037  0.63923449
CIS                                     
           1
     6.839713    0.000000    0.000000
     0.000000    7.146242    0.000000
     0.000000    0.000000    8.739738
   Na   Al   Se
   4   4   8
Direct configuration=     6
   0.11696105  0.91794700  0.37850568
   0.61696105  0.08205300  0.62149432
   0.61696105  0.58205300  0.87850568
   0.11696105  0.41794700  0.12149432
   0.62145210  0.57304993  0.37388420
   0.12145210  0.42695007  0.62611580
   0.12145210  0.92695007  0.87388420
   0.62145210  0.07304993  0.12611580
   0.98369816  0.56148094  0.38865288
   0.48369816  0.43851906  0.61134712
   0.48369816  0.93851906  0.88865288
   0.98369816  0.06148094  0.11134712
   0.01288970  0.59660755  0.85944399
   0.51288970  0.40339245  0.14055601
   0.51288970  0.90339245  0.35944399
   0.01288970  0.09660755  0.64055601
CIS                                     
           1
     6.854623    0.000000    0.000000
     0.000000    7.144564    0.000000
     0.000000    0.000000    8.776602
   Na   Al   Se
   4   4   8
Direct configuration=     7
   0.11652159  0.91819172  0.37865736
   0.61652159  0.08180828  0.62134264
   0.61652159  0.58180828  0.87865736
   0.11652159  0.41819172  0.12134264
   0.62131055  0.57253693  0.37409518
   0.12131055  0.42746307  0.62590482
   0.12131055  0.92746307  0.87409518
   0.62131055  0.07253693  0.12590482
   0.98037301  0.55860641  0.39288872
   0.48037301  0.44139359  0.60711128
   0.48037301  0.94139359  0.89288872
   0.98037301  0.05860641  0.10711128
   0.01679586  0.59965931  0.85548503
   0.51679586  0.40034069  0.14451497
   0.51679586  0.90034069  0.35548503
   0.01679586  0.09965931  0.64451497
CIS                                     
           1
     6.884443    0.000000    0.000000
     0.000000    7.141208    0.000000
     0.000000    0.000000    8.850330
   Na   Al   Se
   4   4   8
Direct configuration=     8
   0.11564459  0.91868128  0.37895945
   0.61564459  0.08131872  0.62104055
   0.61564459  0.58131872  0.87895945
   0.11564459  0.41868128  0.12104055
   0.62102806  0.57151067  0.37451538
   0.12102806  0.42848933  0.62548462
   0.12102806  0.92848933  0.87451538
   0.62102806  0.07151067  0.12548462
   0.97373716  0.55285601  0.40132483
   0.47373716  0.44714399  0.59867517
   0.47373716  0.94714399  0.90132483
   0.97373716  0.05285601  0.09867517
   0.02459120  0.60576428  0.84760035
   0.52459120  0.39423572  0.15239965
   0.52459120  0.89423572  0.34760035
   0.02459120  0.10576428  0.65239965
CIS                                     
           1
     6.890920    0.000000    0.000000
     0.000000    7.140479    0.000000
     0.000000    0.000000    8.866343
   Na   Al   Se
   4   4   8
Direct configuration=     9
   0.11545495  0.91878765  0.37902451
   0.61545495  0.08121235  0.62097549
   0.61545495  0.58121235  0.87902451
   0.11545495  0.41878765  0.12097549
   0.62096698  0.57128769  0.37460588
   0.12096698  0.42871231  0.62539412
   0.12096698  0.92871231  0.87460588
   0.62096698  0.07128769  0.12539412
   0.97230225  0.55160657  0.40314169
   0.47230225  0.44839343  0.59685831
   0.47230225  0.94839343  0.90314169
   0.97230225  0.05160657  0.09685831
   0.02627683  0.60709077  0.84590224
   0.52627683  0.39290923  0.15409776
   0.52627683  0.89290923  0.34590224
   0.02627683  0.10709077  0.65409776
CIS                                     
           1
     6.890323    0.000000    0.000000
     0.000000    7.156316    0.000000
     0.000000    0.000000    8.951096
   Na   Al   Se
   4   4   8
Direct configuration=    10
   0.11530839  0.91915236  0.37900928
   0.61530839  0.08084764  0.62099072
   0.61530839  0.58084764  0.87900928
   0.11530839  0.41915236  0.12099072
   0.62215691  0.56988186  0.37435755
   0.12215691  0.43011814  0.62564245
   0.12215691  0.93011814  0.87435755
   0.62215691  0.06988186  0.12564245
   0.97071001  0.55061154  0.40304912
   0.47071001  0.44938846  0.59695088
   0.47071001  0.94938846  0.90304912
   0.97071001  0.05061154  0.09695088
   0.02682570  0.60690344  0.84535120
   0.52682570  0.39309656  0.15464880
   0.52682570  0.89309656  0.34535120
   0.02682570  0.10690344  0.65464880
CIS                                     
           1
     6.890148    0.000000    0.000000
     0.000000    7.160984    0.000000
     0.000000    0.000000    8.976078
   Na   Al   Se
   4   4   8
Direct configuration=    11
   0.11526519  0.91925962  0.37900484
   0.61526519  0.08074038  0.62099516
   0.61526519  0.58074038  0.87900484
   0.11526519  0.41925962  0.12099516
   0.62250768  0.56946840  0.37428505
   0.12250768  0.43053160  0.62571495
   0.12250768  0.93053160  0.87428505
   0.62250768  0.06946840  0.12571495
   0.97024064  0.55031889  0.40302210
   0.47024064  0.44968111  0.59697790
   0.47024064  0.94968111  0.90302210
   0.97024064  0.05031889  0.09697790
   0.02698750  0.60684834  0.84519032
   0.52698750  0.39315166  0.15480968
   0.52698750  0.89315166  0.34519032
   0.02698750  0.10684834  0.65480968
CIS                                     
           1
     6.889796    0.000000    0.000000
     0.000000    7.170320    0.000000
     0.000000    0.000000    9.026041
   Na   Al   Se
   4   4   8
Direct configuration=    12
   0.11517878  0.91947401  0.37899597
   0.61517878  0.08052599  0.62100403
   0.61517878  0.58052599  0.87899597
   0.11517878  0.41947401  0.12100403
   0.62320924  0.56864202  0.37414044
   0.12320924  0.43135798  0.62585956
   0.12320924  0.93135798  0.87414044
   0.62320924  0.06864202  0.12585956
   0.96930189  0.54973398  0.40296819
   0.46930189  0.45026602  0.59703181
   0.46930189  0.95026602  0.90296819
   0.96930189  0.04973398  0.09703181
   0.02731110  0.60673823  0.84486944
   0.52731110  0.39326177  0.15513056
   0.52731110  0.89326177  0.34486944
   0.02731110  0.10673823  0.65513056
CIS                                     
           1
     6.890045    0.000000    0.000000
     0.000000    7.163708    0.000000
     0.000000    0.000000    8.990657
   Na   Al   Se
   4   4   8
Direct configuration=    13
   0.11523998  0.91932238  0.37900222
   0.61523998  0.08067762  0.62099778
   0.61523998  0.58067762  0.87900222
   0.11523998  0.41932238  0.12099778
   0.62271236  0.56922651  0.37424228
   0.12271236  0.43077349  0.62575772
   0.12271236  0.93077349  0.87424228
   0.62271236  0.06922651  0.12575772
   0.96996675  0.55014768  0.40300616
   0.46996675  0.44985232  0.59699384
   0.46996675  0.94985232  0.90300616
   0.96996675  0.05014768  0.09699384
   0.02708191  0.60681611  0.84509543
   0.52708191  0.39318389  0.15490457
   0.52708191  0.89318389  0.34509543
   0.02708191  0.10681611  0.65490457
CIS                                     
           1
     6.897006    0.000000    0.000000
     0.000000    7.132012    0.000000
     0.000000    0.000000    9.030457
   Na   Al   Se
   4   4   8
Direct configuration=    14
   0.11490623  0.91980391  0.37901843
   0.61490623  0.08019609  0.62098157
   0.61490623  0.58019609  0.87901843
   0.11490623  0.41980391  0.12098157
   0.62255657  0.56771736  0.37409467
   0.12255657  0.43228264  0.62590533
   0.12255657  0.93228264  0.87409467
   0.62255657  0.06771736  0.12590533
   0.97020710  0.54882558  0.40289149
   0.47020710  0.45117442  0.59710851
   0.47020710  0.95117442  0.90289149
   0.97020710  0.04882558  0.09710851
   0.02733111  0.60675452  0.84483392
   0.52733111  0.39324548  0.15516608
   0.52733111  0.89324548  0.34483392
   0.02733111  0.10675452  0.65516608
CIS                                     
           1
     6.917889    0.000000    0.000000
     0.000000    7.036924    0.000000
     0.000000    0.000000    9.149856
   Na   Al   Se
   4   4   8
Direct configuration=    15
   0.11390600  0.92125491  0.37906684
   0.61390600  0.07874509  0.62093316
   0.61390600  0.57874509  0.87906684
   0.11390600  0.42125491  0.12093316
   0.62208966  0.56316982  0.37365378
   0.12208966  0.43683018  0.62634622
   0.12208966  0.93683018  0.87365378
   0.62208966  0.06316982  0.12634622
   0.97092740  0.54484164  0.40254903
   0.47092740  0.45515836  0.59745097
   0.47092740  0.95515836  0.90254903
   0.97092740  0.04484164  0.09745097
   0.02807795  0.60656894  0.84405287
   0.52807795  0.39343106  0.15594713
   0.52807795  0.89343106  0.34405287
   0.02807795  0.10656894  0.65594713
CIS                                     
           1
     6.872279    0.000000    0.000000
     0.000000    6.997202    0.000000
     0.000000    0.000000    9.163467
   Na   Al   Se
   4   4   8
Direct configuration=    16
   0.11350860  0.92241795  0.37913195
   0.61350860  0.07758205  0.62086805
   0.61350860  0.57758205  0.87913195
   0.11350860  0.42241795  0.12086805
   0.62213340  0.56156640  0.37421919
   0.12213340  0.43843360  0.62578081
   0.12213340  0.93843360  0.87421919
   0.62213340  0.06156640  0.12578081
   0.97084789  0.54212810  0.40261084
   0.47084789  0.45787190  0.59738916
   0.47084789  0.95787190  0.90261084
   0.97084789  0.04212810  0.09738916
   0.02851112  0.60687282  0.84408709
   0.52851112  0.39312718  0.15591291
   0.52851112  0.89312718  0.34408709
   0.02851112  0.10687282  0.65591291
CIS                                     
           1
     6.854998    0.000000    0.000000
     0.000000    6.982152    0.000000
     0.000000    0.000000    9.168624
   Na   Al   Se
   4   4   8
Direct configuration=    17
   0.11335703  0.92286111  0.37915659
   0.61335703  0.07713889  0.62084341
   0.61335703  0.57713889  0.87915659
   0.11335703  0.42286111  0.12084341
   0.62215008  0.56095544  0.37443310
   0.12215008  0.43904456  0.62556690
   0.12215008  0.93904456  0.87443310
   0.62215008  0.06095544  0.12556690
   0.97081756  0.54109413  0.40263422
   0.47081756  0.45890587  0.59736578
   0.47081756  0.95890587  0.90263422
   0.97081756  0.04109413  0.09736578
   0.02867634  0.60698861  0.84410004
   0.52867634  0.39301139  0.15589996
   0.52867634  0.89301139  0.34410004
   0.02867634  0.10698861  0.65589996
CIS                                     
           1
     6.836233    0.000000    0.000000
     0.000000    6.968618    0.000000
     0.000000    0.000000    9.208304
   Na   Al   Se
   4   4   8
Direct configuration=    18
   0.11251040  0.92442702  0.37935262
   0.61251040  0.07557298  0.62064738
   0.61251040  0.57557298  0.87935262
   0.11251040  0.42442702  0.12064738
   0.62135836  0.55995878  0.37466087
   0.12135836  0.44004122  0.62533913
   0.12135836  0.94004122  0.87466087
   0.62135836  0.05995878  0.12533913
   0.97165974  0.53807425  0.40203296
   0.47165974  0.46192575  0.59796704
   0.47165974  0.96192575  0.90203296
   0.97165974  0.03807425  0.09796704
   0.02947251  0.60692706  0.84441591
   0.52947251  0.39307294  0.15558409
   0.52947251  0.89307294  0.34441591
   0.02947251  0.10692706  0.65558409
CIS                                     
           1
     6.829688    0.000000    0.000000
     0.000000    6.963897    0.000000
     0.000000    0.000000    9.222144
   Na   Al   Se
   4   4   8
Direct configuration=    19
   0.11221429  0.92497425  0.37942070
   0.61221429  0.07502575  0.62057930
   0.61221429  0.57502575  0.87942070
   0.11221429  0.42497425  0.12057930
   0.62108145  0.55961048  0.37473997
   0.12108145  0.44038952  0.62526003
   0.12108145  0.94038952  0.87473997
   0.62108145  0.05961048  0.12526003
   0.97195429  0.53701890  0.40182415
   0.47195429  0.46298110  0.59817585
   0.47195429  0.96298110  0.90182415
   0.97195429  0.03701890  0.09817585
   0.02975097  0.60690555  0.84452561
   0.52975097  0.39309445  0.15547439
   0.52975097  0.89309445  0.34452561
   0.02975097  0.10690555  0.65547439
CIS                                     
           1
     6.816597    0.000000    0.000000
     0.000000    6.954456    0.000000
     0.000000    0.000000    9.249824
   Na   Al   Se
   4   4   8
Direct configuration=    20
   0.11162152  0.92606946  0.37955666
   0.61162152  0.07393054  0.62044334
   0.61162152  0.57393054  0.87955666
   0.11162152  0.42606946  0.12044334
   0.62052712  0.55891340  0.37489793
   0.12052712  0.44108660  0.62510207
   0.12052712  0.94108660  0.87489793
   0.62052712  0.05891340  0.12510207
   0.97254396  0.53490677  0.40140715
   0.47254396  0.46509323  0.59859285
   0.47254396  0.96509323  0.90140715
   0.97254396  0.03490677  0.09859285
   0.03030842  0.60686250  0.84474468
   0.53030842  0.39313750  0.15525532
   0.53030842  0.89313750  0.34474468
   0.03030842  0.10686250  0.65525532
CIS                                     
           1
     6.821562    0.000000    0.000000
     0.000000    6.958036    0.000000
     0.000000    0.000000    9.239327
   Na   Al   Se
   4   4   8
Direct configuration=    21
   0.11184675  0.92565356  0.37950526
   0.61184675  0.07434644  0.62049474
   0.61184675  0.57434644  0.87950526
   0.11184675  0.42565356  0.12049474
   0.62073774  0.55917812  0.37483820
   0.12073774  0.44082188  0.62516180
   0.12073774  0.94082188  0.87483820
   0.62073774  0.05917812  0.12516180
   0.97231991  0.53570885  0.40156482
   0.47231991  0.46429115  0.59843518
   0.47231991  0.96429115  0.90156482
   0.97231991  0.03570885  0.09843518
   0.03009661  0.60687885  0.84466185
   0.53009661  0.39312115  0.15533815
   0.53009661  0.89312115  0.34466185
   0.03009661  0.10687885  0.65533815
CIS                                     
           1
     6.840201    0.000000    0.000000
     0.000000    6.970350    0.000000
     0.000000    0.000000    9.260633
   Na   Al   Se
   4   4   8
Direct configuration=    22
   0.11130757  0.92578723  0.37977002
   0.61130757  0.07421277  0.62022998
   0.61130757  0.57421277  0.87977002
   0.11130757  0.42578723  0.12022998
   0.62073333  0.55950943  0.37400073
   0.12073333  0.44049057  0.62599927
   0.12073333  0.94049057  0.87400073
   0.62073333  0.05950943  0.12599927
   0.97263125  0.53550158  0.40112987
   0.47263125  0.46449842  0.59887013
   0.47263125  0.96449842  0.90112987
   0.97263125  0.03550158  0.09887013
   0.03032887  0.60594935  0.84439742
   0.53032887  0.39405065  0.15560258
   0.53032887  0.89405065  0.34439742
   0.03032887  0.10594935  0.65560258
CIS                                     
           1
     6.834538    0.000000    0.000000
     0.000000    6.966609    0.000000
     0.000000    0.000000    9.254159
   Na   Al   Se
   4   4   8
Direct configuration=    23
   0.11147094  0.92574668  0.37968976
   0.61147094  0.07425332  0.62031024
   0.61147094  0.57425332  0.87968976
   0.11147094  0.42574668  0.12031024
   0.62073467  0.55940894  0.37425460
   0.12073467  0.44059106  0.62574540
   0.12073467  0.94059106  0.87425460
   0.62073467  0.05940894  0.12574540
   0.97253691  0.53556444  0.40126172
   0.47253691  0.46443556  0.59873828
   0.47253691  0.96443556  0.90126172
   0.97253691  0.03556444  0.09873828
   0.03025849  0.60623127  0.84447758
   0.53025849  0.39376873  0.15552242
   0.53025849  0.89376873  0.34447758
   0.03025849  0.10623127  0.65552242
