  16  16   1   0
  0.3327462E+02  0.6579862E-09  0.6549772E-09  0.1245574E-08  0.1000000E-15
  1.000000000000000E-004
  CAR 
 CIS                                     
      9.10353683    -12.86552590  301      1.41894177      1.00000000
    -12.866  0.0000E+00  0.0000E+00
    -12.792  0.0000E+00  0.0000E+00
    -12.719  0.0000E+00  0.0000E+00
    -12.646  0.0000E+00  0.0000E+00
    -12.573  0.0000E+00  0.0000E+00
    -12.499  0.0000E+00  0.0000E+00
    -12.426  0.0000E+00  0.0000E+00
    -12.353  0.0000E+00  0.0000E+00
    -12.280  0.0000E+00  0.0000E+00
    -12.206  0.0000E+00  0.0000E+00
    -12.133  0.1390E-14  0.1018E-15
    -12.060  0.1384E-08  0.1013E-09
    -11.987  0.2232E-04  0.1634E-05
    -11.914  0.7508E-02  0.5514E-03
    -11.840  0.1056E+00  0.8287E-02
    -11.767  0.1430E+00  0.1876E-01
    -11.694  0.1272E+00  0.2808E-01
    -11.621  0.1167E+00  0.3662E-01
    -11.547  0.1559E+00  0.4803E-01
    -11.474  0.4255E+00  0.7919E-01
    -11.401  0.7062E+00  0.1309E+00
    -11.328  0.1095E+01  0.2111E+00
    -11.254  0.4560E+00  0.2445E+00
    -11.181  0.9523E-01  0.2515E+00
    -11.108  0.1701E+00  0.2639E+00
    -11.035  0.1748E+00  0.2767E+00
    -10.962  0.6276E-01  0.2813E+00
    -10.888  0.6130E-01  0.2858E+00
    -10.815  0.9367E-01  0.2927E+00
    -10.742  0.4669E-01  0.2961E+00
    -10.669  0.1115E-01  0.2969E+00
    -10.595  0.5263E-01  0.3008E+00
    -10.522  0.4578E-01  0.3041E+00
    -10.449  0.5587E-01  0.3082E+00
    -10.376  0.6644E-01  0.3131E+00
    -10.302  0.4399E-01  0.3163E+00
    -10.229  0.1274E-01  0.3172E+00
    -10.156  0.8378E-01  0.3234E+00
    -10.083  0.1243E+00  0.3325E+00
    -10.010  0.3354E+00  0.3570E+00
     -9.936  0.3645E+00  0.3837E+00
     -9.863  0.2513E+00  0.4021E+00
     -9.790  0.2601E-01  0.4040E+00
     -9.717  0.1150E-03  0.4040E+00
     -9.643  0.1141E-07  0.4040E+00
     -9.570  0.1949E-13  0.4040E+00
     -9.497  0.0000E+00  0.4040E+00
     -9.424  0.0000E+00  0.4040E+00
     -9.350  0.0000E+00  0.4040E+00
     -9.277  0.0000E+00  0.4040E+00
     -9.204  0.0000E+00  0.4040E+00
     -9.131  0.0000E+00  0.4040E+00
     -9.058  0.0000E+00  0.4040E+00
     -8.984  0.0000E+00  0.4040E+00
     -8.911  0.0000E+00  0.4040E+00
     -8.838  0.0000E+00  0.4040E+00
     -8.765  0.0000E+00  0.4040E+00
     -8.691  0.0000E+00  0.4040E+00
     -8.618  0.0000E+00  0.4040E+00
     -8.545  0.0000E+00  0.4040E+00
     -8.472  0.0000E+00  0.4040E+00
     -8.398  0.0000E+00  0.4040E+00
     -8.325  0.0000E+00  0.4040E+00
     -8.252  0.0000E+00  0.4040E+00
     -8.179  0.0000E+00  0.4040E+00
     -8.106  0.0000E+00  0.4040E+00
     -8.032  0.0000E+00  0.4040E+00
     -7.959  0.0000E+00  0.4040E+00
     -7.886  0.0000E+00  0.4040E+00
     -7.813  0.0000E+00  0.4040E+00
     -7.739  0.0000E+00  0.4040E+00
     -7.666  0.3403E-17  0.4040E+00
     -7.593  0.1337E-10  0.4040E+00
     -7.520  0.9366E-06  0.4040E+00
     -7.446  0.1100E-02  0.4041E+00
     -7.373  0.2890E-01  0.4062E+00
     -7.300  0.3151E-01  0.4085E+00
     -7.227  0.3455E-01  0.4111E+00
     -7.154  0.8314E-01  0.4172E+00
     -7.080  0.4771E-01  0.4207E+00
     -7.007  0.5549E-01  0.4247E+00
     -6.934  0.5103E-01  0.4285E+00
     -6.861  0.1795E-01  0.4298E+00
     -6.787  0.1574E-01  0.4309E+00
     -6.714  0.6530E-02  0.4314E+00
     -6.641  0.4191E-01  0.4345E+00
     -6.568  0.3119E-01  0.4368E+00
     -6.494  0.6410E-01  0.4415E+00
     -6.421  0.2321E-01  0.4432E+00
     -6.348  0.4710E-01  0.4466E+00
     -6.275  0.3261E-01  0.4490E+00
     -6.202  0.2088E-01  0.4505E+00
     -6.128  0.8936E-02  0.4512E+00
     -6.055  0.8290E-02  0.4518E+00
     -5.982  0.7169E-01  0.4570E+00
     -5.909  0.5405E-01  0.4610E+00
     -5.835  0.6611E-01  0.4658E+00
     -5.762  0.4703E-01  0.4693E+00
     -5.689  0.6270E-01  0.4739E+00
     -5.616  0.7974E-01  0.4797E+00
     -5.543  0.4623E-01  0.4831E+00
     -5.469  0.2274E-01  0.4848E+00
     -5.396  0.1312E-02  0.4848E+00
     -5.323  0.2225E-05  0.4848E+00
     -5.250  0.6649E-10  0.4848E+00
     -5.176  0.3063E-16  0.4848E+00
     -5.103  0.0000E+00  0.4848E+00
     -5.030  0.0000E+00  0.4848E+00
     -4.957  0.0000E+00  0.4848E+00
     -4.883  0.0000E+00  0.4848E+00
     -4.810  0.0000E+00  0.4848E+00
     -4.737  0.0000E+00  0.4848E+00
     -4.664  0.0000E+00  0.4848E+00
     -4.591  0.0000E+00  0.4848E+00
     -4.517  0.0000E+00  0.4848E+00
     -4.444  0.0000E+00  0.4848E+00
     -4.371  0.0000E+00  0.4848E+00
     -4.298  0.0000E+00  0.4848E+00
     -4.224  0.0000E+00  0.4848E+00
     -4.151  0.0000E+00  0.4848E+00
     -4.078  0.0000E+00  0.4848E+00
     -4.005  0.0000E+00  0.4848E+00
     -3.931  0.0000E+00  0.4848E+00
     -3.858  0.0000E+00  0.4848E+00
     -3.785  0.0000E+00  0.4848E+00
     -3.712  0.0000E+00  0.4848E+00
     -3.639  0.0000E+00  0.4848E+00
     -3.565  0.0000E+00  0.4848E+00
     -3.492  0.0000E+00  0.4848E+00
     -3.419  0.0000E+00  0.4848E+00
     -3.346  0.0000E+00  0.4848E+00
     -3.272  0.0000E+00  0.4848E+00
     -3.199  0.0000E+00  0.4848E+00
     -3.126  0.3403E-17  0.4848E+00
     -3.053  0.1180E-10  0.4848E+00
     -2.979  0.7801E-06  0.4848E+00
     -2.906  0.9287E-03  0.4849E+00
     -2.833  0.2890E-01  0.4870E+00
     -2.760  0.8722E-01  0.4934E+00
     -2.687  0.6514E-01  0.4982E+00
     -2.613  0.2979E-01  0.5004E+00
     -2.540  0.7618E-01  0.5060E+00
     -2.467  0.1465E+00  0.5167E+00
     -2.394  0.1067E+00  0.5245E+00
     -2.320  0.9941E-01  0.5318E+00
     -2.247  0.9996E-01  0.5391E+00
     -2.174  0.7114E-01  0.5443E+00
     -2.101  0.8390E-01  0.5505E+00
     -2.027  0.1251E+00  0.5596E+00
     -1.954  0.1515E+00  0.5707E+00
     -1.881  0.1290E+00  0.5802E+00
     -1.808  0.1460E+00  0.5908E+00
     -1.735  0.1151E+00  0.5993E+00
     -1.661  0.1231E+00  0.6083E+00
     -1.588  0.1320E+00  0.6180E+00
     -1.515  0.1612E+00  0.6298E+00
     -1.442  0.9470E-01  0.6367E+00
     -1.368  0.7631E-01  0.6423E+00
     -1.295  0.6523E-01  0.6471E+00
     -1.222  0.4348E-01  0.6502E+00
     -1.149  0.4308E-01  0.6534E+00
     -1.075  0.3685E-01  0.6561E+00
     -1.002  0.7118E-01  0.6613E+00
     -0.929  0.7023E-01  0.6665E+00
     -0.856  0.5973E-01  0.6708E+00
     -0.783  0.1710E+00  0.6833E+00
     -0.709  0.1245E+00  0.6925E+00
     -0.636  0.9576E-01  0.6995E+00
     -0.563  0.6921E-01  0.7046E+00
     -0.490  0.8937E-01  0.7111E+00
     -0.416  0.4164E-01  0.7141E+00
     -0.343  0.7167E-01  0.7194E+00
     -0.270  0.1121E+00  0.7276E+00
     -0.197  0.6974E-01  0.7327E+00
     -0.123  0.1183E+00  0.7414E+00
     -0.050  0.2069E+00  0.7565E+00
      0.023  0.2156E+00  0.7723E+00
      0.096  0.2236E+00  0.7887E+00
      0.169  0.2339E+00  0.8058E+00
      0.243  0.2673E+00  0.8254E+00
      0.316  0.3259E+00  0.8492E+00
      0.389  0.3098E+00  0.8719E+00
      0.462  0.1716E+00  0.8845E+00
      0.536  0.5793E-01  0.8887E+00
      0.609  0.2213E-01  0.8904E+00
      0.682  0.1082E+00  0.8983E+00
      0.755  0.1710E+00  0.9108E+00
      0.829  0.1331E+00  0.9206E+00
      0.902  0.1255E+00  0.9298E+00
      0.975  0.1049E+00  0.9374E+00
      1.048  0.1371E+00  0.9475E+00
      1.121  0.1827E+00  0.9609E+00
      1.195  0.1107E+00  0.9690E+00
      1.268  0.9875E-02  0.9697E+00
      1.341  0.3251E-04  0.9697E+00
      1.414  0.2101E-08  0.9697E+00
      1.488  0.2212E-14  0.9697E+00
      1.561  0.0000E+00  0.9697E+00
      1.634  0.0000E+00  0.9697E+00
      1.707  0.0000E+00  0.9697E+00
      1.781  0.0000E+00  0.9697E+00
      1.854  0.0000E+00  0.9697E+00
      1.927  0.0000E+00  0.9697E+00
      2.000  0.0000E+00  0.9697E+00
      2.073  0.0000E+00  0.9697E+00
      2.147  0.0000E+00  0.9697E+00
      2.220  0.0000E+00  0.9697E+00
      2.293  0.0000E+00  0.9697E+00
      2.366  0.0000E+00  0.9697E+00
      2.440  0.0000E+00  0.9697E+00
      2.513  0.0000E+00  0.9697E+00
      2.586  0.0000E+00  0.9697E+00
      2.659  0.0000E+00  0.9697E+00
      2.733  0.0000E+00  0.9697E+00
      2.806  0.0000E+00  0.9697E+00
      2.879  0.2212E-15  0.9697E+00
      2.952  0.3473E-09  0.9697E+00
      3.025  0.8406E-05  0.9697E+00
      3.099  0.3578E-02  0.9700E+00
      3.172  0.3891E-01  0.9728E+00
      3.245  0.2478E-01  0.9746E+00
      3.318  0.4953E-01  0.9783E+00
      3.392  0.6180E-01  0.9828E+00
      3.465  0.8046E-01  0.9887E+00
      3.538  0.1363E+00  0.9986E+00
      3.611  0.1451E+00  0.1009E+01
      3.685  0.7123E-01  0.1014E+01
      3.758  0.2371E-01  0.1016E+01
      3.831  0.4869E-01  0.1020E+01
      3.904  0.7416E-01  0.1025E+01
      3.977  0.6369E-01  0.1030E+01
      4.051  0.7206E-01  0.1035E+01
      4.124  0.8941E-01  0.1042E+01
      4.197  0.8959E-01  0.1048E+01
      4.270  0.4418E-01  0.1052E+01
      4.344  0.8575E-01  0.1058E+01
      4.417  0.5227E-01  0.1062E+01
      4.490  0.3358E-02  0.1062E+01
      4.563  0.4847E-01  0.1065E+01
      4.636  0.1514E+00  0.1077E+01
      4.710  0.1485E+00  0.1087E+01
      4.783  0.1827E+00  0.1101E+01
      4.856  0.1899E+00  0.1115E+01
      4.929  0.7581E-01  0.1120E+01
      5.003  0.9979E-01  0.1128E+01
      5.076  0.8868E-01  0.1134E+01
      5.149  0.9758E-01  0.1141E+01
      5.222  0.1120E+00  0.1149E+01
      5.296  0.9713E-01  0.1156E+01
      5.369  0.1149E+00  0.1165E+01
      5.442  0.7381E-01  0.1170E+01
      5.515  0.1119E+00  0.1178E+01
      5.588  0.1128E+00  0.1187E+01
      5.662  0.9324E-01  0.1194E+01
      5.735  0.5184E-01  0.1197E+01
      5.808  0.4867E-01  0.1201E+01
      5.881  0.4434E-01  0.1204E+01
      5.955  0.6746E-01  0.1209E+01
      6.028  0.3357E-01  0.1212E+01
      6.101  0.9893E-02  0.1212E+01
      6.174  0.2089E-01  0.1214E+01
      6.248  0.1581E-01  0.1215E+01
      6.321  0.5996E-01  0.1219E+01
      6.394  0.1181E+00  0.1228E+01
      6.467  0.4504E-01  0.1231E+01
      6.540  0.6065E-01  0.1236E+01
      6.614  0.1074E+00  0.1244E+01
      6.687  0.5884E-01  0.1248E+01
      6.760  0.6256E-01  0.1253E+01
      6.833  0.1154E+00  0.1261E+01
      6.907  0.1316E+00  0.1271E+01
      6.980  0.1121E+00  0.1279E+01
      7.053  0.1083E+00  0.1287E+01
      7.126  0.9284E-01  0.1294E+01
      7.200  0.1780E+00  0.1307E+01
      7.273  0.1513E+00  0.1318E+01
      7.346  0.1135E+00  0.1326E+01
      7.419  0.1410E+00  0.1336E+01
      7.492  0.1104E+00  0.1344E+01
      7.566  0.1420E+00  0.1355E+01
      7.639  0.1318E+00  0.1364E+01
      7.712  0.1664E+00  0.1377E+01
      7.785  0.1044E+00  0.1384E+01
      7.859  0.4989E-01  0.1388E+01
      7.932  0.7302E-01  0.1393E+01
      8.005  0.1194E+00  0.1402E+01
      8.078  0.8142E-01  0.1408E+01
      8.152  0.7677E-01  0.1414E+01
      8.225  0.7429E-02  0.1414E+01
      8.298  0.2211E-04  0.1414E+01
      8.371  0.1310E-08  0.1414E+01
      8.444  0.1280E-14  0.1414E+01
      8.518  0.0000E+00  0.1414E+01
      8.591  0.0000E+00  0.1414E+01
      8.664  0.0000E+00  0.1414E+01
      8.737  0.0000E+00  0.1414E+01
      8.811  0.0000E+00  0.1414E+01
      8.884  0.0000E+00  0.1414E+01
      8.957  0.0000E+00  0.1414E+01
      9.030  0.0000E+00  0.1414E+01
      9.104  0.0000E+00  0.1414E+01
      9.10353683    -12.86552590  301      1.41894177      1.00000000
    -12.866  0.0000E+00  0.0000E+00  0.0000E+00
    -12.792  0.0000E+00  0.0000E+00  0.0000E+00
    -12.719  0.0000E+00  0.0000E+00  0.0000E+00
    -12.646  0.0000E+00  0.0000E+00  0.0000E+00
    -12.573  0.0000E+00  0.0000E+00  0.0000E+00
    -12.499  0.0000E+00  0.0000E+00  0.0000E+00
    -12.426  0.0000E+00  0.0000E+00  0.0000E+00
    -12.353  0.0000E+00  0.0000E+00  0.0000E+00
    -12.280  0.0000E+00  0.0000E+00  0.0000E+00
    -12.206  0.0000E+00  0.0000E+00  0.0000E+00
    -12.133  0.1739E-16  0.1013E-13  0.3011E-17
    -12.060  0.1744E-10  0.1009E-07  0.3028E-11
    -11.987  0.2893E-06  0.1624E-03  0.4949E-07
    -11.914  0.1025E-03  0.5462E-01  0.1699E-04
    -11.840  0.1507E-02  0.7810E+00  0.2490E-03
    -11.767  0.2453E-02  0.1079E+01  0.3380E-03
    -11.694  0.2765E-02  0.1204E+01  0.2460E-03
    -11.621  0.1633E-02  0.1494E+01  0.2516E-03
    -11.547  0.6467E-03  0.2803E+01  0.2626E-03
    -11.474  0.8125E-03  0.9577E+01  0.3008E-03
    -11.401  0.1124E-02  0.1687E+02  0.4028E-03
    -11.328  0.7688E-03  0.2619E+02  0.4294E-03
    -11.254  0.4880E-03  0.1044E+02  0.1625E-03
    -11.181  0.1109E-02  0.1611E+01  0.1345E-03
    -11.108  0.1628E-02  0.2457E+01  0.4267E-03
    -11.035  0.1558E-02  0.2300E+01  0.6536E-03
    -10.962  0.3545E-03  0.6738E+00  0.3661E-03
    -10.888  0.4116E-03  0.4608E+00  0.4860E-03
    -10.815  0.6998E-03  0.5287E+00  0.8916E-03
    -10.742  0.2075E-03  0.2153E+00  0.5634E-03
    -10.669  0.3946E-04  0.3523E-01  0.1528E-03
    -10.595  0.1752E-03  0.1604E+00  0.6153E-03
    -10.522  0.2710E-03  0.1268E+00  0.4772E-03
    -10.449  0.3789E-03  0.1248E+00  0.5554E-03
    -10.376  0.3566E-03  0.8811E-01  0.1138E-02
    -10.302  0.2949E-03  0.4025E-01  0.8456E-03
    -10.229  0.1290E-03  0.1476E-01  0.1643E-03
    -10.156  0.1439E-02  0.9360E-01  0.9666E-03
    -10.083  0.3500E-02  0.1368E+00  0.1573E-02
    -10.010  0.7728E-02  0.3829E+00  0.5198E-02
     -9.936  0.5996E-02  0.4760E+00  0.5189E-02
     -9.863  0.3570E-02  0.3831E+00  0.3060E-02
     -9.790  0.2896E-03  0.4222E-01  0.3092E-03
     -9.717  0.1037E-05  0.1882E-03  0.1412E-05
     -9.643  0.9583E-10  0.1849E-07  0.1443E-09
     -9.570  0.1660E-15  0.3128E-13  0.2507E-15
     -9.497  0.0000E+00  0.0000E+00  0.0000E+00
     -9.424  0.0000E+00  0.0000E+00  0.0000E+00
     -9.350  0.0000E+00  0.0000E+00  0.0000E+00
     -9.277  0.0000E+00  0.0000E+00  0.0000E+00
     -9.204  0.0000E+00  0.0000E+00  0.0000E+00
     -9.131  0.0000E+00  0.0000E+00  0.0000E+00
     -9.058  0.0000E+00  0.0000E+00  0.0000E+00
     -8.984  0.0000E+00  0.0000E+00  0.0000E+00
     -8.911  0.0000E+00  0.0000E+00  0.0000E+00
     -8.838  0.0000E+00  0.0000E+00  0.0000E+00
     -8.765  0.0000E+00  0.0000E+00  0.0000E+00
     -8.691  0.0000E+00  0.0000E+00  0.0000E+00
     -8.618  0.0000E+00  0.0000E+00  0.0000E+00
     -8.545  0.0000E+00  0.0000E+00  0.0000E+00
     -8.472  0.0000E+00  0.0000E+00  0.0000E+00
     -8.398  0.0000E+00  0.0000E+00  0.0000E+00
     -8.325  0.0000E+00  0.0000E+00  0.0000E+00
     -8.252  0.0000E+00  0.0000E+00  0.0000E+00
     -8.179  0.0000E+00  0.0000E+00  0.0000E+00
     -8.106  0.0000E+00  0.0000E+00  0.0000E+00
     -8.032  0.0000E+00  0.0000E+00  0.0000E+00
     -7.959  0.0000E+00  0.0000E+00  0.0000E+00
     -7.886  0.0000E+00  0.0000E+00  0.0000E+00
     -7.813  0.0000E+00  0.0000E+00  0.0000E+00
     -7.739  0.0000E+00  0.0000E+00  0.0000E+00
     -7.666  0.8512E-20  0.2081E-18  0.1282E-19
     -7.593  0.3285E-13  0.8172E-12  0.5061E-13
     -7.520  0.2314E-08  0.5726E-07  0.3540E-08
     -7.446  0.2732E-05  0.6723E-04  0.4150E-05
     -7.373  0.7214E-04  0.1767E-02  0.1089E-03
     -7.300  0.8328E-04  0.1870E-02  0.1186E-03
     -7.227  0.1658E-03  0.8248E-03  0.1660E-03
     -7.154  0.2905E-03  0.2649E-02  0.4545E-03
     -7.080  0.1820E-03  0.1707E-02  0.2323E-03
     -7.007  0.2835E-03  0.2034E-02  0.2859E-03
     -6.934  0.1224E-03  0.3801E-02  0.3068E-03
     -6.861  0.9267E-04  0.9709E-03  0.1406E-03
     -6.787  0.9794E-04  0.6880E-03  0.1306E-03
     -6.714  0.1192E-04  0.1420E-03  0.9425E-04
     -6.641  0.5666E-04  0.7959E-03  0.6359E-03
     -6.568  0.1864E-03  0.1260E-02  0.3472E-03
     -6.494  0.6045E-03  0.3707E-02  0.5119E-03
     -6.421  0.4020E-03  0.1169E-02  0.1540E-03
     -6.348  0.8044E-03  0.2614E-02  0.5940E-03
     -6.275  0.4029E-03  0.2004E-02  0.5718E-03
     -6.202  0.2872E-03  0.6056E-03  0.4582E-03
     -6.128  0.1242E-03  0.2416E-03  0.1979E-03
     -6.055  0.1461E-03  0.6379E-03  0.9083E-04
     -5.982  0.2218E-02  0.5248E-02  0.7914E-03
     -5.909  0.2352E-02  0.3480E-02  0.6196E-03
     -5.835  0.2383E-02  0.5727E-02  0.7568E-03
     -5.762  0.8869E-03  0.6764E-02  0.5660E-03
     -5.689  0.1969E-02  0.9469E-02  0.7676E-03
     -5.616  0.4306E-02  0.9251E-02  0.8915E-03
     -5.543  0.3437E-02  0.4182E-02  0.4507E-03
     -5.469  0.2354E-02  0.1304E-02  0.1129E-03
     -5.396  0.1500E-03  0.5763E-04  0.4203E-05
     -5.323  0.2570E-06  0.9450E-07  0.6704E-08
     -5.250  0.7685E-11  0.2817E-11  0.1995E-12
     -5.176  0.3540E-17  0.1297E-17  0.9185E-19
     -5.103  0.0000E+00  0.0000E+00  0.0000E+00
     -5.030  0.0000E+00  0.0000E+00  0.0000E+00
     -4.957  0.0000E+00  0.0000E+00  0.0000E+00
     -4.883  0.0000E+00  0.0000E+00  0.0000E+00
     -4.810  0.0000E+00  0.0000E+00  0.0000E+00
     -4.737  0.0000E+00  0.0000E+00  0.0000E+00
     -4.664  0.0000E+00  0.0000E+00  0.0000E+00
     -4.591  0.0000E+00  0.0000E+00  0.0000E+00
     -4.517  0.0000E+00  0.0000E+00  0.0000E+00
     -4.444  0.0000E+00  0.0000E+00  0.0000E+00
     -4.371  0.0000E+00  0.0000E+00  0.0000E+00
     -4.298  0.0000E+00  0.0000E+00  0.0000E+00
     -4.224  0.0000E+00  0.0000E+00  0.0000E+00
     -4.151  0.0000E+00  0.0000E+00  0.0000E+00
     -4.078  0.0000E+00  0.0000E+00  0.0000E+00
     -4.005  0.0000E+00  0.0000E+00  0.0000E+00
     -3.931  0.0000E+00  0.0000E+00  0.0000E+00
     -3.858  0.0000E+00  0.0000E+00  0.0000E+00
     -3.785  0.0000E+00  0.0000E+00  0.0000E+00
     -3.712  0.0000E+00  0.0000E+00  0.0000E+00
     -3.639  0.0000E+00  0.0000E+00  0.0000E+00
     -3.565  0.0000E+00  0.0000E+00  0.0000E+00
     -3.492  0.0000E+00  0.0000E+00  0.0000E+00
     -3.419  0.0000E+00  0.0000E+00  0.0000E+00
     -3.346  0.0000E+00  0.0000E+00  0.0000E+00
     -3.272  0.0000E+00  0.0000E+00  0.0000E+00
     -3.199  0.0000E+00  0.0000E+00  0.0000E+00
     -3.126  0.1014E-18  0.8266E-18  0.2397E-18
     -3.053  0.3435E-12  0.2967E-11  0.7910E-12
     -2.979  0.2226E-07  0.2018E-06  0.5003E-07
     -2.906  0.2581E-04  0.2503E-03  0.5554E-04
     -2.833  0.8664E-03  0.8000E-02  0.1616E-02
     -2.760  0.4272E-02  0.2182E-01  0.5257E-02
     -2.687  0.3553E-02  0.1553E-01  0.4055E-02
     -2.613  0.1738E-02  0.3532E-02  0.2546E-02
     -2.540  0.5376E-02  0.1010E-01  0.5805E-02
     -2.467  0.4043E-02  0.3476E-01  0.7079E-02
     -2.394  0.2627E-02  0.2514E-01  0.5945E-02
     -2.320  0.2701E-02  0.2035E-01  0.5867E-02
     -2.247  0.7117E-02  0.1199E-01  0.7140E-02
     -2.174  0.6871E-02  0.7561E-02  0.4507E-02
     -2.101  0.7987E-02  0.1829E-01  0.3205E-02
     -2.027  0.6502E-02  0.2560E-01  0.4941E-02
     -1.954  0.6442E-02  0.2582E-01  0.6763E-02
     -1.881  0.9574E-02  0.1786E-01  0.7601E-02
     -1.808  0.1118E-01  0.2088E-01  0.1009E-01
     -1.735  0.8634E-02  0.1783E-01  0.8044E-02
     -1.661  0.1208E-01  0.1330E-01  0.8119E-02
     -1.588  0.8996E-02  0.2540E-01  0.7461E-02
     -1.515  0.2103E-01  0.2573E-01  0.9294E-02
     -1.442  0.1291E-01  0.1224E-01  0.5535E-02
     -1.368  0.4893E-02  0.1130E-01  0.4642E-02
     -1.295  0.6087E-02  0.1079E-01  0.5620E-02
     -1.222  0.6759E-02  0.1230E-01  0.4983E-02
     -1.149  0.1074E-01  0.1037E-01  0.4917E-02
     -1.075  0.2135E-02  0.1273E-01  0.2344E-02
     -1.002  0.8459E-02  0.1999E-01  0.7673E-02
     -0.929  0.1088E-01  0.1894E-01  0.7696E-02
     -0.856  0.8977E-02  0.1369E-01  0.6486E-02
     -0.783  0.4317E-01  0.3739E-01  0.1708E-01
     -0.709  0.3782E-01  0.2677E-01  0.1309E-01
     -0.636  0.3781E-01  0.1780E-01  0.9780E-02
     -0.563  0.1556E-01  0.2004E-01  0.7452E-02
     -0.490  0.2554E-01  0.2244E-01  0.1128E-01
     -0.416  0.1336E-01  0.7777E-02  0.5708E-02
     -0.343  0.2167E-01  0.1546E-01  0.9080E-02
     -0.270  0.6547E-01  0.2132E-01  0.1158E-01
     -0.197  0.3877E-01  0.1766E-01  0.7908E-02
     -0.123  0.5471E-01  0.4427E-01  0.1555E-01
     -0.050  0.8729E-01  0.9183E-01  0.2511E-01
      0.023  0.7614E-01  0.1023E+00  0.2998E-01
      0.096  0.5217E-01  0.1071E+00  0.3936E-01
      0.169  0.4168E-01  0.1256E+00  0.4792E-01
      0.243  0.2183E-01  0.1712E+00  0.5646E-01
      0.316  0.2006E-01  0.2215E+00  0.8211E-01
      0.389  0.1366E-01  0.1683E+00  0.1038E+00
      0.462  0.4619E-02  0.9099E-01  0.6400E-01
      0.536  0.9084E-03  0.4461E-01  0.7925E-02
      0.609  0.2291E-02  0.7491E-02  0.2608E-02
      0.682  0.1058E-01  0.3267E-01  0.1304E-01
      0.755  0.1492E-01  0.4959E-01  0.2796E-01
      0.829  0.7358E-02  0.2893E-01  0.2886E-01
      0.902  0.5655E-02  0.3505E-01  0.2270E-01
      0.975  0.6893E-02  0.3383E-01  0.1813E-01
      1.048  0.8981E-02  0.3260E-01  0.2715E-01
      1.121  0.1033E-01  0.3593E-01  0.4071E-01
      1.195  0.4673E-02  0.2249E-01  0.2273E-01
      1.268  0.3713E-03  0.2029E-02  0.2031E-02
      1.341  0.1265E-05  0.6412E-05  0.7070E-05
      1.414  0.8503E-10  0.3982E-09  0.4784E-09
      1.488  0.9203E-16  0.4070E-15  0.5191E-15
      1.561  0.0000E+00  0.0000E+00  0.0000E+00
      1.634  0.0000E+00  0.0000E+00  0.0000E+00
      1.707  0.0000E+00  0.0000E+00  0.0000E+00
      1.781  0.0000E+00  0.0000E+00  0.0000E+00
      1.854  0.0000E+00  0.0000E+00  0.0000E+00
      1.927  0.0000E+00  0.0000E+00  0.0000E+00
      2.000  0.0000E+00  0.0000E+00  0.0000E+00
      2.073  0.0000E+00  0.0000E+00  0.0000E+00
      2.147  0.0000E+00  0.0000E+00  0.0000E+00
      2.220  0.0000E+00  0.0000E+00  0.0000E+00
      2.293  0.0000E+00  0.0000E+00  0.0000E+00
      2.366  0.0000E+00  0.0000E+00  0.0000E+00
      2.440  0.0000E+00  0.0000E+00  0.0000E+00
      2.513  0.0000E+00  0.0000E+00  0.0000E+00
      2.586  0.0000E+00  0.0000E+00  0.0000E+00
      2.659  0.0000E+00  0.0000E+00  0.0000E+00
      2.733  0.0000E+00  0.0000E+00  0.0000E+00
      2.806  0.0000E+00  0.0000E+00  0.0000E+00
      2.879  0.2111E-16  0.7181E-16  0.2923E-16
      2.952  0.3252E-10  0.1127E-09  0.4594E-10
      3.025  0.7710E-06  0.2726E-05  0.1113E-05
      3.099  0.3217E-03  0.1160E-02  0.4743E-03
      3.172  0.3438E-02  0.1261E-01  0.5164E-02
      3.245  0.2480E-02  0.7169E-02  0.3605E-02
      3.318  0.6994E-02  0.1182E-01  0.8462E-02
      3.392  0.7266E-02  0.2357E-01  0.8362E-02
      3.465  0.1146E-01  0.1858E-01  0.1957E-01
      3.538  0.1850E-01  0.3088E-01  0.3567E-01
      3.611  0.2079E-01  0.3592E-01  0.3770E-01
      3.685  0.7630E-02  0.1809E-01  0.2051E-01
      3.758  0.1536E-02  0.6229E-02  0.5170E-02
      3.831  0.2595E-02  0.1344E-01  0.1480E-01
      3.904  0.8294E-02  0.1762E-01  0.1901E-01
      3.977  0.1707E-01  0.1099E-01  0.1485E-01
      4.051  0.1522E-01  0.1158E-01  0.1642E-01
      4.124  0.2407E-01  0.1732E-01  0.2230E-01
      4.197  0.1338E-01  0.1264E-01  0.1815E-01
      4.270  0.1213E-01  0.1203E-01  0.8207E-02
      4.344  0.3760E-01  0.5268E-01  0.1973E-01
      4.417  0.1999E-01  0.3343E-01  0.1346E-01
      4.490  0.7586E-03  0.2940E-02  0.8682E-03
      4.563  0.7667E-02  0.4401E-01  0.1530E-01
      4.636  0.3826E-01  0.8665E-01  0.6882E-01
      4.710  0.2910E-01  0.8076E-01  0.6896E-01
      4.783  0.1353E-01  0.9218E-01  0.7823E-01
      4.856  0.1045E-01  0.9671E-01  0.8292E-01
      4.929  0.3933E-02  0.3698E-01  0.3122E-01
      5.003  0.1329E-01  0.3545E-01  0.3449E-01
      5.076  0.1796E-01  0.2221E-01  0.2911E-01
      5.149  0.4380E-01  0.1964E-01  0.4671E-01
      5.222  0.4280E-01  0.3107E-01  0.5041E-01
      5.296  0.2726E-01  0.3759E-01  0.4537E-01
      5.369  0.3190E-01  0.7950E-01  0.6313E-01
      5.442  0.3303E-01  0.5530E-01  0.6248E-01
      5.515  0.5217E-01  0.9579E-01  0.1080E+00
      5.588  0.6413E-01  0.9352E-01  0.1218E+00
      5.662  0.5547E-01  0.6961E-01  0.1185E+00
      5.735  0.1009E-01  0.3055E-01  0.4602E-01
      5.808  0.3905E-02  0.1873E-01  0.4198E-01
      5.881  0.1947E-01  0.1681E-01  0.5056E-01
      5.955  0.6031E-01  0.2868E-01  0.9433E-01
      6.028  0.1878E-01  0.1056E-01  0.3457E-01
      6.101  0.4737E-02  0.3142E-02  0.1064E-01
      6.174  0.1049E-01  0.1001E-01  0.3488E-01
      6.248  0.1288E-01  0.7310E-02  0.3343E-01
      6.321  0.9350E-01  0.3007E-01  0.1558E+00
      6.394  0.1967E+00  0.6997E-01  0.3413E+00
      6.467  0.7483E-01  0.3423E-01  0.1436E+00
      6.540  0.1403E+00  0.5368E-01  0.1632E+00
      6.614  0.1612E+00  0.8708E-01  0.3428E+00
      6.687  0.8029E-01  0.5915E-01  0.2129E+00
      6.760  0.9002E-01  0.5892E-01  0.2109E+00
      6.833  0.2428E+00  0.1092E+00  0.3141E+00
      6.907  0.2579E+00  0.1628E+00  0.3884E+00
      6.980  0.2059E+00  0.1413E+00  0.3556E+00
      7.053  0.1251E+00  0.1122E+00  0.3916E+00
      7.126  0.6921E-01  0.9255E-01  0.4372E+00
      7.200  0.1561E+00  0.1850E+00  0.8478E+00
      7.273  0.1857E+00  0.1818E+00  0.6861E+00
      7.346  0.1605E+00  0.1301E+00  0.4742E+00
      7.419  0.2592E+00  0.1626E+00  0.5589E+00
      7.492  0.1853E+00  0.1108E+00  0.4652E+00
      7.566  0.1775E+00  0.1378E+00  0.7344E+00
      7.639  0.1563E+00  0.1241E+00  0.6940E+00
      7.712  0.1937E+00  0.2095E+00  0.7245E+00
      7.785  0.1003E+00  0.2143E+00  0.3877E+00
      7.859  0.5925E-01  0.9445E-01  0.2644E+00
      7.932  0.7861E-01  0.1547E+00  0.3746E+00
      8.005  0.1733E+00  0.2536E+00  0.5309E+00
      8.078  0.1218E+00  0.2354E+00  0.3623E+00
      8.152  0.7393E-01  0.2467E+00  0.2800E+00
      8.225  0.4580E-02  0.1719E-01  0.2712E-01
      8.298  0.7819E-05  0.3538E-04  0.8026E-04
      8.371  0.2850E-09  0.1620E-08  0.4655E-08
      8.444  0.2134E-15  0.1417E-14  0.4420E-14
      8.518  0.0000E+00  0.0000E+00  0.0000E+00
      8.591  0.0000E+00  0.0000E+00  0.0000E+00
      8.664  0.0000E+00  0.0000E+00  0.0000E+00
      8.737  0.0000E+00  0.0000E+00  0.0000E+00
      8.811  0.0000E+00  0.0000E+00  0.0000E+00
      8.884  0.0000E+00  0.0000E+00  0.0000E+00
      8.957  0.0000E+00  0.0000E+00  0.0000E+00
      9.030  0.0000E+00  0.0000E+00  0.0000E+00
      9.104  0.0000E+00  0.0000E+00  0.0000E+00
      9.10353683    -12.86552590  301      1.41894177      1.00000000
    -12.866  0.0000E+00  0.0000E+00  0.0000E+00
    -12.792  0.0000E+00  0.0000E+00  0.0000E+00
    -12.719  0.0000E+00  0.0000E+00  0.0000E+00
    -12.646  0.0000E+00  0.0000E+00  0.0000E+00
    -12.573  0.0000E+00  0.0000E+00  0.0000E+00
    -12.499  0.0000E+00  0.0000E+00  0.0000E+00
    -12.426  0.0000E+00  0.0000E+00  0.0000E+00
    -12.353  0.0000E+00  0.0000E+00  0.0000E+00
    -12.280  0.0000E+00  0.0000E+00  0.0000E+00
    -12.206  0.0000E+00  0.0000E+00  0.0000E+00
    -12.133  0.1739E-16  0.1013E-13  0.3011E-17
    -12.060  0.1744E-10  0.1009E-07  0.3028E-11
    -11.987  0.2893E-06  0.1624E-03  0.4949E-07
    -11.914  0.1025E-03  0.5462E-01  0.1699E-04
    -11.840  0.1507E-02  0.7810E+00  0.2490E-03
    -11.767  0.2453E-02  0.1079E+01  0.3380E-03
    -11.694  0.2765E-02  0.1204E+01  0.2460E-03
    -11.621  0.1633E-02  0.1494E+01  0.2516E-03
    -11.547  0.6467E-03  0.2803E+01  0.2626E-03
    -11.474  0.8125E-03  0.9577E+01  0.3008E-03
    -11.401  0.1124E-02  0.1687E+02  0.4028E-03
    -11.328  0.7688E-03  0.2619E+02  0.4294E-03
    -11.254  0.4880E-03  0.1044E+02  0.1625E-03
    -11.181  0.1109E-02  0.1611E+01  0.1345E-03
    -11.108  0.1628E-02  0.2457E+01  0.4267E-03
    -11.035  0.1558E-02  0.2300E+01  0.6536E-03
    -10.962  0.3545E-03  0.6738E+00  0.3661E-03
    -10.888  0.4116E-03  0.4608E+00  0.4860E-03
    -10.815  0.6998E-03  0.5287E+00  0.8916E-03
    -10.742  0.2075E-03  0.2153E+00  0.5634E-03
    -10.669  0.3946E-04  0.3523E-01  0.1528E-03
    -10.595  0.1752E-03  0.1604E+00  0.6153E-03
    -10.522  0.2710E-03  0.1268E+00  0.4772E-03
    -10.449  0.3789E-03  0.1248E+00  0.5554E-03
    -10.376  0.3566E-03  0.8811E-01  0.1138E-02
    -10.302  0.2949E-03  0.4025E-01  0.8456E-03
    -10.229  0.1290E-03  0.1476E-01  0.1643E-03
    -10.156  0.1439E-02  0.9360E-01  0.9666E-03
    -10.083  0.3500E-02  0.1368E+00  0.1573E-02
    -10.010  0.7728E-02  0.3829E+00  0.5198E-02
     -9.936  0.5996E-02  0.4760E+00  0.5189E-02
     -9.863  0.3570E-02  0.3831E+00  0.3060E-02
     -9.790  0.2896E-03  0.4222E-01  0.3092E-03
     -9.717  0.1037E-05  0.1882E-03  0.1412E-05
     -9.643  0.9583E-10  0.1849E-07  0.1443E-09
     -9.570  0.1660E-15  0.3128E-13  0.2507E-15
     -9.497  0.0000E+00  0.0000E+00  0.0000E+00
     -9.424  0.0000E+00  0.0000E+00  0.0000E+00
     -9.350  0.0000E+00  0.0000E+00  0.0000E+00
     -9.277  0.0000E+00  0.0000E+00  0.0000E+00
     -9.204  0.0000E+00  0.0000E+00  0.0000E+00
     -9.131  0.0000E+00  0.0000E+00  0.0000E+00
     -9.058  0.0000E+00  0.0000E+00  0.0000E+00
     -8.984  0.0000E+00  0.0000E+00  0.0000E+00
     -8.911  0.0000E+00  0.0000E+00  0.0000E+00
     -8.838  0.0000E+00  0.0000E+00  0.0000E+00
     -8.765  0.0000E+00  0.0000E+00  0.0000E+00
     -8.691  0.0000E+00  0.0000E+00  0.0000E+00
     -8.618  0.0000E+00  0.0000E+00  0.0000E+00
     -8.545  0.0000E+00  0.0000E+00  0.0000E+00
     -8.472  0.0000E+00  0.0000E+00  0.0000E+00
     -8.398  0.0000E+00  0.0000E+00  0.0000E+00
     -8.325  0.0000E+00  0.0000E+00  0.0000E+00
     -8.252  0.0000E+00  0.0000E+00  0.0000E+00
     -8.179  0.0000E+00  0.0000E+00  0.0000E+00
     -8.106  0.0000E+00  0.0000E+00  0.0000E+00
     -8.032  0.0000E+00  0.0000E+00  0.0000E+00
     -7.959  0.0000E+00  0.0000E+00  0.0000E+00
     -7.886  0.0000E+00  0.0000E+00  0.0000E+00
     -7.813  0.0000E+00  0.0000E+00  0.0000E+00
     -7.739  0.0000E+00  0.0000E+00  0.0000E+00
     -7.666  0.8512E-20  0.2081E-18  0.1282E-19
     -7.593  0.3285E-13  0.8172E-12  0.5061E-13
     -7.520  0.2314E-08  0.5726E-07  0.3540E-08
     -7.446  0.2732E-05  0.6723E-04  0.4150E-05
     -7.373  0.7214E-04  0.1767E-02  0.1089E-03
     -7.300  0.8328E-04  0.1870E-02  0.1186E-03
     -7.227  0.1658E-03  0.8248E-03  0.1660E-03
     -7.154  0.2905E-03  0.2649E-02  0.4545E-03
     -7.080  0.1820E-03  0.1707E-02  0.2323E-03
     -7.007  0.2835E-03  0.2034E-02  0.2859E-03
     -6.934  0.1224E-03  0.3801E-02  0.3068E-03
     -6.861  0.9267E-04  0.9709E-03  0.1406E-03
     -6.787  0.9794E-04  0.6880E-03  0.1306E-03
     -6.714  0.1192E-04  0.1420E-03  0.9425E-04
     -6.641  0.5666E-04  0.7959E-03  0.6359E-03
     -6.568  0.1864E-03  0.1260E-02  0.3472E-03
     -6.494  0.6045E-03  0.3707E-02  0.5119E-03
     -6.421  0.4020E-03  0.1169E-02  0.1540E-03
     -6.348  0.8044E-03  0.2614E-02  0.5940E-03