 vasp.5.4.4.18Apr17-6-g9f103f2a35 (build Oct 27 2022 13:04:57) complex          
  
 executed on             LinuxIFC date 2024.06.29  23:17:06
 running on   14 total cores
 distrk:  each k-point on   14 cores,    1 groups
 distr:  one band on NCORES_PER_BAND=   1 cores,   14 groups


--------------------------------------------------------------------------------------------------------


 INCAR:
 POTCAR:    PAW_PBE K_pv 17Jan2003                
 POTCAR:    PAW_PBE Sb 06Sep2000                  
 POTCAR:    PAW_PBE S 06Sep2000                   

 ----------------------------------------------------------------------------- 
|                                                                             |
|           W    W    AA    RRRRR   N    N  II  N    N   GGGG   !!!           |
|           W    W   A  A   R    R  NN   N  II  NN   N  G    G  !!!           |
|           W    W  A    A  R    R  N N  N  II  N N  N  G       !!!           |
|           W WW W  AAAAAA  RRRRR   N  N N  II  N  N N  G  GGG   !            |
|           WW  WW  A    A  R   R   N   NN  II  N   NN  G    G                |
|           W    W  A    A  R    R  N    N  II  N    N   GGGG   !!!           |
|                                                                             |
|      For optimal performance we recommend to set                            |
|        NCORE= 4 - approx SQRT( number of cores)                             |
|      NCORE specifies how many cores store one orbital (NPAR=cpu/NCORE).     |
|      This setting can  greatly improve the performance of VASP for DFT.     |
|      The default,   NCORE=1            might be grossly inefficient         |
|      on modern multi-core architectures or massively parallel machines.     |
|      Do your own testing !!!!                                               |
|      Unfortunately you need to use the default for GW and RPA calculations. |
|      (for HF NCORE is supported but not extensively tested yet)             |
|                                                                             |
 ----------------------------------------------------------------------------- 

 POTCAR:    PAW_PBE K_pv 17Jan2003                
   VRHFIN =K:  p6s1                                                             
   LEXCH  = PE                                                                  
   EATOM  =   450.4813 eV,   33.1094 Ry                                         
                                                                                
   TITEL  = PAW_PBE K_pv 17Jan2003                                              
   LULTRA =        F    use ultrasoft PP ?                                      
   IUNSCR =        1    unscreen: 0-lin 1-nonlin 2-no                           
   RPACOR =    2.500    partial core radius                                     
   POMASS =   39.098; ZVAL   =    7.000    mass and valenz                      
   RCORE  =    3.100    outmost cutoff radius                                   
   RWIGS  =    4.300; RWIGS  =    2.275    wigner-seitz radius (au A)           
   ENMAX  =  116.731; ENMIN  =   87.548 eV                                      
   RCLOC  =    2.806    cutoff for local pot                                    
   LCOR   =        T    correct aug charges                                     
   LPAW   =        T    paw PP                                                  
   EAUG   =  291.424                                                            
   DEXC   =    0.000                                                            
   RMAX   =    3.171    core radius for proj-oper                               
   RAUG   =    1.300    factor for augmentation sphere                          
   RDEP   =    3.267    radius for radial grids                                 
   RDEPT  =    2.513    core radius for aug-charge                              
                                                                                
   Atomic configuration                                                         
    7 entries                                                                   
     n  l   j            E        occ.                                          
     1  0  0.50     -3522.0595   2.0000                                         
     2  0  0.50      -353.3851   2.0000                                         
     2  1  1.50      -280.0935   6.0000                                         
     3  0  0.50       -35.3419   2.0000                                         
     3  1  1.50       -18.8125   6.0000                                         
     4  0  0.50        -2.3190   1.0000                                         
     3  2  1.50        -1.3606   0.0000                                         
   Description                                                                  
     l       E           TYP  RCUT    TYP  RCUT                                 
     1    -18.8124623     23  3.000                                             
     1    -20.4087390     23  3.000                                             
     0     -2.3190215     23  3.100                                             
     0     20.4087390     23  3.100                                             
     2     -1.3605826     23  3.000                                             
  local pseudopotential read in
  partial core-charges read in
  partial kinetic energy density read in
  atomic valenz-charges read in
  non local Contribution for L=           1  read in
    real space projection operators read in
  non local Contribution for L=           1  read in
    real space projection operators read in
  non local Contribution for L=           0  read in
    real space projection operators read in
  non local Contribution for L=           0  read in
    real space projection operators read in
  non local Contribution for L=           2  read in
    real space projection operators read in
    PAW grid and wavefunctions read in
 
   number of l-projection  operators is LMAX  =           5
   number of lm-projection operators is LMMAX =          13
 
 POTCAR:    PAW_PBE Sb 06Sep2000                  
   VRHFIN =Sb: s2p3                                                             
   LEXCH  = PE                                                                  
   EATOM  =   149.9515 eV,   11.0211 Ry                                         
                                                                                
   TITEL  = PAW_PBE Sb 06Sep2000                                                
   LULTRA =        F    use ultrasoft PP ?                                      
   IUNSCR =        1    unscreen: 0-lin 1-nonlin 2-no                           
   RPACOR =    2.200    partial core radius                                     
   POMASS =  121.750; ZVAL   =    5.000    mass and valenz                      
   RCORE  =    2.300    outmost cutoff radius                                   
   RWIGS  =    2.980; RWIGS  =    1.577    wigner-seitz radius (au A)           
   ENMAX  =  172.069; ENMIN  =  129.052 eV                                      
   ICORE  =        3    local potential                                         
   LCOR   =        T    correct aug charges                                     
   LPAW   =        T    paw PP                                                  
   EAUG   =  380.513                                                            
   DEXC   =    0.000                                                            
   RMAX   =    2.346    core radius for proj-oper                               
   RAUG   =    1.300    factor for augmentation sphere                          
   RDEP   =    2.360    radius for radial grids                                 
   RDEPT  =    2.192    core radius for aug-charge                              
                                                                                
   Atomic configuration                                                         
   13 entries                                                                   
     n  l   j            E        occ.                                          
     1  0  0.50    -30298.2797   2.0000                                         
     2  0  0.50     -4610.2252   2.0000                                         
     2  1  1.50     -4138.3407   6.0000                                         
     3  0  0.50      -903.8815   2.0000                                         
     3  1  1.50      -750.1337   6.0000                                         
     3  2  2.50      -515.7092  10.0000                                         
     4  0  0.50      -148.8034   2.0000                                         
     4  1  1.50      -101.7581   6.0000                                         
     4  2  2.50       -33.5048  10.0000                                         
     5  0  0.50       -12.8298   2.0000                                         
     5  1  0.50        -4.8276   3.0000                                         
     5  2  1.50        -4.0817   0.0000                                         
     4  3  2.50        -4.0817   0.0000                                         
   Description                                                                  
     l       E           TYP  RCUT    TYP  RCUT                                 
     0    -12.8297861     23  2.300                                             
     0     13.6058260     23  2.300                                             
     1     -4.8275512     23  2.300                                             
     1     -0.7245443     23  2.300                                             
     2     -4.0817478     23  2.300                                             
     3     -1.3605826     23  2.300                                             
  local pseudopotential read in
  partial core-charges read in
  partial kinetic energy density read in
  atomic valenz-charges read in
  non local Contribution for L=           0  read in
    real space projection operators read in
  non local Contribution for L=           0  read in
    real space projection operators read in
  non local Contribution for L=           1  read in
    real space projection operators read in
  non local Contribution for L=           1  read in
    real space projection operators read in
  non local Contribution for L=           2  read in
    real space projection operators read in
    PAW grid and wavefunctions read in
 
   number of l-projection  operators is LMAX  =           5
   number of lm-projection operators is LMMAX =          13
 
 POTCAR:    PAW_PBE S 06Sep2000                   
   VRHFIN =S : s2p4                                                             
   LEXCH  = PE                                                                  
   EATOM  =   276.8230 eV,   20.3459 Ry                                         
                                                                                
   TITEL  = PAW_PBE S 06Sep2000                                                 
   LULTRA =        F    use ultrasoft PP ?                                      
   IUNSCR =        1    unscreen: 0-lin 1-nonlin 2-no                           
   RPACOR =    1.500    partial core radius                                     
   POMASS =   32.066; ZVAL   =    6.000    mass and valenz                      
   RCORE  =    1.900    outmost cutoff radius                                   
   RWIGS  =    2.200; RWIGS  =    1.164    wigner-seitz radius (au A)           
   ENMAX  =  258.689; ENMIN  =  194.016 eV                                      
   ICORE  =        2    local potential                                         
   LCOR   =        T    correct aug charges                                     
   LPAW   =        T    paw PP                                                  
   EAUG   =  335.092                                                            
   DEXC   =    0.000                                                            
   RMAX   =    1.942    core radius for proj-oper                               
   RAUG   =    1.300    factor for augmentation sphere                          
   RDEP   =    1.954    radius for radial grids                                 
   RDEPT  =    1.744    core radius for aug-charge                              
                                                                                
   Atomic configuration                                                         
    6 entries                                                                   
     n  l   j            E        occ.                                          
     1  0  0.50     -2405.8406   2.0000                                         
     2  0  0.50      -211.7007   2.0000                                         
     2  1  1.50      -156.4958   6.0000                                         
     3  0  0.50       -17.2562   2.0000                                         
     3  1  0.50        -7.0085   4.0000                                         
     3  2  1.50        -6.8029   0.0000                                         
   Description                                                                  
     l       E           TYP  RCUT    TYP  RCUT                                 
     0    -17.2561641     23  1.900                                             
     0    -15.8743224     23  1.900                                             
     1     -7.0085400     23  1.900                                             
     1     -2.7779785     23  1.900                                             
     2     -6.8029130     23  1.900                                             
  local pseudopotential read in
  partial core-charges read in
  partial kinetic energy density read in
  atomic valenz-charges read in
  non local Contribution for L=           0  read in
    real space projection operators read in
  non local Contribution for L=           0  read in
    real space projection operators read in
  non local Contribution for L=           1  read in
    real space projection operators read in
  non local Contribution for L=           1  read in
    real space projection operators read in
    PAW grid and wavefunctions read in
 
   number of l-projection  operators is LMAX  =           4
   number of lm-projection operators is LMMAX =           8
 
 Optimization of the real space projectors (new method)

 maximal supplied QI-value         = 12.09
 optimisation between [QCUT,QGAM] = [  8.83, 17.66] = [ 21.83, 87.31] Ry 
 Optimized for a Real-space Cutoff    1.69 Angstroem

   l    n(q)    QCUT    max X(q) W(low)/X(q) W(high)/X(q)  e(spline) 
   1      8     8.829    42.457    0.27E-03    0.59E-03    0.25E-06
   1      8     8.829    43.305    0.28E-03    0.61E-03    0.26E-06
   0      9     8.829    47.210    0.17E-02    0.12E-03    0.43E-06
   0      9     8.829    15.951    0.11E-02    0.76E-04    0.28E-06
   2      8     8.829     5.674    0.29E-03    0.69E-04    0.39E-07
 Optimization of the real space projectors (new method)

 maximal supplied QI-value         = 16.25
 optimisation between [QCUT,QGAM] = [  8.78, 17.71] = [ 21.57, 87.87] Ry 
 Optimized for a Real-space Cutoff    1.26 Angstroem

   l    n(q)    QCUT    max X(q) W(low)/X(q) W(high)/X(q)  e(spline) 
   0      7     8.776    19.000    0.12E-02    0.42E-03    0.95E-07
   0      7     8.776     9.057    0.14E-02    0.54E-03    0.11E-06
   1      6     8.776   125.345    0.45E-03    0.22E-02    0.77E-07
   1      6     8.776    79.963    0.45E-03    0.21E-02    0.76E-07
   2      6     8.776     6.963    0.11E-02    0.51E-03    0.39E-07
 Optimization of the real space projectors (new method)

 maximal supplied QI-value         = 19.84
 optimisation between [QCUT,QGAM] = [  8.73, 17.66] = [ 21.34, 87.33] Ry 
 Optimized for a Real-space Cutoff    1.22 Angstroem

   l    n(q)    QCUT    max X(q) W(low)/X(q) W(high)/X(q)  e(spline) 
   0      6     8.731   187.594    0.15E-02    0.56E-03    0.90E-07
   0      6     8.731   164.243    0.15E-02    0.56E-03    0.89E-07
   1      6     8.731    67.533    0.37E-03    0.20E-02    0.11E-06
   1      6     8.731    50.729    0.36E-03    0.19E-02    0.10E-06
  PAW_PBE K_pv 17Jan2003                :
 energy of atom  1       EATOM= -450.4813
 kinetic energy error for atom=    0.0008 (will be added to EATOM!!)
  PAW_PBE Sb 06Sep2000                  :
 energy of atom  2       EATOM= -149.9515
 kinetic energy error for atom=    0.0018 (will be added to EATOM!!)
  PAW_PBE S 06Sep2000                   :
 energy of atom  3       EATOM= -276.8230
 kinetic energy error for atom=    0.0077 (will be added to EATOM!!)
 
 
 POSCAR: K4 Sb4 S8                               
  positions in direct lattice
  No initial velocities read in
 exchange correlation table for  LEXCH =        8
   RHO(1)=    0.500       N(1)  =     2000
   RHO(2)=  100.500       N(2)  =     4000
 


--------------------------------------------------------------------------------------------------------


 ion  position               nearest neighbor table
   1  0.517  0.738  0.881-  15 3.27  10 3.32  12 3.33  12 3.33  15 3.36  16 3.41   6 4.24   5 4.27
                             2 4.33   8 4.47   3 4.47   6 4.56   2 4.57   3 4.75
   2  0.483  0.262  0.119-  16 3.27   9 3.32  11 3.33  11 3.33  16 3.36  15 3.41   5 4.24   6 4.27
                             1 4.33   7 4.47   4 4.47   5 4.56   1 4.57   4 4.75
   3  0.984  0.737  0.619-  13 3.27  12 3.32  10 3.32  10 3.33  13 3.36  14 3.41   8 4.24   7 4.27
                             4 4.33   6 4.46   1 4.47   8 4.57   4 4.57   1 4.75
   4  0.016  0.263  0.381-  14 3.27  11 3.32   9 3.32   9 3.33  14 3.36  13 3.41   7 4.24   8 4.27
                             3 4.33   5 4.46   2 4.47   7 4.57   3 4.57   2 4.75
   5  0.037  0.796  0.121-  11 2.58  16 2.58  14 2.90  12 2.93   2 4.24   1 4.27   4 4.46   2 4.56

   6  0.963  0.204  0.879-  12 2.58  15 2.58  13 2.90  11 2.93   1 4.24   2 4.27   3 4.46   1 4.56

   7  0.463  0.795  0.379-   9 2.58  14 2.58  16 2.90  10 2.93   4 4.24   3 4.27   2 4.47   4 4.57

   8  0.537  0.205  0.621-  10 2.58  13 2.58  15 2.90   9 2.93   3 4.24   4 4.27   1 4.47   3 4.57

   9  0.517  0.186  0.384-   7 2.58   8 2.93   2 3.32   4 3.32   4 3.33
  10  0.483  0.814  0.616-   8 2.58   7 2.93   1 3.32   3 3.32   3 3.33
  11  0.983  0.186  0.115-   5 2.58   6 2.93   4 3.32   2 3.33   2 3.33
  12  0.017  0.814  0.885-   6 2.58   5 2.93   3 3.32   1 3.33   1 3.33
  13  0.932  0.230  0.645-   8 2.58   6 2.90   3 3.27   3 3.36   4 3.41
  14  0.068  0.770  0.355-   7 2.58   5 2.90   4 3.27   4 3.36   3 3.41
  15  0.568  0.231  0.855-   6 2.58   8 2.90   1 3.27   1 3.36   2 3.41
  16  0.432  0.769  0.145-   5 2.58   7 2.90   2 3.27   2 3.36   1 3.41
 
  LATTYP: Found a triclinic cell.
 ALAT       =     6.5798618772
 B/A-ratio  =     2.2511181413
 C/A-ratio  =     0.9954268990
 COS(alpha) =     0.0001051169
 COS(beta)  =     0.0013766762
 COS(gamma) =     0.5517367503
  
  Lattice vectors:
  
 A1 = (   6.4569994200,   0.7907541400,  -0.9881541900)
 A2 = (   6.3097297400,  -0.2637628100, -13.3983006200)
 A3 = (  -0.8651498400,   6.4702543800,  -0.5355658400)


Analysis of symmetry for initial positions (statically):
=====================================================================
 Subroutine PRICEL returns:
 Original cell was already a primitive cell.
 

 Routine SETGRP: Setting up the symmetry group for a 
 triclinic supercell.


 Subroutine GETGRP returns: Found  2 space group operations
 (whereof  2 operations were pure point group operations)
 out of a pool of  2 trial point group operations.


The static configuration has the point symmetry S_2 .


Analysis of symmetry for dynamics (positions and initial velocities):
=====================================================================
 Subroutine PRICEL returns:
 Original cell was already a primitive cell.
 

 Routine SETGRP: Setting up the symmetry group for a 
 triclinic supercell.


 Subroutine GETGRP returns: Found  2 space group operations
 (whereof  2 operations were pure point group operations)
 out of a pool of  2 trial point group operations.


The dynamic configuration has the point symmetry S_2 .


 Subroutine INISYM returns: Found  2 space group operations
 (whereof  2 operations are pure point group operations),
 and found     1 'primitive' translations

 
 
 KPOINTS: pymatgen with grid density = 807 / numbe

Automatic generation of k-mesh.
Space group operators:
 irot       det(A)        alpha          n_x          n_y          n_z        tau_x        tau_y        tau_z
    1     1.000000     0.000000     1.000000     0.000000     0.000000     0.000000     0.000000     0.000000
    2    -1.000000     0.000000     1.000000     0.000000     0.000000     0.000000     0.000000     0.000000
 
 Subroutine IBZKPT returns following result:
 ===========================================
 
 Found      9 irreducible k-points:
 
 Following reciprocal coordinates:
            Coordinates               Weight
  0.000000  0.000000  0.250000      2.000000
  0.333333 -0.000000  0.250000      2.000000
 -0.333333 -0.000000  0.250000      2.000000
 -0.000000  0.333333  0.250000      2.000000
  0.333333  0.333333  0.250000      2.000000
 -0.333333  0.333333  0.250000      2.000000
 -0.000000 -0.333333  0.250000      2.000000
  0.333333 -0.333333  0.250000      2.000000
 -0.333333 -0.333333  0.250000      2.000000
 
 Following cartesian coordinates:
            Coordinates               Weight
  0.002803  0.002025  0.019939      2.000000
  0.053431  0.008698  0.018772      2.000000
 -0.047824 -0.004648  0.021107      2.000000
 -0.003993  0.052287  0.015749      2.000000
  0.046634  0.058960  0.014581      2.000000
 -0.054621  0.045615  0.016917      2.000000
  0.009600 -0.048237  0.024130      2.000000
  0.060228 -0.041564  0.022962      2.000000
 -0.041028 -0.054910  0.025297      2.000000
 


--------------------------------------------------------------------------------------------------------




 Dimension of arrays:
   k-points           NKPTS =      9   k-points in BZ     NKDIM =      9   number of bands    NBANDS=     70
   number of dos      NEDOS =    301   number of ions     NIONS =     16
   non local maximal  LDIM  =      5   non local SUM 2l+1 LMDIM =     13
   total plane-waves  NPLWV =  42336
   max r-space proj   IRMAX =   1661   max aug-charges    IRDMAX=   2943
   dimension x,y,z NGX =    28 NGY =   28 NGZ =   54
   dimension x,y,z NGXF=    42 NGYF=   42 NGZF=   80
   support grid    NGXF=    42 NGYF=   42 NGZF=   80
   ions per type =               4   4   8
   NGX,Y,Z   is equivalent  to a cutoff of   7.07,  7.11,  7.21 a.u.
   NGXF,Y,Z  is equivalent  to a cutoff of  10.61, 10.66, 10.68 a.u.

 SYSTEM =  CIS                                     
 POSCAR =  K4 Sb4 S8                               

 Startparameter for this run:
   NWRITE =      2    write-flag & timer
   PREC   = medium    normal or accurate (medium, high low for compatibility)
   ISTART =      0    job   : 0-new  1-cont  2-samecut
   ICHARG =      2    charge: 1-file 2-atom 10-const
   ISPIN  =      1    spin polarized calculation?
   LNONCOLLINEAR =      F non collinear calculations
   LSORBIT =      F    spin-orbit coupling
   INIWAV =      1    electr: 0-lowe 1-rand  2-diag
   LASPH  =      T    aspherical Exc in radial PAW
   METAGGA=      F    non-selfconsistent MetaGGA calc.

 Electronic Relaxation 1
   ENCUT  =  300.0 eV  22.05 Ry    4.70 a.u.   9.29  9.25 17.59*2*pi/ulx,y,z
   ENINI  =  300.0     initial cutoff
   ENAUG  =  380.5 eV  augmentation charge cutoff
   NELM   =     60;   NELMIN=  2; NELMDL= -5     # of ELM steps 
   EDIFF  = 0.1E-03   stopping-criterion for ELM
   LREAL  =      T    real-space projection
   NLSPLINE    = F    spline interpolate recip. space projectors
   LCOMPAT=      F    compatible to vasp.4.4
   GGA_COMPAT  = T    GGA compatible to vasp.4.4-vasp.4.6
   LMAXPAW     = -100 max onsite density
   LMAXMIX     =    4 max onsite mixed and CHGCAR
   VOSKOWN=      0    Vosko Wilk Nusair interpolation
   ROPT   =   -0.00200  -0.00200  -0.00200
 Ionic relaxation
   EDIFFG = -.5E-01   stopping-criterion for IOM
   NSW    =     99    number of steps for IOM
   NBLOCK =      1;   KBLOCK =     99    inner block; outer block 
   IBRION =      2    ionic relax: 0-MD 1-quasi-New 2-CG
   NFREE  =      1    steps in history (QN), initial steepest desc. (CG)
   ISIF   =      3    stress and relaxation
   IWAVPR =     11    prediction:  0-non 1-charg 2-wave 3-comb
   ISYM   =      2    0-nonsym 1-usesym 2-fastsym
   LCORR  =      T    Harris-Foulkes like correction to forces

   POTIM  = 0.1000    time-step for ionic-motion
   TEIN   =    0.0    initial temperature
   TEBEG  =    0.0;   TEEND  =   0.0 temperature during run
   SMASS  =  -3.00    Nose mass-parameter (am)
   estimated Nose-frequenzy (Omega)   =  0.10E-29 period in steps =****** mass=  -0.989E-27a.u.
   SCALEE = 1.0000    scale energy and forces
   NPACO  =    256;   APACO  = 16.0  distance and # of slots for P.C.
   PSTRESS=    0.0 pullay stress

  Mass of Ions in am
   POMASS =  39.10121.75 32.07
  Ionic Valenz
   ZVAL   =   7.00  5.00  6.00
  Atomic Wigner-Seitz radii
   RWIGS  =  -1.00 -1.00 -1.00
  virtual crystal weights 
   VCA    =   1.00  1.00  1.00
   NELECT =      96.0000    total number of electrons
   NUPDOWN=      -1.0000    fix difference up-down

 DOS related values:
   EMIN   =  10.00;   EMAX   =-10.00  energy-range for DOS
   EFERMI =   0.00
   ISMEAR =     0;   SIGMA  =   0.05  broadening in eV -4-tet -1-fermi 0-gaus

 Electronic relaxation 2 (details)
   IALGO  =     38    algorithm
   LDIAG  =      T    sub-space diagonalisation (order eigenvalues)
   LSUBROT=      F    optimize rotation matrix (better conditioning)
   TURBO    =      0    0=normal 1=particle mesh
   IRESTART =      0    0=no restart 2=restart with 2 vectors
   NREBOOT  =      0    no. of reboots
   NMIN     =      0    reboot dimension
   EREF     =   0.00    reference energy to select bands
   IMIX   =      4    mixing-type and parameters
     AMIX     =   0.40;   BMIX     =  1.00
     AMIX_MAG =   1.60;   BMIX_MAG =  1.00
     AMIN     =   0.10
     WC   =   100.;   INIMIX=   1;  MIXPRE=   1;  MAXMIX= -45

 Intra band minimization:
   WEIMIN = 0.0010     energy-eigenvalue tresh-hold
   EBREAK =  0.36E-06  absolut break condition
   DEPER  =   0.30     relativ break condition  

   TIME   =   0.40     timestep for ELM

  volume/ion in A,a.u.               =      33.27       224.55
  Fermi-wavevector in a.u.,A,eV,Ry     =   0.924885  1.747779 11.638581  0.855412
  Thomas-Fermi vector in A             =   2.050679
 
 Write flags
   LWAVE        =      F    write WAVECAR
   LDOWNSAMPLE  =      F    k-point downsampling of WAVECAR
   LCHARG       =      F    write CHGCAR
   LVTOT        =      F    write LOCPOT, total local potential
   LVHAR        =      F    write LOCPOT, Hartree potential only
   LELF         =      F    write electronic localiz. function (ELF)
   LORBIT       =     10    0 simple, 1 ext, 2 COOP (PROOUT), +10 PAW based schemes


 Dipole corrections
   LMONO  =      F    monopole corrections only (constant potential shift)
   LDIPOL =      F    correct potential (dipole corrections)
   IDIPOL =      0    1-x, 2-y, 3-z, 4-all directions 
   EPSILON=  1.0000000 bulk dielectric constant

 Exchange correlation treatment:
   GGA     =    --    GGA type
   LEXCH   =     8    internal setting for exchange type
   VOSKOWN=      0    Vosko Wilk Nusair interpolation
   LHFCALC =     F    Hartree Fock is set to
   LHFONE  =     F    Hartree Fock one center treatment
   AEXX    =    0.0000 exact exchange contribution

 Linear response parameters
   LEPSILON=     F    determine dielectric tensor
   LRPA    =     F    only Hartree local field effects (RPA)
   LNABLA  =     F    use nabla operator in PAW spheres
   LVEL    =     F    velocity operator in full k-point grid
   LINTERFAST=   F  fast interpolation
   KINTER  =     0    interpolate to denser k-point grid
   CSHIFT  =0.1000    complex shift for real part using Kramers Kronig
   OMEGAMAX=  -1.0    maximum frequency
   DEG_THRESHOLD= 0.2000000E-02 threshold for treating states as degnerate
   RTIME   =   -0.100 relaxation time in fs
  (WPLASMAI=    0.000 imaginary part of plasma frequency in eV, 0.658/RTIME)
   DFIELD  = 0.0000000 0.0000000 0.0000000 field for delta impulse in time
 
 Orbital magnetization related:
   ORBITALMAG=     F  switch on orbital magnetization
   LCHIMAG   =     F  perturbation theory with respect to B field
   DQ        =  0.001000  dq finite difference perturbation B field
   LLRAUG    =     F  two centre corrections for induced B field



--------------------------------------------------------------------------------------------------------


 conjugate gradient relaxation of ions
 charge density and potential will be updated during run
 non-spin polarized calculation
 Variant of blocked Davidson
 Davidson routine will perform the subspace rotation
 perform sub-space diagonalisation
    after iterative eigenvector-optimisation
 modified Broyden-mixing scheme, WC =      100.0
 initial mixing is a Kerker type mixing with AMIX =  0.4000 and BMIX =      1.0000
 Hartree-type preconditioning will be used
 using additional bands           22
 real space projection scheme for non local part
 use partial core corrections
 calculate Harris-corrections to forces 
   (improved forces if not selfconsistent)
 use gradient corrections 
 use of overlap-Matrix (Vanderbilt PP)
 Gauss-broadening in eV      SIGMA  =   0.05


--------------------------------------------------------------------------------------------------------


  energy-cutoff  :      300.00
  volume of cell :      532.39
      direct lattice vectors                 reciprocal lattice vectors
     6.456999420  0.790754140 -0.988154190     0.151882983  0.020018570 -0.003503398
    -0.865149840  6.470254380 -0.535565840    -0.020389792  0.150786551 -0.012570696
     0.147269680  1.054516950 12.410146430     0.011213706  0.008101239  0.079757775

  length of vectors
     6.579861877  6.549771504 12.455738789     0.153236607  0.152677274  0.080948625


 
 k-points in units of 2pi/SCALE and weight: pymatgen with grid density = 807 / numbe
   0.00280343  0.00202531  0.01993944       0.111
   0.05343109  0.00869817  0.01877164       0.111
  -0.04782423 -0.00464755  0.02110724       0.111
  -0.00399317  0.05228749  0.01574921       0.111
   0.04663449  0.05896035  0.01458141       0.111
  -0.05462083  0.04561464  0.01691701       0.111
   0.00960002 -0.04823687  0.02412968       0.111
   0.06022768 -0.04156402  0.02296188       0.111
  -0.04102764 -0.05490973  0.02529747       0.111
 
 k-points in reciprocal lattice and weights: pymatgen with grid density = 807 / numbe
   0.00000000  0.00000000  0.25000000       0.111
   0.33333333 -0.00000000  0.25000000       0.111
  -0.33333333 -0.00000000  0.25000000       0.111
  -0.00000000  0.33333333  0.25000000       0.111
   0.33333333  0.33333333  0.25000000       0.111
  -0.33333333  0.33333333  0.25000000       0.111
  -0.00000000 -0.33333333  0.25000000       0.111
   0.33333333 -0.33333333  0.25000000       0.111
  -0.33333333 -0.33333333  0.25000000       0.111
 
 position of ions in fractional coordinates (direct lattice) 
   0.51696127  0.73781771  0.88080757
   0.48303873  0.26218229  0.11919243
   0.98367476  0.73743148  0.61946244
   0.01632524  0.26256852  0.38053756
   0.03733388  0.79571282  0.12119584
   0.96266612  0.20428718  0.87880416
   0.46308368  0.79527065  0.37915100
   0.53691632  0.20472935  0.62084900
   0.51656990  0.18558520  0.38446004
   0.48343010  0.81441480  0.61553996
   0.98260466  0.18602253  0.11531716
   0.01739534  0.81397747  0.88468284
   0.93178840  0.23024954  0.64474581
   0.06821160  0.76975046  0.35525419
   0.56779112  0.23067466  0.85497141
   0.43220888  0.76932534  0.14502859
 
 position of ions in cartesian coordinates  (Angst):
   2.82941200  6.11148405 10.02496351
   2.90970726  2.20404142  0.86146289
   5.80482666  6.20244780  6.32065414
  -0.06570740  2.11307767  4.56577226
  -0.42949750  5.30578935  1.04100989
   6.16861676  3.00973612  9.84541651
   2.35794022  5.91160990  3.82180156
   3.38117904  2.40391557  7.06462484
   3.23155185  2.01468287  4.16136159
   2.50756741  6.30084260  6.72506481
   6.20072308  2.10221569  0.36051062
  -0.46160382  6.21330978 10.52591578
   5.91230831  2.90648401  6.95732551
  -0.17318905  5.40904146  3.92910089
   3.59257015  2.84308875  9.92571375
   2.14654911  5.47243672  0.96071265
 


--------------------------------------------------------------------------------------------------------


 k-point  1 :   0.0000 0.0000 0.2500  plane waves:    6296
 k-point  2 :   0.3333-0.0000 0.2500  plane waves:    6289
 k-point  3 :  -0.3333-0.0000 0.2500  plane waves:    6291
 k-point  4 :  -0.0000 0.3333 0.2500  plane waves:    6292
 k-point  5 :   0.3333 0.3333 0.2500  plane waves:    6277
 k-point  6 :  -0.3333 0.3333 0.2500  plane waves:    6276
 k-point  7 :  -0.0000-0.3333 0.2500  plane waves:    6293
 k-point  8 :   0.3333-0.3333 0.2500  plane waves:    6281
 k-point  9 :  -0.3333-0.3333 0.2500  plane waves:    6270

 maximum and minimum number of plane-waves per node :      6296     6270

 maximum number of plane-waves:      6296
 maximum index in each direction: 
   IXMAX=    9   IYMAX=    9   IZMAX=   17
   IXMIN=   -9   IYMIN=   -9   IZMIN=  -17


 serial   3D FFT for wavefunctions
 parallel 3D FFT for charge:
    minimum data exchange during FFTs selected (reduces bandwidth)


 total amount of memory used by VASP MPI-rank0    39471. kBytes
=======================================================================

   base      :      30000. kBytes
   nonlr-proj:       1784. kBytes
   fftplans  :        539. kBytes
   grid      :       2363. kBytes
   one-center:        129. kBytes
   wavefun   :       4656. kBytes
 
     INWAV:  cpu time    0.0000: real time    0.0001
 Broyden mixing: mesh for mixing (old mesh)
   NGX = 19   NGY = 19   NGZ = 35
  (NGX  = 42   NGY  = 42   NGZ  = 80)
  gives a total of  12635 points

 initial charge density was supplied:
 charge density of overlapping atoms calculated
 number of electron      96.0000000 magnetization 
 keeping initial charge density in first step


--------------------------------------------------------------------------------------------------------


 Maximum index for non-local projection operator         1567
 Maximum index for augmentation-charges          229 (set IRDMAX)


--------------------------------------------------------------------------------------------------------


 First call to EWALD:  gamma=   0.219
 Maximum number of real-space cells 3x 3x 2
 Maximum number of reciprocal cells 2x 2x 4

    FEWALD:  cpu time    0.0019: real time    0.0020


--------------------------------------- Iteration      1(   1)  ---------------------------------------


    POTLOK:  cpu time    0.0109: real time    0.0334
    SETDIJ:  cpu time    0.1640: real time    0.1651
     EDDAV:  cpu time    0.6083: real time    0.6088
       DOS:  cpu time    0.0005: real time    0.0005
    --------------------------------------------
      LOOP:  cpu time    0.7836: real time    0.8078

 eigenvalue-minimisations  :  1260
 total energy-change (2. order) : 0.4619577E+03  (-0.2729400E+04)
 number of electron      96.0000000 magnetization 
 augmentation part       96.0000000 magnetization 

 Free energy of the ion-electron system (eV)
  ---------------------------------------------------
  alpha Z        PSCENC =       163.84187613
  Ewald energy   TEWEN  =     -3561.30824725
  -Hartree energ DENC   =      -891.25435719
  -exchange      EXHF   =         0.00000000
  -V(xc)+E(xc)   XCENC  =       -45.67820263
  PAW double counting   =      3748.35138545    -3493.87913001
  entropy T*S    EENTRO =        -0.01616485
  eigenvalues    EBANDS =       -74.34298319
  atomic energy  EATOM  =      4616.24348075
  Solvation  Ediel_sol  =         0.00000000
  ---------------------------------------------------
  free energy    TOTEN  =       461.95765721 eV

  energy without entropy =      461.97382206  energy(sigma->0) =      461.96573963


--------------------------------------------------------------------------------------------------------




--------------------------------------- Iteration      1(   2)  ---------------------------------------


     EDDAV:  cpu time    0.6548: real time    0.6567
       DOS:  cpu time    0.0002: real time    0.0002
    --------------------------------------------
      LOOP:  cpu time    0.6551: real time    0.6569

 eigenvalue-minimisations  :  1624
 total energy-change (2. order) :-0.4865605E+03  (-0.4712629E+03)
 number of electron      96.0000000 magnetization 
 augmentation part       96.0000000 magnetization 

 Free energy of the ion-electron system (eV)
  ---------------------------------------------------
  alpha Z        PSCENC =       163.84187613
  Ewald energy   TEWEN  =     -3561.30824725
  -Hartree energ DENC   =      -891.25435719
  -exchange      EXHF   =         0.00000000
  -V(xc)+E(xc)   XCENC  =       -45.67820263
  PAW double counting   =      3748.35138545    -3493.87913001
  entropy T*S    EENTRO =        -0.00000000
  eigenvalues    EBANDS =      -560.91967871
  atomic energy  EATOM  =      4616.24348075
  Solvation  Ediel_sol  =         0.00000000
  ---------------------------------------------------
  free energy    TOTEN  =       -24.60287346 eV

  energy without entropy =      -24.60287346  energy(sigma->0) =      -24.60287346


--------------------------------------------------------------------------------------------------------




--------------------------------------- Iteration      1(   3)  ---------------------------------------


     EDDAV:  cpu time    0.7324: real time    0.7326
       DOS:  cpu time    0.0002: real time    0.0002
    --------------------------------------------
      LOOP:  cpu time    0.7327: real time    0.7328

 eigenvalue-minimisations  :  1540
 total energy-change (2. order) :-0.4422159E+02  (-0.4378828E+02)
 number of electron      96.0000000 magnetization 
 augmentation part       96.0000000 magnetization 

 Free energy of the ion-electron system (eV)
  ---------------------------------------------------
  alpha Z        PSCENC =       163.84187613
  Ewald energy   TEWEN  =     -3561.30824725
  -Hartree energ DENC   =      -891.25435719
  -exchange      EXHF   =         0.00000000
  -V(xc)+E(xc)   XCENC  =       -45.67820263
  PAW double counting   =      3748.35138545    -3493.87913001
  entropy T*S    EENTRO =        -0.00000000
  eigenvalues    EBANDS =      -605.14126553
  atomic energy  EATOM  =      4616.24348075
  Solvation  Ediel_sol  =         0.00000000
  ---------------------------------------------------
  free energy    TOTEN  =       -68.82446028 eV

  energy without entropy =      -68.82446028  energy(sigma->0) =      -68.82446028


--------------------------------------------------------------------------------------------------------




--------------------------------------- Iteration      1(   4)  ---------------------------------------


     EDDAV:  cpu time    0.7101: real time    0.7104
       DOS:  cpu time    0.0003: real time    0.0003
    --------------------------------------------
      LOOP:  cpu time    0.7105: real time    0.7107

 eigenvalue-minimisations  :  1512
 total energy-change (2. order) :-0.8984578E+00  (-0.8967538E+00)
 number of electron      96.0000000 magnetization 
 augmentation part       96.0000000 magnetization 

 Free energy of the ion-electron system (eV)
  ---------------------------------------------------
  alpha Z        PSCENC =       163.84187613
  Ewald energy   TEWEN  =     -3561.30824725
  -Hartree energ DENC   =      -891.25435719
  -exchange      EXHF   =         0.00000000
  -V(xc)+E(xc)   XCENC  =       -45.67820263
  PAW double counting   =      3748.35138545    -3493.87913001
  entropy T*S    EENTRO =        -0.00000000
  eigenvalues    EBANDS =      -606.03972334
  atomic energy  EATOM  =      4616.24348075
  Solvation  Ediel_sol  =         0.00000000
  ---------------------------------------------------
  free energy    TOTEN  =       -69.72291809 eV

  energy without entropy =      -69.72291809  energy(sigma->0) =      -69.72291809


--------------------------------------------------------------------------------------------------------




--------------------------------------- Iteration      1(   5)  ---------------------------------------


     EDDAV:  cpu time    0.6367: real time    0.6368
       DOS:  cpu time    0.0002: real time    0.0002
    CHARGE:  cpu time    0.0194: real time    0.0194
    MIXING:  cpu time    0.0004: real time    0.0004
    --------------------------------------------
      LOOP:  cpu time    0.6568: real time    0.6569

 eigenvalue-minimisations  :  1596
 total energy-change (2. order) :-0.1907303E-01  (-0.1907133E-01)
 number of electron      96.0000193 magnetization 
 augmentation part        4.8508133 magnetization 

 Broyden mixing:
  rms(total) = 0.13520E+01    rms(broyden)= 0.13519E+01
  rms(prec ) = 0.16947E+01
  weight for this iteration     100.00

 Free energy of the ion-electron system (eV)
  ---------------------------------------------------
  alpha Z        PSCENC =       163.84187613
  Ewald energy   TEWEN  =     -3561.30824725
  -Hartree energ DENC   =      -891.25435719
  -exchange      EXHF   =         0.00000000
  -V(xc)+E(xc)   XCENC  =       -45.67820263
  PAW double counting   =      3748.35138545    -3493.87913001
  entropy T*S    EENTRO =        -0.00000000
  eigenvalues    EBANDS =      -606.05879638
  atomic energy  EATOM  =      4616.24348075
  Solvation  Ediel_sol  =         0.00000000
  ---------------------------------------------------
  free energy    TOTEN  =       -69.74199113 eV

  energy without entropy =      -69.74199113  energy(sigma->0) =      -69.74199113


--------------------------------------------------------------------------------------------------------




--------------------------------------- Iteration      1(   6)  ---------------------------------------


    POTLOK:  cpu time    0.0068: real time    0.0068
    SETDIJ:  cpu time    0.1662: real time    0.1662
     EDDAV:  cpu time    0.8136: real time    0.8137
       DOS:  cpu time    0.0004: real time    0.0004
    CHARGE:  cpu time    0.0204: real time    0.0204
    MIXING:  cpu time    0.0007: real time    0.0007
    --------------------------------------------
      LOOP:  cpu time    1.0082: real time    1.0083

 eigenvalue-minimisations  :  1540
 total energy-change (2. order) : 0.5168489E+01  (-0.1025209E+01)
 number of electron      96.0000200 magnetization 
 augmentation part        5.0578229 magnetization 

 Broyden mixing:
  rms(total) = 0.10459E+01    rms(broyden)= 0.10459E+01
  rms(prec ) = 0.10753E+01
  weight for this iteration     100.00

 eigenvalues of (default mixing * dielectric matrix)
  average eigenvalue GAMMA=   1.0948
  1.0948

 Free energy of the ion-electron system (eV)
  ---------------------------------------------------
  alpha Z        PSCENC =       163.84187613
  Ewald energy   TEWEN  =     -3561.30824725
  -Hartree energ DENC   =      -929.04189980
  -exchange      EXHF   =         0.00000000
  -V(xc)+E(xc)   XCENC  =       -42.57894656
  PAW double counting   =      4462.92569324    -4208.60568087
  entropy T*S    EENTRO =        -0.00000000
  eigenvalues    EBANDS =      -566.04977749
  atomic energy  EATOM  =      4616.24348075
  Solvation  Ediel_sol  =         0.00000000
  ---------------------------------------------------
  free energy    TOTEN  =       -64.57350185 eV

  energy without entropy =      -64.57350185  energy(sigma->0) =      -64.57350185


--------------------------------------------------------------------------------------------------------




--------------------------------------- Iteration      1(   7)  ---------------------------------------


    POTLOK:  cpu time    0.0066: real time    0.0067
    SETDIJ:  cpu time    0.1689: real time    0.1691
     EDDAV:  cpu time    0.6292: real time    0.6292
       DOS:  cpu time    0.0002: real time    0.0002
    CHARGE:  cpu time    0.0180: real time    0.0180
    MIXING:  cpu time    0.0003: real time    0.0003
    --------------------------------------------
      LOOP:  cpu time    0.8232: real time    0.8235

 eigenvalue-minimisations  :  1498
 total energy-change (2. order) :-0.8379371E-01  (-0.2304409E+00)
 number of electron      96.0000198 magnetization 
 augmentation part        5.0761370 magnetization 

 Broyden mixing:
  rms(total) = 0.56770E+00    rms(broyden)= 0.56769E+00
  rms(prec ) = 0.58535E+00
  weight for this iteration     100.00

 eigenvalues of (default mixing * dielectric matrix)
  average eigenvalue GAMMA=   1.3150
  1.1379  1.4920

 Free energy of the ion-electron system (eV)
  ---------------------------------------------------
  alpha Z        PSCENC =       163.84187613
  Ewald energy   TEWEN  =     -3561.30824725
  -Hartree energ DENC   =      -935.91975590
  -exchange      EXHF   =         0.00000000
  -V(xc)+E(xc)   XCENC  =       -41.81492000
  PAW double counting   =      5268.49697904    -5013.81380940
  entropy T*S    EENTRO =        -0.00000000
  eigenvalues    EBANDS =      -560.38289894
  atomic energy  EATOM  =      4616.24348075
  Solvation  Ediel_sol  =         0.00000000
  ---------------------------------------------------
  free energy    TOTEN  =       -64.65729556 eV

  energy without entropy =      -64.65729556  energy(sigma->0) =      -64.65729556


--------------------------------------------------------------------------------------------------------




--------------------------------------- Iteration      1(   8)  ---------------------------------------


    POTLOK:  cpu time    0.0051: real time    0.0051
    SETDIJ:  cpu time    0.1655: real time    0.1655
     EDDAV:  cpu time    0.8238: real time    0.8238
       DOS:  cpu time    0.0002: real time    0.0002
    CHARGE:  cpu time    0.0190: real time    0.0190
    MIXING:  cpu time    0.0006: real time    0.0006
    --------------------------------------------
      LOOP:  cpu time    1.0142: real time    1.0143

 eigenvalue-minimisations  :  1582
 total energy-change (2. order) : 0.6818014E-03  (-0.1266699E-01)
 number of electron      96.0000197 magnetization 
 augmentation part        5.0592946 magnetization 

 Broyden mixing:
  rms(total) = 0.18496E+00    rms(broyden)= 0.18496E+00
  rms(prec ) = 0.19818E+00
  weight for this iteration     100.00

 eigenvalues of (default mixing * dielectric matrix)
  average eigenvalue GAMMA=   1.4775
  2.3339  1.0494  1.0494

 Free energy of the ion-electron system (eV)
  ---------------------------------------------------
  alpha Z        PSCENC =       163.84187613
  Ewald energy   TEWEN  =     -3561.30824725
  -Hartree energ DENC   =      -936.76764416
  -exchange      EXHF   =         0.00000000
  -V(xc)+E(xc)   XCENC  =       -41.57316414
  PAW double counting   =      5823.30022443    -5568.33244033
  entropy T*S    EENTRO =        -0.00000000
  eigenvalues    EBANDS =      -560.06069919
  atomic energy  EATOM  =      4616.24348075
  Solvation  Ediel_sol  =         0.00000000
  ---------------------------------------------------
  free energy    TOTEN  =       -64.65661376 eV

  energy without entropy =      -64.65661376  energy(sigma->0) =      -64.65661376


--------------------------------------------------------------------------------------------------------




--------------------------------------- Iteration      1(   9)  ---------------------------------------


    POTLOK:  cpu time    0.0063: real time    0.0064
    SETDIJ:  cpu time    0.1651: real time    0.1651
     EDDAV:  cpu time    0.7332: real time    0.7333
       DOS:  cpu time    0.0003: real time    0.0003
    CHARGE:  cpu time    0.0205: real time    0.0205
    MIXING:  cpu time    0.0006: real time    0.0006
    --------------------------------------------
      LOOP:  cpu time    0.9259: real time    0.9261

 eigenvalue-minimisations  :  1582
 total energy-change (2. order) :-0.1157168E-01  (-0.4552155E-02)
 number of electron      96.0000197 magnetization 
 augmentation part        5.0595491 magnetization 

 Broyden mixing:
  rms(total) = 0.42786E-01    rms(broyden)= 0.42786E-01
  rms(prec ) = 0.46726E-01
  weight for this iteration     100.00

 eigenvalues of (default mixing * dielectric matrix)
  average eigenvalue GAMMA=   1.2820
  2.2493  1.0251  1.0251  0.8285

 Free energy of the ion-electron system (eV)
  ---------------------------------------------------
  alpha Z        PSCENC =       163.84187613
  Ewald energy   TEWEN  =     -3561.30824725
  -Hartree energ DENC   =      -940.36968788
  -exchange      EXHF   =         0.00000000
  -V(xc)+E(xc)   XCENC  =       -41.17027813
  PAW double counting   =      6137.84283760    -5882.72772955
  entropy T*S    EENTRO =        -0.00000000
  eigenvalues    EBANDS =      -557.02043710
  atomic energy  EATOM  =      4616.24348075
  Solvation  Ediel_sol  =         0.00000000
  ---------------------------------------------------
  free energy    TOTEN  =       -64.66818544 eV

  energy without entropy =      -64.66818544  energy(sigma->0) =      -64.66818544


--------------------------------------------------------------------------------------------------------




--------------------------------------- Iteration      1(  10)  ---------------------------------------


    POTLOK:  cpu time    0.0063: real time    0.0065
    SETDIJ:  cpu time    0.1685: real time    0.1685
     EDDAV:  cpu time    0.8090: real time    0.8090
       DOS:  cpu time    0.0002: real time    0.0002
    CHARGE:  cpu time    0.0189: real time    0.0189
    MIXING:  cpu time    0.0004: real time    0.0004
    --------------------------------------------
      LOOP:  cpu time    1.0034: real time    1.0036

 eigenvalue-minimisations  :  1498
 total energy-change (2. order) :-0.3070228E-02  (-0.4423433E-03)
 number of electron      96.0000197 magnetization 
 augmentation part        5.0591278 magnetization 

 Broyden mixing:
  rms(total) = 0.24918E-01    rms(broyden)= 0.24918E-01
  rms(prec ) = 0.29215E-01
  weight for this iteration     100.00

 eigenvalues of (default mixing * dielectric matrix)
  average eigenvalue GAMMA=   1.6049
  2.7614  2.1256  1.0465  1.0465  1.0445

 Free energy of the ion-electron system (eV)
  ---------------------------------------------------
  alpha Z        PSCENC =       163.84187613
  Ewald energy   TEWEN  =     -3561.30824725
  -Hartree energ DENC   =      -940.68636155
  -exchange      EXHF   =         0.00000000
  -V(xc)+E(xc)   XCENC  =       -41.15092788
  PAW double counting   =      6092.46689514    -5837.34786728
  entropy T*S    EENTRO =        -0.00000000
  eigenvalues    EBANDS =      -556.73010372
  atomic energy  EATOM  =      4616.24348075
  Solvation  Ediel_sol  =         0.00000000
  ---------------------------------------------------
  free energy    TOTEN  =       -64.67125567 eV

  energy without entropy =      -64.67125567  energy(sigma->0) =      -64.67125567


--------------------------------------------------------------------------------------------------------




--------------------------------------- Iteration      1(  11)  ---------------------------------------


    POTLOK:  cpu time    0.0055: real time    0.0056
    SETDIJ:  cpu time    0.1645: real time    0.1645
     EDDAV:  cpu time    0.5018: real time    0.5018
       DOS:  cpu time    0.0002: real time    0.0002
    CHARGE:  cpu time    0.0184: real time    0.0184
    MIXING:  cpu time    0.0005: real time    0.0005
    --------------------------------------------
      LOOP:  cpu time    0.6908: real time    0.6909

 eigenvalue-minimisations  :  1372
 total energy-change (2. order) :-0.4400058E-02  (-0.5525867E-03)
 number of electron      96.0000197 magnetization 
 augmentation part        5.0598459 magnetization 

 Broyden mixing:
  rms(total) = 0.12173E-01    rms(broyden)= 0.12173E-01
  rms(prec ) = 0.12755E-01
  weight for this iteration     100.00

 eigenvalues of (default mixing * dielectric matrix)
  average eigenvalue GAMMA=   1.5036
  2.7457  2.4655  1.0157  1.0157  0.9920  0.7872

 Free energy of the ion-electron system (eV)
  ---------------------------------------------------
  alpha Z        PSCENC =       163.84187613
  Ewald energy   TEWEN  =     -3561.30824725
  -Hartree energ DENC   =      -941.66211944
  -exchange      EXHF   =         0.00000000
  -V(xc)+E(xc)   XCENC  =       -41.06514553
  PAW double counting   =      6067.03299676    -5811.87578847
  entropy T*S    EENTRO =        -0.00000000
  eigenvalues    EBANDS =      -555.88270867
  atomic energy  EATOM  =      4616.24348075
  Solvation  Ediel_sol  =         0.00000000
  ---------------------------------------------------
  free energy    TOTEN  =       -64.67565573 eV

  energy without entropy =      -64.67565573  energy(sigma->0) =      -64.67565573


--------------------------------------------------------------------------------------------------------




--------------------------------------- Iteration      1(  12)  ---------------------------------------


    POTLOK:  cpu time    0.0052: real time    0.0053
    SETDIJ:  cpu time    0.1653: real time    0.1653
     EDDAV:  cpu time    0.4672: real time    0.4672
       DOS:  cpu time    0.0004: real time    0.0003
    CHARGE:  cpu time    0.0206: real time    0.0206
    MIXING:  cpu time    0.0006: real time    0.0006
    --------------------------------------------
      LOOP:  cpu time    0.6592: real time    0.6593

 eigenvalue-minimisations  :  1302
 total energy-change (2. order) :-0.1261189E-03  (-0.1607548E-04)
 number of electron      96.0000197 magnetization 
 augmentation part        5.0604602 magnetization 

 Broyden mixing:
  rms(total) = 0.61014E-02    rms(broyden)= 0.61014E-02
  rms(prec ) = 0.65217E-02
  weight for this iteration     100.00

 eigenvalues of (default mixing * dielectric matrix)
  average eigenvalue GAMMA=   1.6022
  2.7553  2.7553  1.3695  1.3695  0.9059  1.0301  1.0301

 Free energy of the ion-electron system (eV)
  ---------------------------------------------------
  alpha Z        PSCENC =       163.84187613
  Ewald energy   TEWEN  =     -3561.30824725
  -Hartree energ DENC   =      -941.79215147
  -exchange      EXHF   =         0.00000000
  -V(xc)+E(xc)   XCENC  =       -41.05873241
  PAW double counting   =      6053.87265938    -5798.71674169
  entropy T*S    EENTRO =        -0.00000000
  eigenvalues    EBANDS =      -555.75792528
  atomic energy  EATOM  =      4616.24348075
  Solvation  Ediel_sol  =         0.00000000
  ---------------------------------------------------
  free energy    TOTEN  =       -64.67578184 eV

  energy without entropy =      -64.67578184  energy(sigma->0) =      -64.67578184


--------------------------------------------------------------------------------------------------------




--------------------------------------- Iteration      1(  13)  ---------------------------------------


    POTLOK:  cpu time    0.0063: real time    0.0064
    SETDIJ:  cpu time    0.1692: real time    0.1694
     EDDAV:  cpu time    0.7199: real time    0.7200
       DOS:  cpu time    0.0002: real time    0.0002
    CHARGE:  cpu time    0.0203: real time    0.0203
    MIXING:  cpu time    0.0008: real time    0.0008
    --------------------------------------------
      LOOP:  cpu time    0.9168: real time    0.9171

 eigenvalue-minimisations  :  1274
 total energy-change (2. order) :-0.1104676E-03  (-0.1719482E-04)
 number of electron      96.0000197 magnetization 
 augmentation part        5.0608358 magnetization 

 Broyden mixing:
  rms(total) = 0.24595E-02    rms(broyden)= 0.24594E-02
  rms(prec ) = 0.25662E-02
  weight for this iteration     100.00

 eigenvalues of (default mixing * dielectric matrix)
  average eigenvalue GAMMA=   1.6318
  3.1996  2.5575  1.8041  1.6481  1.0073  1.0073  0.9153  0.9153

 Free energy of the ion-electron system (eV)
  ---------------------------------------------------
  alpha Z        PSCENC =       163.84187613
  Ewald energy   TEWEN  =     -3561.30824725
  -Hartree energ DENC   =      -941.91390036
  -exchange      EXHF   =         0.00000000
  -V(xc)+E(xc)   XCENC  =       -41.05061721
  PAW double counting   =      6047.35713418    -5792.20039453
  entropy T*S    EENTRO =        -0.00000000
  eigenvalues    EBANDS =      -555.64522403
  atomic energy  EATOM  =      4616.24348075
  Solvation  Ediel_sol  =         0.00000000
  ---------------------------------------------------
  free energy    TOTEN  =       -64.67589231 eV

  energy without entropy =      -64.67589231  energy(sigma->0) =      -64.67589231


--------------------------------------------------------------------------------------------------------




--------------------------------------- Iteration      1(  14)  ---------------------------------------


    POTLOK:  cpu time    0.0065: real time    0.0075
    SETDIJ:  cpu time    0.1692: real time    0.1692
     EDDAV:  cpu time    0.5160: real time    0.5161
       DOS:  cpu time    0.0003: real time    0.0002
    --------------------------------------------
      LOOP:  cpu time    0.6919: real time    0.6929

 eigenvalue-minimisations  :  1036
 total energy-change (2. order) :-0.1817618E-04  (-0.2483951E-05)
 number of electron      96.0000197 magnetization 
 augmentation part        5.0608358 magnetization 

 Free energy of the ion-electron system (eV)
  ---------------------------------------------------
  alpha Z        PSCENC =       163.84187613
  Ewald energy   TEWEN  =     -3561.30824725
  -Hartree energ DENC   =      -941.93519368
  -exchange      EXHF   =         0.00000000
  -V(xc)+E(xc)   XCENC  =       -41.04794114
  PAW double counting   =      6049.30484166    -5794.14645794
  entropy T*S    EENTRO =        -0.00000000
  eigenvalues    EBANDS =      -555.62826902
  atomic energy  EATOM  =      4616.24348075
  Solvation  Ediel_sol  =         0.00000000
  ---------------------------------------------------
  free energy    TOTEN  =       -64.67591049 eV

  energy without entropy =      -64.67591049  energy(sigma->0) =      -64.67591049


--------------------------------------------------------------------------------------------------------




 average (electrostatic) potential at core
  the test charge radii are     1.3383  1.1712  0.9698
  (the norm of the test charge is              1.0000)
       1 -12.4357       2 -12.4357       3 -12.4370       4 -12.4370       5 -92.1357
       6 -92.1357       7 -92.1374       8 -92.1374       9 -89.4997      10 -89.4997
      11 -89.4982      12 -89.4982      13 -89.5639      14 -89.5639      15 -89.5625
      16 -89.5625
 
 
 
 E-fermi :   0.7631     XC(G=0):  -7.7440     alpha+bet : -7.0900


 k-point     1 :       0.0000    0.0000    0.2500
  band No.  band energies     occupation 
      1     -11.9546      2.00000
      2     -11.9531      2.00000
      3     -11.9453      2.00000
      4     -11.9314      2.00000
      5     -11.9086      2.00000
      6     -11.9032      2.00000
      7     -11.8902      2.00000
      8     -11.8753      2.00000
      9     -11.8613      2.00000
     10     -11.8553      2.00000
     11     -11.8485      2.00000
     12     -11.8466      2.00000
     13     -11.5257      2.00000
     14     -11.2729      2.00000
     15     -10.9235      2.00000
     16     -10.5385      2.00000
     17     -10.3012      2.00000
     18     -10.2901      2.00000
     19     -10.2601      2.00000
     20     -10.2250      2.00000
     21      -7.4575      2.00000
     22      -7.0620      2.00000
     23      -6.5836      2.00000
     24      -6.3103      2.00000
     25      -2.8398      2.00000
     26      -2.6566      2.00000
     27      -2.6501      2.00000
     28      -2.4434      2.00000
     29      -2.3319      2.00000
     30      -2.3233      2.00000
     31      -1.8950      2.00000
     32      -1.8654      2.00000
     33      -1.4137      2.00000
     34      -1.3886      2.00000
     35      -1.3831      2.00000
     36      -0.7191      2.00000
     37      -0.2926      2.00000
     38      -0.2273      2.00000
     39      -0.1960      2.00000
     40      -0.1171      2.00000
     41      -0.0793      2.00000
     42      -0.0674      2.00000
     43      -0.0385      2.00000
     44       0.0786      2.00000
     45       0.2186      2.00000
     46       0.2325      2.00000
     47       0.3456      2.00000
     48       0.4386      2.00000
     49       2.7972      0.00000
     50       3.3869      0.00000
     51       4.1134      0.00000
     52       4.1194      0.00000
     53       4.1978      0.00000
     54       4.3264      0.00000
     55       4.3504      0.00000
     56       4.4873      0.00000
     57       4.6604      0.00000
     58       4.7539      0.00000
     59       4.9829      0.00000
     60       5.1114      0.00000
     61       5.3931      0.00000
     62       5.6799      0.00000
     63       5.6957      0.00000
     64       5.9480      0.00000
     65       5.9936      0.00000
     66       6.2276      0.00000
     67       6.3116      0.00000
     68       6.6174      0.00000
     69       6.6942      0.00000
     70       7.0297      0.00000

 k-point     2 :       0.3333   -0.0000    0.2500
  band No.  band energies     occupation 
      1     -12.0193      2.00000
      2     -11.9954      2.00000
      3     -11.9699      2.00000
      4     -11.9428      2.00000
      5     -11.9155      2.00000
      6     -11.9017      2.00000
      7     -11.8954      2.00000
      8     -11.8844      2.00000
      9     -11.8693      2.00000
     10     -11.8605      2.00000
     11     -11.8539      2.00000
     12     -11.8528      2.00000
     13     -11.3420      2.00000
     14     -11.3047      2.00000
     15     -10.7300      2.00000
     16     -10.6332      2.00000
     17     -10.3589      2.00000
     18     -10.2968      2.00000
     19     -10.2067      2.00000
     20     -10.1905      2.00000
     21      -7.4371      2.00000
     22      -7.3266      2.00000
     23      -6.5771      2.00000
     24      -6.4767      2.00000
     25      -2.6467      2.00000
     26      -2.5613      2.00000
     27      -2.5400      2.00000
     28      -2.5305      2.00000
     29      -2.0689      2.00000
     30      -1.9858      2.00000
     31      -1.8032      2.00000
     32      -1.7550      2.00000
     33      -1.1506      2.00000
     34      -1.0836      2.00000
     35      -1.0257      2.00000
     36      -0.8943      2.00000
     37      -0.4739      2.00000
     38      -0.4420      2.00000
     39      -0.3304      2.00000
     40      -0.2509      2.00000
     41      -0.1393      2.00000
     42      -0.1277      2.00000
     43      -0.0132      2.00000
     44       0.0009      2.00000
     45       0.2953      2.00000
     46       0.3201      2.00000
     47       0.3437      2.00000
     48       0.3928      2.00000
     49       2.7579      0.00000
     50       2.9372      0.00000
     51       3.1074      0.00000
     52       3.2270      0.00000
     53       3.7599      0.00000
     54       3.7670      0.00000
     55       4.2569      0.00000
     56       4.3089      0.00000
     57       4.3128      0.00000
     58       4.4190      0.00000
     59       4.8440      0.00000
     60       4.8840      0.00000
     61       5.8587      0.00000
     62       5.9396      0.00000
     63       6.1412      0.00000
     64       6.3598      0.00000
     65       6.5143      0.00000
     66       6.5379      0.00000
     67       6.6297      0.00000
     68       6.7774      0.00000
     69       6.8792      0.00000
     70       7.3047      0.00000

 k-point     3 :      -0.3333   -0.0000    0.2500
  band No.  band energies     occupation 
      1     -12.0166      2.00000
      2     -11.9970      2.00000
      3     -11.9690      2.00000
      4     -11.9508      2.00000
      5     -11.9052      2.00000
      6     -11.9018      2.00000
      7     -11.8958      2.00000
      8     -11.8899      2.00000
      9     -11.8664      2.00000
     10     -11.8645      2.00000
     11     -11.8553      2.00000
     12     -11.8515      2.00000
     13     -11.4001      2.00000
     14     -11.1334      2.00000
     15     -10.9939      2.00000
     16     -10.3993      2.00000
     17     -10.3660      2.00000
     18     -10.2942      2.00000
     19     -10.2794      2.00000
     20     -10.1894      2.00000
     21      -7.6033      2.00000
     22      -6.9847      2.00000
     23      -6.8555      2.00000
     24      -6.3779      2.00000
     25      -2.8371      2.00000
     26      -2.6002      2.00000
     27      -2.4441      2.00000
     28      -2.1613      2.00000
     29      -2.1595      2.00000
     30      -2.0171      2.00000
     31      -1.8312      2.00000
     32      -1.6504      2.00000
     33      -1.5501      2.00000
     34      -1.2896      2.00000
     35      -0.8493      2.00000
     36      -0.6097      2.00000
     37      -0.4088      2.00000
     38      -0.3940      2.00000
     39      -0.3099      2.00000
     40      -0.2304      2.00000
     41      -0.1471      2.00000
     42      -0.0882      2.00000
     43      -0.0358      2.00000
     44       0.0011      2.00000
     45       0.1654      2.00000
     46       0.1773      2.00000
     47       0.3676      2.00000
     48       0.3858      2.00000
     49       2.7458      0.00000
     50       2.7961      0.00000
     51       3.2045      0.00000
     52       3.6551      0.00000
     53       3.6587      0.00000
     54       3.8300      0.00000
     55       3.9546      0.00000
     56       4.2533      0.00000
     57       4.3951      0.00000
     58       4.4822      0.00000
     59       4.7980      0.00000
     60       4.9100      0.00000
     61       5.8570      0.00000
     62       5.8650      0.00000
     63       5.8935      0.00000
     64       6.2794      0.00000
     65       6.4381      0.00000
     66       6.6938      0.00000
     67       6.7922      0.00000
     68       6.9583      0.00000
     69       6.9756      0.00000
     70       7.1566      0.00000

 k-point     4 :      -0.0000    0.3333    0.2500
  band No.  band energies     occupation 
      1     -12.0223      2.00000
      2     -12.0078      2.00000
      3     -11.9620      2.00000
      4     -11.9587      2.00000
      5     -11.9171      2.00000
      6     -11.9137      2.00000
      7     -11.8968      2.00000
      8     -11.8814      2.00000
      9     -11.8730      2.00000
     10     -11.8601      2.00000
     11     -11.8497      2.00000
     12     -11.8425      2.00000
     13     -11.3949      2.00000
     14     -11.1897      2.00000
     15     -10.8756      2.00000
     16     -10.5101      2.00000
     17     -10.2950      2.00000
     18     -10.2904      2.00000
     19     -10.2498      2.00000
     20     -10.2083      2.00000
     21      -7.5742      2.00000
     22      -7.1787      2.00000
     23      -6.6929      2.00000
     24      -6.4145      2.00000
     25      -2.7570      2.00000
     26      -2.6457      2.00000
     27      -2.5416      2.00000
     28      -2.3213      2.00000
     29      -2.0566      2.00000
     30      -1.9936      2.00000
     31      -1.7465      2.00000
     32      -1.7133      2.00000
     33      -1.3031      2.00000
     34      -1.2081      2.00000
     35      -1.0971      2.00000
     36      -0.7415      2.00000
     37      -0.4609      2.00000
     38      -0.3592      2.00000
     39      -0.2933      2.00000
     40      -0.2045      2.00000
     41      -0.1767      2.00000
     42      -0.1221      2.00000
     43      -0.1009      2.00000
     44       0.0768      2.00000
     45       0.2142      2.00000
     46       0.2842      2.00000
     47       0.4408      2.00000
     48       0.5247      2.00000
     49       2.5516      0.00000
     50       3.0392      0.00000
     51       3.1442      0.00000
     52       3.4360      0.00000
     53       3.7756      0.00000
     54       3.8466      0.00000
     55       4.0722      0.00000
     56       4.1488      0.00000
     57       4.1964      0.00000
     58       4.4162      0.00000
     59       4.7268      0.00000
     60       4.7779      0.00000
     61       5.7991      0.00000
     62       5.9754      0.00000
     63       6.2566      0.00000
     64       6.4521      0.00000
     65       6.5338      0.00000
     66       6.6298      0.00000
     67       6.7470      0.00000
     68       6.8948      0.00000
     69       7.0619      0.00000
     70       7.1512      0.00000

 k-point     5 :       0.3333    0.3333    0.2500
  band No.  band energies     occupation 
      1     -12.0504      2.00000
      2     -11.9913      2.00000
      3     -11.9821      2.00000
      4     -11.9707      2.00000
      5     -11.9538      2.00000
      6     -11.9173      2.00000
      7     -11.9148      2.00000
      8     -11.8933      2.00000
      9     -11.8825      2.00000
     10     -11.8785      2.00000
     11     -11.8533      2.00000
     12     -11.8441      2.00000
     13     -11.2562      2.00000
     14     -11.2422      2.00000
     15     -10.6957      2.00000
     16     -10.5924      2.00000
     17     -10.3078      2.00000
     18     -10.2612      2.00000
     19     -10.2159      2.00000
     20     -10.1969      2.00000
     21      -7.5548      2.00000
     22      -7.4429      2.00000
     23      -6.6868      2.00000
     24      -6.5887      2.00000
     25      -2.5848      2.00000
     26      -2.5036      2.00000
     27      -2.2186      2.00000
     28      -2.1452      2.00000
     29      -1.9572      2.00000
     30      -1.8505      2.00000
     31      -1.6400      2.00000
     32      -1.5687      2.00000
     33      -1.0723      2.00000
     34      -1.0135      2.00000
     35      -0.9857      2.00000
     36      -0.9053      2.00000
     37      -0.6544      2.00000
     38      -0.4809      2.00000
     39      -0.4046      2.00000
     40      -0.2737      2.00000
     41      -0.1251      2.00000
     42      -0.0856      2.00000
     43       0.0067      2.00000
     44       0.0252      2.00000
     45       0.3091      2.00000
     46       0.3648      2.00000
     47       0.4423      2.00000
     48       0.4666      2.00000
     49       2.5958      0.00000
     50       2.6879      0.00000
     51       2.7358      0.00000
     52       2.8059      0.00000
     53       3.2461      0.00000
     54       3.3315      0.00000
     55       3.6405      0.00000
     56       3.6545      0.00000
     57       3.7512      0.00000
     58       3.8132      0.00000
     59       4.2595      0.00000
     60       4.3157      0.00000
     61       6.2410      0.00000
     62       6.4280      0.00000
     63       6.6220      0.00000
     64       6.6886      0.00000
     65       6.8696      0.00000
     66       7.0246      0.00000
     67       7.0500      0.00000
     68       7.3216      0.00000
     69       7.4154      0.00000
     70       7.5352      0.00000

 k-point     6 :      -0.3333    0.3333    0.2500
  band No.  band energies     occupation 
      1     -12.0479      2.00000
      2     -12.0010      2.00000
      3     -11.9789      2.00000
      4     -11.9714      2.00000
      5     -11.9455      2.00000
      6     -11.9294      2.00000
      7     -11.9066      2.00000
      8     -11.8946      2.00000
      9     -11.8812      2.00000
     10     -11.8789      2.00000
     11     -11.8507      2.00000
     12     -11.8466      2.00000
     13     -11.3262      2.00000
     14     -11.0626      2.00000
     15     -10.9449      2.00000
     16     -10.3697      2.00000
     17     -10.3316      2.00000
     18     -10.2728      2.00000
     19     -10.2424      2.00000
     20     -10.2127      2.00000
     21      -7.7221      2.00000
     22      -7.0970      2.00000
     23      -6.9710      2.00000
     24      -6.4872      2.00000
     25      -2.7625      2.00000
     26      -2.2712      2.00000
     27      -2.1365      2.00000
     28      -2.1096      2.00000
     29      -2.0000      2.00000
     30      -1.8666      2.00000
     31      -1.7197      2.00000
     32      -1.5337      2.00000
     33      -1.4281      2.00000
     34      -1.0821      2.00000
     35      -0.8398      2.00000
     36      -0.6663      2.00000
     37      -0.5342      2.00000
     38      -0.4537      2.00000
     39      -0.3392      2.00000
     40      -0.3311      2.00000
     41      -0.1755      2.00000
     42      -0.0442      2.00000
     43      -0.0240      2.00000
     44       0.0436      2.00000
     45       0.1901      2.00000
     46       0.2037      2.00000
     47       0.4753      2.00000
     48       0.5087      2.00000
     49       2.4210      0.00000
     50       2.6595      0.00000
     51       2.7939      0.00000
     52       2.9745      0.00000
     53       3.3245      0.00000
     54       3.4228      0.00000
     55       3.6077      0.00000
     56       3.7249      0.00000
     57       3.7689      0.00000
     58       3.8697      0.00000
     59       3.9459      0.00000
     60       4.4133      0.00000
     61       6.1120      0.00000
     62       6.3357      0.00000
     63       6.6587      0.00000
     64       6.7408      0.00000
     65       6.7797      0.00000
     66       7.1187      0.00000
     67       7.1704      0.00000
     68       7.2631      0.00000
     69       7.2966      0.00000
     70       7.4638      0.00000

 k-point     7 :      -0.0000   -0.3333    0.2500
  band No.  band energies     occupation 
      1     -12.0223      2.00000
      2     -12.0078      2.00000
      3     -11.9616      2.00000
      4     -11.9591      2.00000
      5     -11.9169      2.00000
      6     -11.9138      2.00000
      7     -11.8967      2.00000
      8     -11.8815      2.00000
      9     -11.8729      2.00000
     10     -11.8603      2.00000
     11     -11.8496      2.00000
     12     -11.8425      2.00000
     13     -11.3949      2.00000
     14     -11.1897      2.00000
     15     -10.8755      2.00000
     16     -10.5102      2.00000
     17     -10.2947      2.00000
     18     -10.2906      2.00000
     19     -10.2500      2.00000
     20     -10.2082      2.00000
     21      -7.5744      2.00000
     22      -7.1782      2.00000
     23      -6.6934      2.00000
     24      -6.4143      2.00000
     25      -2.7569      2.00000
     26      -2.6457      2.00000
     27      -2.5411      2.00000
     28      -2.3217      2.00000
     29      -2.0573      2.00000
     30      -1.9939      2.00000
     31      -1.7457      2.00000
     32      -1.7135      2.00000
     33      -1.3040      2.00000
     34      -1.2062      2.00000
     35      -1.0973      2.00000
     36      -0.7418      2.00000
     37      -0.4605      2.00000
     38      -0.3599      2.00000
     39      -0.2934      2.00000
     40      -0.2039      2.00000
     41      -0.1765      2.00000
     42      -0.1228      2.00000
     43      -0.1002      2.00000
     44       0.0770      2.00000
     45       0.2129      2.00000
     46       0.2846      2.00000
     47       0.4409      2.00000
     48       0.5247      2.00000
     49       2.5507      0.00000
     50       3.0420      0.00000
     51       3.1417      0.00000
     52       3.4374      0.00000
     53       3.7760      0.00000
     54       3.8467      0.00000
     55       4.0725      0.00000
     56       4.1457      0.00000
     57       4.1978      0.00000
     58       4.4165      0.00000
     59       4.7271      0.00000
     60       4.7770      0.00000
     61       5.8000      0.00000
     62       5.9765      0.00000
     63       6.2543      0.00000
     64       6.4559      0.00000
     65       6.5320      0.00000
     66       6.6310      0.00000
     67       6.7452      0.00000
     68       6.8959      0.00000
     69       7.0623      0.00000
     70       7.1510      0.00000

 k-point     8 :       0.3333   -0.3333    0.2500
  band No.  band energies     occupation 
      1     -12.0504      2.00000
      2     -11.9916      2.00000
      3     -11.9818      2.00000
      4     -11.9705      2.00000
      5     -11.9539      2.00000
      6     -11.9172      2.00000
      7     -11.9149      2.00000
      8     -11.8936      2.00000
      9     -11.8823      2.00000
     10     -11.8785      2.00000
     11     -11.8534      2.00000
     12     -11.8441      2.00000
     13     -11.2578      2.00000
     14     -11.2405      2.00000
     15     -10.6959      2.00000
     16     -10.5923      2.00000
     17     -10.3078      2.00000
     18     -10.2612      2.00000
     19     -10.2160      2.00000
     20     -10.1969      2.00000
     21      -7.5544      2.00000
     22      -7.4433      2.00000
     23      -6.6863      2.00000
     24      -6.5890      2.00000
     25      -2.5853      2.00000
     26      -2.5032      2.00000
     27      -2.2195      2.00000
     28      -2.1452      2.00000
     29      -1.9569      2.00000
     30      -1.8501      2.00000
     31      -1.6398      2.00000
     32      -1.5695      2.00000
     33      -1.0727      2.00000
     34      -1.0146      2.00000
     35      -0.9840      2.00000
     36      -0.9053      2.00000
     37      -0.6511      2.00000
     38      -0.4828      2.00000
     39      -0.4038      2.00000
     40      -0.2740      2.00000
     41      -0.1258      2.00000
     42      -0.0859      2.00000
     43       0.0070      2.00000
     44       0.0240      2.00000
     45       0.3094      2.00000
     46       0.3639      2.00000
     47       0.4411      2.00000
     48       0.4669      2.00000
     49       2.5957      0.00000
     50       2.6880      0.00000
     51       2.7396      0.00000
     52       2.8037      0.00000
     53       3.2443      0.00000
     54       3.3343      0.00000
     55       3.6415      0.00000
     56       3.6543      0.00000
     57       3.7509      0.00000
     58       3.8154      0.00000
     59       4.2608      0.00000
     60       4.3141      0.00000
     61       6.2408      0.00000
     62       6.4260      0.00000
     63       6.6227      0.00000
     64       6.6882      0.00000
     65       6.8705      0.00000
     66       7.0273      0.00000
     67       7.0501      0.00000
     68       7.3225      0.00000
     69       7.4162      0.00000
     70       7.5348      0.00000

 k-point     9 :      -0.3333   -0.3333    0.2500
  band No.  band energies     occupation 
      1     -12.0480      2.00000
      2     -12.0010      2.00000
      3     -11.9787      2.00000
      4     -11.9714      2.00000
      5     -11.9454      2.00000
      6     -11.9294      2.00000
      7     -11.9065      2.00000
      8     -11.8950      2.00000
      9     -11.8811      2.00000
     10     -11.8788      2.00000
     11     -11.8507      2.00000
     12     -11.8466      2.00000
     13     -11.3261      2.00000
     14     -11.0626      2.00000
     15     -10.9452      2.00000
     16     -10.3697      2.00000
     17     -10.3316      2.00000
     18     -10.2729      2.00000
     19     -10.2424      2.00000
     20     -10.2126      2.00000
     21      -7.7220      2.00000
     22      -7.0976      2.00000
     23      -6.9706      2.00000
     24      -6.4873      2.00000
     25      -2.7626      2.00000
[...]
     27      -2.3630      2.00000
     28      -2.2531      2.00000
     29      -1.8734      2.00000
     30      -1.8150      2.00000
     31      -1.6013      2.00000
     32      -1.5177      2.00000
     33      -0.9993      2.00000
     34      -0.8452      2.00000
     35      -0.8076      2.00000
     36      -0.3646      2.00000
     37      -0.1144      2.00000
     38      -0.0329      2.00000
     39       0.0614      2.00000
     40       0.1347      2.00000
     41       0.1822      2.00000
     42       0.2533      2.00000
     43       0.3014      2.00000
     44       0.4714      2.00000
     45       0.6896      2.00000
     46       0.8039      2.00000
     47       1.0367      2.00000
     48       1.1372      2.00000
     49       3.2863      0.00000
     50       3.8967      0.00000
     51       3.9727      0.00000
     52       4.3433      0.00000
     53       4.7763      0.00000
     54       4.8383      0.00000
     55       4.9939      0.00000
     56       5.0854      0.00000
     57       5.1589      0.00000
     58       5.4786      0.00000
     59       5.5944      0.00000
     60       5.7101      0.00000
     61       6.3561      0.00000
     62       6.5703      0.00000
     63       6.7981      0.00000
     64       7.0185      0.00000
     65       7.1244      0.00000
     66       7.1961      0.00000
     67       7.3938      0.00000
     68       7.5063      0.00000
     69       7.6285      0.00000
     70       7.7231      0.00000

 k-point     8 :       0.3333   -0.3333    0.2500
  band No.  band energies     occupation 
      1     -11.8269      2.00000
      2     -11.7201      2.00000
      3     -11.5156      2.00000
      4     -11.5112      2.00000
      5     -11.4915      2.00000
      6     -11.4309      2.00000
      7     -11.4277      2.00000
      8     -11.3883      2.00000
      9     -11.3612      2.00000
     10     -11.3572      2.00000
     11     -11.3286      2.00000
     12     -11.3187      2.00000
     13     -11.1062      2.00000
     14     -11.0759      2.00000
     15     -10.5982      2.00000
     16     -10.4587      2.00000
     17     -10.0420      2.00000
     18      -9.9774      2.00000
     19      -9.9415      2.00000
     20      -9.9045      2.00000
     21      -7.1542      2.00000
     22      -6.9882      2.00000
     23      -5.9796      2.00000
     24      -5.8288      2.00000
     25      -2.5730      2.00000
     26      -2.4581      2.00000
     27      -2.0562      2.00000
     28      -1.9984      2.00000
     29      -1.7952      2.00000
     30      -1.6970      2.00000
     31      -1.5185      2.00000
     32      -1.4018      2.00000
     33      -0.7878      2.00000
     34      -0.7122      2.00000
     35      -0.6689      2.00000
     36      -0.5769      2.00000
     37      -0.2965      2.00000
     38      -0.0820      2.00000
     39      -0.0229      2.00000
     40       0.1364      2.00000
     41       0.2451      2.00000
     42       0.2691      2.00000
     43       0.3582      2.00000
     44       0.4074      2.00000
     45       0.8216      2.00000
     46       0.8879      2.00000
     47       1.0680      2.00000
     48       1.0970      2.00000
     49       3.3530      0.00000
     50       3.4887      0.00000
     51       3.5308      0.00000
     52       3.6202      0.00000
     53       4.0712      0.00000
     54       4.1782      0.00000
     55       4.5961      0.00000
     56       4.6237      0.00000
     57       4.7101      0.00000
     58       4.7952      0.00000
     59       5.3273      0.00000
     60       5.3671      0.00000
     61       6.6815      0.00000
     62       6.9712      0.00000
     63       7.1304      0.00000
     64       7.2344      0.00000
     65       7.4613      0.00000
     66       7.5264      0.00000
     67       7.6577      0.00000
     68       7.9274      0.00000
     69       8.0052      0.00000
     70       8.0863      0.00000

 k-point     9 :      -0.3333   -0.3333    0.2500
  band No.  band energies     occupation 
      1     -11.8669      2.00000
      2     -11.6183      2.00000
      3     -11.5889      2.00000
      4     -11.4928      2.00000
      5     -11.4779      2.00000
      6     -11.4553      2.00000
      7     -11.4123      2.00000
      8     -11.3933      2.00000
      9     -11.3598      2.00000
     10     -11.3547      2.00000
     11     -11.3270      2.00000
     12     -11.3219      2.00000
     13     -11.1250      2.00000
     14     -10.9748      2.00000
     15     -10.8565      2.00000
     16     -10.1730      2.00000
     17     -10.0868      2.00000
     18     -10.0187      2.00000
     19      -9.9538      2.00000
     20      -9.9179      2.00000
     21      -7.3722      2.00000
     22      -6.5383      2.00000
     23      -6.3465      2.00000
     24      -5.7004      2.00000
     25      -2.7656      2.00000
     26      -2.1545      2.00000
     27      -2.0249      2.00000
     28      -1.9703      2.00000
     29      -1.8800      2.00000
     30      -1.7027      2.00000
     31      -1.5244      2.00000
     32      -1.3496      2.00000
     33      -1.2099      2.00000
     34      -0.8216      2.00000
     35      -0.5102      2.00000
     36      -0.2930      2.00000
     37      -0.1699      2.00000
     38      -0.0506      2.00000
     39       0.0431      2.00000
     40       0.0526      2.00000
     41       0.1998      2.00000
     42       0.3321      2.00000
     43       0.3570      2.00000
     44       0.4099      2.00000
     45       0.6740      2.00000
     46       0.7266      2.00000
     47       1.0852      2.00000
     48       1.1494      2.00000
     49       3.1546      0.00000
     50       3.4361      0.00000
     51       3.5943      0.00000
     52       3.8230      0.00000
     53       4.1684      0.00000
     54       4.3365      0.00000
     55       4.5589      0.00000
     56       4.6640      0.00000
     57       4.7457      0.00000
     58       4.8388      0.00000
     59       4.9409      0.00000
     60       5.4916      0.00000
     61       6.5654      0.00000
     62       6.8750      0.00000
     63       7.1816      0.00000
     64       7.2819      0.00000
     65       7.3357      0.00000
     66       7.6201      0.00000
     67       7.7315      0.00000
     68       7.8445      0.00000
     69       7.9623      0.00000
     70       8.1049      0.00000


--------------------------------------------------------------------------------------------------------


 soft charge-density along one line, spin component           1
         0         1         2         3         4         5         6         7         8         9
 total charge-density along one line
 
 pseudopotential strength for first ion, spin component:           1
-16.663  -0.001  -0.007 -15.406  -0.001  -0.006  -0.003   0.006
 -0.001 -16.673  -0.012  -0.001 -15.416  -0.011   0.002  -0.004
 -0.007  -0.012 -16.663  -0.006  -0.011 -15.406  -0.000   0.000
-15.406  -0.001  -0.006 -14.247  -0.001  -0.005  -0.003   0.005
 -0.001 -15.416  -0.011  -0.001 -14.255  -0.010   0.002  -0.004
 -0.006  -0.011 -15.406  -0.005  -0.010 -14.247  -0.000   0.000
 -0.003   0.002  -0.000  -0.003   0.002  -0.000   1.006  -3.845
  0.006  -0.004   0.000   0.005  -0.004   0.000  -3.845  14.945
  0.001  -0.000   0.009   0.001  -0.000   0.008   0.001  -0.003
 -0.007   0.009  -0.000  -0.006   0.008  -0.000   0.000  -0.001
 -0.004  -0.006  -0.001  -0.004  -0.006  -0.001   0.001  -0.003
 -0.000  -0.001  -0.006  -0.000  -0.001  -0.005   0.002  -0.006
 -0.007   0.001  -0.001  -0.006   0.001  -0.001  -0.000   0.000
 total augmentation occupancy for first ion, spin component:           1
  3.305  -0.090  -0.053  -1.351   0.092   0.048  -0.114   0.003  -0.041   0.033   0.010   0.004   0.010
 -0.090   3.143  -0.158   0.092  -1.197   0.148   0.083  -0.002   0.005  -0.037   0.024   0.033  -0.013
 -0.053  -0.158   3.201   0.048   0.148  -1.243  -0.006  -0.000  -0.040   0.005   0.026   0.008   0.025
 -1.351   0.092   0.048   1.400  -0.095  -0.042   0.123   0.003   0.039  -0.029  -0.008  -0.004  -0.006
  0.092  -1.197   0.148  -0.095   1.255  -0.138  -0.090  -0.002  -0.005   0.032  -0.020  -0.032   0.013
  0.048   0.148  -1.243  -0.042  -0.138   1.289   0.006   0.000   0.035  -0.005  -0.026  -0.005  -0.024
 -0.114   0.083  -0.006   0.123  -0.090   0.006   0.474   0.012  -0.006  -0.008  -0.005  -0.011  -0.004
  0.003  -0.002  -0.000   0.003  -0.002   0.000   0.012   0.000  -0.000  -0.000  -0.000  -0.000  -0.000
 -0.041   0.005  -0.040   0.039  -0.005   0.035  -0.006  -0.000   0.008  -0.001   0.001  -0.001   0.006
  0.033  -0.037   0.005  -0.029   0.032  -0.005  -0.008  -0.000  -0.001   0.007   0.001  -0.001   0.002
  0.010   0.024   0.026  -0.008  -0.020  -0.026  -0.005  -0.000   0.001   0.001   0.032   0.002   0.001
  0.004   0.033   0.008  -0.004  -0.032  -0.005  -0.011  -0.000  -0.001  -0.001   0.002   0.008  -0.003
  0.010  -0.013   0.025  -0.006   0.013  -0.024  -0.004  -0.000   0.006   0.002   0.001  -0.003   0.032


------------------------ aborting loop because EDIFF is reached ----------------------------------------


 


 total charge     
 
# of ion       s       p       d       tot
------------------------------------------
    1        0.074   6.081   0.071   6.226
    2        0.074   6.081   0.071   6.226
    3        0.075   6.083   0.072   6.230
    4        0.075   6.083   0.072   6.230
    5        1.253   0.972   0.068   2.292
    6        1.253   0.972   0.068   2.292
    7        1.253   0.972   0.068   2.293
    8        1.253   0.972   0.068   2.293
    9        1.346   2.363   0.000   3.709
   10        1.346   2.363   0.000   3.709
   11        1.346   2.362   0.000   3.708
   12        1.346   2.362   0.000   3.708
   13        1.346   2.364   0.000   3.710
   14        1.346   2.364   0.000   3.710
   15        1.346   2.363   0.000   3.709
   16        1.346   2.363   0.000   3.709
--------------------------------------------------
tot         16.077  47.120   0.559  63.756
 
    CHARGE:  cpu time    0.0197: real time    0.0197
    FORLOC:  cpu time    0.0009: real time    0.0009
    FORNL :  cpu time    0.1339: real time    0.1339
    STRESS:  cpu time    0.4105: real time    0.4167
    FORCOR:  cpu time    0.0056: real time    0.0056
    FORHAR:  cpu time    0.0017: real time    0.0017
    MIXING:  cpu time    0.0003: real time    0.0003
    OFIELD:  cpu time    0.0000: real time    0.0000

  FORCE on cell =-STRESS in cart. coord.  units (eV):
  Direction    XX          YY          ZZ          XY          YZ          ZX
  --------------------------------------------------------------------------------------
  Alpha Z   177.22945   177.22945   177.22945
  Ewald   -1261.07250 -1326.60354 -1035.25634    11.12946    24.30782     2.71453
  Hartree   281.68308   226.95828   422.02638     7.07214    14.18169   -16.42960
  E(xc)    -355.09854  -355.06182  -352.14878     0.01152     0.27311     0.15377
  Local    -396.86808  -279.52126  -758.57377   -17.23534   -37.26655    19.43032
  n-local   818.27445   818.82878   798.64932    -0.29290    -2.04874    -1.61130
  augment  -182.65369  -182.87883  -179.68419     0.05224     0.28437     0.20358
  Kinetic   918.68941   921.16619   927.65890    -0.81690     0.24032    -4.53854
  Fock        0.00000     0.00000     0.00000     0.00000     0.00000     0.00000
  -------------------------------------------------------------------------------------
  Total       0.18359     0.11724    -0.09904    -0.07978    -0.02799    -0.07725
  in kB       0.59762     0.38164    -0.32239    -0.25970    -0.09112    -0.25145
  external pressure =        0.22 kB  Pullay stress =        0.00 kB


 VOLUME and BASIS-vectors are now :
 -----------------------------------------------------------------------------
  energy-cutoff  :      300.00
  volume of cell :      492.18
      direct lattice vectors                 reciprocal lattice vectors
     6.357998106  0.776415044 -0.947979937     0.154240396  0.020407224 -0.003687185
    -0.849183636  6.324449737 -0.519084705    -0.020771706  0.154263069 -0.012968946
     0.149689124  1.022216201 11.919311942     0.011362613  0.008341189  0.083039411

  length of vectors
     6.475000093  6.402282894 11.964001420     0.155628243  0.156194596  0.084227241


 FORCES acting on ions
    electron-ion (+dipol)            ewald-force                    non-local-force                 convergence-correction
 -----------------------------------------------------------------------------------------------
   0.509E+01 0.345E+02 -.118E+02   -.508E+01 -.336E+02 0.111E+02   -.494E-02 -.830E+00 0.631E+00   -.394E-02 -.475E-02 -.110E-02
   -.509E+01 -.345E+02 0.118E+02   0.508E+01 0.336E+02 -.111E+02   0.494E-02 0.830E+00 -.631E+00   0.394E-02 0.475E-02 0.110E-02
   -.141E+02 0.336E+02 0.363E+01   0.138E+02 -.327E+02 -.319E+01   0.222E+00 -.896E+00 -.440E+00   0.674E-04 -.206E-02 -.218E-02
   0.141E+02 -.336E+02 -.363E+01   -.138E+02 0.327E+02 0.319E+01   -.222E+00 0.896E+00 0.440E+00   -.674E-04 0.206E-02 0.218E-02
   0.305E+02 0.495E+02 -.476E+01   -.374E+02 -.589E+02 0.534E+01   0.688E+01 0.937E+01 -.546E+00   -.122E-02 0.819E-03 0.181E-02
   -.305E+02 -.495E+02 0.476E+01   0.374E+02 0.589E+02 -.534E+01   -.688E+01 -.937E+01 0.546E+00   0.122E-02 -.819E-03 -.181E-02
   -.419E+02 0.408E+02 -.132E+01   0.509E+02 -.482E+02 0.200E+01   -.903E+01 0.738E+01 -.662E+00   0.379E-02 -.253E-02 0.222E-02
   0.419E+02 -.408E+02 0.132E+01   -.509E+02 0.482E+02 -.200E+01   0.903E+01 -.738E+01 0.662E+00   -.379E-02 0.253E-02 -.222E-02
   -.651E+01 -.528E+02 0.154E+02   0.623E+01 0.559E+02 -.174E+02   0.292E+00 -.316E+01 0.195E+01   -.181E-02 0.625E-02 -.224E-02
   0.651E+01 0.528E+02 -.154E+02   -.623E+01 -.559E+02 0.174E+02   -.292E+00 0.316E+01 -.195E+01   0.181E-02 -.625E-02 0.224E-02
   0.209E+02 -.510E+02 -.379E+01   -.215E+02 0.544E+02 0.509E+01   0.598E+00 -.343E+01 -.132E+01   -.357E-02 0.483E-03 0.768E-02
   -.209E+02 0.510E+02 0.379E+01   0.215E+02 -.544E+02 -.509E+01   -.598E+00 0.343E+01 0.132E+01   0.357E-02 -.483E-03 -.768E-02
   -.439E+02 -.354E+02 0.160E+02   0.469E+02 0.357E+02 -.178E+02   -.302E+01 -.350E+00 0.182E+01   0.208E-02 0.194E-02 -.617E-02
   0.439E+02 0.354E+02 -.160E+02   -.469E+02 -.357E+02 0.178E+02   0.302E+01 0.350E+00 -.182E+01   -.208E-02 -.194E-02 0.617E-02
   0.519E+02 -.253E+02 -.131E+02   -.550E+02 0.251E+02 0.148E+02   0.308E+01 0.161E+00 -.175E+01   -.110E-01 0.255E-02 0.575E-02
   -.519E+02 0.253E+02 0.131E+02   0.550E+02 -.251E+02 -.148E+02   -.308E+01 -.161E+00 0.175E+01   0.110E-01 -.255E-02 -.575E-02
 -----------------------------------------------------------------------------------------------
   0.246E-11 0.760E-11 0.572E-10   0.711E-14 -.142E-13 0.711E-14   -.222E-14 0.183E-14 0.222E-15   0.407E-13 0.328E-13 -.190E-12
 
 
 POSITION                                       TOTAL-FORCE (eV/Angst)
 -----------------------------------------------------------------------------------
      2.78353      5.95728      9.62023         0.002433      0.006400      0.005757
      2.87497      2.16580      0.83202        -0.002433     -0.006400     -0.005757
      5.73633      6.05298      6.08314        -0.007213      0.003795      0.001358
     -0.07782      2.07010      4.36911         0.007213     -0.003795     -0.001358
     -0.42294      5.20493      1.01300         0.013637     -0.006082      0.028553
      6.08144      2.91815      9.43925        -0.013637      0.006082     -0.028553
      2.29869      5.77886      3.67849         0.028450     -0.028469      0.015204
      3.35981      2.34422      6.77376        -0.028450      0.028469     -0.015204
      3.19059      1.90932      4.00990         0.003896      0.015457     -0.012350
      2.46791      6.21376      6.44235        -0.003896     -0.015457      0.012350
      6.11773      2.01426      0.33958        -0.006348      0.002101     -0.011216
     -0.45923      6.10882     10.11267         0.006348     -0.002101      0.011216
      5.77509      2.81230      6.67194         0.006537      0.000244      0.005314
     -0.11659      5.31078      3.78031        -0.006537     -0.000244     -0.005314
      3.62533      2.76710      9.51633         0.018067      0.011308     -0.008668
      2.03318      5.35598      0.93592        -0.018067     -0.011308      0.008668
 -----------------------------------------------------------------------------------
    total drift:                                0.000000      0.000000      0.000000


--------------------------------------------------------------------------------------------------------



  FREE ENERGIE OF THE ION-ELECTRON SYSTEM (eV)
  ---------------------------------------------------
  free  energy   TOTEN  =       -65.46355249 eV

  energy  without entropy=      -65.46355249  energy(sigma->0) =      -65.46355249
 
 d Force = 0.1156504E-03[ 0.256E-05, 0.229E-03]  d Energy = 0.1266425E-03-0.110E-04
 d Force =-0.2065898E+00[-0.207E+00,-0.207E+00]  d Ewald  =-0.4719599E+00 0.265E+00


--------------------------------------------------------------------------------------------------------


    POTLOK:  cpu time    0.1719: real time    0.1719


--------------------------------------------------------------------------------------------------------


 Conjugate gradient step on ions:
 trial-energy change:   -0.000127  1 .order   -0.000183   -0.000306   -0.000059
  (g-gl).g = 0.211E-03      g.g   = 0.304E-03  gl.gl    = 0.491E-03
 g(Force)  = 0.221E-03   g(Stress)= 0.839E-04 ortho     =-0.120E-04
 gamma     =   0.43076
 trial     =   1.02394
 opt step  =   1.26751  (harmonic =   1.26751) maximal distance =0.00095694
 next E    =   -65.463616   (d E  =  -0.00019)


--------------------------------------------------------------------------------------------------------


  
 reached required accuracy - stopping structural energy minimisation
     LOOP+:  cpu time    2.2310: real time    2.3598
    4ORBIT:  cpu time    0.0000: real time    0.0000
 


 total charge     
 
# of ion       s       p       d       tot
------------------------------------------
    1        0.074   6.081   0.071   6.226
    2        0.074   6.081   0.071   6.226
    3        0.075   6.083   0.072   6.230
    4        0.075   6.083   0.072   6.230
    5        1.253   0.972   0.068   2.292
    6        1.253   0.972   0.068   2.292
    7        1.253   0.972   0.068   2.293
    8        1.253   0.972   0.068   2.293
    9        1.346   2.363   0.000   3.709
   10        1.346   2.363   0.000   3.709
   11        1.346   2.362   0.000   3.708
   12        1.346   2.362   0.000   3.708
   13        1.346   2.364   0.000   3.710
   14        1.346   2.364   0.000   3.710
   15        1.346   2.363   0.000   3.709
   16        1.346   2.363   0.000   3.709
--------------------------------------------------
tot         16.077  47.120   0.559  63.756
 

 total amount of memory used by VASP MPI-rank0    39471. kBytes
=======================================================================

   base      :      30000. kBytes
   nonlr-proj:       1784. kBytes
   fftplans  :        539. kBytes
   grid      :       2363. kBytes
   one-center:        129. kBytes
   wavefun   :       4656. kBytes
 
  
  
 General timing and accounting informations for this job:
 ========================================================
  
                  Total CPU time used (sec):      199.812
                            User time (sec):      195.314
                          System time (sec):        4.498
                         Elapsed time (sec):      210.225
  
                   Maximum memory used (kb):       84908.
                   Average memory used (kb):           0.
  
                          Minor page faults:        51702
                          Major page faults:            0
                 Voluntary context switches:         2283
