PROCAR new format
# of k-points:    9         # of bands:   70         # of ions:   16

 k-point     1 :    0.00000000 0.00000000 0.25000000     weight = 0.11111111

band     1 # energy  -11.75046953 # occ.  2.00000000
 
ion      s      p      d    tot
    1  0.001  0.038  0.000  0.038
    2  0.001  0.038  0.000  0.038
    3  0.001  0.032  0.000  0.032
    4  0.001  0.032  0.000  0.032
    5  0.029  0.002  0.000  0.030
    6  0.029  0.002  0.000  0.030
    7  0.036  0.002  0.000  0.038
    8  0.036  0.002  0.000  0.038
    9  0.053  0.001  0.000  0.054
   10  0.053  0.001  0.000  0.054
   11  0.038  0.001  0.000  0.039
   12  0.038  0.001  0.000  0.039
   13  0.050  0.001  0.000  0.052
   14  0.050  0.001  0.000  0.052
   15  0.045  0.001  0.000  0.046
   16  0.045  0.001  0.000  0.046
tot    0.503  0.155  0.000  0.659
 
band     2 # energy  -11.63515322 # occ.  2.00000000
 
ion      s      p      d    tot
    1  0.000  0.099  0.000  0.099
    2  0.000  0.099  0.000  0.099
    3  0.000  0.114  0.000  0.114
    4  0.000  0.114  0.000  0.114
    5  0.020  0.002  0.000  0.022
    6  0.020  0.002  0.000  0.022
    7  0.016  0.001  0.000  0.018
    8  0.016  0.001  0.000  0.018
    9  0.023  0.001  0.000  0.024
   10  0.023  0.001  0.000  0.024
   11  0.031  0.001  0.000  0.032
   12  0.031  0.001  0.000  0.032
   13  0.037  0.001  0.000  0.038
   14  0.037  0.001  0.000  0.038
   15  0.037  0.001  0.000  0.038
   16  0.037  0.001  0.000  0.038
tot    0.332  0.438  0.000  0.770
 
band     3 # energy  -11.47172251 # occ.  2.00000000
 
ion      s      p      d    tot
    1  0.000  0.239  0.000  0.239
    2  0.000  0.239  0.000  0.239
    3  0.000  0.197  0.000  0.197
    4  0.000  0.197  0.000  0.197
    5  0.003  0.000  0.000  0.003
    6  0.003  0.000  0.000  0.003
    7  0.002  0.000  0.000  0.003
    8  0.002  0.000  0.000  0.003
    9  0.009  0.000  0.000  0.009
   10  0.009  0.000  0.000  0.009
   11  0.009  0.000  0.000  0.009
   12  0.009  0.000  0.000  0.009
   13  0.004  0.000  0.000  0.005
   14  0.004  0.000  0.000  0.005
   15  0.005  0.000  0.000  0.006
   16  0.005  0.000  0.000  0.006
tot    0.066  0.875  0.000  0.941
 
band     4 # energy  -11.45082806 # occ.  2.00000000
 
ion      s      p      d    tot
    1  0.000  0.228  0.000  0.228
    2  0.000  0.228  0.000  0.228
    3  0.000  0.249  0.000  0.249
    4  0.000  0.249  0.000  0.249
    5  0.000  0.000  0.000  0.000
    6  0.000  0.000  0.000  0.000
    7  0.000  0.000  0.000  0.000
    8  0.000  0.000  0.000  0.000
    9  0.001  0.000  0.000  0.001
   10  0.001  0.000  0.000  0.001
   11  0.002  0.000  0.000  0.002
   12  0.002  0.000  0.000  0.002
   13  0.003  0.000  0.000  0.003
   14  0.003  0.000  0.000  0.003
   15  0.002  0.000  0.000  0.002
   16  0.002  0.000  0.000  0.002
tot    0.016  0.956  0.000  0.973
 
band     5 # energy  -11.40431237 # occ.  2.00000000
 
ion      s      p      d    tot
    1  0.000  0.311  0.000  0.311
    2  0.000  0.311  0.000  0.311
    3  0.000  0.173  0.000  0.173
    4  0.000  0.173  0.000  0.173
    5  0.000  0.000  0.000  0.000
    6  0.000  0.000  0.000  0.000
    7  0.000  0.000  0.000  0.000
    8  0.000  0.000  0.000  0.000
    9  0.000  0.000  0.000  0.001
   10  0.000  0.000  0.000  0.001
   11  0.001  0.000  0.000  0.001
   12  0.001  0.000  0.000  0.001
   13  0.002  0.000  0.000  0.002
   14  0.002  0.000  0.000  0.002
   15  0.001  0.000  0.000  0.001
   16  0.001  0.000  0.000  0.001
tot    0.008  0.971  0.000  0.979
 
band     6 # energy  -11.40007853 # occ.  2.00000000
 
ion      s      p      d    tot
    1  0.000  0.246  0.000  0.246
    2  0.000  0.246  0.000  0.246
    3  0.000  0.239  0.000  0.239
    4  0.000  0.239  0.000  0.239
    5  0.000  0.000  0.000  0.000
    6  0.000  0.000  0.000  0.000
    7  0.000  0.000  0.000  0.000
    8  0.000  0.000  0.000  0.000
    9  0.001  0.000  0.000  0.001
   10  0.001  0.000  0.000  0.001
   11  0.001  0.000  0.000  0.001
   12  0.001  0.000  0.000  0.001
   13  0.001  0.000  0.000  0.001
   14  0.001  0.000  0.000  0.001
   15  0.001  0.000  0.000  0.002
   16  0.001  0.000  0.000  0.002
tot    0.010  0.970  0.000  0.979
 
band     7 # energy  -11.38750146 # occ.  2.00000000
 
ion      s      p      d    tot
    1  0.000  0.210  0.000  0.210
    2  0.000  0.210  0.000  0.210
    3  0.000  0.276  0.000  0.276
    4  0.000  0.276  0.000  0.276
    5  0.000  0.000  0.000  0.000
    6  0.000  0.000  0.000  0.000
    7  0.000  0.000  0.000  0.000
    8  0.000  0.000  0.000  0.000
    9  0.000  0.000  0.000  0.000
   10  0.000  0.000  0.000  0.000
   11  0.000  0.000  0.000  0.000
   12  0.000  0.000  0.000  0.000
   13  0.001  0.000  0.000  0.001
   14  0.001  0.000  0.000  0.001
   15  0.001  0.000  0.000  0.001
   16  0.001  0.000  0.000  0.001
tot    0.006  0.973  0.000  0.980
 
band     8 # energy  -11.36857283 # occ.  2.00000000
 
ion      s      p      d    tot
    1  0.000  0.227  0.000  0.227
    2  0.000  0.227  0.000  0.227
    3  0.000  0.260  0.000  0.260
    4  0.000  0.260  0.000  0.260
    5  0.000  0.000  0.000  0.000
    6  0.000  0.000  0.000  0.000
    7  0.000  0.000  0.000  0.000
    8  0.000  0.000  0.000  0.000
    9  0.000  0.000  0.000  0.000
   10  0.000  0.000  0.000  0.000
   11  0.000  0.000  0.000  0.000
   12  0.000  0.000  0.000  0.000
   13  0.001  0.000  0.000  0.002
   14  0.001  0.000  0.000  0.002
   15  0.001  0.000  0.000  0.001
   16  0.001  0.000  0.000  0.001
tot    0.007  0.974  0.000  0.981
 
band     9 # energy  -11.34784367 # occ.  2.00000000
 
ion      s      p      d    tot
    1  0.000  0.255  0.000  0.255
    2  0.000  0.255  0.000  0.255
    3  0.000  0.232  0.000  0.232
    4  0.000  0.232  0.000  0.232
    5  0.000  0.000  0.000  0.000
    6  0.000  0.000  0.000  0.000
    7  0.000  0.000  0.000  0.000
    8  0.000  0.000  0.000  0.000
    9  0.000  0.000  0.000  0.000
   10  0.000  0.000  0.000  0.000
   11  0.000  0.000  0.000  0.000
   12  0.000  0.000  0.000  0.000
   13  0.001  0.000  0.000  0.001
   14  0.001  0.000  0.000  0.001
   15  0.001  0.000  0.000  0.001
   16  0.001  0.000  0.000  0.001
tot    0.007  0.975  0.000  0.982
 
band    10 # energy  -11.33794950 # occ.  2.00000000
 
ion      s      p      d    tot
    1  0.000  0.307  0.000  0.307
    2  0.000  0.307  0.000  0.307
    3  0.000  0.184  0.000  0.184
    4  0.000  0.184  0.000  0.184
    5  0.000  0.000  0.000  0.000
    6  0.000  0.000  0.000  0.000
    7  0.000  0.000  0.000  0.000
    8  0.000  0.000  0.000  0.000
    9  0.000  0.000  0.000  0.000
   10  0.000  0.000  0.000  0.000
   11  0.000  0.000  0.000  0.000
   12  0.000  0.000  0.000  0.000
   13  0.000  0.000  0.000  0.000
   14  0.000  0.000  0.000  0.000
   15  0.000  0.000  0.000  0.001
   16  0.000  0.000  0.000  0.001
tot    0.002  0.983  0.000  0.985
 
band    11 # energy  -11.32854874 # occ.  2.00000000
 
ion      s      p      d    tot
    1  0.000  0.244  0.000  0.244
    2  0.000  0.244  0.000  0.244
    3  0.000  0.244  0.000  0.244
    4  0.000  0.244  0.000  0.244
    5  0.000  0.000  0.000  0.000
    6  0.000  0.000  0.000  0.000
    7  0.000  0.000  0.000  0.000
    8  0.000  0.000  0.000  0.000
    9  0.001  0.000  0.000  0.001
   10  0.001  0.000  0.000  0.001
   11  0.000  0.000  0.000  0.000
   12  0.000  0.000  0.000  0.000
   13  0.001  0.000  0.000  0.001
   14  0.001  0.000  0.000  0.001
   15  0.000  0.000  0.000  0.000
   16  0.000  0.000  0.000  0.000
tot    0.006  0.977  0.000  0.983
 
band    12 # energy  -11.32586679 # occ.  2.00000000
 
ion      s      p      d    tot
    1  0.000  0.187  0.000  0.187
    2  0.000  0.187  0.000  0.187
    3  0.000  0.293  0.000  0.293
    4  0.000  0.293  0.000  0.293
    5  0.001  0.000  0.000  0.001
    6  0.001  0.000  0.000  0.001
    7  0.001  0.000  0.000  0.001
    8  0.001  0.000  0.000  0.001
    9  0.001  0.000  0.000  0.001
   10  0.001  0.000  0.000  0.001
   11  0.001  0.000  0.000  0.002
   12  0.001  0.000  0.000  0.002
   13  0.002  0.000  0.000  0.002
   14  0.002  0.000  0.000  0.002
   15  0.002  0.000  0.000  0.002
   16  0.002  0.000  0.000  0.002
tot    0.016  0.961  0.000  0.977
 
band    13 # energy  -11.32204399 # occ.  2.00000000
 
ion      s      p      d    tot
    1  0.000  0.180  0.000  0.180
    2  0.000  0.180  0.000  0.180
    3  0.000  0.258  0.000  0.258
    4  0.000  0.258  0.000  0.258
    5  0.004  0.000  0.000  0.005
    6  0.004  0.000  0.000  0.005
    7  0.004  0.000  0.000  0.005
    8  0.004  0.000  0.000  0.005
    9  0.004  0.000  0.000  0.004
   10  0.004  0.000  0.000  0.004
   11  0.005  0.000  0.000  0.005
   12  0.005  0.000  0.000  0.005
   13  0.008  0.000  0.000  0.008
   14  0.008  0.000  0.000  0.008
   15  0.008  0.000  0.000  0.009
   16  0.008  0.000  0.000  0.009
tot    0.068  0.879  0.000  0.947
 
band    14 # energy  -11.13985683 # occ.  2.00000000
 
ion      s      p      d    tot
    1  0.000  0.132  0.000  0.132
    2  0.000  0.132  0.000  0.132
    3  0.000  0.149  0.000  0.149
    4  0.000  0.149  0.000  0.149
    5  0.018  0.001  0.000  0.019
    6  0.018  0.001  0.000  0.019
    7  0.016  0.001  0.000  0.018
    8  0.016  0.001  0.000  0.018
    9  0.020  0.001  0.000  0.021
   10  0.020  0.001  0.000  0.021
   11  0.020  0.001  0.000  0.021
   12  0.020  0.001  0.000  0.021
   13  0.027  0.001  0.000  0.028
   14  0.027  0.001  0.000  0.028
   15  0.030  0.001  0.000  0.031
   16  0.030  0.001  0.000  0.031
tot    0.262  0.573  0.000  0.835
 
band    15 # energy  -10.86875096 # occ.  2.00000000
 
ion      s      p      d    tot
    1  0.000  0.028  0.000  0.029
    2  0.000  0.028  0.000  0.029
    3  0.000  0.029  0.000  0.030
    4  0.000  0.029  0.000  0.030
    5  0.025  0.004  0.000  0.029
    6  0.025  0.004  0.000  0.029
    7  0.023  0.004  0.000  0.027
    8  0.023  0.004  0.000  0.027
    9  0.060  0.001  0.000  0.061
   10  0.060  0.001  0.000  0.061
   11  0.059  0.001  0.000  0.060
   12  0.059  0.001  0.000  0.060
   13  0.051  0.001  0.000  0.052
   14  0.051  0.001  0.000  0.052
   15  0.052  0.001  0.000  0.053
   16  0.052  0.001  0.000  0.053
tot    0.540  0.140  0.002  0.682
 
band    16 # energy  -10.40304392 # occ.  2.00000000
 
ion      s      p      d    tot
    1  0.000  0.002  0.000  0.002
    2  0.000  0.002  0.000  0.002
    3  0.000  0.002  0.000  0.002
    4  0.000  0.002  0.000  0.002
    5  0.014  0.005  0.000  0.020
    6  0.014  0.005  0.000  0.020
    7  0.014  0.005  0.000  0.019
    8  0.014  0.005  0.000  0.019
    9  0.066  0.001  0.000  0.067
   10  0.066  0.001  0.000  0.067
   11  0.070  0.001  0.000  0.071
   12  0.070  0.001  0.000  0.071
   13  0.079  0.001  0.000  0.080
   14  0.079  0.001  0.000  0.080
   15  0.070  0.001  0.000  0.071
   16  0.070  0.001  0.000  0.071
tot    0.627  0.035  0.003  0.665
 
band    17 # energy  -10.05063308 # occ.  2.00000000
 
ion      s      p      d    tot
    1  0.000  0.010  0.000  0.011
    2  0.000  0.010  0.000  0.011
    3  0.000  0.009  0.000  0.010
    4  0.000  0.009  0.000  0.010
    5  0.001  0.004  0.001  0.005
    6  0.001  0.004  0.001  0.005
    7  0.000  0.005  0.001  0.006
    8  0.000  0.005  0.001  0.006
    9  0.040  0.000  0.000  0.040
   10  0.040  0.000  0.000  0.040
   11  0.022  0.000  0.000  0.022
   12  0.022  0.000  0.000  0.022
   13  0.137  0.001  0.000  0.138
   14  0.137  0.001  0.000  0.138
   15  0.114  0.000  0.000  0.115
   16  0.114  0.000  0.000  0.115
tot    0.630  0.060  0.003  0.693
 
band    18 # energy  -10.04469531 # occ.  2.00000000
 
ion      s      p      d    tot
    1  0.000  0.001  0.000  0.002
    2  0.000  0.001  0.000  0.002
    3  0.000  0.002  0.000  0.002
    4  0.000  0.002  0.000  0.002
    5  0.000  0.003  0.000  0.004
    6  0.000  0.003  0.000  0.004
    7  0.000  0.005  0.001  0.006
    8  0.000  0.005  0.001  0.006
    9  0.095  0.000  0.000  0.096
   10  0.095  0.000  0.000  0.096
   11  0.021  0.000  0.000  0.021
   12  0.021  0.000  0.000  0.021
   13  0.119  0.000  0.000  0.120
   14  0.119  0.000  0.000  0.120
   15  0.090  0.000  0.000  0.090
   16  0.090  0.000  0.000  0.090
tot    0.653  0.024  0.004  0.681
 
band    19 # energy  -10.00016248 # occ.  2.00000000
 
ion      s      p      d    tot
    1  0.000  0.007  0.000  0.007
    2  0.000  0.007  0.000  0.007
    3  0.000  0.007  0.000  0.007
    4  0.000  0.007  0.000  0.007
    5  0.003  0.005  0.001  0.009
    6  0.003  0.005  0.001  0.009
    7  0.003  0.003  0.000  0.006
    8  0.003  0.003  0.000  0.006
    9  0.099  0.001  0.000  0.099
   10  0.099  0.001  0.000  0.099
   11  0.157  0.001  0.000  0.158
   12  0.157  0.001  0.000  0.158
   13  0.007  0.000  0.000  0.007
   14  0.007  0.000  0.000  0.007
   15  0.051  0.000  0.000  0.052
   16  0.051  0.000  0.000  0.052
tot    0.640  0.048  0.004  0.691
 
band    20 # energy   -9.94609226 # occ.  2.00000000
 
ion      s      p      d    tot
    1  0.000  0.005  0.000  0.005
    2  0.000  0.005  0.000  0.005
    3  0.000  0.007  0.000  0.008
    4  0.000  0.007  0.000  0.008
    5  0.000  0.004  0.001  0.006
    6  0.000  0.004  0.001  0.006
    7  0.000  0.003  0.001  0.004
    8  0.000  0.003  0.001  0.004
    9  0.094  0.000  0.000  0.094
   10  0.094  0.000  0.000  0.094
   11  0.129  0.000  0.000  0.130
   12  0.129  0.000  0.000  0.130
   13  0.040  0.000  0.000  0.040
   14  0.040  0.000  0.000  0.040
   15  0.060  0.000  0.000  0.060
   16  0.060  0.000  0.000  0.060
tot    0.649  0.040  0.004  0.693
 
band    21 # energy   -7.06913586 # occ.  2.00000000
 
ion      s      p      d    tot
    1  0.000  0.000  0.000  0.000
    2  0.000  0.000  0.000  0.000
    3  0.000  0.000  0.000  0.000
    4  0.000  0.000  0.000  0.000
    5  0.115  0.000  0.000  0.115
    6  0.115  0.000  0.000  0.115
    7  0.125  0.000  0.000  0.126
    8  0.125  0.000  0.000  0.126
    9  0.012  0.008  0.000  0.020
   10  0.012  0.008  0.000  0.020
   11  0.012  0.007  0.000  0.019
   12  0.012  0.007  0.000  0.019
   13  0.012  0.008  0.000  0.020
   14  0.012  0.008  0.000  0.020
   15  0.010  0.008  0.000  0.018
   16  0.010  0.008  0.000  0.018
tot    0.572  0.063  0.001  0.636
 
band    22 # energy   -6.53771289 # occ.  2.00000000
 
ion      s      p      d    tot
    1  0.000  0.000  0.000  0.000
    2  0.000  0.000  0.000  0.000
    3  0.000  0.000  0.000  0.000
    4  0.000  0.000  0.000  0.000
    5  0.114  0.001  0.000  0.116
    6  0.114  0.001  0.000  0.116
    7  0.107  0.001  0.000  0.108
    8  0.107  0.001  0.000  0.108
    9  0.020  0.007  0.000  0.027
   10  0.020  0.007  0.000  0.027
   11  0.021  0.007  0.000  0.028
   12  0.021  0.007  0.000  0.028
   13  0.017  0.008  0.000  0.025
   14  0.017  0.008  0.000  0.025
   15  0.019  0.008  0.000  0.027
   16  0.019  0.008  0.000  0.027
tot    0.596  0.065  0.001  0.662
 
band    23 # energy   -5.89044521 # occ.  2.00000000
 
ion      s      p      d    tot
    1  0.000  0.001  0.000  0.001
    2  0.000  0.001  0.000  0.001
    3  0.000  0.001  0.000  0.001
    4  0.000  0.001  0.000  0.001
    5  0.105  0.001  0.000  0.106
    6  0.105  0.001  0.000  0.106
    7  0.100  0.001  0.000  0.101
    8  0.100  0.001  0.000  0.101
    9  0.026  0.007  0.000  0.033
   10  0.026  0.007  0.000  0.033
   11  0.027  0.007  0.000  0.034
   12  0.027  0.007  0.000  0.034
   13  0.027  0.008  0.000  0.034
   14  0.027  0.008  0.000  0.034
   15  0.027  0.008  0.000  0.035
   16  0.027  0.008  0.000  0.035
tot    0.623  0.067  0.001  0.691
 
band    24 # energy   -5.53037677 # occ.  2.00000000
 
ion      s      p      d    tot
    1  0.001  0.000  0.000  0.002
    2  0.001  0.000  0.000  0.002
    3  0.001  0.000  0.000  0.002
    4  0.001  0.000  0.000  0.002
    5  0.096  0.000  0.000  0.097
    6  0.096  0.000  0.000  0.097
    7  0.099  0.000  0.000  0.099
    8  0.099  0.000  0.000  0.099
    9  0.030  0.008  0.000  0.038
   10  0.030  0.008  0.000  0.038
   11  0.029  0.008  0.000  0.037
   12  0.029  0.008  0.000  0.037
   13  0.029  0.009  0.000  0.038
   14  0.029  0.009  0.000  0.038
   15  0.029  0.008  0.000  0.038
   16  0.029  0.008  0.000  0.038
tot    0.631  0.068  0.000  0.699
 
band    25 # energy   -2.82220760 # occ.  2.00000000
 
ion      s      p      d    tot
    1  0.000  0.003  0.000  0.004
    2  0.000  0.003  0.000  0.004
    3  0.000  0.004  0.000  0.004
    4  0.000  0.004  0.000  0.004
    5  0.000  0.035  0.000  0.035
    6  0.000  0.035  0.000  0.035
    7  0.000  0.038  0.000  0.039
    8  0.000  0.038  0.000  0.039
    9  0.001  0.037  0.000  0.038
   10  0.001  0.037  0.000  0.038
   11  0.001  0.032  0.000  0.033
   12  0.001  0.032  0.000  0.033
   13  0.001  0.031  0.000  0.032
   14  0.001  0.031  0.000  0.032
   15  0.001  0.032  0.000  0.032
   16  0.001  0.032  0.000  0.032
tot    0.007  0.425  0.003  0.435
 
band    26 # energy   -2.50595347 # occ.  2.00000000
 
ion      s      p      d    tot
    1  0.000  0.002  0.000  0.003
    2  0.000  0.002  0.000  0.003
    3  0.000  0.003  0.000  0.003
    4  0.000  0.003  0.000  0.003
    5  0.001  0.034  0.001  0.036
    6  0.001  0.034  0.001  0.036
    7  0.001  0.038  0.001  0.040
    8  0.001  0.038  0.001  0.040
    9  0.001  0.022  0.000  0.023
   10  0.001  0.022  0.000  0.023
   11  0.001  0.016  0.000  0.017
   12  0.001  0.016  0.000  0.017
   13  0.001  0.053  0.000  0.054
   14  0.001  0.053  0.000  0.054
   15  0.001  0.048  0.000  0.050
   16  0.001  0.048  0.000  0.050
tot    0.011  0.434  0.004  0.450
 
band    27 # energy   -2.48905521 # occ.  2.00000000
 
ion      s      p      d    tot
    1  0.000  0.003  0.001  0.004
    2  0.000  0.003  0.001  0.004
    3  0.000  0.003  0.001  0.004
    4  0.000  0.003  0.001  0.004
    5  0.000  0.030  0.001  0.031
    6  0.000  0.030  0.001  0.031
    7  0.000  0.034  0.001  0.035
    8  0.000  0.034  0.001  0.035
    9  0.004  0.043  0.000  0.047
   10  0.004  0.043  0.000  0.047
   11  0.004  0.037  0.000  0.040
   12  0.004  0.037  0.000  0.040
   13  0.004  0.033  0.000  0.036
   14  0.004  0.033  0.000  0.036
   15  0.003  0.031  0.000  0.035
   16  0.003  0.031  0.000  0.035
tot    0.031  0.427  0.005  0.463
 
band    28 # energy   -2.29022829 # occ.  2.00000000
 
ion      s      p      d    tot
    1  0.000  0.001  0.001  0.003
    2  0.000  0.001  0.001  0.003
    3  0.001  0.001  0.001  0.003
    4  0.001  0.001  0.001  0.003
    5  0.000  0.035  0.001  0.036
    6  0.000  0.035  0.001  0.036
    7  0.001  0.031  0.001  0.032
    8  0.001  0.031  0.001  0.032
    9  0.003  0.039  0.000  0.042
   10  0.003  0.039  0.000  0.042
   11  0.004  0.045  0.000  0.048
   12  0.004  0.045  0.000  0.048
   13  0.001  0.030  0.000  0.031
   14  0.001  0.030  0.000  0.031
   15  0.001  0.030  0.000  0.032
   16  0.001  0.030  0.000  0.032
tot    0.023  0.425  0.008  0.456
 
band    29 # energy   -2.23702851 # occ.  2.00000000
 
ion      s      p      d    tot
    1  0.001  0.001  0.001  0.002
    2  0.001  0.001  0.001  0.002
    3  0.001  0.001  0.001  0.002
    4  0.001  0.001  0.001  0.002
    5  0.001  0.038  0.001  0.040
    6  0.001  0.038  0.001  0.040
    7  0.001  0.035  0.001  0.037
    8  0.001  0.035  0.001  0.037
    9  0.000  0.045  0.000  0.045
   10  0.000  0.045  0.000  0.045
   11  0.000  0.048  0.000  0.048
   12  0.000  0.048  0.000  0.048
   13  0.002  0.023  0.000  0.025
   14  0.002  0.023  0.000  0.025
   15  0.002  0.025  0.000  0.027
   16  0.002  0.025  0.000  0.027
tot    0.015  0.430  0.006  0.451
 
band    30 # energy   -2.11220665 # occ.  2.00000000
 
ion      s      p      d    tot
    1  0.000  0.003  0.000  0.004
    2  0.000  0.003  0.000  0.004
    3  0.000  0.003  0.000  0.003
    4  0.000  0.003  0.000  0.003
    5  0.005  0.038  0.001  0.044
    6  0.005  0.038  0.001  0.044
    7  0.005  0.037  0.001  0.042
    8  0.005  0.037  0.001  0.042
    9  0.000  0.018  0.000  0.018
   10  0.000  0.018  0.000  0.018
   11  0.000  0.021  0.000  0.021
   12  0.000  0.021  0.000  0.021
   13  0.000  0.044  0.000  0.044
   14  0.000  0.044  0.000  0.044
   15  0.000  0.043  0.000  0.043
   16  0.000  0.043  0.000  0.043
tot    0.024  0.412  0.004  0.440
 
band    31 # energy   -1.72804821 # occ.  2.00000000
 
ion      s      p      d    tot
    1  0.000  0.003  0.001  0.004
    2  0.000  0.003  0.001  0.004
    3  0.000  0.003  0.001  0.004
    4  0.000  0.003  0.001  0.004
    5  0.001  0.035  0.001  0.038
    6  0.001  0.035  0.001  0.038
    7  0.002  0.032  0.001  0.035
    8  0.002  0.032  0.001  0.035
    9  0.001  0.043  0.000  0.044
   10  0.001  0.043  0.000  0.044
   11  0.001  0.047  0.000  0.048
   12  0.001  0.047  0.000  0.048
   13  0.000  0.032  0.000  0.032
   14  0.000  0.032  0.000  0.032
   15  0.001  0.029  0.000  0.029
   16  0.001  0.029  0.000  0.029
tot    0.013  0.449  0.007  0.469
 
band    32 # energy   -1.63831920 # occ.  2.00000000
 
ion      s      p      d    tot
    1  0.000  0.002  0.000  0.002
    2  0.000  0.002  0.000  0.002
    3  0.000  0.002  0.000  0.002
    4  0.000  0.002  0.000  0.002
    5  0.002  0.038  0.001  0.040
    6  0.002  0.038  0.001  0.040
    7  0.002  0.038  0.001  0.040
    8  0.002  0.038  0.001  0.040
    9  0.001  0.033  0.000  0.033
   10  0.001  0.033  0.000  0.033
   11  0.001  0.030  0.000  0.031
   12  0.001  0.030  0.000  0.031
   13  0.001  0.045  0.000  0.046
   14  0.001  0.045  0.000  0.046
   15  0.001  0.049  0.000  0.050
   16  0.001  0.049  0.000  0.050
tot    0.013  0.472  0.005  0.491
 
band    33 # energy   -1.11466095 # occ.  2.00000000
 
ion      s      p      d    tot
    1  0.000  0.004  0.000  0.005
    2  0.000  0.004  0.000  0.005
    3  0.000  0.004  0.000  0.005
    4  0.000  0.004  0.000  0.005
    5  0.003  0.033  0.001  0.037
    6  0.003  0.033  0.001  0.037
    7  0.003  0.031  0.001  0.034
    8  0.003  0.031  0.001  0.034
    9  0.002  0.038  0.000  0.040
   10  0.002  0.038  0.000  0.040
   11  0.002  0.041  0.000  0.043
   12  0.002  0.041  0.000  0.043
   13  0.000  0.037  0.000  0.038
   14  0.000  0.037  0.000  0.038
   15  0.000  0.038  0.000  0.038
   16  0.000  0.038  0.000  0.038
tot    0.024  0.452  0.004  0.480
 
band    34 # energy   -1.06442464 # occ.  2.00000000
 
ion      s      p      d    tot
    1  0.000  0.003  0.001  0.004
    2  0.000  0.003  0.001  0.004
    3  0.000  0.004  0.001  0.005
    4  0.000  0.004  0.001  0.005
    5  0.004  0.034  0.001  0.039
    6  0.004  0.034  0.001  0.039
    7  0.004  0.035  0.001  0.040
    8  0.004  0.035  0.001  0.040
    9  0.000  0.052  0.000  0.053
   10  0.000  0.052  0.000  0.053
   11  0.000  0.049  0.000  0.049
   12  0.000  0.049  0.000  0.049
   13  0.001  0.023  0.000  0.024
   14  0.001  0.023  0.000  0.024
   15  0.001  0.023  0.000  0.023
   16  0.001  0.023  0.000  0.023
tot    0.022  0.446  0.007  0.474
 
band    35 # energy   -0.98252835 # occ.  2.00000000
 
ion      s      p      d    tot
    1  0.001  0.003  0.001  0.005
    2  0.001  0.003  0.001  0.005
    3  0.001  0.003  0.000  0.005
    4  0.001  0.003  0.000  0.005
    5  0.004  0.034  0.001  0.038
    6  0.004  0.034  0.001  0.038
    7  0.004  0.034  0.001  0.038
    8  0.004  0.034  0.001  0.038
    9  0.000  0.010  0.000  0.010
   10  0.000  0.010  0.000  0.010
   11  0.000  0.011  0.000  0.011
   12  0.000  0.011  0.000  0.011
   13  0.001  0.067  0.000  0.068
   14  0.001  0.067  0.000  0.068
   15  0.001  0.066  0.000  0.067
   16  0.001  0.066  0.000  0.067
tot    0.027  0.456  0.004  0.488
 
band    36 # energy   -0.36386722 # occ.  2.00000000
 
ion      s      p      d    tot
    1  0.003  0.001  0.001  0.005
    2  0.003  0.001  0.001  0.005
    3  0.003  0.001  0.001  0.005
    4  0.003  0.001  0.001  0.005
    5  0.003  0.021  0.001  0.024
    6  0.003  0.021  0.001  0.024
    7  0.002  0.022  0.001  0.025
    8  0.002  0.022  0.001  0.025
    9  0.001  0.058  0.000  0.060
   10  0.001  0.058  0.000  0.060
   11  0.001  0.053  0.000  0.054
   12  0.001  0.053  0.000  0.054
   13  0.001  0.042  0.000  0.043
   14  0.001  0.042  0.000  0.043
   15  0.001  0.040  0.000  0.041
   16  0.001  0.040  0.000  0.041
tot    0.029  0.476  0.009  0.514
 
band    37 # energy    0.03727816 # occ.  2.00000000
 
ion      s      p      d    tot
    1  0.002  0.008  0.001  0.011
    2  0.002  0.008  0.001  0.011
    3  0.002  0.008  0.001  0.011
    4  0.002  0.008  0.001  0.011
    5  0.001  0.001  0.002  0.004
    6  0.001  0.001  0.002  0.004
    7  0.001  0.001  0.002  0.005
    8  0.001  0.001  0.002  0.005
    9  0.000  0.090  0.000  0.090
   10  0.000  0.090  0.000  0.090
   11  0.000  0.087  0.000  0.087
   12  0.000  0.087  0.000  0.087
   13  0.000  0.027  0.000  0.027
   14  0.000  0.027  0.000  0.027
   15  0.000  0.027  0.000  0.027
   16  0.000  0.027  0.000  0.027
tot    0.012  0.499  0.013  0.524
 
band    38 # energy    0.10212365 # occ.  2.00000000
 
ion      s      p      d    tot
    1  0.001  0.008  0.001  0.010
    2  0.001  0.008  0.001  0.010
    3  0.001  0.009  0.002  0.012
    4  0.001  0.009  0.002  0.012
    5  0.002  0.001  0.002  0.005
    6  0.002  0.001  0.002  0.005
    7  0.002  0.001  0.002  0.005
    8  0.002  0.001  0.002  0.005
    9  0.000  0.086  0.000  0.086
   10  0.000  0.086  0.000  0.086
   11  0.000  0.084  0.000  0.084
   12  0.000  0.084  0.000  0.084
   13  0.000  0.032  0.000  0.032
   14  0.000  0.032  0.000  0.032
   15  0.000  0.027  0.000  0.027
   16  0.000  0.027  0.000  0.027
tot    0.012  0.498  0.013  0.523
 
band    39 # energy    0.14552673 # occ.  2.00000000
 
ion      s      p      d    tot
    1  0.001  0.010  0.001  0.012
    2  0.001  0.010  0.001  0.012
    3  0.001  0.013  0.001  0.015
    4  0.001  0.013  0.001  0.015
    5  0.002  0.001  0.001  0.004
    6  0.002  0.001  0.001  0.004
    7  0.001  0.001  0.001  0.004
    8  0.001  0.001  0.001  0.004
    9  0.000  0.040  0.000  0.040
   10  0.000  0.040  0.000  0.040
   11  0.000  0.035  0.000  0.035
   12  0.000  0.035  0.000  0.035
   13  0.000  0.085  0.000  0.086
   14  0.000  0.085  0.000  0.086
   15  0.000  0.071  0.000  0.071
   16  0.000  0.071  0.000  0.071
tot    0.011  0.513  0.008  0.532
 
band    40 # energy    0.22420304 # occ.  2.00000000
 
ion      s      p      d    tot
    1  0.000  0.006  0.002  0.008
    2  0.000  0.006  0.002  0.008
    3  0.000  0.008  0.002  0.009
    4  0.000  0.008  0.002  0.009
    5  0.001  0.001  0.002  0.004
    6  0.001  0.001  0.002  0.004
    7  0.000  0.001  0.002  0.004
    8  0.000  0.001  0.002  0.004
    9  0.000  0.041  0.000  0.041
   10  0.000  0.041  0.000  0.041
   11  0.000  0.035  0.000  0.035
   12  0.000  0.035  0.000  0.035
   13  0.000  0.087  0.000  0.087
   14  0.000  0.087  0.000  0.087
   15  0.000  0.080  0.000  0.080
   16  0.000  0.080  0.000  0.080
tot    0.002  0.519  0.015  0.536
 
band    41 # energy    0.28980270 # occ.  2.00000000
 
ion      s      p      d    tot
    1  0.000  0.011  0.000  0.011
    2  0.000  0.011  0.000  0.011
    3  0.000  0.013  0.001  0.014
    4  0.000  0.013  0.001  0.014
    5  0.001  0.002  0.001  0.004
    6  0.001  0.002  0.001  0.004
    7  0.001  0.001  0.001  0.003
    8  0.001  0.001  0.001  0.003
    9  0.000  0.069  0.000  0.069
   10  0.000  0.069  0.000  0.069
   11  0.000  0.020  0.000  0.020
   12  0.000  0.020  0.000  0.020
   13  0.000  0.071  0.000  0.071
   14  0.000  0.071  0.000  0.071
   15  0.000  0.074  0.000  0.074
   16  0.000  0.074  0.000  0.074
tot    0.005  0.524  0.006  0.535
 
band    42 # energy    0.29091013 # occ.  2.00000000
 
ion      s      p      d    tot
    1  0.000  0.010  0.001  0.011
    2  0.000  0.010  0.001  0.011
    3  0.000  0.013  0.001  0.014
    4  0.000  0.013  0.001  0.014
    5  0.000  0.001  0.001  0.003
    6  0.000  0.001  0.001  0.003
    7  0.002  0.002  0.001  0.004
    8  0.002  0.002  0.001  0.004
    9  0.000  0.030  0.000  0.031
   10  0.000  0.030  0.000  0.031
   11  0.000  0.069  0.000  0.069
   12  0.000  0.069  0.000  0.069
   13  0.000  0.095  0.000  0.095
   14  0.000  0.095  0.000  0.095
   15  0.000  0.042  0.000  0.042
   16  0.000  0.042  0.000  0.042
tot    0.004  0.526  0.007  0.537
 
band    43 # energy    0.32243963 # occ.  2.00000000
 
ion      s      p      d    tot
    1  0.000  0.012  0.001  0.014
    2  0.000  0.012  0.001  0.014
    3  0.000  0.006  0.001  0.007
    4  0.000  0.006  0.001  0.007
    5  0.001  0.002  0.002  0.005
    6  0.001  0.002  0.002  0.005
    7  0.001  0.002  0.001  0.004
    8  0.001  0.002  0.001  0.004
    9  0.000  0.016  0.000  0.016
   10  0.000  0.016  0.000  0.016
   11  0.000  0.024  0.000  0.024
   12  0.000  0.024  0.000  0.024
   13  0.000  0.063  0.000  0.063
   14  0.000  0.063  0.000  0.063
   15  0.000  0.134  0.000  0.134
   16  0.000  0.134  0.000  0.134
tot    0.006  0.517  0.010  0.532
 
band    44 # energy    0.46249048 # occ.  2.00000000
 
ion      s      p      d    tot
    1  0.000  0.009  0.001  0.010
    2  0.000  0.009  0.001  0.010
    3  0.000  0.007  0.001  0.007
    4  0.000  0.007  0.001  0.007
    5  0.001  0.001  0.001  0.003
    6  0.001  0.001  0.001  0.003
    7  0.001  0.002  0.001  0.004
    8  0.001  0.002  0.001  0.004
    9  0.000  0.096  0.000  0.096
   10  0.000  0.096  0.000  0.096
   11  0.000  0.115  0.000  0.116
   12  0.000  0.115  0.000  0.116
   13  0.000  0.013  0.000  0.014
   14  0.000  0.013  0.000  0.014
   15  0.000  0.017  0.000  0.017
   16  0.000  0.017  0.000  0.017
tot    0.004  0.520  0.007  0.532
 
band    45 # energy    0.67812257 # occ.  2.00000000
 
ion      s      p      d    tot
    1  0.001  0.002  0.000  0.004
    2  0.001  0.002  0.000  0.004
    3  0.002  0.004  0.001  0.006
    4  0.002  0.004  0.001  0.006
    5  0.013  0.004  0.003  0.020
    6  0.013  0.004  0.003  0.020
    7  0.005  0.002  0.002  0.009
    8  0.005  0.002  0.002  0.009
    9  0.001  0.073  0.000  0.073
   10  0.001  0.073  0.000  0.073
   11  0.001  0.081  0.000  0.082