 running on   14 total cores
 distrk:  each k-point on   14 cores,    1 groups
 distr:  one band on    1 cores,   14 groups
 using from now: INCAR     
 vasp.5.4.4.18Apr17-6-g9f103f2a35 (build Oct 27 2022 13:04:57) complex          
  
 POSCAR found type information on POSCAR  K  Sb S 
 POSCAR found :  3 types and      16 ions
 scaLAPACK will be used

 ----------------------------------------------------------------------------- 
|                                                                             |
|           W    W    AA    RRRRR   N    N  II  N    N   GGGG   !!!           |
|           W    W   A  A   R    R  NN   N  II  NN   N  G    G  !!!           |
|           W    W  A    A  R    R  N N  N  II  N N  N  G       !!!           |
|           W WW W  AAAAAA  RRRRR   N  N N  II  N  N N  G  GGG   !            |
|           WW  WW  A    A  R   R   N   NN  II  N   NN  G    G                |
|           W    W  A    A  R    R  N    N  II  N    N   GGGG   !!!           |
|                                                                             |
|      For optimal performance we recommend to set                            |
|        NCORE= 4 - approx SQRT( number of cores)                             |
|      NCORE specifies how many cores store one orbital (NPAR=cpu/NCORE).     |
|      This setting can  greatly improve the performance of VASP for DFT.     |
|      The default,   NCORE=1            might be grossly inefficient         |
|      on modern multi-core architectures or massively parallel machines.     |
|      Do your own testing !!!!                                               |
|      Unfortunately you need to use the default for GW and RPA calculations. |
|      (for HF NCORE is supported but not extensively tested yet)             |
|                                                                             |
 ----------------------------------------------------------------------------- 

 LDA part: xc-table for Pade appr. of Perdew
 POSCAR, INCAR and KPOINTS ok, starting setup
 FFT: planning ...
 WAVECAR not read
 entering main loop
       N       E                     dE             d eps       ncg     rms          rms(c)
DAV:   1     0.461957657208E+03    0.46196E+03   -0.27294E+04  1260   0.746E+02
DAV:   2    -0.246028734552E+02   -0.48656E+03   -0.47126E+03  1624   0.197E+02
DAV:   3    -0.688244602767E+02   -0.44222E+02   -0.43788E+02  1540   0.568E+01
DAV:   4    -0.697229180905E+02   -0.89846E+00   -0.89675E+00  1512   0.959E+00
DAV:   5    -0.697419911254E+02   -0.19073E-01   -0.19071E-01  1596   0.145E+00    0.135E+01
DAV:   6    -0.645735018508E+02    0.51685E+01   -0.10252E+01  1540   0.974E+00    0.105E+01
DAV:   7    -0.646572955650E+02   -0.83794E-01   -0.23044E+00  1498   0.368E+00    0.568E+00
DAV:   8    -0.646566137636E+02    0.68180E-03   -0.12667E-01  1582   0.113E+00    0.185E+00
DAV:   9    -0.646681854397E+02   -0.11572E-01   -0.45522E-02  1582   0.716E-01    0.428E-01
DAV:  10    -0.646712556676E+02   -0.30702E-02   -0.44234E-03  1498   0.194E-01    0.249E-01
DAV:  11    -0.646756557256E+02   -0.44001E-02   -0.55259E-03  1372   0.220E-01    0.122E-01
DAV:  12    -0.646757818445E+02   -0.12612E-03   -0.16075E-04  1302   0.403E-02    0.610E-02
DAV:  13    -0.646758923122E+02   -0.11047E-03   -0.17195E-04  1274   0.366E-02    0.246E-02
DAV:  14    -0.646759104883E+02   -0.18176E-04   -0.24840E-05  1036   0.164E-02
   1 F= -.64675910E+02 E0= -.64675910E+02  d E =-.646759E+02
 curvature:   0.00 expect dE= 0.000E+00 dE for cont linesearch  0.000E+00
 trial: gam= 0.00000 g(F)=  0.124E+00 g(S)=  0.258E+00 ort = 0.000E+00 (trialstep = 0.100E+01)
 search vector abs. value=  0.382E+00
 bond charge predicted
       N       E                     dE             d eps       ncg     rms          rms(c)
DAV:   1    -0.651609281119E+02   -0.48504E+00   -0.39063E+00  1260   0.608E+00    0.268E+00
DAV:   2    -0.650432055114E+02    0.11772E+00   -0.31441E-01  1470   0.164E+00    0.104E+00
DAV:   3    -0.650198211346E+02    0.23384E-01   -0.61866E-02  1470   0.716E-01    0.417E-01
DAV:   4    -0.650160238958E+02    0.37972E-02   -0.31684E-03  1540   0.221E-01    0.269E-01
DAV:   5    -0.650148299310E+02    0.11940E-02   -0.19026E-03  1568   0.142E-01    0.129E-01
DAV:   6    -0.650148526452E+02   -0.22714E-04   -0.14801E-04  1092   0.379E-02
   2 F= -.65014853E+02 E0= -.65014853E+02  d E =-.338942E+00
 ZBRENT: can't locate minimum, use default step
 trial-energy change:   -0.338942  1 .order   -0.340395   -0.382188   -0.298603
 step:   4.0000(harm=  4.5724)  dis= 0.03819  next Energy=   -65.549677 (dE=-0.874E+00)
 bond charge predicted
       N       E                     dE             d eps       ncg     rms          rms(c)
DAV:   1    -0.667443488529E+02   -0.17295E+01   -0.35786E+01  1274   0.188E+01    0.887E+00
DAV:   2    -0.656886959072E+02    0.10557E+01   -0.28550E+00  1470   0.503E+00    0.347E+00
DAV:   3    -0.654673950291E+02    0.22130E+00   -0.63724E-01  1428   0.228E+00    0.136E+00
DAV:   4    -0.654376836566E+02    0.29711E-01   -0.24186E-02  1540   0.651E-01    0.974E-01
DAV:   5    -0.654231640521E+02    0.14520E-01   -0.21694E-02  1526   0.518E-01    0.385E-01
DAV:   6    -0.654232602455E+02   -0.96193E-04   -0.20882E-03  1512   0.141E-01    0.119E-01
DAV:   7    -0.654232189176E+02    0.41328E-04   -0.22866E-04  1078   0.534E-02
   3 F= -.65423219E+02 E0= -.65423219E+02  d E =-.747308E+00
 curvature:  -2.23 expect dE=-0.249E-01 dE for cont linesearch -0.876E-02
 ZBRENT: interpolating
 opt :   3.6553  next Energy=   -65.429900 (dE=-0.754E+00)
 bond charge predicted
       N       E                     dE             d eps       ncg     rms          rms(c)
DAV:   1    -0.654471497320E+02   -0.23889E-01   -0.47084E-01  1302   0.219E+00    0.961E-01
DAV:   2    -0.654329651215E+02    0.14185E-01   -0.38632E-02  1456   0.582E-01    0.390E-01
DAV:   3    -0.654299656659E+02    0.29995E-02   -0.80487E-03  1456   0.260E-01    0.143E-01
DAV:   4    -0.654294791842E+02    0.48648E-03   -0.36907E-04  1386   0.818E-02    0.885E-02
DAV:   5    -0.654293085320E+02    0.17065E-03   -0.19808E-04  1050   0.492E-02    0.369E-02
DAV:   6    -0.654292966965E+02    0.11836E-04   -0.24611E-05   798   0.170E-02
   4 F= -.65429297E+02 E0= -.65429297E+02  d E =-.753386E+00
 curvature:  -1.70 expect dE=-0.102E-01 dE for cont linesearch -0.154E-03
 ZBRENT: interpolating
 opt :   3.7007  next Energy=   -65.429430 (dE=-0.754E+00)
 bond charge predicted
       N       E                     dE             d eps       ncg     rms          rms(c)
DAV:   1    -0.654297823044E+02   -0.47377E-03   -0.84185E-03  1400   0.293E-01    0.128E-01
DAV:   2    -0.654295348284E+02    0.24748E-03   -0.67569E-04  1442   0.769E-02    0.516E-02
DAV:   3    -0.654294835631E+02    0.51265E-04   -0.12795E-04   798   0.342E-02
   5 F= -.65429484E+02 E0= -.65429484E+02  d E =-.753573E+00
 curvature:  -1.48 expect dE=-0.931E-02 dE for cont linesearch -0.201E-04
 ZBRENT: interpolating
 opt :   3.7278  next Energy=   -65.429516 (dE=-0.754E+00)
 bond charge predicted
       N       E                     dE             d eps       ncg     rms          rms(c)
DAV:   1    -0.654295604436E+02   -0.25615E-04   -0.26653E-03  1400   0.162E-01    0.728E-02
DAV:   2    -0.654294605875E+02    0.99856E-04   -0.20821E-04   896   0.451E-02
   6 F= -.65429461E+02 E0= -.65429461E+02  d E =-.753550E+00
 curvature:  -2.40 expect dE=-0.155E-01 dE for cont linesearch -0.780E-05
 trial: gam= 0.01392 g(F)=  0.231E-02 g(S)=  0.412E-02 ort = 0.111E-02 (trialstep = 0.155E+01)
 search vector abs. value=  0.654E-02
 bond charge predicted
       N       E                     dE             d eps       ncg     rms          rms(c)
DAV:   1    -0.654394762671E+02   -0.99158E-02   -0.14923E-01  1260   0.113E+00    0.327E-01
DAV:   2    -0.654379915132E+02    0.14848E-02   -0.65609E-03  1526   0.255E-01    0.144E-01
DAV:   3    -0.654372361970E+02    0.75532E-03   -0.74717E-04  1596   0.913E-02    0.778E-02
DAV:   4    -0.654370264038E+02    0.20979E-03   -0.28279E-04  1218   0.597E-02    0.373E-02
DAV:   5    -0.654370190318E+02    0.73720E-05   -0.63359E-05   854   0.276E-02
   7 F= -.65437019E+02 E0= -.65437019E+02  d E =-.755844E-02
 trial-energy change:   -0.007558  1 .order   -0.007729   -0.009967   -0.005491
 step:   3.4414(harm=  3.4414)  dis= 0.00738  next Energy=   -65.440557 (dE=-0.111E-01)
 bond charge predicted
       N       E                     dE             d eps       ncg     rms          rms(c)
DAV:   1    -0.654448509082E+02   -0.78245E-02   -0.22713E-01  1260   0.140E+00    0.406E-01
DAV:   2    -0.654426953235E+02    0.21556E-02   -0.98758E-03  1512   0.313E-01    0.176E-01
DAV:   3    -0.654415783932E+02    0.11169E-02   -0.11183E-03  1610   0.111E-01    0.920E-02
DAV:   4    -0.654412730632E+02    0.30533E-03   -0.43530E-04  1526   0.717E-02    0.480E-02
DAV:   5    -0.654412582797E+02    0.14784E-04   -0.57626E-05   910   0.271E-02
   8 F= -.65441258E+02 E0= -.65441258E+02  d E =-.117977E-01
 curvature:  -1.74 expect dE=-0.151E-02 dE for cont linesearch -0.279E-03
 ZBRENT: extrapolating
 opt :   4.2078  next Energy=   -65.441650 (dE=-0.122E-01)
 bond charge predicted
       N       E                     dE             d eps       ncg     rms          rms(c)
DAV:   1    -0.654422496851E+02   -0.97662E-03   -0.36854E-02  1288   0.563E-01    0.165E-01
DAV:   2    -0.654418967907E+02    0.35289E-03   -0.15796E-03  1526   0.125E-01    0.705E-02
DAV:   3    -0.654417105554E+02    0.18624E-03   -0.16506E-04  1008   0.453E-02    0.352E-02
DAV:   4    -0.654416621250E+02    0.48430E-04   -0.10621E-04   882   0.367E-02
   9 F= -.65441662E+02 E0= -.65441662E+02  d E =-.122015E-01
 curvature:  -2.45 expect dE=-0.209E-02 dE for cont linesearch -0.270E-05
 trial: gam= 0.11206 g(F)=  0.702E-03 g(S)=  0.151E-03 ort = 0.850E-04 (trialstep = 0.208E+01)
 search vector abs. value=  0.953E-03
 bond charge predicted
       N       E                     dE             d eps       ncg     rms          rms(c)
DAV:   1    -0.654434633277E+02   -0.17528E-02   -0.34702E-02  1260   0.522E-01    0.140E-01
DAV:   2    -0.654434052605E+02    0.58067E-04   -0.20523E-03  1596   0.137E-01    0.637E-02
DAV:   3    -0.654433342075E+02    0.71053E-04   -0.97999E-05   952   0.338E-02
  10 F= -.65443334E+02 E0= -.65443334E+02  d E =-.167208E-02
 ZBRENT: can't locate minimum, use default step
 trial-energy change:   -0.001672  1 .order   -0.001753   -0.001791   -0.001716
 step:   8.3121(harm= 49.6278)  dis= 0.00756  next Energy=   -65.463044 (dE=-0.214E-01)
 bond charge predicted
       N       E                     dE             d eps       ncg     rms          rms(c)
DAV:   1    -0.654464115453E+02   -0.30063E-02   -0.30697E-01  1260   0.155E+00    0.408E-01
DAV:   2    -0.654457958063E+02    0.61574E-03   -0.18184E-02  1610   0.408E-01    0.185E-01
DAV:   3    -0.654451701066E+02    0.62570E-03   -0.10312E-03  1638   0.102E-01    0.119E-01
DAV:   4    -0.654448664671E+02    0.30364E-03   -0.28046E-04  1344   0.575E-02    0.525E-02
DAV:   5    -0.654448023130E+02    0.64154E-04   -0.12592E-04   952   0.420E-02
  11 F= -.65444802E+02 E0= -.65444802E+02  d E =-.314019E-02
 curvature:  -6.73 expect dE=-0.806E-02 dE for cont linesearch -0.594E-05
 trial: gam= 1.44750 g(F)=  0.109E-02 g(S)=  0.105E-03 ort =-0.290E-04 (trialstep = 0.102E+01)
 search vector abs. value=  0.311E-02
 bond charge predicted
       N       E                     dE             d eps       ncg     rms          rms(c)
DAV:   1    -0.654458572591E+02   -0.99079E-03   -0.27757E-02  1260   0.448E-01    0.932E-02
DAV:   2    -0.654459601912E+02   -0.10293E-03   -0.15832E-03  1610   0.117E-01    0.360E-02
DAV:   3    -0.654459428894E+02    0.17302E-04   -0.25815E-05   966   0.196E-02
  12 F= -.65445943E+02 E0= -.65445943E+02  d E =-.114058E-02
 ZBRENT: can't locate minimum, use default step
 trial-energy change:   -0.001141  1 .order   -0.001177   -0.001178   -0.001175
 step:   4.0738(harm=379.8389)  dis= 0.00768  next Energy=   -65.664494 (dE=-0.220E+00)
 bond charge predicted
       N       E                     dE             d eps       ncg     rms          rms(c)
DAV:   1    -0.654481007618E+02   -0.21406E-02   -0.24703E-01  1260   0.133E+00    0.261E-01
DAV:   2    -0.654489756768E+02   -0.87491E-03   -0.13794E-02  1610   0.348E-01    0.117E-01
DAV:   3    -0.654488322717E+02    0.14341E-03   -0.27302E-04  1512   0.583E-02    0.870E-02
DAV:   4    -0.654487417261E+02    0.90546E-04   -0.10540E-04   980   0.352E-02
  13 F= -.65448742E+02 E0= -.65448742E+02  d E =-.393941E-02
 curvature:  -8.21 expect dE=-0.797E-02 dE for cont linesearch -0.237E-02
 ZBRENT: increasing intervall
 opt :  10.1845  next Energy=   -65.453269 (dE=-0.847E-02)
 bond charge predicted
       N       E                     dE             d eps       ncg     rms          rms(c)
DAV:   1    -0.654483167009E+02    0.51557E-03   -0.99276E-01  1260   0.267E+00    0.535E-01
DAV:   2    -0.654519170611E+02   -0.36004E-02   -0.55874E-02  1610   0.700E-01    0.229E-01
DAV:   3    -0.654513512983E+02    0.56576E-03   -0.11018E-03  1638   0.117E-01    0.167E-01
DAV:   4    -0.654510149213E+02    0.33638E-03   -0.46765E-04  1470   0.685E-02    0.792E-02
DAV:   5    -0.654509590860E+02    0.55835E-04   -0.16919E-04  1050   0.479E-02
  14 F= -.65450959E+02 E0= -.65450959E+02  d E =-.615677E-02
 curvature: -15.70 expect dE=-0.259E-01 dE for cont linesearch -0.708E-04
 trial: gam= 0.91845 g(F)=  0.115E-02 g(S)=  0.497E-03 ort =-0.118E-03 (trialstep = 0.219E+01)
 search vector abs. value=  0.406E-02
 bond charge predicted
       N       E                     dE             d eps       ncg     rms          rms(c)
DAV:   1    -0.654533011971E+02   -0.22863E-02   -0.16122E-01  1260   0.111E+00    0.264E-01
DAV:   2    -0.654538518458E+02   -0.55065E-03   -0.97611E-03  1610   0.297E-01    0.101E-01
DAV:   3    -0.654537112546E+02    0.14059E-03   -0.18898E-04  1218   0.513E-02    0.687E-02
DAV:   4    -0.654536195101E+02    0.91745E-04   -0.15567E-04   980   0.427E-02
  15 F= -.65453620E+02 E0= -.65453620E+02  d E =-.266042E-02
 trial-energy change:   -0.002660  1 .order   -0.002664   -0.003369   -0.001959
 step:   5.2287(harm=  5.2287)  dis= 0.00791  next Energy=   -65.454984 (dE=-0.403E-02)
 bond charge predicted
       N       E                     dE             d eps       ncg     rms          rms(c)
DAV:   1    -0.654541330699E+02   -0.42182E-03   -0.31081E-01  1260   0.154E+00    0.369E-01
DAV:   2    -0.654551707967E+02   -0.10377E-02   -0.18554E-02  1610   0.410E-01    0.140E-01
DAV:   3    -0.654548898328E+02    0.28096E-03   -0.39060E-04  1568   0.708E-02    0.981E-02
DAV:   4    -0.654547130146E+02    0.17682E-03   -0.24044E-04  1204   0.524E-02    0.343E-02
DAV:   5    -0.654547026532E+02    0.10361E-04   -0.85999E-05   966   0.321E-02
  16 F= -.65454703E+02 E0= -.65454703E+02  d E =-.374357E-02
 curvature:  -6.89 expect dE=-0.549E-02 dE for cont linesearch -0.268E-04
 trial: gam= 0.30069 g(F)=  0.590E-03 g(S)=  0.208E-03 ort =-0.126E-03 (trialstep = 0.280E+01)
 search vector abs. value=  0.109E-02
 bond charge predicted
       N       E                     dE             d eps       ncg     rms          rms(c)
DAV:   1    -0.654563287738E+02   -0.16158E-02   -0.71422E-02  1260   0.771E-01    0.212E-01
DAV:   2    -0.654562216367E+02    0.10714E-03   -0.43512E-03  1582   0.201E-01    0.850E-02
DAV:   3    -0.654560740999E+02    0.14754E-03   -0.17734E-04  1078   0.469E-02    0.505E-02
DAV:   4    -0.654559981563E+02    0.75944E-04   -0.12693E-04   938   0.403E-02
  17 F= -.65455998E+02 E0= -.65455998E+02  d E =-.129550E-02
 trial-energy change:   -0.001296  1 .order   -0.001380   -0.002125   -0.000635
 step:   3.9868(harm=  3.9868)  dis= 0.00322  next Energy=   -65.456218 (dE=-0.152E-02)
 bond charge predicted
       N       E                     dE             d eps       ncg     rms          rms(c)
DAV:   1    -0.654562035670E+02   -0.12947E-03   -0.12801E-02  1260   0.327E-01    0.929E-02
DAV:   2    -0.654561766457E+02    0.26921E-04   -0.77113E-04  1568   0.844E-02
  18 F= -.65456177E+02 E0= -.65456177E+02  d E =-.147399E-02
 curvature:  -2.86 expect dE=-0.186E-02 dE for cont linesearch -0.633E-04
 ZBRENT: increasing intervall
 opt :   6.3682  next Energy=   -65.456376 (dE=-0.167E-02)
 bond charge predicted
       N       E                     dE             d eps       ncg     rms          rms(c)
DAV:   1    -0.654564540216E+02   -0.25045E-03   -0.51011E-02  1260   0.649E-01    0.183E-01
DAV:   2    -0.654562536619E+02    0.20036E-03   -0.30429E-03  1596   0.170E-01    0.816E-02
DAV:   3    -0.654561046080E+02    0.14905E-03   -0.14800E-04  1008   0.432E-02    0.489E-02
DAV:   4    -0.654560310174E+02    0.73591E-04   -0.13134E-04   994   0.408E-02
  19 F= -.65456031E+02 E0= -.65456031E+02  d E =-.132836E-02
 curvature:  -8.99 expect dE=-0.117E-01 dE for cont linesearch -0.175E-03
 ZBRENT: bracketing found
 ZBRENT: interpolating
 opt :   5.2167  next Energy=   -65.456115 (dE=-0.141E-02)
 bond charge predicted
       N       E                     dE             d eps       ncg     rms          rms(c)
DAV:   1    -0.654561898235E+02   -0.85216E-04   -0.12196E-02  1260   0.318E-01    0.832E-02
DAV:   2    -0.654561745683E+02    0.15255E-04   -0.74450E-04  1540   0.838E-02
  20 F= -.65456175E+02 E0= -.65456175E+02  d E =-.147192E-02
 curvature:  -4.31 expect dE=-0.409E-02 dE for cont linesearch -0.307E-04
 trial: gam= 1.25704 g(F)=  0.660E-03 g(S)=  0.290E-03 ort =-0.880E-04 (trialstep = 0.146E+01)
 search vector abs. value=  0.245E-02
 bond charge predicted
       N       E                     dE             d eps       ncg     rms          rms(c)
DAV:   1    -0.654569919317E+02   -0.80211E-03   -0.44510E-02  1260   0.578E-01    0.124E-01
DAV:   2    -0.654572058975E+02   -0.21397E-03   -0.26992E-03  1568   0.153E-01    0.384E-02
DAV:   3    -0.654571909627E+02    0.14935E-04   -0.49898E-05   938   0.266E-02
  21 F= -.65457191E+02 E0= -.65457191E+02  d E =-.101639E-02
 trial-energy change:   -0.001016  1 .order   -0.000899   -0.001223   -0.000575
 step:   2.7524(harm=  2.7524)  dis= 0.00389  next Energy=   -65.457329 (dE=-0.115E-02)
 bond charge predicted
       N       E                     dE             d eps       ncg     rms          rms(c)
DAV:   1    -0.654573217413E+02   -0.11584E-03   -0.33947E-02  1260   0.504E-01    0.960E-02
DAV:   2    -0.654574547903E+02   -0.13305E-03   -0.19056E-03  1596   0.131E-01    0.433E-02
DAV:   3    -0.654574381295E+02    0.16661E-04   -0.40699E-05   966   0.235E-02
  22 F= -.65457438E+02 E0= -.65457438E+02  d E =-.126356E-02
 curvature:  -4.02 expect dE=-0.485E-02 dE for cont linesearch -0.921E-06
 trial: gam= 0.60428 g(F)=  0.102E-02 g(S)=  0.187E-03 ort =-0.237E-04 (trialstep = 0.172E+01)
 search vector abs. value=  0.207E-02
 bond charge predicted
       N       E                     dE             d eps       ncg     rms          rms(c)
DAV:   1    -0.654586822008E+02   -0.12274E-02   -0.49448E-02  1260   0.607E-01    0.156E-01
DAV:   2    -0.654589086816E+02   -0.22648E-03   -0.33073E-03  1582   0.167E-01    0.572E-02
DAV:   3    -0.654588703455E+02    0.38336E-04   -0.58053E-05  1022   0.294E-02
  23 F= -.65458870E+02 E0= -.65458870E+02  d E =-.143222E-02
 trial-energy change:   -0.001432  1 .order   -0.001473   -0.002050   -0.000896
 step:   3.0517(harm=  3.0517)  dis= 0.00410  next Energy=   -65.459259 (dE=-0.182E-02)
 bond charge predicted
       N       E                     dE             d eps       ncg     rms          rms(c)
DAV:   1    -0.654590170521E+02   -0.10837E-03   -0.28745E-02  1260   0.462E-01    0.122E-01
DAV:   2    -0.654591330770E+02   -0.11602E-03   -0.18755E-03  1596   0.126E-01    0.422E-02
DAV:   3    -0.654591087287E+02    0.24348E-04   -0.35867E-05   994   0.231E-02
  24 F= -.65459109E+02 E0= -.65459109E+02  d E =-.167060E-02
 curvature:  -2.65 expect dE=-0.902E-03 dE for cont linesearch -0.374E-04
 ZBRENT: extrapolating
 opt :   3.7020  next Energy=   -65.459164 (dE=-0.173E-02)
 bond charge predicted
       N       E                     dE             d eps       ncg     rms          rms(c)
DAV:   1    -0.654590711158E+02    0.61961E-04   -0.66622E-03  1260   0.222E-01    0.602E-02
DAV:   2    -0.654590958518E+02   -0.24736E-04   -0.42796E-04  1526   0.602E-02
  25 F= -.65459096E+02 E0= -.65459096E+02  d E =-.165772E-02
 curvature:  -3.94 expect dE=-0.262E-02 dE for cont linesearch -0.143E-03
 ZBRENT: bracketing found
 ZBRENT: interpolating
 opt :   3.3012  next Energy=   -65.459130 (dE=-0.169E-02)
 bond charge predicted
       N       E                     dE             d eps       ncg     rms          rms(c)
DAV:   1    -0.654590970516E+02   -0.25936E-04   -0.27956E-03  1302   0.146E-01    0.393E-02
DAV:   2    -0.654591142526E+02   -0.17201E-04   -0.20709E-04  1162   0.416E-02
  26 F= -.65459114E+02 E0= -.65459114E+02  d E =-.167612E-02
 curvature:  -0.59 expect dE=-0.259E-03 dE for cont linesearch -0.931E-06
 trial: gam= 0.33239 g(F)=  0.344E-03 g(S)=  0.970E-04 ort = 0.574E-04 (trialstep = 0.203E+01)
 search vector abs. value=  0.708E-03
 bond charge predicted
       N       E                     dE             d eps       ncg     rms          rms(c)
DAV:   1    -0.654597496166E+02   -0.65257E-03   -0.20782E-02  1260   0.400E-01    0.983E-02
DAV:   2    -0.654597381399E+02    0.11477E-04   -0.13825E-03  1596   0.109E-01    0.503E-02
DAV:   3    -0.654597105629E+02    0.27577E-04   -0.58800E-05   896   0.253E-02
  27 F= -.65459711E+02 E0= -.65459711E+02  d E =-.596310E-03
 trial-energy change:   -0.000596  1 .order   -0.000650   -0.000936   -0.000364
 step:   3.3273(harm=  3.3273)  dis= 0.00235  next Energy=   -65.459880 (dE=-0.766E-03)
 bond charge predicted
       N       E                     dE             d eps       ncg     rms          rms(c)
DAV:   1    -0.654598860062E+02   -0.14787E-03   -0.79227E-03  1260   0.244E-01    0.596E-02
DAV:   2    -0.654598609518E+02    0.25054E-04   -0.50803E-04  1554   0.670E-02
  28 F= -.65459861E+02 E0= -.65459861E+02  d E =-.746699E-03
 curvature:  -2.56 expect dE=-0.926E-03 dE for cont linesearch -0.552E-04
 ZBRENT: increasing intervall
 opt :   5.9134  next Energy=   -65.460037 (dE=-0.923E-03)
 bond charge predicted
       N       E                     dE             d eps       ncg     rms          rms(c)
DAV:   1    -0.654602774197E+02   -0.39141E-03   -0.33371E-02  1260   0.503E-01    0.122E-01
DAV:   2    -0.654601870002E+02    0.90420E-04   -0.21733E-03  1624   0.138E-01    0.726E-02
DAV:   3    -0.654601238644E+02    0.63136E-04   -0.10217E-04   938   0.336E-02
  29 F= -.65460124E+02 E0= -.65460124E+02  d E =-.100961E-02
 curvature:  -8.19 expect dE=-0.275E-02 dE for cont linesearch -0.231E-03
 ZBRENT: increasing intervall
 opt :  11.0855  next Energy=   -65.460946 (dE=-0.183E-02)
 bond charge predicted
       N       E                     dE             d eps       ncg     rms          rms(c)
DAV:   1    -0.654605061235E+02   -0.31912E-03   -0.13171E-01  1260   0.100E+00    0.242E-01
DAV:   2    -0.654603136711E+02    0.19245E-03   -0.85499E-03  1610   0.272E-01    0.131E-01
DAV:   3    -0.654601201251E+02    0.19355E-03   -0.43818E-04  1484   0.649E-02    0.834E-02
DAV:   4    -0.654600193884E+02    0.10074E-03   -0.88363E-05   980   0.334E-02    0.407E-02
DAV:   5    -0.654599887518E+02    0.30637E-04   -0.81734E-05   882   0.316E-02
  30 F= -.65459989E+02 E0= -.65459989E+02  d E =-.874499E-03
 curvature: -29.19 expect dE=-0.139E-01 dE for cont linesearch -0.293E-04
 trial: gam= 1.09293 g(F)=  0.249E-03 g(S)=  0.227E-03 ort =-0.267E-04 (trialstep = 0.215E+01)
 search vector abs. value=  0.126E-02
 bond charge predicted
       N       E                     dE             d eps       ncg     rms          rms(c)
DAV:   1    -0.654606282833E+02   -0.60889E-03   -0.36754E-02  1260   0.529E-01    0.119E-01
DAV:   2    -0.654607180106E+02   -0.89727E-04   -0.23760E-03  1638   0.144E-01    0.547E-02
DAV:   3    -0.654606801057E+02    0.37905E-04   -0.97640E-05   980   0.336E-02
  31 F= -.65460680E+02 E0= -.65460680E+02  d E =-.691354E-03
 trial-energy change:   -0.000691  1 .order   -0.000675   -0.000964   -0.000386
 step:   3.5900(harm=  3.5900)  dis= 0.00467  next Energy=   -65.460792 (dE=-0.803E-03)
 bond charge predicted
       N       E                     dE             d eps       ncg     rms          rms(c)
DAV:   1    -0.654606419347E+02    0.76076E-04   -0.15694E-02  1260   0.345E-01    0.766E-02
DAV:   2    -0.654606445380E+02   -0.26033E-05   -0.94600E-04  1638   0.928E-02
  32 F= -.65460645E+02 E0= -.65460645E+02  d E =-.655786E-03
 curvature:  -5.07 expect dE=-0.397E-02 dE for cont linesearch -0.581E-04
 trial: gam= 1.23528 g(F)=  0.447E-03 g(S)=  0.335E-03 ort =-0.120E-03 (trialstep = 0.128E+01)
 search vector abs. value=  0.241E-02
 bond charge predicted
       N       E                     dE             d eps       ncg     rms          rms(c)
DAV:   1    -0.654612810061E+02   -0.63907E-03   -0.31816E-02  1260   0.515E-01    0.138E-01
DAV:   2    -0.654610543071E+02    0.22670E-03   -0.16727E-03  1540   0.128E-01    0.708E-02
DAV:   3    -0.654609375635E+02    0.11674E-03   -0.11523E-04   966   0.381E-02    0.404E-02
DAV:   4    -0.654608981816E+02    0.39382E-04   -0.81159E-05   854   0.337E-02
  33 F= -.65460898E+02 E0= -.65460898E+02  d E =-.253644E-03
 trial-energy change:   -0.000254  1 .order   -0.000307   -0.000810    0.000196
 step:   1.0297(harm=  1.0297)  dis= 0.00111  next Energy=   -65.460971 (dE=-0.326E-03)
 bond charge predicted
       N       E                     dE             d eps       ncg     rms          rms(c)
DAV:   1    -0.654609281381E+02    0.94254E-05   -0.12474E-03  1274   0.102E-01    0.271E-02
DAV:   2    -0.654609249018E+02    0.32363E-05   -0.61588E-05   630   0.259E-02
  34 F= -.65460925E+02 E0= -.65460925E+02  d E =-.280364E-03
 curvature:  -1.96 expect dE=-0.797E-03 dE for cont linesearch -0.229E-05
 trial: gam= 0.11610 g(F)=  0.327E-03 g(S)=  0.787E-04 ort =-0.530E-04 (trialstep = 0.123E+01)
 search vector abs. value=  0.426E-03
 bond charge predicted
       N       E                     dE             d eps       ncg     rms          rms(c)
DAV:   1    -0.654613948604E+02   -0.46672E-03   -0.48730E-03  1260   0.199E-01    0.531E-02
DAV:   2    -0.654613997808E+02   -0.49203E-05   -0.29277E-04  1512   0.544E-02
  35 F= -.65461400E+02 E0= -.65461400E+02  d E =-.474879E-03
 ZBRENT: can't locate minimum, use default step
 trial-energy change:   -0.000475  1 .order   -0.000434   -0.000491   -0.000377
 step:   4.9151(harm=  5.2732)  dis= 0.00231  next Energy=   -65.461979 (dE=-0.105E-02)
 bond charge predicted
       N       E                     dE             d eps       ncg     rms          rms(c)
DAV:   1    -0.654621213595E+02   -0.72650E-03   -0.43798E-02  1260   0.595E-01    0.155E-01
DAV:   2    -0.654621080711E+02    0.13288E-04   -0.25372E-03  1624   0.163E-01    0.721E-02
DAV:   3    -0.654620386874E+02    0.69384E-04   -0.18418E-04  1078   0.478E-02
  36 F= -.65462039E+02 E0= -.65462039E+02  d E =-.111379E-02
 curvature:  -2.79 expect dE=-0.872E-03 dE for cont linesearch -0.187E-03
 ZBRENT: increasing intervall
 opt :  12.2877  next Energy=   -65.462269 (dE=-0.134E-02)
 bond charge predicted
       N       E                     dE             d eps       ncg     rms          rms(c)
DAV:   1    -0.654616429284E+02    0.46514E-03   -0.17322E-01  1260   0.118E+00    0.308E-01
DAV:   2    -0.654615965882E+02    0.46340E-04   -0.99199E-03  1624   0.323E-01    0.141E-01
DAV:   3    -0.654613425915E+02    0.25400E-03   -0.85818E-04  1624   0.969E-02    0.943E-02
DAV:   4    -0.654612178533E+02    0.12474E-03   -0.10416E-04   980   0.424E-02    0.487E-02
DAV:   5    -0.654611505102E+02    0.67343E-04   -0.12192E-04  1106   0.585E-02
  37 F= -.65461151E+02 E0= -.65461151E+02  d E =-.225608E-03
 curvature:  -3.44 expect dE=-0.247E-02 dE for cont linesearch -0.269E-03
 ZBRENT: bracketing found
 ZBRENT: interpolating
 opt :   8.4589  next Energy=   -65.462338 (dE=-0.141E-02)
 bond charge predicted
       N       E                     dE             d eps       ncg     rms          rms(c)
DAV:   1    -0.654620295941E+02   -0.81174E-03   -0.48163E-02  1260   0.623E-01    0.154E-01
DAV:   2    -0.654620652166E+02   -0.35623E-04   -0.28223E-03  1624   0.171E-01    0.790E-02
DAV:   3    -0.654620084483E+02    0.56768E-04   -0.19050E-04  1092   0.468E-02
  38 F= -.65462008E+02 E0= -.65462008E+02  d E =-.108355E-02
 curvature:  -3.83 expect dE=-0.243E-02 dE for cont linesearch -0.453E-03
 ZBRENT: interpolating
 opt :   6.4365  next Energy=   -65.462167 (dE=-0.124E-02)
 bond charge predicted
       N       E                     dE             d eps       ncg     rms          rms(c)
DAV:   1    -0.654622262411E+02   -0.16102E-03   -0.12586E-02  1288   0.320E-01    0.807E-02
DAV:   2    -0.654621752796E+02    0.50961E-04   -0.66722E-04  1624   0.877E-02
  39 F= -.65462175E+02 E0= -.65462175E+02  d E =-.125038E-02
 curvature:  -1.09 expect dE=-0.454E-03 dE for cont linesearch -0.123E-04
 ZBRENT: interpolating
 opt :   5.9924  next Energy=   -65.462191 (dE=-0.127E-02)
 bond charge predicted
       N       E                     dE             d eps       ncg     rms          rms(c)
DAV:   1    -0.654621432146E+02    0.83026E-04   -0.61569E-04  1484   0.730E-02    0.319E-02
DAV:   2    -0.654621183299E+02    0.24885E-04   -0.41513E-05   896   0.261E-02
  40 F= -.65462118E+02 E0= -.65462118E+02  d E =-.119343E-02
 curvature:  -1.36 expect dE=-0.458E-03 dE for cont linesearch -0.197E-05
 trial: gam= 0.83406 g(F)=  0.223E-03 g(S)=  0.114E-03 ort = 0.249E-04 (trialstep = 0.138E+01)
 search vector abs. value=  0.675E-03
 bond charge predicted
       N       E                     dE             d eps       ncg     rms          rms(c)
DAV:   1    -0.654625481139E+02   -0.40490E-03   -0.88695E-03  1260   0.269E-01    0.570E-02
DAV:   2    -0.654625469018E+02    0.12121E-05   -0.47338E-04  1554   0.672E-02
  41 F= -.65462547E+02 E0= -.65462547E+02  d E =-.428572E-03
 trial-energy change:   -0.000429  1 .order   -0.000405   -0.000493   -0.000317
 step:   3.8546(harm=  3.8546)  dis= 0.00266  next Energy=   -65.462808 (dE=-0.690E-03)
 bond charge predicted
       N       E                     dE             d eps       ncg     rms          rms(c)
DAV:   1    -0.654625729511E+02   -0.24837E-04   -0.28080E-02  1260   0.478E-01    0.962E-02
DAV:   2    -0.654625209278E+02    0.52023E-04   -0.14718E-03  1638   0.121E-01    0.580E-02
DAV:   3    -0.654624770536E+02    0.43874E-04   -0.85404E-05   994   0.327E-02
  42 F= -.65462477E+02 E0= -.65462477E+02  d E =-.358724E-03
 curvature:  -3.64 expect dE=-0.219E-02 dE for cont linesearch -0.580E-05
 trial: gam= 1.58320 g(F)=  0.478E-03 g(S)=  0.124E-03 ort =-0.328E-04 (trialstep = 0.577E+00)
 search vector abs. value=  0.219E-02
 bond charge predicted
       N       E                     dE             d eps       ncg     rms          rms(c)
DAV:   1    -0.654627431479E+02   -0.22222E-03   -0.56042E-03  1260   0.217E-01    0.569E-02
DAV:   2    -0.654626914142E+02    0.51734E-04   -0.28868E-04  1442   0.544E-02
  43 F= -.65462691E+02 E0= -.65462691E+02  d E =-.214361E-03
 trial-energy change:   -0.000214  1 .order   -0.000277   -0.000317   -0.000237
 step:   2.2720(harm=  2.2720)  dis= 0.00305  next Energy=   -65.463102 (dE=-0.625E-03)
 bond charge predicted
       N       E                     dE             d eps       ncg     rms          rms(c)
DAV:   1    -0.654632376195E+02   -0.49447E-03   -0.51265E-02  1260   0.654E-01    0.168E-01
DAV:   2    -0.654629321693E+02    0.30545E-03   -0.27623E-03  1554   0.164E-01    0.816E-02
DAV:   3    -0.654627910181E+02    0.14115E-03   -0.19273E-04  1106   0.465E-02    0.460E-02
DAV:   4    -0.654627438051E+02    0.47213E-04   -0.88749E-05   910   0.350E-02
  44 F= -.65462744E+02 E0= -.65462744E+02  d E =-.266752E-03
 curvature:  -4.52 expect dE=-0.155E-02 dE for cont linesearch -0.173E-04
 ZBRENT: interpolating
 opt :   1.9626  next Energy=   -65.462758 (dE=-0.281E-03)
 bond charge predicted
       N       E                     dE             d eps       ncg     rms          rms(c)
DAV:   1    -0.654627949420E+02   -0.39240E-05   -0.18630E-03  1288   0.125E-01    0.353E-02
DAV:   2    -0.654627914414E+02    0.35006E-05   -0.90363E-05   630   0.313E-02
  45 F= -.65462791E+02 E0= -.65462791E+02  d E =-.314388E-03
 curvature:  -3.70 expect dE=-0.166E-02 dE for cont linesearch -0.200E-04
 ZBRENT: bisectioning
 opt :   1.2699  next Energy=   -65.462880 (dE=-0.403E-03)
 bond charge predicted
       N       E                     dE             d eps       ncg     rms          rms(c)
DAV:   1    -0.654628865265E+02   -0.91584E-04   -0.85717E-03  1260   0.267E-01    0.688E-02
DAV:   2    -0.654628405296E+02    0.45997E-04   -0.46460E-04  1540   0.671E-02
  46 F= -.65462841E+02 E0= -.65462841E+02  d E =-.363476E-03
 curvature: -16.40 expect dE=-0.805E-02 dE for cont linesearch -0.715E-04
 trial: gam= 0.38213 g(F)=  0.354E-03 g(S)=  0.137E-03 ort =-0.977E-04 (trialstep = 0.716E+00)
 search vector abs. value=  0.736E-03
 bond charge predicted
       N       E                     dE             d eps       ncg     rms          rms(c)
DAV:   1    -0.654631212680E+02   -0.23474E-03   -0.22201E-03  1260   0.139E-01    0.431E-02
DAV:   2    -0.654631096931E+02    0.11575E-04   -0.15336E-04   714   0.379E-02
  47 F= -.65463110E+02 E0= -.65463110E+02  d E =-.269163E-03
 ZBRENT: can't locate minimum, use default step
 trial-energy change:   -0.000269  1 .order   -0.000301   -0.000325   -0.000277
 step:   2.8630(harm=  4.8417)  dis= 0.00297  next Energy=   -65.463939 (dE=-0.110E-02)
 bond charge predicted
       N       E                     dE             d eps       ncg     rms          rms(c)
DAV:   1    -0.654634262744E+02   -0.30501E-03   -0.20455E-02  1260   0.415E-01    0.980E-02
DAV:   2    -0.654634057572E+02    0.20517E-04   -0.12580E-03  1610   0.105E-01    0.435E-02
DAV:   3    -0.654633677954E+02    0.37962E-04   -0.46468E-05   882   0.240E-02
  48 F= -.65463368E+02 E0= -.65463368E+02  d E =-.527266E-03
 curvature:  -3.02 expect dE=-0.118E-02 dE for cont linesearch -0.419E-04
 ZBRENT: interpolating
 opt :   2.4182  next Energy=   -65.463390 (dE=-0.550E-03)
 bond charge predicted
       N       E                     dE             d eps       ncg     rms          rms(c)
DAV:   1    -0.654634139176E+02   -0.81604E-05   -0.11080E-03  1260   0.974E-02    0.256E-02
DAV:   2    -0.654634143441E+02   -0.42652E-06   -0.66498E-05   630   0.257E-02
  49 F= -.65463414E+02 E0= -.65463414E+02  d E =-.573814E-03
 curvature:  -1.62 expect dE=-0.629E-03 dE for cont linesearch -0.240E-04
 ZBRENT: bisectioning
 opt :   1.5670  next Energy=   -65.463506 (dE=-0.665E-03)
 bond charge predicted
       N       E                     dE             d eps       ncg     rms          rms(c)
DAV:   1    -0.654633514746E+02    0.62443E-04   -0.32209E-03  1260   0.164E-01    0.388E-02
DAV:   2    -0.654633427818E+02    0.86928E-05   -0.17284E-04   840   0.416E-02
  50 F= -.65463343E+02 E0= -.65463343E+02  d E =-.502252E-03
 curvature:  -6.19 expect dE=-0.132E-02 dE for cont linesearch -0.943E-04
 ZBRENT: interpolating
 opt :   1.9956  next Energy=   -65.463436 (dE=-0.596E-03)
 bond charge predicted
       N       E                     dE             d eps       ncg     rms          rms(c)
DAV:   1    -0.654634012149E+02   -0.49740E-04   -0.90607E-04  1260   0.893E-02    0.222E-02
DAV:   2    -0.654634040442E+02   -0.28293E-05   -0.48175E-05   630   0.217E-02
  51 F= -.65463404E+02 E0= -.65463404E+02  d E =-.563515E-03
 curvature:  -1.45 expect dE=-0.348E-03 dE for cont linesearch -0.560E-04
 ZBRENT: interpolating
 opt :   2.2567  next Energy=   -65.463423 (dE=-0.582E-03)
 bond charge predicted
       N       E                     dE             d eps       ncg     rms          rms(c)
DAV:   1    -0.654634261499E+02   -0.24935E-04   -0.31782E-04  1260   0.512E-02    0.134E-02
DAV:   2    -0.654634258485E+02    0.30143E-06   -0.16798E-05   630   0.131E-02
  52 F= -.65463426E+02 E0= -.65463426E+02  d E =-.585319E-03
 curvature:  -0.22 expect dE=-0.664E-04 dE for cont linesearch -0.428E-07
 trial: gam= 0.43076 g(F)=  0.221E-03 g(S)=  0.839E-04 ort =-0.120E-04 (trialstep = 0.102E+01)
 search vector abs. value=  0.431E-03
 bond charge predicted
       N       E                     dE             d eps       ncg     rms          rms(c)
DAV:   1    -0.654635617864E+02   -0.13564E-03   -0.26180E-03  1260   0.148E-01    0.327E-02
DAV:   2    -0.654635524910E+02    0.92954E-05   -0.12020E-04   742   0.352E-02
  53 F= -.65463552E+02 E0= -.65463552E+02  d E =-.126643E-03
 trial-energy change:   -0.000127  1 .order   -0.000183   -0.000306   -0.000059
 step:   1.2675(harm=  1.2675)  dis= 0.00096  next Energy=   -65.463616 (dE=-0.190E-03)
 reached required accuracy - stopping structural energy minimisation
