<?xml version="1.0" encoding="ISO-8859-1"?>
<modeling>
 <generator>
  <i name="program" type="string">vasp </i>
  <i name="version" type="string">5.4.4.18Apr17-6-g9f103f2a35  </i>
  <i name="subversion" type="string">(build Oct 27 2022 13:04:57) complex            parallel </i>
  <i name="platform" type="string">LinuxIFC </i>
  <i name="date" type="string">2024 06 29 </i>
  <i name="time" type="string">23:17:06 </i>
 </generator>
 <incar>
  <i type="string" name="SYSTEM"> CIS</i>
  <i type="int" name="ISTART">     0</i>
  <i type="string" name="PREC">medium</i>
  <i type="int" name="ICHARG">     2</i>
  <i type="int" name="IBRION">     2</i>
  <i name="EDIFF">      0.00010000</i>
  <i name="EDIFFG">     -0.05000000</i>
  <i type="int" name="NSW">    99</i>
  <i type="int" name="ISIF">     3</i>
  <i name="ENCUT">    300.00000000</i>
  <i name="POTIM">      0.10000000</i>
  <i type="string" name="LREAL"> Auto</i>
  <i type="int" name="ISMEAR">     0</i>
  <i name="SIGMA">      0.05000000</i>
  <i type="int" name="LMAXMIX">     4</i>
  <i type="logical" name="LWAVE"> F  </i>
  <i type="logical" name="LCHARG"> F  </i>
  <i type="int" name="LORBIT">    10</i>
  <i type="logical" name="LASPH"> T  </i>
  <v type="int" name="KPOINT_BSE">    -1     0     0     0</v>
  <i type="logical" name="LASPH"> T  </i>
 </incar>
 <structure name="primitive_cell" >
  <crystal>
   <varray name="basis" >
    <v>       6.45699942       0.79075414      -0.98815419 </v>
    <v>      -0.86514984       6.47025438      -0.53556584 </v>
    <v>       0.14726968       1.05451695      12.41014643 </v>
   </varray>
   <i name="volume">    532.39385827 </i>
   <varray name="rec_basis" >
    <v>       0.15188298       0.02001857      -0.00350340 </v>
    <v>      -0.02038979       0.15078655      -0.01257070 </v>
    <v>       0.01121371       0.00810124       0.07975778 </v>
   </varray>
  </crystal>
  <varray name="positions" >
   <v>      -0.48303873      -0.26218229      -0.11919243 </v>
   <v>      -0.43220888       0.23067466      -0.14502859 </v>
   <v>       0.48343010      -0.18558520      -0.38446004 </v>
   <v>       0.01739534      -0.18602253      -0.11531716 </v>
   <v>       0.43220888      -0.23067466       0.14502859 </v>
   <v>      -0.03733388       0.20428718      -0.12119584 </v>
   <v>       0.03733388      -0.20428718       0.12119584 </v>
   <v>       0.48303873       0.26218229       0.11919243 </v>
   <v>      -0.46308368       0.20472935      -0.37915100 </v>
   <v>      -0.01632524      -0.26256852      -0.38053756 </v>
   <v>      -0.01739534       0.18602253       0.11531716 </v>
   <v>      -0.06821160       0.23024954      -0.35525419 </v>
   <v>       0.46308368      -0.20472935       0.37915100 </v>
   <v>       0.06821160      -0.23024954       0.35525419 </v>
   <v>      -0.48343010       0.18558520       0.38446004 </v>
   <v>       0.01632524       0.26256852       0.38053756 </v>
  </varray>
 </structure>
 <varray name="primitive_index" >
  <v type="int" >        1 </v>
  <v type="int" >       15 </v>
  <v type="int" >       10 </v>
  <v type="int" >       12 </v>
  <v type="int" >       16 </v>
  <v type="int" >        6 </v>
  <v type="int" >        5 </v>
  <v type="int" >        2 </v>
  <v type="int" >        8 </v>
  <v type="int" >        3 </v>
  <v type="int" >       11 </v>
  <v type="int" >       13 </v>
  <v type="int" >        7 </v>
  <v type="int" >       14 </v>
  <v type="int" >        9 </v>
  <v type="int" >        4 </v>
 </varray>
 <kpoints>
  <generation param="Monkhorst-Pack">
   <v type="int" name="divisions">       3        3        2 </v>
   <v name="usershift">      0.00000000       0.00000000       0.00000000 </v>
   <v name="genvec1">      0.33333333       0.00000000      -0.00000000 </v>
   <v name="genvec2">      0.00000000       0.33333333       0.00000000 </v>
   <v name="genvec3">      0.00000000       0.00000000       0.50000000 </v>
   <v name="shift">      0.00000000       0.00000000       0.50000000 </v>
  </generation>
  <varray name="kpointlist" >
   <v>       0.00000000       0.00000000       0.25000000 </v>
   <v>       0.33333333      -0.00000000       0.25000000 </v>
   <v>      -0.33333333      -0.00000000       0.25000000 </v>
   <v>      -0.00000000       0.33333333       0.25000000 </v>
   <v>       0.33333333       0.33333333       0.25000000 </v>
   <v>      -0.33333333       0.33333333       0.25000000 </v>
   <v>      -0.00000000      -0.33333333       0.25000000 </v>
   <v>       0.33333333      -0.33333333       0.25000000 </v>
   <v>      -0.33333333      -0.33333333       0.25000000 </v>
  </varray>
  <varray name="weights" >
   <v>       0.11111111 </v>
   <v>       0.11111111 </v>
   <v>       0.11111111 </v>
   <v>       0.11111111 </v>
   <v>       0.11111111 </v>
   <v>       0.11111111 </v>
   <v>       0.11111111 </v>
   <v>       0.11111111 </v>
   <v>       0.11111111 </v>
  </varray>
 </kpoints>
 <parameters>
  <separator name="general" >
   <i type="string" name="SYSTEM">CIS</i>
   <i type="logical" name="LCOMPAT"> F  </i>
  </separator>
  <separator name="electronic" >
   <i type="string" name="PREC">medium</i>
   <i name="ENMAX">    300.00000000</i>
   <i name="ENAUG">    380.51300000</i>
   <i name="EDIFF">      0.00010000</i>
   <i type="int" name="IALGO">    38</i>
   <i type="int" name="IWAVPR">    11</i>
   <i type="int" name="NBANDS">    70</i>
   <i name="NELECT">     96.00000000</i>
   <i type="int" name="TURBO">     0</i>
   <i type="int" name="IRESTART">     0</i>
   <i type="int" name="NREBOOT">     0</i>
   <i type="int" name="NMIN">     0</i>
   <i name="EREF">      0.00000000</i>
   <separator name="electronic smearing" >
    <i type="int" name="ISMEAR">     0</i>
    <i name="SIGMA">      0.05000000</i>
    <i name="KSPACING">      0.50000000</i>
    <i type="logical" name="KGAMMA"> T  </i>
   </separator>
   <separator name="electronic projectors" >
    <i type="logical" name="LREAL"> T  </i>
    <v name="ROPT">     -0.00200000     -0.00200000     -0.00200000</v>
    <i type="int" name="LMAXPAW">  -100</i>
    <i type="int" name="LMAXMIX">     4</i>
    <i type="logical" name="NLSPLINE"> F  </i>
   </separator>
   <separator name="electronic startup" >
    <i type="int" name="ISTART">     0</i>
    <i type="int" name="ICHARG">     2</i>
    <i type="int" name="INIWAV">     1</i>
   </separator>
   <separator name="electronic spin" >
    <i type="int" name="ISPIN">     1</i>
    <i type="logical" name="LNONCOLLINEAR"> F  </i>
    <v name="MAGMOM">      1.00000000      1.00000000      1.00000000      1.00000000      1.00000000      1.00000000      1.00000000      1.00000000      1.00000000      1.00000000      1.00000000      1.00000000      1.00000000      1.00000000      1.00000000      1.00000000</v>
    <i name="NUPDOWN">     -1.00000000</i>
    <i type="logical" name="LSORBIT"> F  </i>
    <v name="SAXIS">      0.00000000      0.00000000      1.00000000</v>
    <i type="logical" name="LSPIRAL"> F  </i>
    <v name="QSPIRAL">      0.00000000      0.00000000      0.00000000</v>
    <i type="logical" name="LZEROZ"> F  </i>
   </separator>
   <separator name="electronic exchange-correlation" >
    <i type="logical" name="LASPH"> T  </i>
    <i type="logical" name="LMETAGGA"> F  </i>
   </separator>
   <separator name="electronic convergence" >
    <i type="int" name="NELM">    60</i>
    <i type="int" name="NELMDL">    -5</i>
    <i type="int" name="NELMIN">     2</i>
    <i name="ENINI">    300.00000000</i>
    <separator name="electronic convergence detail" >
     <i type="logical" name="LDIAG"> T  </i>
     <i type="logical" name="LSUBROT"> F  </i>
     <i name="WEIMIN">      0.00100000</i>
     <i name="EBREAK">      0.00000036</i>
     <i name="DEPER">      0.30000000</i>
     <i type="int" name="NRMM">     4</i>
     <i name="TIME">      0.40000000</i>
    </separator>
   </separator>
   <separator name="electronic mixer" >
    <i name="AMIX">      0.40000000</i>
    <i name="BMIX">      1.00000000</i>
    <i name="AMIN">      0.10000000</i>
    <i name="AMIX_MAG">      1.60000000</i>
    <i name="BMIX_MAG">      1.00000000</i>
    <separator name="electronic mixer details" >
     <i type="int" name="IMIX">     4</i>
     <i type="logical" name="MIXFIRST"> F  </i>
     <i type="int" name="MAXMIX">   -45</i>
     <i name="WC">    100.00000000</i>
     <i type="int" name="INIMIX">     1</i>
     <i type="int" name="MIXPRE">     1</i>
     <i type="int" name="MREMOVE">     5</i>
    </separator>
   </separator>
   <separator name="electronic dipolcorrection" >
    <i type="logical" name="LDIPOL"> F  </i>
    <i type="logical" name="LMONO"> F  </i>
    <i type="int" name="IDIPOL">     0</i>
    <i name="EPSILON">      1.00000000</i>
    <v name="DIPOL">   -100.00000000   -100.00000000   -100.00000000</v>
    <i name="EFIELD">      0.00000000</i>
   </separator>
  </separator>
  <separator name="grids" >
   <i type="int" name="NGX">    28</i>
   <i type="int" name="NGY">    28</i>
   <i type="int" name="NGZ">    54</i>
   <i type="int" name="NGXF">    42</i>
   <i type="int" name="NGYF">    42</i>
   <i type="int" name="NGZF">    80</i>
   <i type="logical" name="ADDGRID"> F  </i>
  </separator>
  <separator name="ionic" >
   <i type="int" name="NSW">    99</i>
   <i type="int" name="IBRION">     2</i>
   <i type="int" name="MDALGO">     0</i>
   <i type="int" name="ISIF">     3</i>
   <i name="PSTRESS">      0.00000000</i>
   <i name="EDIFFG">     -0.05000000</i>
   <i type="int" name="NFREE">     1</i>
   <i name="POTIM">      0.10000000</i>
   <i name="SMASS">     -3.00000000</i>
   <i name="SCALEE">      1.00000000</i>
  </separator>
  <separator name="ionic md" >
   <i name="TEBEG">      0.00010000</i>
   <i name="TEEND">      0.00010000</i>
   <i type="int" name="NBLOCK">     1</i>
   <i type="int" name="KBLOCK">    99</i>
   <i type="int" name="NPACO">   256</i>
   <i name="APACO">     16.00000000</i>
  </separator>
  <separator name="symmetry" >
   <i type="int" name="ISYM">     2</i>
   <i name="SYMPREC">      0.00001000</i>
  </separator>
  <separator name="dos" >
   <i type="int" name="LORBIT">    10</i>
   <v name="RWIGS">     -1.00000000     -1.00000000     -1.00000000</v>
   <i type="int" name="NEDOS">   301</i>
   <i name="EMIN">     10.00000000</i>
   <i name="EMAX">    -10.00000000</i>
   <i name="EFERMI">      0.00000000</i>
  </separator>
  <separator name="writing" >
   <i type="int" name="NWRITE">     2</i>
   <i type="logical" name="LWAVE"> F  </i>
   <i type="logical" name="LDOWNSAMPLE"> F  </i>
   <i type="logical" name="LCHARG"> F  </i>
   <i type="logical" name="LPARD"> F  </i>
   <i type="logical" name="LVTOT"> F  </i>
   <i type="logical" name="LVHAR"> F  </i>
   <i type="logical" name="LELF"> F  </i>
   <i type="logical" name="LOPTICS"> F  </i>
   <v name="STM">      0.00000000      0.00000000      0.00000000      0.00000000      0.00000000      0.00000000      0.00000000</v>
  </separator>
  <separator name="performance" >
   <i type="int" name="NPAR">    14</i>
   <i type="int" name="NSIM">     4</i>
   <i type="int" name="NBLK">    -1</i>
   <i type="logical" name="LPLANE"> T  </i>
   <i type="logical" name="LSCALAPACK"> T  </i>
   <i type="logical" name="LSCAAWARE"> F  </i>
   <i type="logical" name="LSCALU"> F  </i>
   <i type="logical" name="LASYNC"> F  </i>
   <i type="logical" name="LORBITALREAL"> F  </i>
  </separator>
  <separator name="miscellaneous" >
   <i type="int" name="IDIOT">     3</i>
   <i type="int" name="ISPECIAL">     0</i>
   <i type="logical" name="LMUSIC"> F  </i>
   <v name="POMASS">     39.09800000    121.75000000     32.06600000</v>
   <v name="DARWINR">      0.00000000      0.00000000      0.00000000</v>
   <v name="DARWINV">      1.00000000      1.00000000      1.00000000</v>
   <i type="logical" name="LCORR"> T  </i>
  </separator>
  <i type="logical" name="GGA_COMPAT"> T  </i>
  <i type="logical" name="LBERRY"> F  </i>
  <i type="int" name="ICORELEVEL">     0</i>
  <i type="logical" name="LDAU"> F  </i>
  <i type="int" name="I_CONSTRAINED_M">     0</i>
  <separator name="electronic exchange-correlation" >
   <i type="string" name="GGA">--</i>
   <i type="int" name="VOSKOWN">     0</i>
   <i type="logical" name="LHFCALC"> F  </i>
   <i type="string" name="PRECFOCK"></i>
   <i type="logical" name="LSYMGRAD"> F  </i>
   <i type="logical" name="LHFONE"> F  </i>
   <i type="logical" name="LRHFCALC"> F  </i>
   <i type="logical" name="LTHOMAS"> F  </i>
   <i type="logical" name="LMODELHF"> F  </i>
   <i name="ENCUT4O">     -1.00000000</i>
   <i type="int" name="EXXOEP">     0</i>
   <i type="int" name="FOURORBIT">     0</i>
   <i name="AEXX">      0.00000000</i>
   <i name="HFALPHA">      0.00000000</i>
   <i name="MCALPHA">      0.00000000</i>
   <i name="ALDAX">      1.00000000</i>
   <i name="AGGAX">      1.00000000</i>
   <i name="ALDAC">      1.00000000</i>
   <i name="AGGAC">      1.00000000</i>
   <i type="int" name="NKREDX">     1</i>
   <i type="int" name="NKREDY">     1</i>
   <i type="int" name="NKREDZ">     1</i>
   <i type="logical" name="SHIFTRED"> F  </i>
   <i type="logical" name="ODDONLY"> F  </i>
   <i type="logical" name="EVENONLY"> F  </i>
   <i type="int" name="LMAXFOCK">     0</i>
   <i type="int" name="NMAXFOCKAE">     0</i>
   <i type="logical" name="LFOCKAEDFT"> F  </i>
   <i name="HFSCREEN">      0.00000000</i>
   <i name="HFSCREENC">      0.00000000</i>
   <i type="int" name="NBANDSGWLOW">     0</i>
  </separator>
  <separator name="vdW DFT" >
   <i type="logical" name="LUSE_VDW"> F  </i>
   <i name="Zab_VDW">     -0.84910000</i>
   <i name="PARAM1">      0.12340000</i>
   <i name="PARAM2">      1.00000000</i>
   <i name="PARAM3">      0.00000000</i>
  </separator>
  <separator name="model GW" >
   <i type="int" name="MODEL_GW">     0</i>
   <i name="MODEL_EPS0">     19.96476968</i>
   <i name="MODEL_ALPHA">      1.00000000</i>
  </separator>
  <separator name="linear response parameters" >
   <i type="logical" name="LEPSILON"> F  </i>
   <i type="logical" name="LRPA"> F  </i>
   <i type="logical" name="LNABLA"> F  </i>
   <i type="logical" name="LVEL"> F  </i>
   <i type="int" name="KINTER">     0</i>
   <i name="CSHIFT">      0.10000000</i>
   <i name="OMEGAMAX">     -1.00000000</i>
   <i name="DEG_THRESHOLD">      0.00200000</i>
   <i name="RTIME">     -0.10000000</i>
   <i name="WPLASMAI">      0.00000000</i>
   <v name="DFIELD">      0.00000000      0.00000000      0.00000000</v>
   <v name="WPLASMA">      0.00000000      0.00000000      0.00000000      0.00000000      0.00000000      0.00000000      0.00000000      0.00000000      0.00000000</v>
  </separator>
  <separator name="orbital magnetization" >
   <i type="logical" name="NUCIND"> F  </i>
   <v name="MAGPOS">      0.00000000      0.00000000      0.00000000</v>
   <i type="logical" name="LNICSALL"> T  </i>
   <i type="logical" name="ORBITALMAG"> F  </i>
   <i type="logical" name="LMAGBLOCH"> F  </i>
   <i type="logical" name="LCHIMAG"> F  </i>
   <i type="logical" name="LGAUGE"> T  </i>
   <i type="int" name="MAGATOM">     0</i>
   <v name="MAGDIPOL">      0.00000000      0.00000000      0.00000000</v>
   <v name="AVECCONST">      0.00000000      0.00000000      0.00000000</v>
  </separator>
  <separator name="response functions" >
   <i type="logical" name="LADDER"> F  </i>
   <i type="logical" name="LRPAFORCE"> F  </i>
   <i type="logical" name="LFXC"> F  </i>
   <i type="logical" name="LHARTREE"> T  </i>
   <i type="int" name="IBSE">     0</i>
   <v type="int" name="KPOINT">    -1     0     0     0</v>
   <i type="logical" name="LTCTE"> F  </i>
   <i type="logical" name="LTETE"> F  </i>
   <i type="logical" name="LTRIPLET"> F  </i>
   <i type="logical" name="LFXCEPS"> F  </i>
   <i type="logical" name="LFXHEG"> F  </i>
   <i type="int" name="NATURALO">     2</i>
   <i type="logical" name="L2ORDER"> F  </i>
   <i type="logical" name="LMP2LT"> F  </i>
   <i type="logical" name="LUSEW"> F  </i>
   <i name="ENCUTGW">     -2.00000000</i>
   <i name="ENCUTGWSOFT">     -2.00000000</i>
   <i name="ENCUTLF">     -1.00000000</i>
   <i type="int" name="LMAXMP2">    -1</i>
   <i name="SCISSOR">      0.00000000</i>
   <i type="int" name="NOMEGA">     0</i>
   <i type="int" name="NOMEGAR">     0</i>
   <i type="int" name="NBANDSGW">    -1</i>
   <i type="int" name="NBANDSO">    -1</i>
   <i type="int" name="NBANDSV">    -1</i>
   <i type="int" name="NELM">     1</i>
   <i type="int" name="NELMHF">     1</i>
   <i type="int" name="DIM">     3</i>
   <i type="int" name="ANTIRES">     0</i>
   <i name="OMEGAMAX">    -30.00000000</i>
   <i name="OMEGAMIN">    -30.00000000</i>
   <i name="OMEGATL">   -200.00000000</i>
   <i type="int" name="OMEGAGRID">   140</i>
   <i name="CSHIFT">     -0.10000000</i>
   <i type="logical" name="SELFENERGY"> F  </i>
   <i type="logical" name="LSPECTRAL"> F  </i>
   <i type="logical" name="LSPECTRALGW"> F  </i>
   <i type="logical" name="LSINGLES"> F  </i>
   <i type="logical" name="LFERMIGW"> F  </i>
   <i type="logical" name="ODDONLYGW"> F  </i>
   <i type="logical" name="EVENONLYGW"> F  </i>
   <i type="int" name="NKREDLFX">     1</i>
   <i type="int" name="NKREDLFY">     1</i>
   <i type="int" name="NKREDLFZ">     1</i>
   <i type="int" name="MAXMEM">  2800</i>
   <i type="int" name="TELESCOPE">     0</i>
   <i type="int" name="TAUPAR">     1</i>
   <i type="int" name="OMEGAPAR">    -1</i>
   <i name="LAMBDA">      1.00000000</i>
  </separator>
  <separator name="External order field" >
   <i name="OFIELD_KAPPA">      0.00000000</i>
   <v name="OFIELD_K">      0.00000000      0.00000000      0.00000000</v>
   <i name="OFIELD_Q6_NEAR">      0.00000000</i>
   <i name="OFIELD_Q6_FAR">      0.00000000</i>
   <i name="OFIELD_A">      0.00000000</i>
  </separator>
 </parameters>
 <atominfo>
  <atoms>      16 </atoms>
  <types>       3 </types>
  <array name="atoms" >
   <dimension dim="1">ion</dimension>
   <field type="string">element</field>
   <field type="int">atomtype</field>
   <set>
    <rc><c>K </c><c>   1</c></rc>
    <rc><c>K </c><c>   1</c></rc>
    <rc><c>K </c><c>   1</c></rc>
    <rc><c>K </c><c>   1</c></rc>
    <rc><c>Sb</c><c>   2</c></rc>
    <rc><c>Sb</c><c>   2</c></rc>
    <rc><c>Sb</c><c>   2</c></rc>
    <rc><c>Sb</c><c>   2</c></rc>
    <rc><c>S </c><c>   3</c></rc>
    <rc><c>S </c><c>   3</c></rc>
    <rc><c>S </c><c>   3</c></rc>
    <rc><c>S </c><c>   3</c></rc>
    <rc><c>S </c><c>   3</c></rc>
    <rc><c>S </c><c>   3</c></rc>
    <rc><c>S </c><c>   3</c></rc>
    <rc><c>S </c><c>   3</c></rc>
   </set>
  </array>
  <array name="atomtypes" >
   <dimension dim="1">type</dimension>
   <field type="int">atomspertype</field>
   <field type="string">element</field>
   <field>mass</field>
   <field>valence</field>
   <field type="string">pseudopotential</field>
   <set>
    <rc><c>   4</c><c>K </c><c>     39.09800000</c><c>      7.00000000</c><c>  PAW_PBE K_pv 17Jan2003                </c></rc>
    <rc><c>   4</c><c>Sb</c><c>    121.75000000</c><c>      5.00000000</c><c>  PAW_PBE Sb 06Sep2000                  </c></rc>
    <rc><c>   8</c><c>S </c><c>     32.06600000</c><c>      6.00000000</c><c>  PAW_PBE S 06Sep2000                   </c></rc>
   </set>
  </array>
 </atominfo>
 <structure name="initialpos" >
  <crystal>
   <varray name="basis" >
    <v>       6.45699942       0.79075414      -0.98815419 </v>
    <v>      -0.86514984       6.47025438      -0.53556584 </v>
    <v>       0.14726968       1.05451695      12.41014643 </v>
   </varray>
   <i name="volume">    532.39385827 </i>
   <varray name="rec_basis" >
    <v>       0.15188298       0.02001857      -0.00350340 </v>
    <v>      -0.02038979       0.15078655      -0.01257070 </v>
    <v>       0.01121371       0.00810124       0.07975778 </v>
   </varray>
  </crystal>
  <varray name="positions" >
   <v>       0.51696127       0.73781771       0.88080757 </v>
   <v>       0.48303873       0.26218229       0.11919243 </v>
   <v>       0.98367476       0.73743148       0.61946244 </v>
   <v>       0.01632524       0.26256852       0.38053756 </v>
   <v>       0.03733388       0.79571282       0.12119584 </v>
   <v>       0.96266612       0.20428718       0.87880416 </v>
   <v>       0.46308368       0.79527065       0.37915100 </v>
   <v>       0.53691632       0.20472935       0.62084900 </v>
   <v>       0.51656990       0.18558520       0.38446004 </v>
   <v>       0.48343010       0.81441480       0.61553996 </v>
   <v>       0.98260466       0.18602253       0.11531716 </v>
   <v>       0.01739534       0.81397747       0.88468284 </v>
   <v>       0.93178840       0.23024954       0.64474581 </v>
   <v>       0.06821160       0.76975046       0.35525419 </v>
   <v>       0.56779112       0.23067466       0.85497141 </v>
   <v>       0.43220888       0.76932534       0.14502859 </v>
  </varray>
 </structure>
 <calculation>
  <scstep>
   <time name="dav">    0.61    0.61</time>
   <time name="total">    0.78    0.81</time>
   <energy>
    <i name="alphaZ">    163.84187613 </i>
    <i name="ewald">  -3561.30824725 </i>
    <i name="hartreedc">   -891.25435719 </i>
    <i name="XCdc">    -45.67820263 </i>
    <i name="pawpsdc">   3748.35138545 </i>
    <i name="pawaedc">  -3493.87913001 </i>
    <i name="eentropy">     -0.01616485 </i>
    <i name="bandstr">    -74.34298319 </i>
    <i name="atom">   4616.24348075 </i>
    <i name="e_fr_energy">    461.95765721 </i>
    <i name="e_wo_entrp">    461.97382206 </i>
    <i name="e_0_energy">    461.96573963 </i>
   </energy>
  </scstep>
  <scstep>
   <time name="dav">    0.65    0.66</time>
   <time name="total">    0.66    0.66</time>
   <energy>
    <i name="e_fr_energy">    -24.60287346 </i>
    <i name="e_wo_entrp">    -24.60287346 </i>
    <i name="e_0_energy">    -24.60287346 </i>
   </energy>
  </scstep>
  <scstep>
   <time name="dav">    0.73    0.73</time>
   <time name="total">    0.73    0.73</time>
   <energy>
    <i name="e_fr_energy">    -68.82446028 </i>
    <i name="e_wo_entrp">    -68.82446028 </i>
    <i name="e_0_energy">    -68.82446028 </i>
   </energy>
  </scstep>
  <scstep>
   <time name="dav">    0.71    0.71</time>
   <time name="total">    0.71    0.71</time>
   <energy>
    <i name="e_fr_energy">    -69.72291809 </i>
    <i name="e_wo_entrp">    -69.72291809 </i>
    <i name="e_0_energy">    -69.72291809 </i>
   </energy>
  </scstep>
  <scstep>
   <time name="dav">    0.64    0.64</time>
   <time name="total">    0.66    0.66</time>
   <energy>
    <i name="e_fr_energy">    -69.74199113 </i>
    <i name="e_wo_entrp">    -69.74199113 </i>
    <i name="e_0_energy">    -69.74199113 </i>
   </energy>
  </scstep>
  <scstep>
   <time name="dav">    0.81    0.81</time>
   <time name="total">    1.01    1.01</time>
   <energy>
    <i name="e_fr_energy">    -64.57350185 </i>
    <i name="e_wo_entrp">    -64.57350185 </i>
    <i name="e_0_energy">    -64.57350185 </i>
   </energy>
  </scstep>
  <scstep>
   <time name="dav">    0.63    0.63</time>
   <time name="total">    0.82    0.82</time>
   <energy>
    <i name="e_fr_energy">    -64.65729556 </i>
    <i name="e_wo_entrp">    -64.65729556 </i>
    <i name="e_0_energy">    -64.65729556 </i>
   </energy>
  </scstep>
  <scstep>
   <time name="dav">    0.82    0.82</time>
   <time name="total">    1.01    1.01</time>
   <energy>
    <i name="e_fr_energy">    -64.65661376 </i>
    <i name="e_wo_entrp">    -64.65661376 </i>
    <i name="e_0_energy">    -64.65661376 </i>
   </energy>
  </scstep>
  <scstep>
   <time name="dav">    0.73    0.73</time>
   <time name="total">    0.93    0.93</time>
   <energy>
    <i name="e_fr_energy">    -64.66818544 </i>
    <i name="e_wo_entrp">    -64.66818544 </i>
    <i name="e_0_energy">    -64.66818544 </i>
   </energy>
  </scstep>
  <scstep>
   <time name="dav">    0.81    0.81</time>
   <time name="total">    1.00    1.00</time>
   <energy>
    <i name="e_fr_energy">    -64.67125567 </i>
    <i name="e_wo_entrp">    -64.67125567 </i>
    <i name="e_0_energy">    -64.67125567 </i>
   </energy>
  </scstep>
  <scstep>
   <time name="dav">    0.50    0.50</time>
   <time name="total">    0.69    0.69</time>
   <energy>
    <i name="e_fr_energy">    -64.67565573 </i>
    <i name="e_wo_entrp">    -64.67565573 </i>
    <i name="e_0_energy">    -64.67565573 </i>
   </energy>
  </scstep>
  <scstep>
   <time name="dav">    0.47    0.47</time>
   <time name="total">    0.66    0.66</time>
   <energy>
    <i name="e_fr_energy">    -64.67578184 </i>
    <i name="e_wo_entrp">    -64.67578184 </i>
    <i name="e_0_energy">    -64.67578184 </i>
   </energy>
  </scstep>
  <scstep>
   <time name="dav">    0.72    0.72</time>
   <time name="total">    0.92    0.92</time>
   <energy>
    <i name="e_fr_energy">    -64.67589231 </i>
    <i name="e_wo_entrp">    -64.67589231 </i>
    <i name="e_0_energy">    -64.67589231 </i>
   </energy>
  </scstep>
  <scstep>
   <time name="dav">    0.52    0.52</time>
   <time name="total">    0.69    0.69</time>
   <energy>
    <i name="alphaZ">    163.84187613 </i>
    <i name="ewald">  -3561.30824725 </i>
    <i name="hartreedc">   -941.93519368 </i>
    <i name="XCdc">    -41.04794114 </i>
    <i name="pawpsdc">   6049.30484166 </i>
    <i name="pawaedc">  -5794.14645794 </i>
    <i name="eentropy">     -0.00000000 </i>
    <i name="bandstr">   -555.62826902 </i>
    <i name="atom">   4616.24348075 </i>
    <i name="e_fr_energy">    -64.67591049 </i>
    <i name="e_wo_entrp">    -64.67591049 </i>
    <i name="e_0_energy">    -64.67591049 </i>
   </energy>
  </scstep>
  <structure>
   <crystal>
    <varray name="basis" >
     <v>       6.45699942       0.79075414      -0.98815419 </v>
     <v>      -0.86514984       6.47025438      -0.53556584 </v>
     <v>       0.14726968       1.05451695      12.41014643 </v>
    </varray>
    <i name="volume">    532.39385827 </i>
    <varray name="rec_basis" >
     <v>       0.15188298       0.02001857      -0.00350340 </v>
     <v>      -0.02038979       0.15078655      -0.01257070 </v>
     <v>       0.01121371       0.00810124       0.07975778 </v>
    </varray>
   </crystal>
   <varray name="positions" >
    <v>       0.51696127       0.73781771       0.88080757 </v>
    <v>       0.48303873       0.26218229       0.11919243 </v>
    <v>       0.98367476       0.73743148       0.61946244 </v>
    <v>       0.01632524       0.26256852       0.38053756 </v>
    <v>       0.03733388       0.79571282       0.12119584 </v>
    <v>       0.96266612       0.20428718       0.87880416 </v>
    <v>       0.46308368       0.79527065       0.37915100 </v>
    <v>       0.53691632       0.20472935       0.62084900 </v>
    <v>       0.51656990       0.18558520       0.38446004 </v>
    <v>       0.48343010       0.81441480       0.61553996 </v>
    <v>       0.98260466       0.18602253       0.11531716 </v>
    <v>       0.01739534       0.81397747       0.88468284 </v>
    <v>       0.93178840       0.23024954       0.64474581 </v>
    <v>       0.06821160       0.76975046       0.35525419 </v>
    <v>       0.56779112       0.23067466       0.85497141 </v>
    <v>       0.43220888       0.76932534       0.14502859 </v>
   </varray>
  </structure>
  <varray name="forces" >
   <v>      -0.01140060       0.05478857      -0.05552620 </v>
   <v>       0.01140060      -0.05478857       0.05552620 </v>
   <v>      -0.00127033       0.06628917       0.04499396 </v>
   <v>       0.00127033      -0.06628917      -0.04499396 </v>
   <v>       0.77122221       0.98960480      -0.03134289 </v>
   <v>      -0.77122221      -0.98960480       0.03134289 </v>
   <v>      -0.93146345       0.70181253      -0.03803002 </v>
   <v>       0.93146345      -0.70181253       0.03803002 </v>
   <v>      -0.02632371      -0.81396227       0.41202353 </v>
   <v>       0.02632371       0.81396227      -0.41202353 </v>
   <v>       0.26214056      -0.83646188      -0.27658627 </v>
   <v>      -0.26214056       0.83646188       0.27658627 </v>
   <v>      -0.83100214      -0.15981090       0.43109540 </v>
   <v>       0.83100214       0.15981090      -0.43109540 </v>
   <v>       0.85784200      -0.02455759      -0.40723634 </v>
   <v>      -0.85784200       0.02455759       0.40723634 </v>
  </varray>
  <varray name="stress" >
   <v>     -34.50967602       0.47576516       1.16122077 </v>
   <v>       0.47576527     -35.97710574       0.07682423 </v>
   <v>       1.16122113       0.07682423     -37.24804809 </v>
  </varray>
  <energy>
   <i name="e_fr_energy">    -64.67591049 </i>
   <i name="e_wo_entrp">    -64.67591049 </i>
   <i name="e_0_energy">     -0.00000000 </i>
  </energy>
  <time name="totalsc">   12.30   12.41</time>
 </calculation>
 <calculation>
  <scstep>
   <time name="dav">    0.50    0.51</time>
   <time name="total">    0.71    0.75</time>
   <energy>
    <i name="alphaZ">    167.43050196 </i>
    <i name="ewald">  -3580.64661137 </i>
    <i name="hartreedc">   -954.26509583 </i>
    <i name="XCdc">    -39.45671518 </i>
    <i name="pawpsdc">   6051.11890915 </i>
    <i name="pawaedc">  -5795.96043593 </i>
    <i name="eentropy">     -0.00000000 </i>
    <i name="bandstr">   -529.62496165 </i>
    <i name="atom">   4616.24348075 </i>
    <i name="e_fr_energy">    -65.16092811 </i>
    <i name="e_wo_entrp">    -65.16092811 </i>
    <i name="e_0_energy">    -65.16092811 </i>
   </energy>
  </scstep>
  <scstep>
   <time name="dav">    0.81    0.83</time>
   <time name="total">    1.00    1.02</time>
   <energy>
    <i name="e_fr_energy">    -65.04320551 </i>
    <i name="e_wo_entrp">    -65.04320551 </i>
    <i name="e_0_energy">    -65.04320551 </i>
   </energy>
  </scstep>
  <scstep>
   <time name="dav">    0.66    0.66</time>
   <time name="total">    0.85    0.85</time>
   <energy>
    <i name="e_fr_energy">    -65.01982113 </i>
    <i name="e_wo_entrp">    -65.01982113 </i>
    <i name="e_0_energy">    -65.01982113 </i>
   </energy>
  </scstep>
  <scstep>
   <time name="dav">    0.71    0.71</time>
   <time name="total">    0.91    0.91</time>
   <energy>
    <i name="e_fr_energy">    -65.01602390 </i>
    <i name="e_wo_entrp">    -65.01602390 </i>
    <i name="e_0_energy">    -65.01602390 </i>
   </energy>
  </scstep>
  <scstep>
   <time name="dav">    0.83    0.83</time>
   <time name="total">    1.03    1.03</time>
   <energy>
    <i name="e_fr_energy">    -65.01482993 </i>
    <i name="e_wo_entrp">    -65.01482993 </i>
    <i name="e_0_energy">    -65.01482993 </i>
   </energy>
  </scstep>
  <scstep>
   <time name="dav">    0.41    0.41</time>
   <time name="total">    0.58    0.58</time>
   <energy>
    <i name="alphaZ">    167.43050196 </i>
    <i name="ewald">  -3580.64661137 </i>
    <i name="hartreedc">   -936.53755350 </i>
    <i name="XCdc">    -40.36526066 </i>
    <i name="pawpsdc">   6217.97337002 </i>
    <i name="pawaedc">  -5962.93103810 </i>
    <i name="eentropy">     -0.00000000 </i>
    <i name="bandstr">   -546.18174175 </i>
    <i name="atom">   4616.24348075 </i>
    <i name="e_fr_energy">    -65.01485265 </i>
    <i name="e_wo_entrp">    -65.01485265 </i>
    <i name="e_0_energy">    -65.01485265 </i>
   </energy>
  </scstep>
  <structure>
   <crystal>
    <varray name="basis" >
     <v>       6.41219345       0.78565377      -0.97926403 </v>
     <v>      -0.85867493       6.42351800      -0.53167012 </v>
     <v>       0.14923954       1.04711976      12.31756855 </v>
    </varray>
    <i name="volume">    520.98278126 </i>
    <varray name="rec_basis" >
     <v>       0.15293950       0.02014931      -0.00356591 </v>
     <v>      -0.02054339       0.15188367      -0.01266277 </v>
     <v>       0.01127218       0.00815774       0.08035479 </v>
    </varray>
   </crystal>
   <varray name="positions" >
    <v>       0.51695702       0.73790640       0.88076789 </v>
    <v>       0.48304298       0.26209360       0.11923211 </v>
    <v>       0.98368418       0.73752271       0.61950211 </v>
    <v>       0.01631582       0.26247729       0.38049789 </v>
    <v>       0.03865627       0.79700464       0.12133252 </v>
    <v>       0.96134373       0.20299536       0.87866748 </v>
    <v>       0.46185551       0.79647956       0.37907581 </v>
    <v>       0.53814449       0.20352044       0.62092419 </v>
    <v>       0.51636018       0.18435620       0.38471064 </v>
    <v>       0.48363982       0.81564380       0.61528936 </v>
    <v>       0.98283660       0.18478756       0.11506729 </v>
    <v>       0.01716340       0.81521244       0.88493271 </v>
    <v>       0.93052517       0.23012823       0.64497515 </v>
    <v>       0.06947483       0.76987177       0.35502485 </v>
    <v>       0.56905726       0.23051956       0.85474892 </v>
    <v>       0.43094274       0.76948044       0.14525108 </v>
   </varray>
  </structure>
  <varray name="forces" >
   <v>      -0.01566517       0.04124868      -0.04630210 </v>
   <v>       0.01566517      -0.04124868       0.04630210 </v>
   <v>       0.00524443       0.05264748       0.03915158 </v>
   <v>      -0.00524443      -0.05264748      -0.03915158 </v>
   <v>       0.70180911       0.70202919      -0.03627304 </v>
   <v>      -0.70180911      -0.70202919       0.03627304 </v>
   <v>      -0.79671166       0.59495852       0.00090055 </v>
   <v>       0.79671166      -0.59495852      -0.00090055 </v>
   <v>      -0.02817576      -0.59380239       0.33781545 </v>
   <v>       0.02817576       0.59380239      -0.33781545 </v>
   <v>       0.20240257      -0.62186351      -0.22721111 </v>
   <v>      -0.20240257       0.62186351       0.22721111 </v>
   <v>      -0.63791536      -0.13257368       0.31170100 </v>
   <v>       0.63791536       0.13257368      -0.31170100 </v>
   <v>       0.65742693      -0.02316293      -0.29015889 </v>
   <v>      -0.65742693       0.02316293       0.29015889 </v>
  </varray>
  <varray name="stress" >
   <v>     -27.88077722       0.13875063       0.71283310 </v>
   <v>       0.13875073     -27.63948116      -0.35989093 </v>
   <v>       0.71283352      -0.35989054     -30.42703577 </v>
  </varray>
  <energy>
   <i name="e_fr_energy">    -65.01485265 </i>
   <i name="e_wo_entrp">    -65.01485265 </i>
   <i name="e_0_energy">     -0.00000000 </i>
  </energy>
  <time name="totalsc">    6.03    6.22</time>
 </calculation>
 <calculation>
  <scstep>
   <time name="dav">    0.73    0.75</time>
   <time name="total">    0.93    0.97</time>
   <energy>
    <i name="alphaZ">    178.84594847 </i>
    <i name="ewald">  -3639.18383369 </i>
    <i name="hartreedc">   -974.67267040 </i>
    <i name="XCdc">    -35.46737535 </i>
    <i name="pawpsdc">   6213.21572488 </i>
    <i name="pawaedc">  -5958.19029627 </i>
    <i name="eentropy">     -0.00000000 </i>
    <i name="bandstr">   -467.53532723 </i>
    <i name="atom">   4616.24348075 </i>
    <i name="e_fr_energy">    -66.74434885 </i>
    <i name="e_wo_entrp">    -66.74434885 </i>
    <i name="e_0_energy">    -66.74434885 </i>
   </energy>
  </scstep>
  <scstep>
   <time name="dav">    0.70    0.70</time>
   <time name="total">    0.90    0.91</time>
   <energy>
    <i name="e_fr_energy">    -65.68869591 </i>
    <i name="e_wo_entrp">    -65.68869591 </i>
    <i name="e_0_energy">    -65.68869591 </i>
   </energy>
  </scstep>
  <scstep>
   <time name="dav">    0.36    0.36</time>
   <time name="total">    0.56    0.56</time>
   <energy>
    <i name="e_fr_energy">    -65.46739503 </i>
    <i name="e_wo_entrp">    -65.46739503 </i>
    <i name="e_0_energy">    -65.46739503 </i>
   </energy>
  </scstep>
  <scstep>
   <time name="dav">    0.86    0.87</time>
   <time name="total">    1.06    1.07</time>
   <energy>
    <i name="e_fr_energy">    -65.43768366 </i>
    <i name="e_wo_entrp">    -65.43768366 </i>
    <i name="e_0_energy">    -65.43768366 </i>
   </energy>
  </scstep>
  <scstep>
   <time name="dav">    0.79    0.80</time>
   <time name="total">    0.99    0.99</time>
   <energy>
    <i name="e_fr_energy">    -65.42316405 </i>
    <i name="e_wo_entrp">    -65.42316405 </i>
    <i name="e_0_energy">    -65.42316405 </i>
   </energy>
  </scstep>
  <scstep>
   <time name="dav">    0.79    0.79</time>
   <time name="total">    0.98    0.98</time>
   <energy>
    <i name="e_fr_energy">    -65.42326025 </i>
    <i name="e_wo_entrp">    -65.42326025 </i>
    <i name="e_0_energy">    -65.42326025 </i>
   </energy>
  </scstep>
  <scstep>
   <time name="dav">    0.56    0.56</time>
   <time name="total">    0.73    0.73</time>
   <energy>
    <i name="alphaZ">    178.84594847 </i>
    <i name="ewald">  -3639.18383369 </i>
    <i name="hartreedc">   -920.15831348 </i>
    <i name="XCdc">    -38.23821908 </i>
    <i name="pawpsdc">   6797.76313325 </i>
    <i name="pawaedc">  -6543.19075449 </i>
    <i name="eentropy">     -0.00000000 </i>
    <i name="bandstr">   -517.50466063 </i>
    <i name="atom">   4616.24348075 </i>
    <i name="e_fr_energy">    -65.42321892 </i>
    <i name="e_wo_entrp">    -65.42321892 </i>
    <i name="e_0_energy">    -65.42321892 </i>
   </energy>
  </scstep>
  <structure>
   <crystal>
    <varray name="basis" >
     <v>       6.27777555       0.77035266      -0.95259354 </v>
     <v>      -0.83925021       6.28330884      -0.51998298 </v>
     <v>       0.15514911       1.02492820      12.03983490 </v>
    </varray>
    <i name="volume">    487.72929621 </i>
    <varray name="rec_basis" >
     <v>       0.15619924       0.02055189      -0.00376238 </v>
     <v>      -0.02101834       0.15527297      -0.01294724 </v>
     <v>       0.01145076       0.00833208       0.08220076 </v>
    </varray>
   </crystal>
   <varray name="positions" >
    <v>       0.51694424       0.73817440       0.88064796 </v>
    <v>       0.48305576       0.26182560       0.11935204 </v>
    <v>       0.98371258       0.73779841       0.61962200 </v>
    <v>       0.01628742       0.26220159       0.38037800 </v>
    <v>       0.04265082       0.80090819       0.12174493 </v>
    <v>       0.95734918       0.19909181       0.87825507 </v>
    <v>       0.45814524       0.80013280       0.37884916 </v>
    <v>       0.54185476       0.19986720       0.62115084 </v>
    <v>       0.51572639       0.18064236       0.38546818 </v>
    <v>       0.48427361       0.81935764       0.61453182 </v>
    <v>       0.98353777       0.18105567       0.11431200 </v>
    <v>       0.01646223       0.81894433       0.88568800 </v>
    <v>       0.92670868       0.22976178       0.64566897 </v>
    <v>       0.07329132       0.77023822       0.35433103 </v>
    <v>       0.57288258       0.23005075       0.85407582 </v>
    <v>       0.42711742       0.76994925       0.14592418 </v>
   </varray>
  </structure>
  <varray name="forces" >
   <v>      -0.02784925      -0.02748561      -0.00572370 </v>
   <v>       0.02784925       0.02748561       0.00572370 </v>
   <v>       0.03957413      -0.01522756       0.01197527 </v>
   <v>      -0.03957413       0.01522756      -0.01197527 </v>
   <v>      -0.27640439      -0.24515091      -0.07780918 </v>
   <v>       0.27640439       0.24515091       0.07780918 </v>
   <v>       0.22284896      -0.12410344      -0.01762863 </v>
   <v>      -0.22284896       0.12410344       0.01762863 </v>
   <v>      -0.00873817       0.12921953       0.02174184 </v>
   <v>       0.00873817      -0.12921953      -0.02174184 </v>
   <v>      -0.02854558       0.11794212      -0.03341166 </v>
   <v>       0.02854558      -0.11794212       0.03341166 </v>
   <v>       0.10806743      -0.05272825       0.01931565 </v>
   <v>      -0.10806743       0.05272825      -0.01931565 </v>
   <v>      -0.13010260      -0.08961023      -0.01316721 </v>
   <v>       0.13010260       0.08961023       0.01316721 </v>
  </varray>
  <varray name="stress" >
   <v>       6.93836062       0.50934941       0.13658441 </v>
   <v>       0.50934967       5.76582026      -0.52267996 </v>
   <v>       0.13658600      -0.52268002      -4.41877515 </v>
  </varray>
  <energy>
   <i name="e_fr_energy">    -65.42321892 </i>
   <i name="e_wo_entrp">    -65.42321892 </i>
   <i name="e_0_energy">     -0.00000000 </i>
  </energy>
  <time name="totalsc">    7.15    7.28</time>
 </calculation>
 <calculation>
  <scstep>
   <time name="dav">    0.47    0.48</time>
   <time name="total">    0.67    0.70</time>
   <energy>
    <i name="alphaZ">    177.48251906 </i>
    <i name="ewald">  -3632.46116416 </i>
    <i name="hartreedc">   -915.68004049 </i>
    <i name="XCdc">    -38.80800790 </i>
    <i name="pawpsdc">   6792.45630910 </i>
    <i name="pawaedc">  -6537.89741036 </i>
    <i name="eentropy">     -0.00000000 </i>
    <i name="bandstr">   -526.78283573 </i>
    <i name="atom">   4616.24348075 </i>
    <i name="e_fr_energy">    -65.44714973 </i>
    <i name="e_wo_entrp">    -65.44714973 </i>
    <i name="e_0_energy">    -65.44714973 </i>
   </energy>
  </scstep>
  <scstep>
   <time name="dav">    0.53    0.53</time>
   <time name="total">    0.72    0.72</time>
   <energy>
    <i name="e_fr_energy">    -65.43296512 </i>
    <i name="e_wo_entrp">    -65.43296512 </i>
    <i name="e_0_energy">    -65.43296512 </i>
   </energy>
  </scstep>
  <scstep>
   <time name="dav">    0.75    0.75</time>
   <time name="total">    0.95    0.95</time>
   <energy>
    <i name="e_fr_energy">    -65.42996567 </i>
    <i name="e_wo_entrp">    -65.42996567 </i>
    <i name="e_0_energy">    -65.42996567 </i>
   </energy>
  </scstep>
  <scstep>
   <time name="dav">    0.67    0.67</time>
   <time name="total">    0.86    0.86</time>
   <energy>
    <i name="e_fr_energy">    -65.42947918 </i>
    <i name="e_wo_entrp">    -65.42947918 </i>
    <i name="e_0_energy">    -65.42947918 </i>
   </energy>
  </scstep>
  <scstep>
   <time name="dav">    0.52    0.52</time>
   <time name="total">    0.71    0.72</time>
   <energy>
    <i name="e_fr_energy">    -65.42930853 </i>
    <i name="e_wo_entrp">    -65.42930853 </i>
    <i name="e_0_energy">    -65.42930853 </i>
   </energy>
  </scstep>
  <scstep>
   <time name="dav">    0.49    0.49</time>
   <time name="total">    0.66    0.66</time>
   <energy>
    <i name="alphaZ">    177.48251906 </i>
    <i name="ewald">  -3632.46116416 </i>
    <i name="hartreedc">   -921.84849752 </i>
    <i name="XCdc">    -38.49887517 </i>
    <i name="pawpsdc">   6711.53650767 </i>
    <i name="pawaedc">  -6456.92854016 </i>
    <i name="eentropy">     -0.00000000 </i>
    <i name="bandstr">   -520.95472716 </i>
    <i name="atom">   4616.24348075 </i>
    <i name="e_fr_energy">    -65.42929670 </i>
    <i name="e_wo_entrp">    -65.42929670 </i>
    <i name="e_0_energy">    -65.42929670 </i>
   </energy>
  </scstep>
  <structure>
   <crystal>
    <varray name="basis" >
     <v>       6.29322017       0.77211076      -0.95565798 </v>
     <v>      -0.84148211       6.29941888      -0.52132583 </v>
     <v>       0.15447010       1.02747802      12.07174651 </v>
    </varray>
    <i name="volume">    491.47605657 </i>
    <varray name="rec_basis" >
     <v>       0.15581764       0.02050482      -0.00373910 </v>
     <v>      -0.02096265       0.15487586      -0.01291391 </v>
     <v>       0.01142999       0.00831167       0.08198435 </v>
    </varray>
   </crystal>
   <varray name="positions" >
    <v>       0.51694572       0.73814292       0.88066205 </v>
    <v>       0.48305428       0.26185708       0.11933795 </v>
    <v>       0.98370927       0.73776603       0.61960791 </v>
    <v>       0.01629073       0.26223397       0.38039209 </v>
    <v>       0.04218214       0.80044971       0.12169670 </v>
    <v>       0.95781786       0.19955029       0.87830330 </v>
    <v>       0.45858068       0.79970363       0.37887558 </v>
    <v>       0.54141932       0.20029637       0.62112442 </v>
    <v>       0.51580086       0.18107860       0.38537910 </v>
    <v>       0.48419914       0.81892140       0.61462090 </v>
    <v>       0.98345531       0.18149405       0.11440081 </v>
    <v>       0.01654469       0.81850595       0.88559919 </v>
    <v>       0.92715670       0.22980479       0.64558719 </v>
    <v>       0.07284330       0.77019521       0.35441281 </v>
    <v>       0.57243352       0.23010587       0.85415516 </v>
    <v>       0.42756648       0.76989413       0.14584484 </v>
   </varray>
  </structure>
  <varray name="forces" >
   <v>      -0.02511158      -0.01639788      -0.01186386 </v>
   <v>       0.02511158       0.01639788       0.01186386 </v>
   <v>       0.03277472      -0.00560750       0.01563189 </v>
   <v>      -0.03277472       0.00560750      -0.01563189 </v>
   <v>      -0.21186642      -0.12904333      -0.06762374 </v>
   <v>       0.21186642       0.12904333       0.06762374 </v>
   <v>      -0.02897157      -0.03107150      -0.04782341 </v>
   <v>       0.02897157       0.03107150       0.04782341 </v>
   <v>       0.00206429       0.00435903       0.06852272 </v>
   <v>      -0.00206429      -0.00435903      -0.06852272 </v>
   <v>       0.00241293       0.00755901      -0.05873245 </v>
   <v>      -0.00241293      -0.00755901       0.05873245 </v>
   <v>       0.00600120      -0.05722809       0.05202838 </v>
   <v>      -0.00600120       0.05722809      -0.05202838 </v>
   <v>      -0.00166158      -0.06292831      -0.04573601 </v>
   <v>       0.00166158       0.06292831       0.04573601 </v>
  </varray>
  <varray name="stress" >
   <v>       2.54822969       0.09703375      -0.48614859 </v>
   <v>       0.09703378       1.39611452      -0.89551939 </v>
   <v>      -0.48614759      -0.89551910      -8.00360250 </v>
  </varray>
  <energy>
   <i name="e_fr_energy">    -65.42929670 </i>
   <i name="e_wo_entrp">    -65.42929670 </i>
   <i name="e_0_energy">     -0.00000000 </i>
  </energy>
  <time name="totalsc">    5.63    5.76</time>
 </calculation>
 <calculation>
  <scstep>
   <time name="dav">    0.40    0.40</time>
   <time name="total">    0.60    0.63</time>
   <energy>
    <i name="alphaZ">    177.66126915 </i>
    <i name="ewald">  -3633.34658527 </i>
    <i name="hartreedc">   -922.48439017 </i>
    <i name="XCdc">    -38.42213429 </i>
    <i name="pawpsdc">   6713.22952680 </i>
    <i name="pawaedc">  -6458.61475747 </i>
    <i name="eentropy">     -0.00000000 </i>
    <i name="bandstr">   -519.69619180 </i>
    <i name="atom">   4616.24348075 </i>
    <i name="e_fr_energy">    -65.42978230 </i>
    <i name="e_wo_entrp">    -65.42978230 </i>
    <i name="e_0_energy">    -65.42978230 </i>
   </energy>
  </scstep>
  <scstep>
   <time name="dav">    0.73    0.73</time>
   <time name="total">    0.93    0.93</time>
   <energy>
    <i name="e_fr_energy">    -65.42953483 </i>
    <i name="e_wo_entrp">    -65.42953483 </i>
    <i name="e_0_energy">    -65.42953483 </i>
   </energy>
  </scstep>
  <scstep>
   <time name="dav">    0.54    0.54</time>
   <time name="total">    0.72    0.72</time>
   <energy>
    <i name="alphaZ">    177.66126915 </i>
    <i name="ewald">  -3633.34658527 </i>
    <i name="hartreedc">   -921.77775001 </i>
    <i name="XCdc">    -38.45937731 </i>
    <i name="pawpsdc">   6726.03226687 </i>
    <i name="pawaedc">  -6471.41007951 </i>
    <i name="eentropy">     -0.00000000 </i>
    <i name="bandstr">   -520.37270823 </i>
    <i name="atom">   4616.24348075 </i>
    <i name="e_fr_energy">    -65.42948356 </i>
    <i name="e_wo_entrp">    -65.42948356 </i>
    <i name="e_0_energy">    -65.42948356 </i>
   </energy>
  </scstep>
  <structure>
   <crystal>
    <varray name="basis" >
     <v>       6.29118633       0.77187924      -0.95525444 </v>
     <v>      -0.84118820       6.29729742      -0.52114900 </v>
     <v>       0.15455952       1.02714224      12.06754420 </v>
    </varray>
    <i name="volume">    490.98156844 </i>
    <varray name="rec_basis" >
     <v>       0.15586778       0.02051101      -0.00374215 </v>
     <v>      -0.02096997       0.15492804      -0.01291829 </v>
     <v>       0.01143272       0.00831435       0.08201279 </v>
    </varray>
   </crystal>
   <varray name="positions" >
    <v>       0.51694553       0.73814705       0.88066020 </v>
    <v>       0.48305447       0.26185295       0.11933980 </v>
    <v>       0.98370970       0.73777028       0.61960976 </v>
    <v>       0.01629030       0.26222972       0.38039024 </v>
    <v>       0.04224370       0.80050993       0.12170304 </v>
    <v>       0.95775630       0.19949007       0.87829696 </v>
    <v>       0.45852348       0.79976000       0.37887211 </v>
    <v>       0.54147652       0.20024000       0.62112789 </v>
    <v>       0.51579107       0.18102130       0.38539080 </v>
    <v>       0.48420893       0.81897870       0.61460920 </v>
    <v>       0.98346614       0.18143647       0.11438914 </v>
    <v>       0.01653386       0.81856353       0.88561086 </v>
    <v>       0.92709785       0.22979914       0.64559793 </v>
    <v>       0.07290215       0.77020086       0.35440207 </v>
    <v>       0.57249250       0.23009863       0.85414475 </v>
    <v>       0.42750750       0.76990137       0.14585525 </v>
   </varray>
  </structure>
  <varray name="forces" >
   <v>      -0.02558164      -0.01792210      -0.01032209 </v>
   <v>       0.02558164       0.01792210       0.01032209 </v>
   <v>       0.03442127      -0.00744998       0.01539538 </v>
   <v>      -0.03442127       0.00744998      -0.01539538 </v>
   <v>      -0.23081838      -0.16217062      -0.08289509 </v>
   <v>       0.23081838       0.16217062       0.08289509 </v>
   <v>      -0.03218610      -0.04677761      -0.08904287 </v>
   <v>       0.03218610       0.04677761       0.08904287 </v>
   <v>       0.00235988       0.02061718       0.06125944 </v>
   <v>      -0.00235988      -0.02061718      -0.06125944 </v>
   <v>      -0.00894765       0.02159593      -0.05778433 </v>
   <v>       0.00894765      -0.02159593       0.05778433 </v>
   <v>       0.02249858      -0.05396077       0.04523769 </v>
   <v>      -0.02249858       0.05396077      -0.04523769 </v>
   <v>      -0.01901638      -0.06301860      -0.03932649 </v>
   <v>       0.01901638       0.06301860       0.03932649 </v>
  </varray>
  <varray name="stress" >
   <v>       2.64021306       0.18623528      -0.37998232 </v>
   <v>       0.18623553       1.60811439      -0.74206224 </v>
   <v>      -0.37998131      -0.74206178      -7.72318162 </v>
  </varray>
  <energy>
   <i name="e_fr_energy">    -65.42948356 </i>
   <i name="e_wo_entrp">    -65.42948356 </i>
   <i name="e_0_energy">     -0.00000000 </i>
  </energy>
  <time name="totalsc">    3.16    3.26</time>
 </calculation>
 <calculation>
  <scstep>
   <time name="dav">    0.58    0.58</time>
   <time name="total">    0.78    0.82</time>
   <energy>
    <i name="alphaZ">    177.76827190 </i>
    <i name="ewald">  -3633.87608120 </i>
    <i name="hartreedc">   -922.06085816 </i>
    <i name="XCdc">    -38.41675791 </i>
    <i name="pawpsdc">   6726.56666922 </i>
    <i name="pawaedc">  -6471.94928447 </i>
    <i name="eentropy">     -0.00000000 </i>
    <i name="bandstr">   -519.70500057 </i>
    <i name="atom">   4616.24348075 </i>
    <i name="e_fr_energy">    -65.42956044 </i>
    <i name="e_wo_entrp">    -65.42956044 </i>
    <i name="e_0_energy">    -65.42956044 </i>
   </energy>
  </scstep>
  <scstep>
   <time name="dav">    0.48    0.48</time>
   <time name="total">    0.65    0.66</time>
   <energy>
    <i name="alphaZ">    177.76827190 </i>
    <i name="ewald">  -3633.87608120 </i>
    <i name="hartreedc">   -921.76484547 </i>
    <i name="XCdc">    -38.43274244 </i>
    <i name="pawpsdc">   6730.80535740 </i>
    <i name="pawaedc">  -6476.18656628 </i>
    <i name="eentropy">     -0.00000000 </i>
    <i name="bandstr">   -519.98633526 </i>
    <i name="atom">   4616.24348075 </i>
    <i name="e_fr_energy">    -65.42946059 </i>
    <i name="e_wo_entrp">    -65.42946059 </i>
    <i name="e_0_energy">    -65.42946059 </i>
   </energy>
  </scstep>
  <structure>
   <crystal>
    <varray name="basis" >
     <v>       6.28997014       0.77174080      -0.95501313 </v>
     <v>      -0.84101245       6.29602883      -0.52104325 </v>
     <v>       0.15461298       1.02694146      12.06503132 </v>
    </varray>
    <i name="volume">    490.68603549 </i>
    <varray name="rec_basis" >
     <v>       0.15589778       0.02051471      -0.00374398 </v>
     <v>      -0.02097435       0.15495926      -0.01292091 </v>
     <v>       0.01143436       0.00831596       0.08202980 </v>
    </varray>
   </crystal>
   <varray name="positions" >
    <v>       0.51694541       0.73814953       0.88065909 </v>
    <v>       0.48305459       0.26185047       0.11934091 </v>
    <v>       0.98370996       0.73777282       0.61961087 </v>
    <v>       0.01629004       0.26222718       0.38038913 </v>
    <v>       0.04228053       0.80054595       0.12170683 </v>
    <v>       0.95771947       0.19945405       0.87829317 </v>
    <v>       0.45848926       0.79979372       0.37887003 </v>
    <v>       0.54151074       0.20020628       0.62112997 </v>
    <v>       0.51578522       0.18098702       0.38539780 </v>
    <v>       0.48421478       0.81901298       0.61460220 </v>
    <v>       0.98347261       0.18140202       0.11438217 </v>
    <v>       0.01652739       0.81859798       0.88561783 </v>
    <v>       0.92706265       0.22979576       0.64560435 </v>
    <v>       0.07293735       0.77020424       0.35439565 </v>
    <v>       0.57252779       0.23009430       0.85413851 </v>
    <v>       0.42747221       0.76990570       0.14586149 </v>
   </varray>
  </structure>
  <varray name="forces" >
   <v>      -0.02571868      -0.01880514      -0.00976732 </v>
   <v>       0.02571868       0.01880514       0.00976732 </v>
   <v>       0.03462683      -0.00862728       0.01533516 </v>
   <v>      -0.03462683       0.00862728      -0.01533516 </v>
   <v>      -0.23295999      -0.16584419      -0.08194027 </v>
   <v>       0.23295999       0.16584419       0.08194027 </v>
   <v>      -0.00128473      -0.06234133      -0.06877222 </v>
   <v>       0.00128473       0.06234133       0.06877222 </v>
   <v>       0.00262896       0.03197687       0.05669213 </v>
   <v>      -0.00262896      -0.03197687      -0.05669213 </v>
   <v>      -0.01239332       0.03325727      -0.05516262 </v>
   <v>       0.01239332      -0.03325727       0.05516262 </v>
   <v>       0.03395412      -0.05167720       0.04088287 </v>
   <v>      -0.03395412       0.05167720      -0.04088287 </v>
   <v>      -0.03106246      -0.06309742      -0.03525623 </v>
   <v>       0.03106246       0.06309742       0.03525623 </v>
  </varray>
  <varray name="stress" >
   <v>       2.66196119       0.11359345      -0.25823015 </v>
   <v>       0.11359429       1.47466434      -0.80675641 </v>
   <v>      -0.25822861      -0.80675609      -7.87988970 </v>
  </varray>
  <energy>
   <i name="e_fr_energy">    -65.42946059 </i>
   <i name="e_wo_entrp">    -65.42946059 </i>
   <i name="e_0_energy">     -0.00000000 </i>
  </energy>
  <time name="totalsc">    2.49    2.69</time>
 </calculation>
 <calculation>
  <scstep>
   <time name="dav">    0.54    0.55</time>
   <time name="total">    0.74    0.78</time>
   <energy>
    <i name="alphaZ">    178.04155309 </i>
    <i name="ewald">  -3635.88660533 </i>
    <i name="hartreedc">   -921.89049108 </i>
    <i name="XCdc">    -38.35054609 </i>
    <i name="pawpsdc">   6732.92277722 </i>
    <i name="pawaedc">  -6478.30738876 </i>
    <i name="eentropy">     -0.00000000 </i>
    <i name="bandstr">   -518.21225607 </i>
    <i name="atom">   4616.24348075 </i>
    <i name="e_fr_energy">    -65.43947627 </i>
    <i name="e_wo_entrp">    -65.43947627 </i>
    <i name="e_0_energy">    -65.43947627 </i>
   </energy>
  </scstep>
  <scstep>
   <time name="dav">    0.79    0.80</time>
   <time name="total">    0.98    0.99</time>
   <energy>
    <i name="e_fr_energy">    -65.43799151 </i>
    <i name="e_wo_entrp">    -65.43799151 </i>
    <i name="e_0_energy">    -65.43799151 </i>
   </energy>
  </scstep>
  <scstep>
   <time name="dav">    0.76    0.76</time>
   <time name="total">    0.95    0.96</time>
   <energy>
    <i name="e_fr_energy">    -65.43723620 </i>
    <i name="e_wo_entrp">    -65.43723620 </i>
    <i name="e_0_energy">    -65.43723620 </i>
   </energy>
  </scstep>
  <scstep>
   <time name="dav">    0.65    0.66</time>
   <time name="total">    0.85    0.85</time>
   <energy>
    <i name="e_fr_energy">    -65.43702640 </i>
    <i name="e_wo_entrp">    -65.43702640 </i>
    <i name="e_0_energy">    -65.43702640 </i>
   </energy>
  </scstep>
  <scstep>
   <time name="dav">    0.49    0.49</time>
   <time name="total">    0.66    0.67</time>
   <energy>
    <i name="alphaZ">    178.04155309 </i>
    <i name="ewald">  -3635.88660533 </i>
    <i name="hartreedc">   -920.72651747 </i>
    <i name="XCdc">    -38.41078560 </i>
    <i name="pawpsdc">   6733.69722945 </i>
    <i name="pawaedc">  -6479.09229582 </i>
    <i name="eentropy">     -0.00000000 </i>
    <i name="bandstr">   -519.30307811 </i>
    <i name="atom">   4616.24348075 </i>
    <i name="e_fr_energy">    -65.43701903 </i>
    <i name="e_wo_entrp">    -65.43701903 </i>
    <i name="e_0_energy">    -65.43701903 </i>
   </energy>
  </scstep>
  <structure>
   <crystal>
    <varray name="basis" >
     <v>       6.29390603       0.77238242      -0.95332131 </v>
     <v>      -0.84127352       6.29779342      -0.52117763 </v>
     <v>       0.15391395       1.02444540      12.03570972 </v>
    </varray>
    <i name="volume">    489.93286715 </i>
    <varray name="rec_basis" >
     <v>       0.15580161       0.02050303      -0.00373757 </v>
     <v>      -0.02096776       0.15491583      -0.01291786 </v>
     <v>       0.01143273       0.00833226       0.08223066 </v>
    </varray>
   </crystal>
   <varray name="positions" >
    <v>       0.51688032       0.73811796       0.88063955 </v>
    <v>       0.48311968       0.26188204       0.11936045 </v>
    <v>       0.98378717       0.73774112       0.61963534 </v>
    <v>       0.01621283       0.26225888       0.38036466 </v>
    <v>       0.04172198       0.80027993       0.12154931 </v>
    <v>       0.95827802       0.19972007       0.87845069 </v>
    <v>       0.45844392       0.79969004       0.37877631 </v>
    <v>       0.54155608       0.20030996       0.62122369 </v>
    <v>       0.51579332       0.18102200       0.38547711 </v>
    <v>       0.48420668       0.81897800       0.61452289 </v>
    <v>       0.98346219       0.18146608       0.11431117 </v>
    <v>       0.01653781       0.81853392       0.88568883 </v>
    <v>       0.92709559       0.22965517       0.64565884 </v>
    <v>       0.07290441       0.77034483       0.35434116 </v>
    <v>       0.57246621       0.22996157       0.85407732 </v>
    <v>       0.42753379       0.77003843       0.14592268 </v>
   </varray>
  </structure>
  <varray name="forces" >
   <v>      -0.02518777      -0.01810302      -0.01023196 </v>
   <v>       0.02518777       0.01810302       0.01023196 </v>
   <v>       0.03180364      -0.00912875       0.01248552 </v>
   <v>      -0.03180364       0.00912875      -0.01248552 </v>
   <v>      -0.09772129      -0.05605008       0.00339458 </v>
   <v>       0.09772129       0.05605008      -0.00339458 </v>
   <v>       0.04446010      -0.02552244      -0.06054359 </v>
   <v>      -0.04446010       0.02552244       0.06054359 </v>
   <v>      -0.00267774       0.01541859       0.03955683 </v>
   <v>       0.00267774      -0.01541859      -0.03955683 </v>
   <v>      -0.00915536       0.00906390      -0.03626079 </v>
   <v>       0.00915536      -0.00906390       0.03626079 </v>
   <v>       0.02642938      -0.05941910       0.03583499 </v>
   <v>      -0.02642938       0.05941910      -0.03583499 </v>
   <v>       0.01515320      -0.06219424      -0.02210626 </v>
   <v>      -0.01515320       0.06219424       0.02210626 </v>
  </varray>
  <varray name="stress" >
   <v>       2.73026258       0.02221332       0.07230733 </v>
   <v>       0.02221330       1.61542515      -0.35404503 </v>
   <v>       0.07230819      -0.35404460      -4.38939825 </v>
  </varray>
  <energy>
   <i name="e_fr_energy">    -65.43701903 </i>
   <i name="e_wo_entrp">    -65.43701903 </i>
   <i name="e_0_energy">     -0.00000000 </i>
  </energy>
  <time name="totalsc">    5.25    5.46</time>
 </calculation>
 <calculation>
  <scstep>
   <time name="dav">    0.47    0.47</time>
   <time name="total">    0.66    0.69</time>
   <energy>
    <i name="alphaZ">    178.37889074 </i>
    <i name="ewald">  -3638.33118419 </i>
    <i name="hartreedc">   -921.10029688 </i>
    <i name="XCdc">    -38.29958093 </i>
    <i name="pawpsdc">   6732.33018769 </i>
    <i name="pawaedc">  -6477.72814125 </i>
    <i name="eentropy">     -0.00000000 </i>
    <i name="bandstr">   -516.93820683 </i>
    <i name="atom">   4616.24348075 </i>
    <i name="e_fr_energy">    -65.44485091 </i>
    <i name="e_wo_entrp">    -65.44485091 </i>
    <i name="e_0_energy">    -65.44485091 </i>
   </energy>
  </scstep>
  <scstep>
   <time name="dav">    0.64    0.65</time>
   <time name="total">    0.83    0.84</time>
   <energy>
    <i name="e_fr_energy">    -65.44269532 </i>
    <i name="e_wo_entrp">    -65.44269532 </i>
    <i name="e_0_energy">    -65.44269532 </i>
   </energy>
  </scstep>
  <scstep>
   <time name="dav">    0.89    0.90</time>
   <time name="total">    1.08    1.09</time>
   <energy>
    <i name="e_fr_energy">    -65.44157839 </i>
    <i name="e_wo_entrp">    -65.44157839 </i>
    <i name="e_0_energy">    -65.44157839 </i>
   </energy>
  </scstep>
  <scstep>
   <time name="dav">    0.75    0.75</time>
   <time name="total">    0.95    0.95</time>
   <energy>
    <i name="e_fr_energy">    -65.44127306 </i>
    <i name="e_wo_entrp">    -65.44127306 </i>
    <i name="e_0_energy">    -65.44127306 </i>
   </energy>
  </scstep>
  <scstep>
   <time name="dav">    0.37    0.37</time>
   <time name="total">    0.54    0.54</time>
   <energy>
    <i name="alphaZ">    178.37889074 </i>
    <i name="ewald">  -3638.33118419 </i>
    <i name="hartreedc">   -919.77420004 </i>
    <i name="XCdc">    -38.36984628 </i>
    <i name="pawpsdc">   6736.75075510 </i>
    <i name="pawaedc">  -6482.14950482 </i>
    <i name="eentropy">     -0.00000000 </i>
    <i name="bandstr">   -518.18964954 </i>
    <i name="atom">   4616.24348075 </i>
    <i name="e_fr_energy">    -65.44125828 </i>
    <i name="e_wo_entrp">    -65.44125828 </i>
    <i name="e_0_energy">    -65.44125828 </i>
   </energy>
  </scstep>
  <structure>
   <crystal>
    <varray name="basis" >
     <v>       6.29873376       0.77316943      -0.95124614 </v>
     <v>      -0.84159374       6.29995786      -0.52134246 </v>
     <v>       0.15305652       1.02138376      11.99974402 </v>
    </varray>
    <i name="volume">    489.00634045 </i>
    <varray name="rec_basis" >
     <v>       0.15568381       0.02048872      -0.00372969 </v>
     <v>      -0.02095969       0.15486259      -0.01291412 </v>
     <v>       0.01143078       0.00835237       0.08247838 </v>
    </varray>
   </crystal>
   <varray name="positions" >
    <v>       0.51680053       0.73807925       0.88061554 </v>
    <v>       0.48319947       0.26192075       0.11938446 </v>
    <v>       0.98388182       0.73770224       0.61966541 </v>
    <v>       0.01611818       0.26229776       0.38033459 </v>
    <v>       0.04103727       0.79995371       0.12135576 </v>
    <v>       0.95896273       0.20004629       0.87864424 </v>
    <v>       0.45838833       0.79956291       0.37866107 </v>
    <v>       0.54161167       0.20043709       0.62133893 </v>
    <v>       0.51580324       0.18106489       0.38557463 </v>
    <v>       0.48419676       0.81893511       0.61442537 </v>
    <v>       0.98344941       0.18154462       0.11422387 </v>
    <v>       0.01655059       0.81845538       0.88577613 </v>
    <v>       0.92713597       0.22948276       0.64572582 </v>
    <v>       0.07286403       0.77051724       0.35427418 </v>
    <v>       0.57239072       0.22979881       0.85400210 </v>
    <v>       0.42760928       0.77020119       0.14599790 </v>
   </varray>
  </structure>
  <varray name="forces" >
   <v>      -0.02339785      -0.01823523      -0.01090421 </v>
   <v>       0.02339785       0.01823523       0.01090421 </v>
   <v>       0.02934116      -0.01073683       0.00721179 </v>
   <v>      -0.02934116       0.01073683      -0.00721179 </v>
   <v>       0.02443730      -0.05729576       0.04810240 </v>
   <v>      -0.02443730       0.05729576      -0.04810240 </v>
   <v>       0.07971930      -0.00093480       0.00578542 </v>
   <v>      -0.07971930       0.00093480      -0.00578542 </v>
   <v>       0.00413461      -0.00685338       0.01171963 </v>
   <v>      -0.00413461       0.00685338      -0.01171963 </v>
   <v>       0.00036967      -0.00545068      -0.01543704 </v>
   <v>      -0.00036967       0.00545068       0.01543704 </v>
   <v>       0.01255723      -0.07477229       0.01567949 </v>
   <v>      -0.01255723       0.07477229      -0.01567949 </v>
   <v>       0.07192928      -0.06085245       0.00161261 </v>
   <v>      -0.07192928       0.06085245      -0.00161261 </v>
  </varray>
  <varray name="stress" >
   <v>       1.41106903       0.14222630       0.42856816 </v>
   <v>       0.14222637       0.96611712      -0.18474043 </v>
   <v>       0.42856939      -0.18474018      -1.30701662 </v>
  </varray>
  <energy>
   <i name="e_fr_energy">    -65.44125828 </i>
   <i name="e_wo_entrp">    -65.44125828 </i>
   <i name="e_0_energy">     -0.00000000 </i>
  </energy>
  <time name="totalsc">    5.10    5.33</time>
 </calculation>
 <calculation>
  <scstep>
   <time name="dav">    0.63    0.64</time>
   <time name="total">    0.83    0.87</time>
   <energy>
    <i name="alphaZ">    178.51594686 </i>
    <i name="ewald">  -3639.31264423 </i>
    <i name="hartreedc">   -919.91742295 </i>
    <i name="XCdc">    -38.32530058 </i>
    <i name="pawpsdc">   6735.25725443 </i>
    <i name="pawaedc">  -6480.65959309 </i>
    <i name="eentropy">     -0.00000000 </i>
    <i name="bandstr">   -517.24397089 </i>
    <i name="atom">   4616.24348075 </i>
    <i name="e_fr_energy">    -65.44224969 </i>
    <i name="e_wo_entrp">    -65.44224969 </i>
    <i name="e_0_energy">    -65.44224969 </i>
   </energy>
  </scstep>
  <scstep>
   <time name="dav">    0.71    0.72</time>
   <time name="total">    0.91    0.91</time>
   <energy>
    <i name="e_fr_energy">    -65.44189679 </i>
    <i name="e_wo_entrp">    -65.44189679 </i>
    <i name="e_0_energy">    -65.44189679 </i>
   </energy>
  </scstep>
  <scstep>
   <time name="dav">    0.52    0.52</time>
   <time name="total">    0.71    0.71</time>
   <energy>
    <i name="e_fr_energy">    -65.44171056 </i>
    <i name="e_wo_entrp">    -65.44171056 </i>
    <i name="e_0_energy">    -65.44171056 </i>
   </energy>
  </scstep>
  <scstep>
   <time name="dav">    0.53    0.53</time>
   <time name="total">    0.70    0.70</time>
   <energy>
    <i name="alphaZ">    178.51594686 </i>
    <i name="ewald">  -3639.31264423 </i>
    <i name="hartreedc">   -919.38213149 </i>
    <i name="XCdc">    -38.35350989 </i>
    <i name="pawpsdc">   6739.19221807 </i>
    <i name="pawaedc">  -6484.59256833 </i>
    <i name="eentropy">     -0.00000000 </i>
    <i name="bandstr">   -517.75245386 </i>
    <i name="atom">   4616.24348075 </i>
    <i name="e_fr_energy">    -65.44166212 </i>
    <i name="e_wo_entrp">    -65.44166212 </i>
    <i name="e_0_energy">    -65.44166212 </i>
   </energy>
  </scstep>
  <structure>
   <crystal>
    <varray name="basis" >
     <v>       6.30068561       0.77348762      -0.95040715 </v>
     <v>      -0.84172320       6.30083293      -0.52140910 </v>
     <v>       0.15270986       1.02014594      11.98520317 </v>
    </varray>
    <i name="volume">    488.63090446 </i>
    <varray name="rec_basis" >
     <v>       0.15563624       0.02048294      -0.00372649 </v>
     <v>      -0.02095643       0.15484107      -0.01291261 </v>
     <v>       0.01143000       0.00836053       0.08257896 </v>
    </varray>
   </crystal>
   <varray name="positions" >
    <v>       0.51676829       0.73806360       0.88060581 </v>
    <v>       0.48323171       0.26193640       0.11939419 </v>
    <v>       0.98392006       0.73768653       0.61967760 </v>
    <v>       0.01607994       0.26231347       0.38032240 </v>
    <v>       0.04076065       0.79982187       0.12127733 </v>
    <v>       0.95923935       0.20017813       0.87872267 </v>
    <v>       0.45836587       0.79951153       0.37861435 </v>
    <v>       0.54163413       0.20048847       0.62138565 </v>
    <v>       0.51580725       0.18108222       0.38561417 </v>
    <v>       0.48419275       0.81891778       0.61438583 </v>
    <v>       0.98344425       0.18157637       0.11418847 </v>
    <v>       0.01655575       0.81842363       0.88581153 </v>
    <v>       0.92715228       0.22941308       0.64575298 </v>
    <v>       0.07284772       0.77058692       0.35424702 </v>
    <v>       0.57236022       0.22973303       0.85397160 </v>
    <v>       0.42763978       0.77026697       0.14602840 </v>
   </varray>
  </structure>
  <varray name="forces" >
   <v>      -0.02264325      -0.01812659      -0.00926100 </v>
   <v>       0.02264325       0.01812659       0.00926100 </v>
   <v>       0.02816582      -0.01121377       0.00392967 </v>
   <v>      -0.02816582       0.01121377      -0.00392967 </v>
   <v>       0.05378694      -0.03274322       0.05462227 </v>
   <v>      -0.05378694       0.03274322      -0.05462227 </v>
   <v>       0.08081430       0.00824563       0.03610108 </v>
   <v>      -0.08081430      -0.00824563      -0.03610108 </v>
   <v>       0.00603614      -0.00468794      -0.00035242 </v>
   <v>      -0.00603614       0.00468794       0.00035242 </v>
   <v>       0.00098640      -0.01512571      -0.00433120 </v>
   <v>      -0.00098640       0.01512571       0.00433120 </v>
   <v>       0.00295683      -0.07733919       0.01128072 </v>
   <v>      -0.00295683       0.07733919      -0.01128072 </v>
   <v>       0.09645479      -0.06008133       0.01746774 </v>
   <v>      -0.09645479       0.06008133      -0.01746774 </v>
  </varray>
  <varray name="stress" >
   <v>       0.94600317       0.22948508       0.39722361 </v>
   <v>       0.22948475       1.16062619      -0.06136348 </v>
   <v>       0.39722463      -0.06136346      -0.12332746 </v>
  </varray>
  <energy>
   <i name="e_fr_energy">    -65.44166212 </i>
   <i name="e_wo_entrp">    -65.44166212 </i>
   <i name="e_0_energy">     -0.00000000 </i>
  </energy>
  <time name="totalsc">    4.10    4.30</time>
 </calculation>
 <calculation>
  <scstep>
   <time name="dav">    0.48    0.48</time>
   <time name="total">    0.68    0.72</time>
   <energy>
    <i name="alphaZ">    178.42195313 </i>
    <i name="ewald">  -3638.41702933 </i>
    <i name="hartreedc">   -919.45069231 </i>
    <i name="XCdc">    -38.38765958 </i>
    <i name="pawpsdc">   6737.05858924 </i>
    <i name="pawaedc">  -6482.46302130 </i>
    <i name="eentropy">     -0.00000000 </i>
    <i name="bandstr">   -518.44908393 </i>
    <i name="atom">   4616.24348075 </i>
    <i name="e_fr_energy">    -65.44346333 </i>
    <i name="e_wo_entrp">    -65.44346333 </i>
    <i name="e_0_energy">    -65.44346333 </i>
   </energy>
  </scstep>
  <scstep>
   <time name="dav">    0.89    0.90</time>
   <time name="total">    1.08    1.09</time>
   <energy>
    <i name="e_fr_energy">    -65.44340526 </i>
    <i name="e_wo_entrp">    -65.44340526 </i>
    <i name="e_0_energy">    -65.44340526 </i>
   </energy>
  </scstep>
  <scstep>
   <time name="dav">    0.44    0.45</time>
   <time name="total">    0.62    0.62</time>
   <energy>
    <i name="alphaZ">    178.42195313 </i>
    <i name="ewald">  -3638.41702933 </i>
    <i name="hartreedc">   -919.82907294 </i>
    <i name="XCdc">    -38.36826233 </i>
    <i name="pawpsdc">   6731.90452162 </i>
    <i name="pawaedc">  -6477.31389868 </i>
    <i name="eentropy">     -0.00000000 </i>
    <i name="bandstr">   -518.08502644 </i>
    <i name="atom">   4616.24348075 </i>
    <i name="e_fr_energy">    -65.44333421 </i>
    <i name="e_wo_entrp">    -65.44333421 </i>
    <i name="e_0_energy">    -65.44333421 </i>
   </energy>
  </scstep>
  <structure>
   <crystal>
    <varray name="basis" >
     <v>       6.30348106       0.77450222      -0.94917094 </v>
     <v>      -0.84159344       6.30383221      -0.52168034 </v>
     <v>       0.15456930       1.01995717      11.98024895 </v>
    </varray>
    <i name="volume">    488.88831809 </i>
    <varray name="rec_basis" >
     <v>       0.15556430       0.02045838      -0.00374885 </v>
     <v>      -0.02095948       0.15476742      -0.01290595 </v>
     <v>       0.01141236       0.00836023       0.08261172 </v>
    </varray>
   </crystal>
   <varray name="positions" >
    <v>       0.51668109       0.73801449       0.88057928 </v>
    <v>       0.48331891       0.26198551       0.11942072 </v>
    <v>       0.98401467       0.73763409       0.61969238 </v>
    <v>       0.01598533       0.26236591       0.38030762 </v>
    <v>       0.04082694       0.79964342       0.12135076 </v>
    <v>       0.95917306       0.20035658       0.87864924 </v>
    <v>       0.45861192       0.79947822       0.37867982 </v>
    <v>       0.54138808       0.20052178       0.62132018 </v>
    <v>       0.51582541       0.18107049       0.38562621 </v>
    <v>       0.48417459       0.81892951       0.61437379 </v>
    <v>       0.98343987       0.18153976       0.11416822 </v>
    <v>       0.01656013       0.81846024       0.88583178 </v>
    <v>       0.92713386       0.22914765       0.64576763 </v>
    <v>       0.07286614       0.77085235       0.35423237 </v>
    <v>       0.57262596       0.22948147       0.85400328 </v>
    <v>       0.42737404       0.77051853       0.14599672 </v>
   </varray>
  </structure>
  <varray name="forces" >
   <v>      -0.02202389      -0.01783011      -0.00811994 </v>
   <v>       0.02202389       0.01783011       0.00811994 </v>
   <v>       0.02696632      -0.01101258       0.00555705 </v>
   <v>      -0.02696632       0.01101258      -0.00555705 </v>
   <v>       0.03911615       0.00167109       0.02301564 </v>
   <v>      -0.03911615      -0.00167109      -0.02301564 </v>
   <v>       0.09437256       0.01702519       0.04756695 </v>
   <v>      -0.09437256      -0.01702519      -0.04756695 </v>
   <v>       0.00147625      -0.02162058       0.00122960 </v>
   <v>      -0.00147625       0.02162058      -0.00122960 </v>
   <v>       0.00437957      -0.02854773      -0.00060162 </v>
   <v>      -0.00437957       0.02854773       0.00060162 </v>
   <v>      -0.01975346      -0.07032540       0.00410215 </v>
   <v>       0.01975346       0.07032540      -0.00410215 </v>
   <v>       0.09028650      -0.05802606       0.01873942 </v>
   <v>      -0.09028650       0.05802606      -0.01873942 </v>
  </varray>
  <varray name="stress" >
   <v>       1.18965101       0.22983882       0.48299584 </v>
   <v>       0.22983873       1.59205818      -0.14063243 </v>
   <v>       0.48299729      -0.14063204       0.18480601 </v>
  </varray>
  <energy>
   <i name="e_fr_energy">    -65.44333421 </i>
   <i name="e_wo_entrp">    -65.44333421 </i>
   <i name="e_0_energy">     -0.00000000 </i>
  </energy>
  <time name="totalsc">    3.33    3.47</time>
 </calculation>
 <calculation>
  <scstep>
   <time name="dav">    0.74    0.77</time>
   <time name="total">    0.95    1.01</time>
   <energy>
    <i name="alphaZ">    178.14098641 </i>
    <i name="ewald">  -3635.71812123 </i>
    <i name="hartreedc">   -920.09587185 </i>
    <i name="XCdc">    -38.46956036 </i>
    <i name="pawpsdc">   6730.61447866 </i>
    <i name="pawaedc">  -6476.02130989 </i>
    <i name="eentropy">     -0.00000000 </i>
    <i name="bandstr">   -520.14049404 </i>
    <i name="atom">   4616.24348075 </i>
    <i name="e_fr_energy">    -65.44641155 </i>
    <i name="e_wo_entrp">    -65.44641155 </i>
    <i name="e_0_energy">    -65.44641155 </i>
   </energy>
  </scstep>
  <scstep>
   <time name="dav">    0.82    0.84</time>
   <time name="total">    1.02    1.04</time>
   <energy>
    <i name="e_fr_energy">    -65.44579581 </i>
    <i name="e_wo_entrp">    -65.44579581 </i>
    <i name="e_0_energy">    -65.44579581 </i>
   </energy>
  </scstep>
  <scstep>
   <time name="dav">    0.75    0.77</time>
   <time name="total">    0.95    0.97</time>
   <energy>
    <i name="e_fr_energy">    -65.44517011 </i>
    <i name="e_wo_entrp">    -65.44517011 </i>
    <i name="e_0_energy">    -65.44517011 </i>
   </energy>
  </scstep>
  <scstep>
   <time name="dav">    0.63    0.64</time>
   <time name="total">    0.82    0.83</time>
   <energy>
    <i name="e_fr_energy">    -65.44486647 </i>
    <i name="e_wo_entrp">    -65.44486647 </i>
    <i name="e_0_energy">    -65.44486647 </i>
   </energy>
  </scstep>
  <scstep>
   <time name="dav">    0.61    0.62</time>
   <time name="total">    0.78    0.79</time>
   <energy>
    <i name="alphaZ">    178.14098641 </i>
    <i name="ewald">  -3635.71812123 </i>
    <i name="hartreedc">   -921.65283494 </i>
    <i name="XCdc">    -38.39365986 </i>
    <i name="pawpsdc">   6719.66468830 </i>
    <i name="pawaedc">  -6465.06372755 </i>
    <i name="eentropy">     -0.00000000 </i>
    <i name="bandstr">   -518.66561418 </i>
    <i name="atom">   4616.24348075 </i>
    <i name="e_fr_energy">    -65.44480231 </i>
    <i name="e_wo_entrp">    -65.44480231 </i>
    <i name="e_0_energy">    -65.44480231 </i>
   </energy>
  </scstep>
  <structure>
   <crystal>
    <varray name="basis" >
     <v>       6.31186741       0.77754604      -0.94546231 </v>
     <v>      -0.84120415       6.31283003      -0.52249407 </v>
     <v>       0.16014759       1.01939085      11.96538627 </v>
    </varray>
    <i name="volume">    489.65940031 </i>
    <varray name="rec_basis" >
     <v>       0.15534895       0.02038490      -0.00381592 </v>
     <v>      -0.02096852       0.15454691      -0.01288597 </v>
     <v>       0.01135949       0.00835936       0.08271019 </v>
    </varray>
   </crystal>
   <varray name="positions" >
    <v>       0.51641964       0.73786723       0.88049973 </v>
    <v>       0.48358036       0.26213277       0.11950027 </v>
    <v>       0.98429836       0.73747683       0.61973672 </v>
    <v>       0.01570164       0.26252317       0.38026328 </v>
    <v>       0.04102571       0.79910832       0.12157110 </v>
    <v>       0.95897429       0.20089168       0.87842890 </v>
    <v>       0.45934967       0.79937827       0.37887618 </v>
    <v>       0.54065033       0.20062173       0.62112382 </v>
    <v>       0.51587984       0.18103530       0.38566235 </v>
    <v>       0.48412016       0.81896470       0.61433765 </v>
    <v>       0.98342676       0.18142999       0.11410746 </v>
    <v>       0.01657324       0.81857001       0.88589254 </v>
    <v>       0.92707867       0.22835173       0.64581162 </v>
    <v>       0.07292133       0.77164827       0.35418838 </v>
    <v>       0.57342286       0.22872708       0.85409824 </v>
    <v>       0.42657714       0.77127292       0.14590176 </v>
   </varray>
  </structure>
  <varray name="forces" >
   <v>      -0.01428235      -0.01942704      -0.00456250 </v>
   <v>       0.01428235       0.01942704       0.00456250 </v>
   <v>       0.02307966      -0.01513258       0.00789899 </v>
   <v>      -0.02307966       0.01513258      -0.00789899 </v>
   <v>      -0.04825839       0.00934509       0.01902803 </v>
   <v>       0.04825839      -0.00934509      -0.01902803 </v>
[...]
        <r>  0.0002  0.0558  0.0000 </r>
       </set>
       <set comment="band 45">
        <r>  0.0012  0.0038  0.0013 </r>
        <r>  0.0012  0.0038  0.0013 </r>
        <r>  0.0009  0.0040  0.0018 </r>
        <r>  0.0009  0.0040  0.0018 </r>
        <r>  0.0176  0.0079  0.0023 </r>
        <r>  0.0176  0.0079  0.0023 </r>
        <r>  0.0157  0.0075  0.0024 </r>
        <r>  0.0157  0.0075  0.0024 </r>
        <r>  0.0008  0.0533  0.0000 </r>
        <r>  0.0008  0.0533  0.0000 </r>
        <r>  0.0004  0.0626  0.0000 </r>
        <r>  0.0004  0.0626  0.0000 </r>
        <r>  0.0003  0.0415  0.0000 </r>
        <r>  0.0003  0.0415  0.0000 </r>
        <r>  0.0003  0.0516  0.0000 </r>
        <r>  0.0003  0.0516  0.0000 </r>
       </set>
       <set comment="band 46">
        <r>  0.0007  0.0031  0.0019 </r>
        <r>  0.0007  0.0031  0.0019 </r>
        <r>  0.0000  0.0018  0.0027 </r>
        <r>  0.0000  0.0018  0.0027 </r>
        <r>  0.0136  0.0179  0.0013 </r>
        <r>  0.0136  0.0179  0.0013 </r>
        <r>  0.0133  0.0181  0.0011 </r>
        <r>  0.0133  0.0181  0.0011 </r>
        <r>  0.0004  0.0217  0.0000 </r>
        <r>  0.0004  0.0217  0.0000 </r>
        <r>  0.0002  0.0253  0.0000 </r>
        <r>  0.0002  0.0253  0.0000 </r>
        <r>  0.0012  0.0757  0.0000 </r>
        <r>  0.0012  0.0757  0.0000 </r>
        <r>  0.0012  0.0683  0.0000 </r>
        <r>  0.0012  0.0683  0.0000 </r>
       </set>
       <set comment="band 47">
        <r>  0.0012  0.0012  0.0024 </r>
        <r>  0.0012  0.0012  0.0024 </r>
        <r>  0.0001  0.0032  0.0028 </r>
        <r>  0.0001  0.0032  0.0028 </r>
        <r>  0.0255  0.0173  0.0012 </r>
        <r>  0.0255  0.0173  0.0012 </r>
        <r>  0.0125  0.0079  0.0010 </r>
        <r>  0.0125  0.0079  0.0010 </r>
        <r>  0.0002  0.0520  0.0000 </r>
        <r>  0.0002  0.0520  0.0000 </r>
        <r>  0.0008  0.0808  0.0000 </r>
        <r>  0.0008  0.0808  0.0000 </r>
        <r>  0.0002  0.0457  0.0000 </r>
        <r>  0.0002  0.0457  0.0000 </r>
        <r>  0.0003  0.0299  0.0000 </r>
        <r>  0.0003  0.0299  0.0000 </r>
       </set>
       <set comment="band 48">
        <r>  0.0004  0.0019  0.0025 </r>
        <r>  0.0004  0.0019  0.0025 </r>
        <r>  0.0006  0.0010  0.0020 </r>
        <r>  0.0006  0.0010  0.0020 </r>
        <r>  0.0114  0.0136  0.0007 </r>
        <r>  0.0114  0.0136  0.0007 </r>
        <r>  0.0243  0.0239  0.0008 </r>
        <r>  0.0243  0.0239  0.0008 </r>
        <r>  0.0010  0.0728  0.0000 </r>
        <r>  0.0010  0.0728  0.0000 </r>
        <r>  0.0007  0.0411  0.0000 </r>
        <r>  0.0007  0.0411  0.0000 </r>
        <r>  0.0001  0.0390  0.0000 </r>
        <r>  0.0001  0.0390  0.0000 </r>
        <r>  0.0000  0.0442  0.0000 </r>
        <r>  0.0000  0.0442  0.0000 </r>
       </set>
       <set comment="band 49">
        <r>  0.0003  0.0032  0.0014 </r>
        <r>  0.0003  0.0032  0.0014 </r>
        <r>  0.0017  0.0038  0.0014 </r>
        <r>  0.0017  0.0038  0.0014 </r>
        <r>  0.0072  0.0586  0.0015 </r>
        <r>  0.0072  0.0586  0.0015 </r>
        <r>  0.0104  0.0452  0.0011 </r>
        <r>  0.0104  0.0452  0.0011 </r>
        <r>  0.0083  0.0177  0.0000 </r>
        <r>  0.0083  0.0177  0.0000 </r>
        <r>  0.0104  0.0182  0.0000 </r>
        <r>  0.0104  0.0182  0.0000 </r>
        <r>  0.0040  0.0154  0.0000 </r>
        <r>  0.0040  0.0154  0.0000 </r>
        <r>  0.0015  0.0117  0.0000 </r>
        <r>  0.0015  0.0117  0.0000 </r>
       </set>
       <set comment="band 50">
        <r>  0.0017  0.0018  0.0030 </r>
        <r>  0.0017  0.0018  0.0030 </r>
        <r>  0.0019  0.0015  0.0026 </r>
        <r>  0.0019  0.0015  0.0026 </r>
        <r>  0.0118  0.0369  0.0020 </r>
        <r>  0.0118  0.0369  0.0020 </r>
        <r>  0.0100  0.0466  0.0026 </r>
        <r>  0.0100  0.0466  0.0026 </r>
        <r>  0.0012  0.0065  0.0000 </r>
        <r>  0.0012  0.0065  0.0000 </r>
        <r>  0.0006  0.0054  0.0000 </r>
        <r>  0.0006  0.0054  0.0000 </r>
        <r>  0.0067  0.0250  0.0000 </r>
        <r>  0.0067  0.0250  0.0000 </r>
        <r>  0.0078  0.0273  0.0000 </r>
        <r>  0.0078  0.0273  0.0000 </r>
       </set>
       <set comment="band 51">
        <r>  0.0012  0.0036  0.0025 </r>
        <r>  0.0012  0.0036  0.0025 </r>
        <r>  0.0002  0.0016  0.0045 </r>
        <r>  0.0002  0.0016  0.0045 </r>
        <r>  0.0093  0.0442  0.0011 </r>
        <r>  0.0093  0.0442  0.0011 </r>
        <r>  0.0126  0.0461  0.0012 </r>
        <r>  0.0126  0.0461  0.0012 </r>
        <r>  0.0010  0.0279  0.0000 </r>
        <r>  0.0010  0.0279  0.0000 </r>
        <r>  0.0000  0.0217  0.0000 </r>
        <r>  0.0000  0.0217  0.0000 </r>
        <r>  0.0070  0.0129  0.0000 </r>
        <r>  0.0070  0.0129  0.0000 </r>
        <r>  0.0076  0.0124  0.0000 </r>
        <r>  0.0076  0.0124  0.0000 </r>
       </set>
       <set comment="band 52">
        <r>  0.0006  0.0034  0.0033 </r>
        <r>  0.0006  0.0034  0.0033 </r>
        <r>  0.0003  0.0024  0.0037 </r>
        <r>  0.0003  0.0024  0.0037 </r>
        <r>  0.0130  0.0433  0.0019 </r>
        <r>  0.0130  0.0433  0.0019 </r>
        <r>  0.0110  0.0423  0.0025 </r>
        <r>  0.0110  0.0423  0.0025 </r>
        <r>  0.0061  0.0224  0.0000 </r>
        <r>  0.0061  0.0224  0.0000 </r>
        <r>  0.0056  0.0220  0.0000 </r>
        <r>  0.0056  0.0220  0.0000 </r>
        <r>  0.0000  0.0135  0.0000 </r>
        <r>  0.0000  0.0135  0.0000 </r>
        <r>  0.0004  0.0151  0.0000 </r>
        <r>  0.0004  0.0151  0.0000 </r>
       </set>
       <set comment="band 53">
        <r>  0.0001  0.0010  0.0014 </r>
        <r>  0.0001  0.0010  0.0014 </r>
        <r>  0.0004  0.0011  0.0018 </r>
        <r>  0.0004  0.0011  0.0018 </r>
        <r>  0.0000  0.0737  0.0038 </r>
        <r>  0.0000  0.0737  0.0038 </r>
        <r>  0.0024  0.0543  0.0025 </r>
        <r>  0.0024  0.0543  0.0025 </r>
        <r>  0.0001  0.0167  0.0000 </r>
        <r>  0.0001  0.0167  0.0000 </r>
        <r>  0.0004  0.0223  0.0000 </r>
        <r>  0.0004  0.0223  0.0000 </r>
        <r>  0.0004  0.0191  0.0000 </r>
        <r>  0.0004  0.0191  0.0000 </r>
        <r>  0.0004  0.0161  0.0000 </r>
        <r>  0.0004  0.0161  0.0000 </r>
       </set>
       <set comment="band 54">
        <r>  0.0066  0.0065  0.0044 </r>
        <r>  0.0066  0.0065  0.0044 </r>
        <r>  0.0047  0.0055  0.0032 </r>
        <r>  0.0047  0.0055  0.0032 </r>
        <r>  0.0136  0.0413  0.0032 </r>
        <r>  0.0136  0.0413  0.0032 </r>
        <r>  0.0069  0.0305  0.0035 </r>
        <r>  0.0069  0.0305  0.0035 </r>
        <r>  0.0003  0.0032  0.0000 </r>
        <r>  0.0003  0.0032  0.0000 </r>
        <r>  0.0008  0.0084  0.0000 </r>
        <r>  0.0008  0.0084  0.0000 </r>
        <r>  0.0091  0.0281  0.0000 </r>
        <r>  0.0091  0.0281  0.0000 </r>
        <r>  0.0105  0.0332  0.0000 </r>
        <r>  0.0105  0.0332  0.0000 </r>
       </set>
       <set comment="band 55">
        <r>  0.0012  0.0110  0.0023 </r>
        <r>  0.0012  0.0110  0.0023 </r>
        <r>  0.0013  0.0112  0.0026 </r>
        <r>  0.0013  0.0112  0.0026 </r>
        <r>  0.0024  0.0463  0.0050 </r>
        <r>  0.0024  0.0463  0.0050 </r>
        <r>  0.0028  0.0381  0.0039 </r>
        <r>  0.0028  0.0381  0.0039 </r>
        <r>  0.0079  0.0230  0.0000 </r>
        <r>  0.0079  0.0230  0.0000 </r>
        <r>  0.0112  0.0277  0.0000 </r>
        <r>  0.0112  0.0277  0.0000 </r>
        <r>  0.0047  0.0090  0.0000 </r>
        <r>  0.0047  0.0090  0.0000 </r>
        <r>  0.0025  0.0073  0.0000 </r>
        <r>  0.0025  0.0073  0.0000 </r>
       </set>
       <set comment="band 56">
        <r>  0.0015  0.0045  0.0040 </r>
        <r>  0.0015  0.0045  0.0040 </r>
        <r>  0.0037  0.0017  0.0076 </r>
        <r>  0.0037  0.0017  0.0076 </r>
        <r>  0.0005  0.0524  0.0010 </r>
        <r>  0.0005  0.0524  0.0010 </r>
        <r>  0.0014  0.0746  0.0014 </r>
        <r>  0.0014  0.0746  0.0014 </r>
        <r>  0.0013  0.0151  0.0000 </r>
        <r>  0.0013  0.0151  0.0000 </r>
        <r>  0.0045  0.0091  0.0000 </r>
        <r>  0.0045  0.0091  0.0000 </r>
        <r>  0.0042  0.0323  0.0000 </r>
        <r>  0.0042  0.0323  0.0000 </r>
        <r>  0.0048  0.0336  0.0000 </r>
        <r>  0.0048  0.0336  0.0000 </r>
       </set>
       <set comment="band 57">
        <r>  0.0003  0.0028  0.0062 </r>
        <r>  0.0003  0.0028  0.0062 </r>
        <r>  0.0008  0.0029  0.0065 </r>
        <r>  0.0008  0.0029  0.0065 </r>
        <r>  0.0039  0.0314  0.0027 </r>
        <r>  0.0039  0.0314  0.0027 </r>
        <r>  0.0112  0.0557  0.0049 </r>
        <r>  0.0112  0.0557  0.0049 </r>
        <r>  0.0089  0.0285  0.0000 </r>
        <r>  0.0089  0.0285  0.0000 </r>
        <r>  0.0009  0.0066  0.0000 </r>
        <r>  0.0009  0.0066  0.0000 </r>
        <r>  0.0039  0.0233  0.0000 </r>
        <r>  0.0039  0.0233  0.0000 </r>
        <r>  0.0037  0.0231  0.0000 </r>
        <r>  0.0037  0.0231  0.0000 </r>
       </set>
       <set comment="band 58">
        <r>  0.0010  0.0064  0.0059 </r>
        <r>  0.0010  0.0064  0.0059 </r>
        <r>  0.0003  0.0037  0.0045 </r>
        <r>  0.0003  0.0037  0.0045 </r>
        <r>  0.0035  0.0624  0.0058 </r>
        <r>  0.0035  0.0624  0.0058 </r>
        <r>  0.0003  0.0355  0.0028 </r>
        <r>  0.0003  0.0355  0.0028 </r>
        <r>  0.0063  0.0145  0.0000 </r>
        <r>  0.0063  0.0145  0.0000 </r>
        <r>  0.0064  0.0382  0.0000 </r>
        <r>  0.0064  0.0382  0.0000 </r>
        <r>  0.0006  0.0138  0.0000 </r>
        <r>  0.0006  0.0138  0.0000 </r>
        <r>  0.0029  0.0141  0.0000 </r>
        <r>  0.0029  0.0141  0.0000 </r>
       </set>
       <set comment="band 59">
        <r>  0.0006  0.0039  0.0033 </r>
        <r>  0.0006  0.0039  0.0033 </r>
        <r>  0.0004  0.0066  0.0032 </r>
        <r>  0.0004  0.0066  0.0032 </r>
        <r>  0.0002  0.0611  0.0006 </r>
        <r>  0.0002  0.0611  0.0006 </r>
        <r>  0.0005  0.0734  0.0028 </r>
        <r>  0.0005  0.0734  0.0028 </r>
        <r>  0.0004  0.0412  0.0000 </r>
        <r>  0.0004  0.0412  0.0000 </r>
        <r>  0.0021  0.0342  0.0000 </r>
        <r>  0.0021  0.0342  0.0000 </r>
        <r>  0.0024  0.0155  0.0000 </r>
        <r>  0.0024  0.0155  0.0000 </r>
        <r>  0.0011  0.0118  0.0000 </r>
        <r>  0.0011  0.0118  0.0000 </r>
       </set>
       <set comment="band 60">
        <r>  0.0056  0.0093  0.0113 </r>
        <r>  0.0056  0.0093  0.0113 </r>
        <r>  0.0038  0.0071  0.0102 </r>
        <r>  0.0038  0.0071  0.0102 </r>
        <r>  0.0002  0.0605  0.0004 </r>
        <r>  0.0002  0.0605  0.0004 </r>
        <r>  0.0003  0.0675  0.0003 </r>
        <r>  0.0003  0.0675  0.0003 </r>
        <r>  0.0027  0.0235  0.0000 </r>
        <r>  0.0027  0.0235  0.0000 </r>
        <r>  0.0021  0.0196  0.0000 </r>
        <r>  0.0021  0.0196  0.0000 </r>
        <r>  0.0009  0.0238  0.0000 </r>
        <r>  0.0009  0.0238  0.0000 </r>
        <r>  0.0012  0.0240  0.0000 </r>
        <r>  0.0012  0.0240  0.0000 </r>
       </set>
       <set comment="band 61">
        <r>  0.0102  0.0074  0.0297 </r>
        <r>  0.0102  0.0074  0.0297 </r>
        <r>  0.0098  0.0088  0.0530 </r>
        <r>  0.0098  0.0088  0.0530 </r>
        <r>  0.0006  0.0032  0.0056 </r>
        <r>  0.0006  0.0032  0.0056 </r>
        <r>  0.0003  0.0046  0.0085 </r>
        <r>  0.0003  0.0046  0.0085 </r>
        <r>  0.0000  0.0038  0.0000 </r>
        <r>  0.0000  0.0038  0.0000 </r>
        <r>  0.0004  0.0053  0.0000 </r>
        <r>  0.0004  0.0053  0.0000 </r>
        <r>  0.0008  0.0049  0.0000 </r>
        <r>  0.0008  0.0049  0.0000 </r>
        <r>  0.0002  0.0065  0.0000 </r>
        <r>  0.0002  0.0065  0.0000 </r>
       </set>
       <set comment="band 62">
        <r>  0.0638  0.0263  0.0311 </r>
        <r>  0.0638  0.0263  0.0311 </r>
        <r>  0.0043  0.0056  0.0122 </r>
        <r>  0.0043  0.0056  0.0122 </r>
        <r>  0.0032  0.0045  0.0052 </r>
        <r>  0.0032  0.0045  0.0052 </r>
        <r>  0.0009  0.0029  0.0021 </r>
        <r>  0.0009  0.0029  0.0021 </r>
        <r>  0.0023  0.0076  0.0000 </r>
        <r>  0.0023  0.0076  0.0000 </r>
        <r>  0.0019  0.0076  0.0000 </r>
        <r>  0.0019  0.0076  0.0000 </r>
        <r>  0.0005  0.0016  0.0000 </r>
        <r>  0.0005  0.0016  0.0000 </r>
        <r>  0.0047  0.0133  0.0000 </r>
        <r>  0.0047  0.0133  0.0000 </r>
       </set>
       <set comment="band 63">
        <r>  0.0029  0.0108  0.0865 </r>
        <r>  0.0029  0.0108  0.0865 </r>
        <r>  0.0076  0.0047  0.0185 </r>
        <r>  0.0076  0.0047  0.0185 </r>
        <r>  0.0003  0.0035  0.0081 </r>
        <r>  0.0003  0.0035  0.0081 </r>
        <r>  0.0011  0.0037  0.0057 </r>
        <r>  0.0011  0.0037  0.0057 </r>
        <r>  0.0002  0.0071  0.0000 </r>
        <r>  0.0002  0.0071  0.0000 </r>
        <r>  0.0002  0.0009  0.0000 </r>
        <r>  0.0002  0.0009  0.0000 </r>
        <r>  0.0014  0.0016  0.0000 </r>
        <r>  0.0014  0.0016  0.0000 </r>
        <r>  0.0001  0.0118  0.0000 </r>
        <r>  0.0001  0.0118  0.0000 </r>
       </set>
       <set comment="band 64">
        <r>  0.0104  0.0117  0.0257 </r>
        <r>  0.0104  0.0117  0.0257 </r>
        <r>  0.0141  0.0149  0.0521 </r>
        <r>  0.0141  0.0149  0.0521 </r>
        <r>  0.0003  0.0047  0.0077 </r>
        <r>  0.0003  0.0047  0.0077 </r>
        <r>  0.0002  0.0093  0.0045 </r>
        <r>  0.0002  0.0093  0.0045 </r>
        <r>  0.0013  0.0093  0.0000 </r>
        <r>  0.0013  0.0093  0.0000 </r>
        <r>  0.0017  0.0054  0.0000 </r>
        <r>  0.0017  0.0054  0.0000 </r>
        <r>  0.0006  0.0125  0.0000 </r>
        <r>  0.0006  0.0125  0.0000 </r>
        <r>  0.0007  0.0022  0.0000 </r>
        <r>  0.0007  0.0022  0.0000 </r>
       </set>
       <set comment="band 65">
        <r>  0.0034  0.0029  0.0258 </r>
        <r>  0.0034  0.0029  0.0258 </r>
        <r>  0.0096  0.0221  0.0778 </r>
        <r>  0.0096  0.0221  0.0778 </r>
        <r>  0.0002  0.0041  0.0025 </r>
        <r>  0.0002  0.0041  0.0025 </r>
        <r>  0.0005  0.0145  0.0087 </r>
        <r>  0.0005  0.0145  0.0087 </r>
        <r>  0.0002  0.0012  0.0000 </r>
        <r>  0.0002  0.0012  0.0000 </r>
        <r>  0.0005  0.0062  0.0000 </r>
        <r>  0.0005  0.0062  0.0000 </r>
        <r>  0.0001  0.0116  0.0000 </r>
        <r>  0.0001  0.0116  0.0000 </r>
        <r>  0.0004  0.0021  0.0000 </r>
        <r>  0.0004  0.0021  0.0000 </r>
       </set>
       <set comment="band 66">
        <r>  0.0049  0.0127  0.0597 </r>
        <r>  0.0049  0.0127  0.0597 </r>
        <r>  0.0097  0.0051  0.0688 </r>
        <r>  0.0097  0.0051  0.0688 </r>
        <r>  0.0006  0.0034  0.0047 </r>
        <r>  0.0006  0.0034  0.0047 </r>
        <r>  0.0001  0.0059  0.0066 </r>
        <r>  0.0001  0.0059  0.0066 </r>
        <r>  0.0017  0.0067  0.0000 </r>
        <r>  0.0017  0.0067  0.0000 </r>
        <r>  0.0007  0.0061  0.0000 </r>
        <r>  0.0007  0.0061  0.0000 </r>
        <r>  0.0009  0.0076  0.0000 </r>
        <r>  0.0009  0.0076  0.0000 </r>
        <r>  0.0011  0.0086  0.0000 </r>
        <r>  0.0011  0.0086  0.0000 </r>
       </set>
       <set comment="band 67">
        <r>  0.0060  0.0233  0.0342 </r>
        <r>  0.0060  0.0233  0.0342 </r>
        <r>  0.0048  0.0251  0.0531 </r>
        <r>  0.0048  0.0251  0.0531 </r>
        <r>  0.0003  0.0026  0.0035 </r>
        <r>  0.0003  0.0026  0.0035 </r>
        <r>  0.0000  0.0054  0.0089 </r>
        <r>  0.0000  0.0054  0.0089 </r>
        <r>  0.0001  0.0085  0.0000 </r>
        <r>  0.0001  0.0085  0.0000 </r>
        <r>  0.0021  0.0039  0.0000 </r>
        <r>  0.0021  0.0039  0.0000 </r>
        <r>  0.0012  0.0157  0.0000 </r>
        <r>  0.0012  0.0157  0.0000 </r>
        <r>  0.0004  0.0030  0.0000 </r>
        <r>  0.0004  0.0030  0.0000 </r>
       </set>
       <set comment="band 68">
        <r>  0.0102  0.0081  0.0535 </r>
        <r>  0.0102  0.0081  0.0535 </r>
        <r>  0.0185  0.0237  0.0727 </r>
        <r>  0.0185  0.0237  0.0727 </r>
        <r>  0.0006  0.0092  0.0012 </r>
        <r>  0.0006  0.0092  0.0012 </r>
        <r>  0.0003  0.0104  0.0022 </r>
        <r>  0.0003  0.0104  0.0022 </r>
        <r>  0.0001  0.0119  0.0000 </r>
        <r>  0.0001  0.0119  0.0000 </r>
        <r>  0.0013  0.0073  0.0000 </r>
        <r>  0.0013  0.0073  0.0000 </r>
        <r>  0.0013  0.0085  0.0000 </r>
        <r>  0.0013  0.0085  0.0000 </r>
        <r>  0.0006  0.0035  0.0000 </r>
        <r>  0.0006  0.0035  0.0000 </r>
       </set>
       <set comment="band 69">
        <r>  0.0082  0.0243  0.0127 </r>
        <r>  0.0082  0.0243  0.0127 </r>
        <r>  0.0178  0.0375  0.0525 </r>
        <r>  0.0178  0.0375  0.0525 </r>
        <r>  0.0003  0.0059  0.0052 </r>
        <r>  0.0003  0.0059  0.0052 </r>
        <r>  0.0031  0.0142  0.0013 </r>
        <r>  0.0031  0.0142  0.0013 </r>
        <r>  0.0022  0.0090  0.0000 </r>
        <r>  0.0022  0.0090  0.0000 </r>
        <r>  0.0012  0.0083  0.0000 </r>
        <r>  0.0012  0.0083  0.0000 </r>
        <r>  0.0001  0.0128  0.0000 </r>
        <r>  0.0001  0.0128  0.0000 </r>
        <r>  0.0004  0.0124  0.0000 </r>
        <r>  0.0004  0.0124  0.0000 </r>
       </set>
       <set comment="band 70">
        <r>  0.0018  0.0125  0.0201 </r>
        <r>  0.0018  0.0125  0.0201 </r>
        <r>  0.0319  0.0605  0.0304 </r>
        <r>  0.0319  0.0605  0.0304 </r>
        <r>  0.0005  0.0029  0.0054 </r>
        <r>  0.0005  0.0029  0.0054 </r>
        <r>  0.0005  0.0094  0.0029 </r>
        <r>  0.0005  0.0094  0.0029 </r>
        <r>  0.0040  0.0046  0.0000 </r>
        <r>  0.0040  0.0046  0.0000 </r>
        <r>  0.0005  0.0028  0.0000 </r>
        <r>  0.0005  0.0028  0.0000 </r>
        <r>  0.0061  0.0229  0.0000 </r>
        <r>  0.0061  0.0229  0.0000 </r>
        <r>  0.0001  0.0092  0.0000 </r>
        <r>  0.0001  0.0092  0.0000 </r>
       </set>
      </set>
     </set>
    </set>
   </array>
  </projected>
 </calculation>
 <structure name="finalpos" >
  <crystal>
   <varray name="basis" >
    <v>       6.35799811       0.77641504      -0.94797994 </v>
    <v>      -0.84918364       6.32444974      -0.51908471 </v>
    <v>       0.14968912       1.02221620      11.91931194 </v>
   </varray>
   <i name="volume">    492.17784637 </i>
   <varray name="rec_basis" >
    <v>       0.15424040       0.02040722      -0.00368718 </v>
    <v>      -0.02077171       0.15426307      -0.01296895 </v>
    <v>       0.01136261       0.00834119       0.08303941 </v>
   </varray>
  </crystal>
  <varray name="positions" >
   <v>       0.51543265       0.73640510       0.88017722 </v>
   <v>       0.48456735       0.26359490       0.11982278 </v>
   <v>       0.98586811       0.73570670       0.62080872 </v>
   <v>       0.01413189       0.26429330       0.37919128 </v>
   <v>       0.03724925       0.79857563       0.12272818 </v>
   <v>       0.96275075       0.20142437       0.87727182 </v>
   <v>       0.45891858       0.79601122       0.37978132 </v>
   <v>       0.54108142       0.20398878       0.62021868 </v>
   <v>       0.51629701       0.17625980       0.38515897 </v>
   <v>       0.48370299       0.82374020       0.61484103 </v>
   <v>       0.98345451       0.17924704       0.11451315 </v>
   <v>       0.01654549       0.82075296       0.88548685 </v>
   <v>       0.92354293       0.22734745       0.64311221 </v>
   <v>       0.07645707       0.77265255       0.35688779 </v>
   <v>       0.58055239       0.22814009       0.85450443 </v>
   <v>       0.41944761       0.77185991       0.14549557 </v>
  </varray>
 </structure>
</modeling>
