CIS                                     
           1
     6.456999    0.790754   -0.988154
    -0.865150    6.470254   -0.535566
     0.147270    1.054517   12.410146
   K    Sb   S 
   4   4   8
Direct configuration=     1
   0.51696127  0.73781771  0.88080757
   0.48303873  0.26218229  0.11919243
   0.98367476  0.73743148  0.61946244
   0.01632524  0.26256852  0.38053756
   0.03733388  0.79571282  0.12119584
   0.96266612  0.20428718  0.87880416
   0.46308368  0.79527065  0.37915100
   0.53691632  0.20472935  0.62084900
   0.51656990  0.18558520  0.38446004
   0.48343010  0.81441480  0.61553996
   0.98260466  0.18602253  0.11531716
   0.01739534  0.81397747  0.88468284
   0.93178840  0.23024954  0.64474581
   0.06821160  0.76975046  0.35525419
   0.56779112  0.23067466  0.85497141
   0.43220888  0.76932534  0.14502859
CIS                                     
           1
     6.412193    0.785654   -0.979264
    -0.858675    6.423518   -0.531670
     0.149240    1.047120   12.317569
   K    Sb   S 
   4   4   8
Direct configuration=     2
   0.51695702  0.73790640  0.88076789
   0.48304298  0.26209360  0.11923211
   0.98368418  0.73752271  0.61950211
   0.01631582  0.26247729  0.38049789
   0.03865627  0.79700464  0.12133252
   0.96134373  0.20299536  0.87866748
   0.46185551  0.79647956  0.37907581
   0.53814449  0.20352044  0.62092419
   0.51636018  0.18435620  0.38471064
   0.48363982  0.81564380  0.61528936
   0.98283660  0.18478756  0.11506729
   0.01716340  0.81521244  0.88493271
   0.93052517  0.23012823  0.64497515
   0.06947483  0.76987177  0.35502485
   0.56905726  0.23051956  0.85474892
   0.43094274  0.76948044  0.14525108
CIS                                     
           1
     6.277776    0.770353   -0.952594
    -0.839250    6.283309   -0.519983
     0.155149    1.024928   12.039835
   K    Sb   S 
   4   4   8
Direct configuration=     3
   0.51694424  0.73817440  0.88064796
   0.48305576  0.26182560  0.11935204
   0.98371258  0.73779841  0.61962200
   0.01628742  0.26220159  0.38037800
   0.04265082  0.80090819  0.12174493
   0.95734918  0.19909181  0.87825507
   0.45814524  0.80013280  0.37884916
   0.54185476  0.19986720  0.62115084
   0.51572639  0.18064236  0.38546818
   0.48427361  0.81935764  0.61453182
   0.98353777  0.18105567  0.11431200
   0.01646223  0.81894433  0.88568800
   0.92670868  0.22976178  0.64566897
   0.07329132  0.77023822  0.35433103
   0.57288258  0.23005075  0.85407582
   0.42711742  0.76994925  0.14592418
CIS                                     
           1
     6.293220    0.772111   -0.955658
    -0.841482    6.299419   -0.521326
     0.154470    1.027478   12.071747
   K    Sb   S 
   4   4   8
Direct configuration=     4
   0.51694572  0.73814292  0.88066205
   0.48305428  0.26185708  0.11933795
   0.98370927  0.73776603  0.61960791
   0.01629073  0.26223397  0.38039209
   0.04218214  0.80044971  0.12169670
   0.95781786  0.19955029  0.87830330
   0.45858068  0.79970363  0.37887558
   0.54141932  0.20029637  0.62112442
   0.51580086  0.18107860  0.38537910
   0.48419914  0.81892140  0.61462090
   0.98345531  0.18149405  0.11440081
   0.01654469  0.81850595  0.88559919
   0.92715670  0.22980479  0.64558719
   0.07284330  0.77019521  0.35441281
   0.57243352  0.23010587  0.85415516
   0.42756648  0.76989413  0.14584484
CIS                                     
           1
     6.291186    0.771879   -0.955254
    -0.841188    6.297297   -0.521149
     0.154560    1.027142   12.067544
   K    Sb   S 
   4   4   8
Direct configuration=     5
   0.51694553  0.73814705  0.88066020
   0.48305447  0.26185295  0.11933980
   0.98370970  0.73777028  0.61960976
   0.01629030  0.26222972  0.38039024
   0.04224370  0.80050993  0.12170304
   0.95775630  0.19949007  0.87829696
   0.45852348  0.79976000  0.37887211
   0.54147652  0.20024000  0.62112789
   0.51579107  0.18102130  0.38539080
   0.48420893  0.81897870  0.61460920
   0.98346614  0.18143647  0.11438914
   0.01653386  0.81856353  0.88561086
   0.92709785  0.22979914  0.64559793
   0.07290215  0.77020086  0.35440207
   0.57249250  0.23009863  0.85414475
   0.42750750  0.76990137  0.14585525
CIS                                     
           1
     6.289970    0.771741   -0.955013
    -0.841012    6.296029   -0.521043
     0.154613    1.026941   12.065031
   K    Sb   S 
   4   4   8
Direct configuration=     6
   0.51694541  0.73814953  0.88065909
   0.48305459  0.26185047  0.11934091
   0.98370996  0.73777282  0.61961087
   0.01629004  0.26222718  0.38038913
   0.04228053  0.80054595  0.12170683
   0.95771947  0.19945405  0.87829317
   0.45848926  0.79979372  0.37887003
   0.54151074  0.20020628  0.62112997
   0.51578522  0.18098702  0.38539780
   0.48421478  0.81901298  0.61460220
   0.98347261  0.18140202  0.11438217
   0.01652739  0.81859798  0.88561783
   0.92706265  0.22979576  0.64560435
   0.07293735  0.77020424  0.35439565
   0.57252779  0.23009430  0.85413851
   0.42747221  0.76990570  0.14586149
CIS                                     
           1
     6.293906    0.772382   -0.953321
    -0.841274    6.297793   -0.521178
     0.153914    1.024445   12.035710
   K    Sb   S 
   4   4   8
Direct configuration=     7
   0.51688032  0.73811796  0.88063955
   0.48311968  0.26188204  0.11936045
   0.98378717  0.73774112  0.61963534
   0.01621283  0.26225888  0.38036466
   0.04172198  0.80027993  0.12154931
   0.95827802  0.19972007  0.87845069
   0.45844392  0.79969004  0.37877631
   0.54155608  0.20030996  0.62122369
   0.51579332  0.18102200  0.38547711
   0.48420668  0.81897800  0.61452289
   0.98346219  0.18146608  0.11431117
   0.01653781  0.81853392  0.88568883
   0.92709559  0.22965517  0.64565884
   0.07290441  0.77034483  0.35434116
   0.57246621  0.22996157  0.85407732
   0.42753379  0.77003843  0.14592268
CIS                                     
           1
     6.298734    0.773169   -0.951246
    -0.841594    6.299958   -0.521342
     0.153057    1.021384   11.999744
   K    Sb   S 
   4   4   8
Direct configuration=     8
   0.51680053  0.73807925  0.88061554
   0.48319947  0.26192075  0.11938446
   0.98388182  0.73770224  0.61966541
   0.01611818  0.26229776  0.38033459
   0.04103727  0.79995371  0.12135576
   0.95896273  0.20004629  0.87864424
   0.45838833  0.79956291  0.37866107
   0.54161167  0.20043709  0.62133893
   0.51580324  0.18106489  0.38557463
   0.48419676  0.81893511  0.61442537
   0.98344941  0.18154462  0.11422387
   0.01655059  0.81845538  0.88577613
   0.92713597  0.22948276  0.64572582
   0.07286403  0.77051724  0.35427418
   0.57239072  0.22979881  0.85400210
   0.42760928  0.77020119  0.14599790
CIS                                     
           1
     6.300686    0.773488   -0.950407
    -0.841723    6.300833   -0.521409
     0.152710    1.020146   11.985203
   K    Sb   S 
   4   4   8
Direct configuration=     9
   0.51676829  0.73806360  0.88060581
   0.48323171  0.26193640  0.11939419
   0.98392006  0.73768653  0.61967760
   0.01607994  0.26231347  0.38032240
   0.04076065  0.79982187  0.12127733
   0.95923935  0.20017813  0.87872267
   0.45836587  0.79951153  0.37861435
   0.54163413  0.20048847  0.62138565
   0.51580725  0.18108222  0.38561417
   0.48419275  0.81891778  0.61438583
   0.98344425  0.18157637  0.11418847
   0.01655575  0.81842363  0.88581153
   0.92715228  0.22941308  0.64575298
   0.07284772  0.77058692  0.35424702
   0.57236022  0.22973303  0.85397160
   0.42763978  0.77026697  0.14602840
CIS                                     
           1
     6.303481    0.774502   -0.949171
    -0.841593    6.303832   -0.521680
     0.154569    1.019957   11.980249
   K    Sb   S 
   4   4   8
Direct configuration=    10
   0.51668109  0.73801449  0.88057928
   0.48331891  0.26198551  0.11942072
   0.98401467  0.73763409  0.61969238
   0.01598533  0.26236591  0.38030762
   0.04082694  0.79964342  0.12135076
   0.95917306  0.20035658  0.87864924
   0.45861192  0.79947822  0.37867982
   0.54138808  0.20052178  0.62132018
   0.51582541  0.18107049  0.38562621
   0.48417459  0.81892951  0.61437379
   0.98343987  0.18153976  0.11416822
   0.01656013  0.81846024  0.88583178
   0.92713386  0.22914765  0.64576763
   0.07286614  0.77085235  0.35423237
   0.57262596  0.22948147  0.85400328
   0.42737404  0.77051853  0.14599672
CIS                                     
           1
     6.311867    0.777546   -0.945462
    -0.841204    6.312830   -0.522494
     0.160148    1.019391   11.965386
   K    Sb   S 
   4   4   8
Direct configuration=    11
   0.51641964  0.73786723  0.88049973
   0.48358036  0.26213277  0.11950027
   0.98429836  0.73747683  0.61973672
   0.01570164  0.26252317  0.38026328
   0.04102571  0.79910832  0.12157110
   0.95897429  0.20089168  0.87842890
   0.45934967  0.79937827  0.37887618
   0.54065033  0.20062173  0.62112382
   0.51587984  0.18103530  0.38566235
   0.48412016  0.81896470  0.61433765
   0.98342676  0.18142999  0.11410746
   0.01657324  0.81857001  0.88589254
   0.92707867  0.22835173  0.64581162
   0.07292133  0.77164827  0.35418838
   0.57342286  0.22872708  0.85409824
   0.42657714  0.77127292  0.14590176
CIS                                     
           1
     6.312934    0.777860   -0.944224
    -0.841320    6.313862   -0.522881
     0.162192    1.018847   11.962401
   K    Sb   S 
   4   4   8
Direct configuration=    12
   0.51633240  0.73780649  0.88047403
   0.48366760  0.26219351  0.11952597
   0.98439726  0.73741093  0.61975494
   0.01560274  0.26258907  0.38024506
   0.04100013  0.79900367  0.12163410
   0.95899987  0.20099633  0.87836590
   0.45935046  0.79919544  0.37887616
   0.54064954  0.20080456  0.62112384
   0.51589078  0.18093702  0.38566897
   0.48410922  0.81906298  0.61433103
   0.98342525  0.18129448  0.11410230
   0.01657475  0.81870552  0.88589770
   0.92690660  0.22809990  0.64578646
   0.07309340  0.77190010  0.35421354
   0.57369316  0.22848148  0.85414379
   0.42630684  0.77151852  0.14585621
CIS                                     
           1
     6.316133    0.778801   -0.940511
    -0.841667    6.316957   -0.524040
     0.168324    1.017216   11.953444
   K    Sb   S 
   4   4   8
Direct configuration=    13
   0.51607075  0.73762429  0.88039692
   0.48392925  0.26237571  0.11960308
   0.98469389  0.73721329  0.61980958
   0.01530611  0.26278671  0.38019042
   0.04092333  0.79868980  0.12182312
   0.95907667  0.20131020  0.87817688
   0.45935282  0.79864705  0.37887608
   0.54064718  0.20135295  0.62112392
   0.51592360  0.18064224  0.38568883
   0.48407640  0.81935776  0.61431117
   0.98342071  0.18088802  0.11408682
   0.01657929  0.81911198  0.88591318
   0.92639051  0.22734454  0.64571101
   0.07360949  0.77265546  0.35428899
   0.57450389  0.22774479  0.85428035
   0.42549611  0.77225521  0.14571965
CIS                                     
           1
     6.322531    0.780684   -0.933084
    -0.842361    6.323148   -0.526359
     0.180589    1.013954   11.935530
   K    Sb   S 
   4   4   8
Direct configuration=    14
   0.51554786  0.73726005  0.88024275
   0.48445214  0.26273995  0.11975725
   0.98528676  0.73681823  0.61991870
   0.01471324  0.26318177  0.38008130
   0.04076945  0.79806247  0.12220144
   0.95923055  0.20193753  0.87779856
   0.45935756  0.79755082  0.37887585
   0.54064244  0.20244918  0.62112415
   0.51598917  0.18005297  0.38572852
   0.48401083  0.81994703  0.61427148
   0.98341168  0.18007551  0.11405579
   0.01658832  0.81992449  0.88594421
   0.92535901  0.22583456  0.64556027
   0.07464099  0.77416544  0.35443973
   0.57612430  0.22627218  0.85455297
   0.42387570  0.77372782  0.14544703
CIS                                     
           1
     6.328287    0.781066   -0.930395
    -0.842431    6.319082   -0.526106
     0.185626    1.014325   11.934051
   K    Sb   S 
   4   4   8
Direct configuration=    15
   0.51536654  0.73706131  0.88018878
   0.48463346  0.26293869  0.11981122
   0.98551283  0.73660145  0.61997956
   0.01448717  0.26339855  0.38002044
   0.04032206  0.79805674  0.12215615
   0.95967794  0.20194326  0.87784385
   0.45930237  0.79707479  0.37892940
   0.54069763  0.20292521  0.62107060
   0.51596922  0.17953017  0.38574001
   0.48403078  0.82046983  0.61425999
   0.98342553  0.17960684  0.11409549
   0.01657447  0.82039316  0.88590451
   0.92482784  0.22546944  0.64535965
   0.07517216  0.77453056  0.35464035
   0.57654678  0.22595850  0.85469515
   0.42345322  0.77404150  0.14530485
CIS                                     
           1
     6.336285    0.781597   -0.926658
    -0.842527    6.313432   -0.525755
     0.192627    1.014841   11.931994
   K    Sb   S 
   4   4   8
Direct configuration=    16
   0.51511483  0.73678494  0.88011384
   0.48488517  0.26321506  0.11988616
   0.98582662  0.73630006  0.62006404
   0.01417338  0.26369994  0.37993596
   0.03970096  0.79804873  0.12209338
   0.96029904  0.20195127  0.87790662
   0.45922562  0.79641284  0.37900384
   0.54077438  0.20358716  0.62099616
   0.51594146  0.17880320  0.38575597
   0.48405854  0.82119680  0.61424403
   0.98344464  0.17895514  0.11415064
   0.01655536  0.82104486  0.88584936
   0.92409053  0.22496165  0.64508106
   0.07590947  0.77503835  0.35491894
   0.57713317  0.22552239  0.85489258
   0.42286683  0.77447761  0.14510742
CIS                                     
           1
     6.343216    0.782926   -0.927948
    -0.841861    6.313611   -0.524532
     0.189999    1.016622   11.929240
   K    Sb   S 
   4   4   8
Direct configuration=    17
   0.51504154  0.73660110  0.88008771
   0.48495846  0.26339890  0.11991229
   0.98592759  0.73609827  0.62011633
   0.01407241  0.26390173  0.37988367
   0.03931602  0.79782142  0.12204438
   0.96068398  0.20217858  0.87795562
   0.45943006  0.79643836  0.37893599
   0.54056994  0.20356164  0.62106401
   0.51592972  0.17845453  0.38575942
   0.48407028  0.82154547  0.61424058
   0.98344157  0.17887292  0.11421493
   0.01655843  0.82112708  0.88578507
   0.92386006  0.22513520  0.64491656
   0.07613994  0.77486480  0.35508344
   0.57719806  0.22573565  0.85495156
   0.42280194  0.77426435  0.14504844
CIS                                     
           1
     6.346167    0.783492   -0.928497
    -0.841577    6.313687   -0.524011
     0.188880    1.017381   11.928067
   K    Sb   S 
   4   4   8
Direct configuration=    18
   0.51501037  0.73652282  0.88007659
   0.48498963  0.26347718  0.11992341
   0.98597056  0.73601233  0.62013861
   0.01402944  0.26398767  0.37986139
   0.03915229  0.79772465  0.12202352
   0.96084771  0.20227535  0.87797648
   0.45951701  0.79644922  0.37890709
   0.54048299  0.20355078  0.62109291
   0.51592474  0.17830606  0.38576090
   0.48407526  0.82169394  0.61423910
   0.98344027  0.17883790  0.11424231
   0.01655973  0.82116210  0.88575769
   0.92376200  0.22520914  0.64484648
   0.07623800  0.77479086  0.35515352
   0.57722566  0.22582645  0.85497667
   0.42277434  0.77417355  0.14502333
CIS                                     
           1
     6.352070    0.784624   -0.929595
    -0.841009    6.313839   -0.522969
     0.186643    1.018898   11.925722
   K    Sb   S 
   4   4   8
Direct configuration=    19
   0.51494805  0.73636626  0.88005435
   0.48505195  0.26363374  0.11994565
   0.98605647  0.73584045  0.62018319
   0.01394353  0.26415955  0.37981681
   0.03882499  0.79753112  0.12198181
   0.96117501  0.20246888  0.87801819
   0.45969080  0.79647096  0.37884929
   0.54030920  0.20352904  0.62115071
   0.51591481  0.17800911  0.38576389
   0.48408519  0.82199089  0.61423611
   0.98343769  0.17876785  0.11429709
   0.01656231  0.82123215  0.88570291
   0.92356595  0.22535704  0.64470630
   0.07643405  0.77464296  0.35529370
   0.57728083  0.22600803  0.85502689
   0.42271917  0.77399197  0.14497311
CIS                                     
           1
     6.349215    0.784076   -0.929064
    -0.841284    6.313765   -0.523473
     0.187725    1.018164   11.926856
   K    Sb   S 
   4   4   8
Direct configuration=    20
   0.51497815  0.73644196  0.88006510
   0.48502185  0.26355804  0.11993490
   0.98601495  0.73592357  0.62016162
   0.01398505  0.26407643  0.37983838
   0.03898311  0.79762468  0.12200198
   0.96101689  0.20237532  0.87799802
   0.45960685  0.79646044  0.37887725
   0.54039315  0.20353956  0.62112275
   0.51591960  0.17815270  0.38576243
   0.48408040  0.82184730  0.61423757
   0.98343893  0.17880173  0.11427059
   0.01656107  0.82119827  0.88572941
   0.92366069  0.22528549  0.64477411
   0.07633931  0.77471451  0.35522589
   0.57725418  0.22592024  0.85500260
   0.42274582  0.77407976  0.14499740
CIS                                     
           1
     6.350288    0.783811   -0.929974
    -0.841585    6.314176   -0.522924
     0.185458    1.018682   11.923560
   K    Sb   S 
   4   4   8
Direct configuration=    21
   0.51493330  0.73628385  0.88004284
   0.48506670  0.26371615  0.11995716
   0.98608314  0.73574964  0.62020582
   0.01391686  0.26425036  0.37979418
   0.03871960  0.79743636  0.12203812
   0.96128040  0.20256364  0.87796188
   0.45950284  0.79638632  0.37882564
   0.54049716  0.20361368  0.62117436
   0.51593247  0.17789383  0.38573758
   0.48406753  0.82210617  0.61426242
   0.98343394  0.17877636  0.11432079
   0.01656606  0.82122364  0.88567921
   0.92344518  0.22555651  0.64463875
   0.07655482  0.77444349  0.35536125
   0.57742286  0.22622023  0.85503876
   0.42257714  0.77377977  0.14496124
CIS                                     
           1
     6.351239    0.783576   -0.930781
    -0.841852    6.314541   -0.522438
     0.183448    1.019141   11.920637
   K    Sb   S 
   4   4   8
Direct configuration=    22
   0.51489352  0.73614364  0.88002310
   0.48510648  0.26385636  0.11997690
   0.98614360  0.73559540  0.62024504
   0.01385640  0.26440460  0.37975496
   0.03848597  0.79726934  0.12207018
   0.96151403  0.20273066  0.87792982
   0.45941060  0.79632059  0.37877986
   0.54058940  0.20367941  0.62122014
   0.51594387  0.17766428  0.38571555
   0.48405613  0.82233572  0.61428445
   0.98342953  0.17875386  0.11436532
   0.01657047  0.82124614  0.88563468
   0.92325407  0.22579685  0.64451865
   0.07674593  0.77420315  0.35548135
   0.57757243  0.22648625  0.85507084
   0.42242757  0.77351375  0.14492916
CIS                                     
           1
     6.349415    0.783302   -0.931451
    -0.842236    6.317090   -0.523079
     0.182004    1.018009   11.919063
   K    Sb   S 
   4   4   8
Direct configuration=    23
   0.51487369  0.73601516  0.88000199
   0.48512631  0.26398484  0.11999801
   0.98618675  0.73544643  0.62028534
   0.01381325  0.26455357  0.37971466
   0.03862743  0.79739004  0.12215404
   0.96137257  0.20260996  0.87784596
   0.45908611  0.79612045  0.37880474
   0.54091389  0.20387955  0.62119526
   0.51596264  0.17749139  0.38565926
   0.48403736  0.82250861  0.61434074
   0.98339677  0.17873192  0.11440182
   0.01660323  0.82126808  0.88559818
   0.92310894  0.22612237  0.64440745
   0.07689106  0.77387763  0.35559255
   0.57786306  0.22681234  0.85508865
   0.42213694  0.77318766  0.14491135
CIS                                     
           1
     6.347997    0.783089   -0.931971
    -0.842534    6.319070   -0.523577
     0.180881    1.017130   11.917840
   K    Sb   S 
   4   4   8
Direct configuration=    24
   0.51485829  0.73591540  0.87998558
   0.48514171  0.26408460  0.12001442
   0.98622029  0.73533075  0.62031665
   0.01377971  0.26466925  0.37968335
   0.03873736  0.79748378  0.12221920
   0.96126264  0.20251622  0.87778080
   0.45883397  0.79596504  0.37882405
   0.54116603  0.20403496  0.62117595
   0.51597721  0.17735712  0.38561553
   0.48402279  0.82264288  0.61438447
   0.98337132  0.17871488  0.11443017
   0.01662868  0.82128512  0.88556983
   0.92299614  0.22637512  0.64432104
   0.07700386  0.77362488  0.35567896
   0.57808889  0.22706556  0.85510251
   0.42191111  0.77293444  0.14489749
CIS                                     
           1
     6.347307    0.782985   -0.932225
    -0.842680    6.320035   -0.523819
     0.180335    1.016701   11.917244
   K    Sb   S 
   4   4   8
Direct configuration=    25
   0.51485078  0.73586679  0.87997759
   0.48514922  0.26413321  0.12002241
   0.98623664  0.73527440  0.62033191
   0.01376336  0.26472560  0.37966809
   0.03879095  0.79752945  0.12225097
   0.96120905  0.20247055  0.87774903
   0.45871106  0.79588932  0.37883345
   0.54128894  0.20411068  0.62116655
   0.51598431  0.17729171  0.38559421
   0.48401569  0.82270829  0.61440579
   0.98335892  0.17870658  0.11444399
   0.01664108  0.82129342  0.88555601
   0.92294115  0.22649826  0.64427893
   0.07705885  0.77350174  0.35572107
   0.57819898  0.22718892  0.85510928
   0.42180102  0.77281108  0.14489072
CIS                                     
           1
     6.347732    0.783049   -0.932068
    -0.842590    6.319440   -0.523670
     0.180672    1.016965   11.917611
   K    Sb   S 
   4   4   8
Direct configuration=    26
   0.51485541  0.73589674  0.87998252
   0.48514459  0.26410326  0.12001748
   0.98622656  0.73530912  0.62032250
   0.01377344  0.26469088  0.37967750
   0.03875792  0.79750131  0.12223139
   0.96124208  0.20249869  0.87776861
   0.45878681  0.79593598  0.37882766
   0.54121319  0.20406402  0.62117234
   0.51597993  0.17733202  0.38560735
   0.48402007  0.82266798  0.61439265
   0.98336656  0.17871169  0.11443548
   0.01663344  0.82128831  0.88556452
   0.92297505  0.22642238  0.64430489
   0.07702495  0.77357762  0.35569511
   0.57813112  0.22711290  0.85510511
   0.42186888  0.77288710  0.14489489
CIS                                     
           1
     6.349835    0.783077   -0.932859
    -0.842974    6.320487   -0.524135
     0.179620    1.016263   11.919526
   K    Sb   S 
   4   4   8
Direct configuration=    27
   0.51486843  0.73585628  0.87996923
   0.48513157  0.26414372  0.12003077
   0.98622883  0.73525555  0.62034812
   0.01377117  0.26474445  0.37965188
   0.03874661  0.79768670  0.12233684
   0.96125339  0.20231330  0.87766316
   0.45874241  0.79599087  0.37894567
   0.54125759  0.20400913  0.62105433
   0.51599693  0.17721970  0.38554345
   0.48400307  0.82278030  0.61445655
   0.98334087  0.17870073  0.11444583
   0.01665913  0.82129927  0.88555417
   0.92310244  0.22664416  0.64424048
   0.07689756  0.77335584  0.35575952
   0.57828375  0.22730055  0.85510770
   0.42171625  0.77269945  0.14489230
CIS                                     
           1
     6.351172    0.783094   -0.933361
    -0.843219    6.321153   -0.524431
     0.178952    1.015817   11.920743
   K    Sb   S 
   4   4   8
Direct configuration=    28
   0.51487671  0.73583057  0.87996078
   0.48512329  0.26416943  0.12003922
   0.98623028  0.73522151  0.62036440
   0.01376972  0.26477849  0.37963560
   0.03873944  0.79780452  0.12240385
   0.96126056  0.20219548  0.87759615
   0.45871421  0.79602576  0.37902067
   0.54128579  0.20397424  0.62097933
   0.51600771  0.17714832  0.38550283
   0.48399229  0.82285168  0.61449717
   0.98332454  0.17869376  0.11445241
   0.01667546  0.82130624  0.88554759
   0.92318339  0.22678509  0.64419955
   0.07681661  0.77321491  0.35580045
   0.57838073  0.22741981  0.85510936
   0.42161927  0.77258019  0.14489064
CIS                                     
           1
     6.353845    0.783129   -0.934365
    -0.843707    6.322484   -0.525023
     0.177615    1.014924   11.923178
   K    Sb   S 
   4   4   8
Direct configuration=    29
   0.51489325  0.73577915  0.87994389
   0.48510675  0.26422085  0.12005611
   0.98623317  0.73515343  0.62039695
   0.01376683  0.26484657  0.37960305
   0.03872513  0.79804016  0.12253788
   0.96127487  0.20195984  0.87746212
   0.45865783  0.79609554  0.37917066
   0.54134217  0.20390446  0.62082934
   0.51602927  0.17700557  0.38542161
   0.48397073  0.82299443  0.61457839
   0.98329189  0.17867983  0.11446557
   0.01670811  0.82132017  0.88553443
   0.92334524  0.22706694  0.64411772
   0.07665476  0.77293306  0.35588228
   0.57857467  0.22765829  0.85511269
   0.42142533  0.77234171  0.14488731
CIS                                     
           1
     6.359191    0.783198   -0.936375
    -0.844684    6.325146   -0.526207
     0.174941    1.013138   11.928047
   K    Sb   S 
   4   4   8
Direct configuration=    30
   0.51492631  0.73567632  0.87991010
   0.48507369  0.26432368  0.12008990
   0.98623896  0.73501731  0.62046203
   0.01376104  0.26498269  0.37953797
   0.03869660  0.79851136  0.12280591
   0.96130340  0.20148864  0.87719409
   0.45854521  0.79623511  0.37947058
   0.54145479  0.20376489  0.62052942
   0.51607231  0.17672010  0.38525918
   0.48392769  0.82327990  0.61474082
   0.98322663  0.17865198  0.11449188
   0.01677337  0.82134802  0.88550812
   0.92366881  0.22763048  0.64395413
   0.07633119  0.77236952  0.35604587
   0.57896240  0.22813517  0.85511938
   0.42103760  0.77186483  0.14488062
CIS                                     
           1
     6.360633    0.783019   -0.937548
    -0.844911    6.326254   -0.524967
     0.171709    1.014739   11.922299
   K    Sb   S 
   4   4   8
Direct configuration=    31
   0.51497218  0.73568713  0.87990728
   0.48502782  0.26431287  0.12009272
   0.98622275  0.73501050  0.62051149
   0.01377725  0.26498950  0.37948851
   0.03867456  0.79858190  0.12297497
   0.96132544  0.20141810  0.87702503
   0.45866840  0.79625520  0.37971599
   0.54133160  0.20374480  0.62028401
   0.51612207  0.17660760  0.38519841
   0.48387793  0.82339240  0.61480159
   0.98321699  0.17870123  0.11450440
   0.01678301  0.82129877  0.88549560
   0.92381862  0.22784299  0.64385003
   0.07618138  0.77215701  0.35614997
   0.57922234  0.22831823  0.85506745
   0.42077766  0.77168177  0.14493255
CIS                                     
           1
     6.361595    0.782899   -0.938330
    -0.845062    6.326994   -0.524140
     0.169553    1.015806   11.918465
   K    Sb   S 
   4   4   8
Direct configuration=    32
   0.51500276  0.73569435  0.87990540
   0.48499724  0.26430565  0.12009460
   0.98621196  0.73500595  0.62054449
   0.01378804  0.26499405  0.37945551
   0.03865991  0.79862890  0.12308777
   0.96134009  0.20137110  0.87691223
   0.45875061  0.79626854  0.37987975
   0.54124939  0.20373146  0.62012025
   0.51615524  0.17653259  0.38515787
   0.48384476  0.82346741  0.61484213
   0.98321056  0.17873407  0.11451276
   0.01678944  0.82126593  0.88548724
   0.92391849  0.22798473  0.64378056
   0.07608151  0.77201527  0.35621944
   0.57939566  0.22844032  0.85503280
   0.42060434  0.77155968  0.14496720
CIS                                     
           1
     6.361553    0.781872   -0.940159
    -0.845890    6.328007   -0.523042
     0.164521    1.016588   11.909355
   K    Sb   S 
   4   4   8
Direct configuration=    33
   0.51505492  0.73574113  0.87991702
   0.48494508  0.26425887  0.12008298
   0.98618844  0.73503808  0.62059261
   0.01381156  0.26496192  0.37940739
   0.03860359  0.79866024  0.12319181
   0.96139641  0.20133976  0.87680819
   0.45872573  0.79611589  0.37998673
   0.54127427  0.20388411  0.62001327
   0.51620026  0.17646971  0.38512359
   0.48379974  0.82353029  0.61487641
   0.98321300  0.17880424  0.11452977
   0.01678700  0.82119576  0.88547023
   0.92394891  0.22808062  0.64367950
   0.07605109  0.77191938  0.35632050
   0.57961376  0.22851895  0.85496102
   0.42038624  0.77148105  0.14503898
CIS                                     
           1
     6.361561    0.782072   -0.939803
    -0.845729    6.327810   -0.523256
     0.165501    1.016435   11.911128
   K    Sb   S 
   4   4   8
Direct configuration=    34
   0.51504476  0.73573203  0.87991476
   0.48495524  0.26426797  0.12008524
   0.98619301  0.73503183  0.62058324
   0.01380699  0.26496817  0.37941676
   0.03861454  0.79865415  0.12317154
   0.96138546  0.20134585  0.87682846
   0.45873056  0.79614561  0.37996589
   0.54126944  0.20385439  0.62003411
   0.51619150  0.17648194  0.38513027
   0.48380850  0.82351806  0.61486973
   0.98321253  0.17879058  0.11452646
   0.01678747  0.82120942  0.88547354
   0.92394300  0.22806195  0.64369919
   0.07605700  0.77193805  0.35630081
   0.57957132  0.22850364  0.85497500
   0.42042868  0.77149636  0.14502500
CIS                                     
           1
     6.360797    0.781488   -0.940624
    -0.846235    6.328580   -0.523250
     0.163964    1.016414   11.911884
   K    Sb   S 
   4   4   8
Direct configuration=    35
   0.51506967  0.73577423  0.87993114
   0.48493033  0.26422577  0.12006886
   0.98617730  0.73507275  0.62060049
   0.01382270  0.26492725  0.37939951
   0.03852825  0.79867793  0.12312035
   0.96147175  0.20132207  0.87687965
   0.45870039  0.79608932  0.37991502
   0.54129961  0.20391068  0.62008498
   0.51620326  0.17648012  0.38513287
   0.48379674  0.82351988  0.61486713
   0.98323010  0.17883145  0.11453585
   0.01676990  0.82116855  0.88546415
   0.92388077  0.22801871  0.64364788
   0.07611923  0.77198129  0.35635212
   0.57962096  0.22846127  0.85493862
   0.42037904  0.77153873  0.14506138
CIS                                     
           1
     6.358507    0.779736   -0.943088
    -0.847752    6.330890   -0.523233
     0.159355    1.016349   11.914152
   K    Sb   S 
   4   4   8
Direct configuration=    36
   0.51514443  0.73590082  0.87998030
   0.48485557  0.26409918  0.12001970
   0.98613020  0.73519549  0.62065225
   0.01386980  0.26480451  0.37934775
   0.03826934  0.79874925  0.12296675
   0.96173066  0.20125075  0.87703325
   0.45860981  0.79592047  0.37976240
   0.54139019  0.20407953  0.62023760
   0.51623854  0.17647467  0.38514070
   0.48376146  0.82352533  0.61485930
   0.98328284  0.17895406  0.11456401
   0.01671716  0.82104594  0.88543599
   0.92369402  0.22788899  0.64349393
   0.07630598  0.77211101  0.35650607
   0.57976988  0.22833420  0.85482949
   0.42023012  0.77166580  0.14517051