  26  26   1   0
  0.2498615E+02  0.6955289E-09  0.8895607E-09  0.1080986E-08  0.1000000E-15
  1.000000000000000E-004
  CAR 
 CIS                                     
      8.90415248    -10.92642141  301      4.01674229      1.00000000
    -10.926  0.0000E+00  0.0000E+00
    -10.860  0.0000E+00  0.0000E+00
    -10.794  0.0000E+00  0.0000E+00
    -10.728  0.0000E+00  0.0000E+00
    -10.662  0.0000E+00  0.0000E+00
    -10.596  0.0000E+00  0.0000E+00
    -10.530  0.0000E+00  0.0000E+00
    -10.464  0.0000E+00  0.0000E+00
    -10.398  0.0000E+00  0.0000E+00
    -10.332  0.0000E+00  0.0000E+00
    -10.265  0.2689E-12  0.1777E-13
    -10.199  0.2107E-07  0.1393E-08
    -10.133  0.5705E-04  0.3772E-05
    -10.067  0.6368E-02  0.4247E-03
    -10.001  0.4771E-01  0.3579E-02
     -9.935  0.4615E-01  0.6629E-02
     -9.869  0.6325E-01  0.1081E-01
     -9.803  0.1173E+00  0.1856E-01
     -9.737  0.9468E-01  0.2482E-01
     -9.670  0.1020E+00  0.3156E-01
     -9.604  0.7991E-01  0.3684E-01
     -9.538  0.4520E-01  0.3983E-01
     -9.472  0.9899E-02  0.4049E-01
     -9.406  0.3136E-01  0.4256E-01
     -9.340  0.6215E-01  0.4667E-01
     -9.274  0.7876E-01  0.5187E-01
     -9.208  0.1482E+00  0.6167E-01
     -9.142  0.1335E+00  0.7049E-01
     -9.076  0.9917E-01  0.7705E-01
     -9.009  0.5520E-01  0.8070E-01
     -8.943  0.1199E+00  0.8862E-01
     -8.877  0.1283E+00  0.9710E-01
     -8.811  0.1216E+00  0.1051E+00
     -8.745  0.1217E+00  0.1132E+00
     -8.679  0.3538E-01  0.1155E+00
     -8.613  0.6490E-01  0.1198E+00
     -8.547  0.1280E+00  0.1283E+00
     -8.481  0.7749E-01  0.1334E+00
     -8.415  0.2032E+00  0.1468E+00
     -8.348  0.2258E+00  0.1618E+00
     -8.282  0.1508E+00  0.1717E+00
     -8.216  0.2062E+00  0.1854E+00
     -8.150  0.4040E+00  0.2121E+00
     -8.084  0.4086E+00  0.2391E+00
     -8.018  0.3584E+00  0.2628E+00
     -7.952  0.2024E+00  0.2761E+00
     -7.886  0.8233E-01  0.2816E+00
     -7.820  0.1856E-01  0.2828E+00
     -7.754  0.2927E-03  0.2828E+00
     -7.687  0.1923E-06  0.2828E+00
     -7.621  0.4501E-11  0.2828E+00
     -7.555  0.0000E+00  0.2828E+00
     -7.489  0.0000E+00  0.2828E+00
     -7.423  0.0000E+00  0.2828E+00
     -7.357  0.0000E+00  0.2828E+00
     -7.291  0.0000E+00  0.2828E+00
     -7.225  0.0000E+00  0.2828E+00
     -7.159  0.0000E+00  0.2828E+00
     -7.093  0.0000E+00  0.2828E+00
     -7.026  0.0000E+00  0.2828E+00
     -6.960  0.0000E+00  0.2828E+00
     -6.894  0.0000E+00  0.2828E+00
     -6.828  0.0000E+00  0.2828E+00
     -6.762  0.0000E+00  0.2828E+00
     -6.696  0.0000E+00  0.2828E+00
     -6.630  0.0000E+00  0.2828E+00
     -6.564  0.0000E+00  0.2828E+00
     -6.498  0.0000E+00  0.2828E+00
     -6.431  0.0000E+00  0.2828E+00
     -6.365  0.0000E+00  0.2828E+00
     -6.299  0.0000E+00  0.2828E+00
     -6.233  0.0000E+00  0.2828E+00
     -6.167  0.0000E+00  0.2828E+00
     -6.101  0.0000E+00  0.2828E+00
     -6.035  0.0000E+00  0.2828E+00
     -5.969  0.0000E+00  0.2828E+00
     -5.903  0.0000E+00  0.2828E+00
     -5.837  0.0000E+00  0.2828E+00
     -5.770  0.0000E+00  0.2828E+00
     -5.704  0.0000E+00  0.2828E+00
     -5.638  0.2828E-17  0.2828E+00
     -5.572  0.4099E-11  0.2828E+00
     -5.506  0.1739E-06  0.2828E+00
     -5.440  0.2775E-03  0.2828E+00
     -5.374  0.2027E-01  0.2842E+00
     -5.308  0.9763E-01  0.2906E+00
     -5.242  0.6644E-01  0.2950E+00
     -5.176  0.6035E-01  0.2990E+00
     -5.109  0.1398E+00  0.3083E+00
     -5.043  0.1200E+00  0.3162E+00
     -4.977  0.1362E+00  0.3252E+00
     -4.911  0.7020E-01  0.3298E+00
     -4.845  0.7431E-01  0.3347E+00
     -4.779  0.1466E+00  0.3444E+00
     -4.713  0.8134E-01  0.3498E+00
     -4.647  0.1074E+00  0.3569E+00
     -4.581  0.1253E+00  0.3652E+00
     -4.515  0.9135E-01  0.3712E+00
     -4.448  0.1039E+00  0.3781E+00
     -4.382  0.3398E-01  0.3804E+00
     -4.316  0.1758E-01  0.3815E+00
     -4.250  0.9500E-01  0.3878E+00
     -4.184  0.1261E+00  0.3961E+00
     -4.118  0.2682E-01  0.3979E+00
     -4.052  0.4823E-01  0.4011E+00
     -3.986  0.4004E-01  0.4037E+00
     -3.920  0.1279E-01  0.4046E+00
     -3.854  0.5802E-01  0.4084E+00
     -3.787  0.5737E-01  0.4122E+00
     -3.721  0.9129E-01  0.4182E+00
     -3.655  0.7636E-01  0.4233E+00
     -3.589  0.3759E-01  0.4258E+00
     -3.523  0.5906E-01  0.4297E+00
     -3.457  0.5477E-01  0.4333E+00
     -3.391  0.4152E-01  0.4360E+00
     -3.325  0.3409E-01  0.4383E+00
     -3.259  0.4716E-01  0.4414E+00
     -3.192  0.3991E-01  0.4441E+00
     -3.126  0.5805E-02  0.4444E+00
     -3.060  0.5276E-04  0.4444E+00
     -2.994  0.1894E-07  0.4444E+00
     -2.928  0.2331E-12  0.4444E+00
     -2.862  0.0000E+00  0.4444E+00
     -2.796  0.0000E+00  0.4444E+00
     -2.730  0.0000E+00  0.4444E+00
     -2.664  0.0000E+00  0.4444E+00
     -2.598  0.0000E+00  0.4444E+00
     -2.531  0.0000E+00  0.4444E+00
     -2.465  0.0000E+00  0.4444E+00
     -2.399  0.0000E+00  0.4444E+00
     -2.333  0.0000E+00  0.4444E+00
     -2.267  0.0000E+00  0.4444E+00
     -2.201  0.0000E+00  0.4444E+00
     -2.135  0.0000E+00  0.4444E+00
     -2.069  0.0000E+00  0.4444E+00
     -2.003  0.0000E+00  0.4444E+00
     -1.937  0.0000E+00  0.4444E+00
     -1.870  0.0000E+00  0.4444E+00
     -1.804  0.0000E+00  0.4444E+00
     -1.738  0.0000E+00  0.4444E+00
     -1.672  0.0000E+00  0.4444E+00
     -1.606  0.0000E+00  0.4444E+00
     -1.540  0.1671E-12  0.4444E+00
     -1.474  0.1596E-07  0.4444E+00
     -1.408  0.5478E-04  0.4444E+00
     -1.342  0.8025E-02  0.4450E+00
     -1.276  0.8056E-01  0.4503E+00
     -1.209  0.1391E+00  0.4595E+00
     -1.143  0.7623E-01  0.4645E+00
     -1.077  0.8096E-01  0.4699E+00
     -1.011  0.1131E+00  0.4774E+00
     -0.945  0.8238E-01  0.4828E+00
     -0.879  0.1421E+00  0.4922E+00
     -0.813  0.1433E+00  0.5017E+00
     -0.747  0.1890E+00  0.5142E+00
     -0.681  0.1574E+00  0.5246E+00
     -0.615  0.1248E+00  0.5328E+00
     -0.548  0.4846E-01  0.5360E+00
     -0.482  0.1031E+00  0.5429E+00
     -0.416  0.1627E+00  0.5536E+00
     -0.350  0.1706E+00  0.5649E+00
     -0.284  0.1572E+00  0.5753E+00
     -0.218  0.6445E-01  0.5795E+00
     -0.152  0.5334E-01  0.5831E+00
     -0.086  0.1239E+00  0.5913E+00
     -0.020  0.1995E+00  0.6044E+00
      0.046  0.1644E+00  0.6153E+00
      0.113  0.7378E-01  0.6202E+00
      0.179  0.8936E-01  0.6261E+00
      0.245  0.1480E+00  0.6359E+00
      0.311  0.1800E+00  0.6478E+00
      0.377  0.2069E+00  0.6614E+00
      0.443  0.2414E+00  0.6774E+00
      0.509  0.2414E+00  0.6934E+00
      0.575  0.1331E+00  0.7022E+00
      0.641  0.1762E+00  0.7138E+00
      0.708  0.2298E+00  0.7290E+00
      0.774  0.1348E+00  0.7379E+00
      0.840  0.1635E+00  0.7487E+00
      0.906  0.2381E+00  0.7645E+00
      0.972  0.2597E+00  0.7816E+00
      1.038  0.2246E+00  0.7965E+00
      1.104  0.1953E+00  0.8094E+00
      1.170  0.1562E+00  0.8197E+00
      1.236  0.2539E+00  0.8365E+00
      1.302  0.2490E+00  0.8529E+00
      1.369  0.1850E+00  0.8652E+00
      1.435  0.2630E+00  0.8826E+00
      1.501  0.2354E+00  0.8981E+00
      1.567  0.1228E+00  0.9062E+00
      1.633  0.1414E+00  0.9156E+00
      1.699  0.1829E+00  0.9277E+00
      1.765  0.2095E+00  0.9415E+00
      1.831  0.2160E+00  0.9558E+00
      1.897  0.1151E+00  0.9634E+00
      1.963  0.1777E+00  0.9752E+00
      2.030  0.1672E+00  0.9862E+00
      2.096  0.1985E+00  0.9993E+00
      2.162  0.2582E+00  0.1016E+01
      2.228  0.2401E+00  0.1032E+01
      2.294  0.2476E+00  0.1049E+01
      2.360  0.2606E+00  0.1066E+01
      2.426  0.2930E+00  0.1085E+01
      2.492  0.2301E+00  0.1100E+01
      2.558  0.2691E+00  0.1118E+01
      2.624  0.2171E+00  0.1133E+01
      2.691  0.2440E+00  0.1149E+01
      2.757  0.2080E+00  0.1162E+01
      2.823  0.1347E+00  0.1171E+01
      2.889  0.1198E+00  0.1179E+01
      2.955  0.1085E+00  0.1186E+01
      3.021  0.1412E+00  0.1196E+01
      3.087  0.9179E-01  0.1202E+01
      3.153  0.1668E+00  0.1213E+01
      3.219  0.1618E+00  0.1224E+01
      3.285  0.1668E+00  0.1235E+01
      3.352  0.1934E+00  0.1247E+01
      3.418  0.1586E+00  0.1258E+01
      3.484  0.1370E+00  0.1267E+01
      3.550  0.1420E+00  0.1276E+01
      3.616  0.1158E+00  0.1284E+01
      3.682  0.7030E-01  0.1289E+01
      3.748  0.3040E-01  0.1291E+01
      3.814  0.3087E-01  0.1293E+01
      3.880  0.4123E-02  0.1293E+01
      3.947  0.2789E-04  0.1293E+01
      4.013  0.7207E-08  0.1293E+01
      4.079  0.6331E-13  0.1293E+01
      4.145  0.0000E+00  0.1293E+01
      4.211  0.0000E+00  0.1293E+01
      4.277  0.0000E+00  0.1293E+01
      4.343  0.0000E+00  0.1293E+01
      4.409  0.0000E+00  0.1293E+01
      4.475  0.0000E+00  0.1293E+01
      4.541  0.0000E+00  0.1293E+01
      4.608  0.0000E+00  0.1293E+01
      4.674  0.0000E+00  0.1293E+01
      4.740  0.0000E+00  0.1293E+01
      4.806  0.0000E+00  0.1293E+01
      4.872  0.0000E+00  0.1293E+01
      4.938  0.1148E-14  0.1293E+01
      5.004  0.3515E-09  0.1293E+01
      5.070  0.3594E-05  0.1293E+01
      5.136  0.1342E-02  0.1293E+01
      5.202  0.2355E-01  0.1295E+01
      5.269  0.5140E-01  0.1298E+01
      5.335  0.8373E-01  0.1304E+01
      5.401  0.7866E-01  0.1309E+01
      5.467  0.2122E-01  0.1310E+01
      5.533  0.3406E-01  0.1312E+01
      5.599  0.7840E-01  0.1318E+01
      5.665  0.1667E+00  0.1329E+01
      5.731  0.1149E+00  0.1336E+01
      5.797  0.1412E+00  0.1345E+01
      5.863  0.1551E+00  0.1356E+01
      5.930  0.1437E+00  0.1365E+01
      5.996  0.1785E+00  0.1377E+01
      6.062  0.2186E+00  0.1391E+01
      6.128  0.1433E+00  0.1401E+01
      6.194  0.1927E+00  0.1414E+01
      6.260  0.2343E+00  0.1429E+01
      6.326  0.1547E+00  0.1439E+01
      6.392  0.1903E+00  0.1452E+01
      6.458  0.1512E+00  0.1462E+01
      6.524  0.1156E+00  0.1470E+01
      6.591  0.1298E+00  0.1478E+01
      6.657  0.2016E+00  0.1492E+01
      6.723  0.1609E+00  0.1502E+01
      6.789  0.1849E+00  0.1514E+01
      6.855  0.1758E+00  0.1526E+01
      6.921  0.1568E+00  0.1536E+01
      6.987  0.1746E+00  0.1548E+01
      7.053  0.1860E+00  0.1560E+01
      7.119  0.1973E+00  0.1573E+01
      7.186  0.1500E+00  0.1583E+01
      7.252  0.2167E+00  0.1598E+01
      7.318  0.1503E+00  0.1607E+01
      7.384  0.1509E+00  0.1617E+01
      7.450  0.1220E+00  0.1625E+01
      7.516  0.1501E+00  0.1635E+01
      7.582  0.1596E+00  0.1646E+01
      7.648  0.6981E-01  0.1651E+01
      7.714  0.7383E-01  0.1655E+01
      7.780  0.7226E-01  0.1660E+01
      7.847  0.1521E+00  0.1670E+01
      7.913  0.1865E+00  0.1683E+01
      7.979  0.1464E+00  0.1692E+01
      8.045  0.6410E-01  0.1697E+01
      8.111  0.6510E-02  0.1697E+01
      8.177  0.5697E-04  0.1697E+01
      8.243  0.2106E-07  0.1697E+01
      8.309  0.2689E-12  0.1697E+01
      8.375  0.0000E+00  0.1697E+01
      8.441  0.0000E+00  0.1697E+01
      8.508  0.0000E+00  0.1697E+01
      8.574  0.0000E+00  0.1697E+01
      8.640  0.0000E+00  0.1697E+01
      8.706  0.0000E+00  0.1697E+01
      8.772  0.0000E+00  0.1697E+01
      8.838  0.0000E+00  0.1697E+01
      8.904  0.0000E+00  0.1697E+01
      8.90415248    -10.92642141  301      4.01674229      1.00000000
    -10.926  0.0000E+00  0.0000E+00  0.0000E+00
    -10.860  0.0000E+00  0.0000E+00  0.0000E+00
    -10.794  0.0000E+00  0.0000E+00  0.0000E+00
    -10.728  0.0000E+00  0.0000E+00  0.0000E+00
    -10.662  0.0000E+00  0.0000E+00  0.0000E+00
    -10.596  0.0000E+00  0.0000E+00  0.0000E+00
    -10.530  0.0000E+00  0.0000E+00  0.0000E+00
    -10.464  0.0000E+00  0.0000E+00  0.0000E+00
    -10.398  0.0000E+00  0.0000E+00  0.0000E+00
    -10.332  0.0000E+00  0.0000E+00  0.0000E+00
    -10.265  0.7752E-14  0.1255E-14  0.0000E+00
    -10.199  0.6074E-09  0.9838E-10  0.0000E+00
    -10.133  0.1644E-05  0.2676E-06  0.0000E+00
    -10.067  0.1832E-03  0.3079E-04  0.0000E+00
    -10.001  0.1364E-02  0.2585E-03  0.0000E+00
     -9.935  0.1291E-02  0.2998E-03  0.0000E+00
     -9.869  0.1423E-02  0.5524E-03  0.0000E+00
     -9.803  0.2200E-02  0.1035E-02  0.0000E+00
     -9.737  0.1297E-02  0.9982E-03  0.0000E+00
     -9.670  0.8960E-03  0.1198E-02  0.0000E+00
     -9.604  0.5904E-03  0.9578E-03  0.0000E+00
     -9.538  0.3292E-03  0.5681E-03  0.0000E+00
     -9.472  0.7234E-04  0.1459E-03  0.0000E+00
     -9.406  0.2607E-03  0.8205E-03  0.0000E+00
     -9.340  0.5169E-03  0.1617E-02  0.0000E+00
     -9.274  0.1436E-02  0.1210E-02  0.0000E+00
     -9.208  0.3229E-02  0.2324E-02  0.0000E+00
     -9.142  0.2789E-02  0.2842E-02  0.0000E+00
     -9.076  0.1868E-02  0.2513E-02  0.0000E+00
     -9.009  0.6231E-03  0.9758E-03  0.0000E+00
     -8.943  0.1106E-02  0.1313E-02  0.0000E+00
     -8.877  0.1199E-02  0.1295E-02  0.0000E+00
     -8.811  0.1117E-02  0.2062E-02  0.0000E+00
     -8.745  0.1631E-02  0.1895E-02  0.0000E+00
     -8.679  0.5741E-03  0.4272E-03  0.0000E+00
     -8.613  0.4885E-03  0.1110E-02  0.0000E+00
     -8.547  0.8227E-03  0.2315E-02  0.0000E+00
     -8.481  0.6414E-03  0.1408E-02  0.0000E+00
     -8.415  0.1042E-02  0.4693E-02  0.0000E+00
     -8.348  0.7945E-03  0.4785E-02  0.0000E+00
     -8.282  0.7073E-03  0.3375E-02  0.0000E+00
     -8.216  0.2201E-02  0.4296E-02  0.0000E+00
     -8.150  0.5910E-02  0.7824E-02  0.0000E+00
     -8.084  0.4149E-02  0.8486E-02  0.0000E+00
     -8.018  0.4978E-02  0.9910E-02  0.0000E+00
     -7.952  0.4019E-02  0.5959E-02  0.0000E+00
     -7.886  0.9765E-03  0.1687E-02  0.0000E+00
     -7.820  0.1670E-03  0.3383E-03  0.0000E+00
     -7.754  0.2527E-05  0.5357E-05  0.0000E+00
     -7.687  0.1609E-08  0.3548E-08  0.0000E+00
     -7.621  0.3660E-13  0.8365E-13  0.0000E+00
     -7.555  0.0000E+00  0.0000E+00  0.0000E+00
     -7.489  0.0000E+00  0.0000E+00  0.0000E+00
     -7.423  0.0000E+00  0.0000E+00  0.0000E+00
     -7.357  0.0000E+00  0.0000E+00  0.0000E+00
     -7.291  0.0000E+00  0.0000E+00  0.0000E+00
     -7.225  0.0000E+00  0.0000E+00  0.0000E+00
     -7.159  0.0000E+00  0.0000E+00  0.0000E+00
     -7.093  0.0000E+00  0.0000E+00  0.0000E+00
     -7.026  0.0000E+00  0.0000E+00  0.0000E+00
     -6.960  0.0000E+00  0.0000E+00  0.0000E+00
     -6.894  0.0000E+00  0.0000E+00  0.0000E+00
     -6.828  0.0000E+00  0.0000E+00  0.0000E+00
     -6.762  0.0000E+00  0.0000E+00  0.0000E+00
     -6.696  0.0000E+00  0.0000E+00  0.0000E+00
     -6.630  0.0000E+00  0.0000E+00  0.0000E+00
     -6.564  0.0000E+00  0.0000E+00  0.0000E+00
     -6.498  0.0000E+00  0.0000E+00  0.0000E+00
     -6.431  0.0000E+00  0.0000E+00  0.0000E+00
     -6.365  0.0000E+00  0.0000E+00  0.0000E+00
     -6.299  0.0000E+00  0.0000E+00  0.0000E+00
     -6.233  0.0000E+00  0.0000E+00  0.0000E+00
     -6.167  0.0000E+00  0.0000E+00  0.0000E+00
     -6.101  0.0000E+00  0.0000E+00  0.0000E+00
     -6.035  0.0000E+00  0.0000E+00  0.0000E+00
     -5.969  0.0000E+00  0.0000E+00  0.0000E+00
     -5.903  0.0000E+00  0.0000E+00  0.0000E+00
     -5.837  0.0000E+00  0.0000E+00  0.0000E+00
     -5.770  0.0000E+00  0.0000E+00  0.0000E+00
     -5.704  0.0000E+00  0.0000E+00  0.0000E+00
     -5.638  0.2132E-20  0.1567E-19  0.0000E+00
     -5.572  0.3501E-14  0.2258E-13  0.0000E+00
     -5.506  0.1707E-09  0.9564E-09  0.0000E+00
     -5.440  0.3571E-06  0.1530E-05  0.0000E+00
     -5.374  0.3862E-04  0.1134E-03  0.0000E+00
     -5.308  0.2667E-03  0.5688E-03  0.0000E+00
     -5.242  0.1522E-03  0.4648E-03  0.0000E+00
     -5.176  0.1393E-03  0.4815E-03  0.0000E+00
     -5.109  0.5762E-03  0.1080E-02  0.0000E+00
     -5.043  0.6760E-03  0.8371E-03  0.0000E+00
     -4.977  0.7644E-03  0.9686E-03  0.0000E+00
     -4.911  0.3401E-03  0.5878E-03  0.0000E+00
     -4.845  0.4267E-03  0.7886E-03  0.0000E+00
     -4.779  0.5312E-03  0.1578E-02  0.0000E+00
     -4.713  0.2756E-03  0.8283E-03  0.0000E+00
     -4.647  0.7975E-03  0.9435E-03  0.0000E+00
     -4.581  0.1146E-02  0.9543E-03  0.0000E+00
     -4.515  0.6058E-03  0.7854E-03  0.0000E+00
     -4.448  0.7882E-03  0.1054E-02  0.0000E+00
     -4.382  0.5265E-03  0.2974E-03  0.0000E+00
     -4.316  0.9128E-04  0.2196E-03  0.0000E+00
     -4.250  0.8537E-03  0.1247E-02  0.0000E+00
     -4.184  0.1445E-02  0.1712E-02  0.0000E+00
     -4.118  0.2163E-03  0.3634E-03  0.0000E+00
     -4.052  0.1370E-03  0.6283E-03  0.0000E+00
     -3.986  0.1329E-03  0.5755E-03  0.0000E+00
     -3.920  0.2700E-04  0.1721E-03  0.0000E+00
     -3.854  0.1388E-03  0.6738E-03  0.0000E+00
     -3.787  0.2398E-03  0.6749E-03  0.0000E+00
     -3.721  0.1074E-02  0.1266E-02  0.0000E+00
     -3.655  0.1114E-02  0.1115E-02  0.0000E+00
     -3.589  0.5095E-03  0.4423E-03  0.0000E+00
     -3.523  0.1593E-02  0.7498E-03  0.0000E+00
     -3.457  0.2444E-02  0.9385E-03  0.0000E+00
     -3.391  0.2089E-02  0.7206E-03  0.0000E+00
     -3.325  0.1995E-02  0.5787E-03  0.0000E+00
     -3.259  0.3753E-02  0.8413E-03  0.0000E+00
     -3.192  0.3281E-02  0.6648E-03  0.0000E+00
     -3.126  0.4805E-03  0.9430E-04  0.0000E+00
     -3.060  0.4370E-05  0.8552E-06  0.0000E+00
     -2.994  0.1569E-08  0.3070E-09  0.0000E+00
     -2.928  0.1931E-13  0.3779E-14  0.0000E+00
     -2.862  0.0000E+00  0.0000E+00  0.0000E+00
     -2.796  0.0000E+00  0.0000E+00  0.0000E+00
     -2.730  0.0000E+00  0.0000E+00  0.0000E+00
     -2.664  0.0000E+00  0.0000E+00  0.0000E+00
     -2.598  0.0000E+00  0.0000E+00  0.0000E+00
     -2.531  0.0000E+00  0.0000E+00  0.0000E+00
     -2.465  0.0000E+00  0.0000E+00  0.0000E+00
     -2.399  0.0000E+00  0.0000E+00  0.0000E+00
     -2.333  0.0000E+00  0.0000E+00  0.0000E+00
     -2.267  0.0000E+00  0.0000E+00  0.0000E+00
     -2.201  0.0000E+00  0.0000E+00  0.0000E+00
     -2.135  0.0000E+00  0.0000E+00  0.0000E+00
     -2.069  0.0000E+00  0.0000E+00  0.0000E+00
     -2.003  0.0000E+00  0.0000E+00  0.0000E+00
     -1.937  0.0000E+00  0.0000E+00  0.0000E+00
     -1.870  0.0000E+00  0.0000E+00  0.0000E+00
     -1.804  0.0000E+00  0.0000E+00  0.0000E+00
     -1.738  0.0000E+00  0.0000E+00  0.0000E+00
     -1.672  0.0000E+00  0.0000E+00  0.0000E+00
     -1.606  0.0000E+00  0.0000E+00  0.0000E+00
     -1.540  0.2884E-14  0.1236E-13  0.0000E+00
     -1.474  0.2827E-09  0.1182E-08  0.0000E+00
     -1.408  0.1011E-05  0.4073E-05  0.0000E+00
     -1.342  0.1539E-03  0.6028E-03  0.0000E+00
     -1.276  0.1511E-02  0.6278E-02  0.0000E+00
     -1.209  0.2414E-02  0.1182E-01  0.0000E+00
     -1.143  0.1345E-02  0.7717E-02  0.0000E+00
     -1.077  0.6067E-03  0.8464E-02  0.0000E+00
     -1.011  0.9002E-03  0.9760E-02  0.0000E+00
     -0.945  0.2063E-02  0.5822E-02  0.0000E+00
     -0.879  0.5737E-02  0.1022E-01  0.0000E+00
     -0.813  0.4827E-02  0.8245E-02  0.0000E+00
     -0.747  0.7561E-02  0.8191E-02  0.0000E+00
     -0.681  0.5752E-02  0.4683E-02  0.0000E+00
     -0.615  0.2649E-02  0.3654E-02  0.0000E+00
     -0.548  0.4425E-03  0.1838E-02  0.0000E+00
     -0.482  0.1041E-02  0.4860E-02  0.0000E+00
     -0.416  0.3415E-02  0.7249E-02  0.0000E+00
     -0.350  0.7717E-02  0.6348E-02  0.0000E+00
     -0.284  0.7810E-02  0.5351E-02  0.0000E+00
     -0.218  0.3769E-02  0.1978E-02  0.0000E+00
     -0.152  0.4557E-02  0.1506E-02  0.0000E+00
     -0.086  0.5004E-02  0.4242E-02  0.0000E+00
     -0.020  0.1041E-01  0.9040E-02  0.0000E+00
      0.046  0.1295E-01  0.8460E-02  0.0000E+00
      0.113  0.7027E-02  0.4569E-02  0.0000E+00
      0.179  0.9015E-02  0.6954E-02  0.0000E+00
      0.245  0.1397E-01  0.8570E-02  0.0000E+00
      0.311  0.1129E-01  0.1040E-01  0.0000E+00
      0.377  0.1364E-01  0.1501E-01  0.0000E+00
      0.443  0.2001E-01  0.1882E-01  0.0000E+00
      0.509  0.2014E-01  0.1754E-01  0.0000E+00
      0.575  0.8627E-02  0.8571E-02  0.0000E+00
      0.641  0.7173E-02  0.9415E-02  0.0000E+00
      0.708  0.8181E-02  0.1158E-01  0.0000E+00
      0.774  0.4415E-02  0.5768E-02  0.0000E+00
      0.840  0.7800E-02  0.1095E-01  0.0000E+00
      0.906  0.2119E-01  0.1836E-01  0.0000E+00
      0.972  0.1671E-01  0.2069E-01  0.0000E+00
      1.038  0.1081E-01  0.1785E-01  0.0000E+00
      1.104  0.1676E-01  0.1533E-01  0.0000E+00
      1.170  0.2059E-01  0.1336E-01  0.0000E+00
      1.236  0.4193E-01  0.2304E-01  0.0000E+00
      1.302  0.3210E-01  0.2255E-01  0.0000E+00
      1.369  0.1694E-01  0.1970E-01  0.0000E+00
      1.435  0.3378E-01  0.2996E-01  0.0000E+00
      1.501  0.3786E-01  0.3065E-01  0.0000E+00
      1.567  0.1745E-01  0.1521E-01  0.0000E+00
      1.633  0.2304E-01  0.1696E-01  0.0000E+00
      1.699  0.3282E-01  0.3103E-01  0.0000E+00
      1.765  0.3747E-01  0.3583E-01  0.0000E+00
      1.831  0.2371E-01  0.2974E-01  0.0000E+00
      1.897  0.1067E-01  0.1700E-01  0.0000E+00
      1.963  0.3075E-01  0.2531E-01  0.0000E+00
      2.030  0.2612E-01  0.2301E-01  0.0000E+00
      2.096  0.1540E-01  0.3355E-01  0.0000E+00
      2.162  0.1472E-01  0.5327E-01  0.0000E+00
      2.228  0.8337E-02  0.5214E-01  0.0000E+00
      2.294  0.6438E-02  0.4366E-01  0.0000E+00
      2.360  0.1116E-01  0.5256E-01  0.0000E+00
      2.426  0.1109E-01  0.7234E-01  0.0000E+00
      2.492  0.9236E-02  0.4905E-01  0.0000E+00
      2.558  0.1195E-01  0.6322E-01  0.0000E+00
      2.624  0.5111E-02  0.5892E-01  0.0000E+00
      2.691  0.1122E-01  0.5478E-01  0.0000E+00
      2.757  0.1485E-01  0.2916E-01  0.0000E+00
      2.823  0.5717E-02  0.1879E-01  0.0000E+00
      2.889  0.2804E-02  0.1448E-01  0.0000E+00
      2.955  0.2008E-02  0.1084E-01  0.0000E+00
      3.021  0.2235E-02  0.1550E-01  0.0000E+00
      3.087  0.2746E-02  0.9980E-02  0.0000E+00
      3.153  0.7456E-02  0.1914E-01  0.0000E+00
      3.219  0.5207E-02  0.1883E-01  0.0000E+00
      3.285  0.5000E-02  0.1959E-01  0.0000E+00
      3.352  0.3321E-02  0.2050E-01  0.0000E+00
      3.418  0.2282E-02  0.1327E-01  0.0000E+00
      3.484  0.1557E-02  0.9384E-02  0.0000E+00
      3.550  0.1603E-02  0.6710E-02  0.0000E+00
      3.616  0.1815E-02  0.5017E-02  0.0000E+00
      3.682  0.1353E-02  0.3365E-02  0.0000E+00
      3.748  0.4279E-03  0.1074E-02  0.0000E+00
      3.814  0.3335E-03  0.8494E-03  0.0000E+00
      3.880  0.4433E-04  0.1129E-03  0.0000E+00
      3.947  0.2999E-06  0.7639E-06  0.0000E+00
      4.013  0.7749E-10  0.1974E-09  0.0000E+00
      4.079  0.6808E-15  0.1734E-14  0.0000E+00
      4.145  0.0000E+00  0.0000E+00  0.0000E+00
      4.211  0.0000E+00  0.0000E+00  0.0000E+00
      4.277  0.0000E+00  0.0000E+00  0.0000E+00
      4.343  0.0000E+00  0.0000E+00  0.0000E+00
      4.409  0.0000E+00  0.0000E+00  0.0000E+00
      4.475  0.0000E+00  0.0000E+00  0.0000E+00
      4.541  0.0000E+00  0.0000E+00  0.0000E+00
      4.608  0.0000E+00  0.0000E+00  0.0000E+00
      4.674  0.0000E+00  0.0000E+00  0.0000E+00
      4.740  0.0000E+00  0.0000E+00  0.0000E+00
      4.806  0.0000E+00  0.0000E+00  0.0000E+00
      4.872  0.0000E+00  0.0000E+00  0.0000E+00
      4.938  0.3523E-16  0.8542E-16  0.0000E+00
      5.004  0.1079E-10  0.2616E-10  0.0000E+00
      5.070  0.1103E-06  0.2674E-06  0.0000E+00
      5.136  0.4116E-04  0.9989E-04  0.0000E+00
      5.202  0.7045E-03  0.1762E-02  0.0000E+00
      5.269  0.1077E-02  0.4407E-02  0.0000E+00
      5.335  0.1222E-02  0.9049E-02  0.0000E+00
      5.401  0.6253E-03  0.8804E-02  0.0000E+00
      5.467  0.1001E-03  0.2711E-02  0.0000E+00
      5.533  0.2102E-03  0.6040E-02  0.0000E+00
      5.599  0.3429E-02  0.1018E-01  0.0000E+00
      5.665  0.7410E-02  0.2279E-01  0.0000E+00
      5.731  0.3725E-02  0.1604E-01  0.0000E+00
      5.797  0.5160E-02  0.1787E-01  0.0000E+00
      5.863  0.9259E-02  0.1607E-01  0.0000E+00
      5.930  0.6658E-02  0.1443E-01  0.0000E+00
      5.996  0.8987E-02  0.2322E-01  0.0000E+00
      6.062  0.1368E-01  0.3033E-01  0.0000E+00
      6.128  0.8920E-02  0.1679E-01  0.0000E+00
      6.194  0.1620E-01  0.2994E-01  0.0000E+00
      6.260  0.1750E-01  0.3884E-01  0.0000E+00
      6.326  0.7960E-02  0.2309E-01  0.0000E+00
      6.392  0.1626E-01  0.1839E-01  0.0000E+00
      6.458  0.1366E-01  0.1474E-01  0.0000E+00
      6.524  0.8636E-02  0.1083E-01  0.0000E+00
      6.591  0.1555E-01  0.1482E-01  0.0000E+00
      6.657  0.2765E-01  0.2121E-01  0.0000E+00
      6.723  0.1623E-01  0.1897E-01  0.0000E+00
      6.789  0.1783E-01  0.2470E-01  0.0000E+00
      6.855  0.1666E-01  0.2296E-01  0.0000E+00
      6.921  0.1845E-01  0.2307E-01  0.0000E+00
      6.987  0.1298E-01  0.2055E-01  0.0000E+00
      7.053  0.1097E-01  0.1873E-01  0.0000E+00
      7.119  0.1313E-01  0.3087E-01  0.0000E+00
      7.186  0.1787E-01  0.2615E-01  0.0000E+00
      7.252  0.1644E-01  0.2744E-01  0.0000E+00
      7.318  0.9172E-02  0.1267E-01  0.0000E+00
      7.384  0.1762E-01  0.1952E-01  0.0000E+00
      7.450  0.1323E-01  0.1883E-01  0.0000E+00
      7.516  0.1826E-01  0.2209E-01  0.0000E+00
      7.582  0.1849E-01  0.2387E-01  0.0000E+00
      7.648  0.7282E-02  0.9523E-02  0.0000E+00
      7.714  0.3863E-02  0.8445E-02  0.0000E+00
      7.780  0.3339E-02  0.1979E-01  0.0000E+00
      7.847  0.1004E-01  0.2692E-01  0.0000E+00
      7.913  0.1142E-01  0.3144E-01  0.0000E+00
      7.979  0.1077E-01  0.2971E-01  0.0000E+00
      8.045  0.6236E-02  0.1120E-01  0.0000E+00
      8.111  0.6303E-03  0.1057E-02  0.0000E+00
      8.177  0.5381E-05  0.9264E-05  0.0000E+00
      8.243  0.1980E-08  0.3428E-08  0.0000E+00
      8.309  0.2527E-13  0.4378E-13  0.0000E+00
      8.375  0.0000E+00  0.0000E+00  0.0000E+00
      8.441  0.0000E+00  0.0000E+00  0.0000E+00
      8.508  0.0000E+00  0.0000E+00  0.0000E+00
      8.574  0.0000E+00  0.0000E+00  0.0000E+00
      8.640  0.0000E+00  0.0000E+00  0.0000E+00
      8.706  0.0000E+00  0.0000E+00  0.0000E+00
      8.772  0.0000E+00  0.0000E+00  0.0000E+00
      8.838  0.0000E+00  0.0000E+00  0.0000E+00
      8.904  0.0000E+00  0.0000E+00  0.0000E+00
      8.90415248    -10.92642141  301      4.01674229      1.00000000
    -10.926  0.0000E+00  0.0000E+00  0.0000E+00
    -10.860  0.0000E+00  0.0000E+00  0.0000E+00
    -10.794  0.0000E+00  0.0000E+00  0.0000E+00
    -10.728  0.0000E+00  0.0000E+00  0.0000E+00
    -10.662  0.0000E+00  0.0000E+00  0.0000E+00
    -10.596  0.0000E+00  0.0000E+00  0.0000E+00
    -10.530  0.0000E+00  0.0000E+00  0.0000E+00
    -10.464  0.0000E+00  0.0000E+00  0.0000E+00
    -10.398  0.0000E+00  0.0000E+00  0.0000E+00
    -10.332  0.0000E+00  0.0000E+00  0.0000E+00
    -10.265  0.5948E-14  0.2273E-14  0.0000E+00
    -10.199  0.4661E-09  0.1780E-09  0.0000E+00
    -10.133  0.1263E-05  0.4808E-06  0.0000E+00
    -10.067  0.1419E-03  0.5273E-04  0.0000E+00
    -10.001  0.1089E-02  0.3667E-03  0.0000E+00
     -9.935  0.1088E-02  0.3202E-03  0.0000E+00
     -9.869  0.1347E-02  0.6036E-03  0.0000E+00
     -9.803  0.2098E-02  0.1198E-02  0.0000E+00
     -9.737  0.1325E-02  0.8709E-03  0.0000E+00
     -9.670  0.1283E-02  0.8730E-03  0.0000E+00
     -9.604  0.9810E-03  0.7585E-03  0.0000E+00
     -9.538  0.3619E-03  0.2923E-03  0.0000E+00
     -9.472  0.7464E-04  0.7942E-04  0.0000E+00
     -9.406  0.5210E-03  0.8127E-03  0.0000E+00
     -9.340  0.1275E-02  0.1542E-02  0.0000E+00
     -9.274  0.1466E-02  0.2323E-02  0.0000E+00
     -9.208  0.3910E-02  0.3943E-02  0.0000E+00
     -9.142  0.3472E-02  0.2808E-02  0.0000E+00
     -9.076  0.1832E-02  0.1682E-02  0.0000E+00
     -9.009  0.1497E-02  0.1457E-02  0.0000E+00
     -8.943  0.3290E-02  0.3244E-02  0.0000E+00
     -8.877  0.3216E-02  0.3089E-02  0.0000E+00
     -8.811  0.2907E-02  0.2233E-02  0.0000E+00
     -8.745  0.2977E-02  0.2658E-02  0.0000E+00
     -8.679  0.4574E-03  0.6196E-03  0.0000E+00
     -8.613  0.7222E-03  0.9282E-03  0.0000E+00
     -8.547  0.1668E-02  0.2832E-02  0.0000E+00
     -8.481  0.4952E-03  0.1863E-02  0.0000E+00
     -8.415  0.8476E-03  0.4351E-02  0.0000E+00
     -8.348  0.1007E-02  0.5267E-02  0.0000E+00
     -8.282  0.1116E-02  0.3444E-02  0.0000E+00
     -8.216  0.3400E-02  0.6114E-02  0.0000E+00
     -8.150  0.6835E-02  0.1315E-01  0.0000E+00
     -8.084  0.6714E-02  0.1349E-01  0.0000E+00
     -8.018  0.4088E-02  0.1353E-01  0.0000E+00
     -7.952  0.2505E-02  0.7699E-02  0.0000E+00
     -7.886  0.1843E-02  0.2748E-02  0.0000E+00
     -7.820  0.4551E-03  0.6240E-03  0.0000E+00
     -7.754  0.7122E-05  0.9920E-05  0.0000E+00
     -7.687  0.4632E-08  0.6564E-08  0.0000E+00
     -7.621  0.1074E-12  0.1546E-12  0.0000E+00
     -7.555  0.0000E+00  0.0000E+00  0.0000E+00
     -7.489  0.0000E+00  0.0000E+00  0.0000E+00
     -7.423  0.0000E+00  0.0000E+00  0.0000E+00
     -7.357  0.0000E+00  0.0000E+00  0.0000E+00
     -7.291  0.0000E+00  0.0000E+00  0.0000E+00
     -7.225  0.0000E+00  0.0000E+00  0.0000E+00
     -7.159  0.0000E+00  0.0000E+00  0.0000E+00
     -7.093  0.0000E+00  0.0000E+00  0.0000E+00
     -7.026  0.0000E+00  0.0000E+00  0.0000E+00
     -6.960  0.0000E+00  0.0000E+00  0.0000E+00
     -6.894  0.0000E+00  0.0000E+00  0.0000E+00
     -6.828  0.0000E+00  0.0000E+00  0.0000E+00
     -6.762  0.0000E+00  0.0000E+00  0.0000E+00
     -6.696  0.0000E+00  0.0000E+00  0.0000E+00
     -6.630  0.0000E+00  0.0000E+00  0.0000E+00
     -6.564  0.0000E+00  0.0000E+00  0.0000E+00
     -6.498  0.0000E+00  0.0000E+00  0.0000E+00
     -6.431  0.0000E+00  0.0000E+00  0.0000E+00
     -6.365  0.0000E+00  0.0000E+00  0.0000E+00
     -6.299  0.0000E+00  0.0000E+00  0.0000E+00
     -6.233  0.0000E+00  0.0000E+00  0.0000E+00
     -6.167  0.0000E+00  0.0000E+00  0.0000E+00
     -6.101  0.0000E+00  0.0000E+00  0.0000E+00
     -6.035  0.0000E+00  0.0000E+00  0.0000E+00
     -5.969  0.0000E+00  0.0000E+00  0.0000E+00
     -5.903  0.0000E+00  0.0000E+00  0.0000E+00
     -5.837  0.0000E+00  0.0000E+00  0.0000E+00
     -5.770  0.0000E+00  0.0000E+00  0.0000E+00
     -5.704  0.0000E+00  0.0000E+00  0.0000E+00
     -5.638  0.6398E-20  0.1919E-19  0.0000E+00
     -5.572  0.9571E-14  0.2702E-13  0.0000E+00
     -5.506  0.4118E-09  0.1128E-08  0.0000E+00
     -5.440  0.6602E-06  0.1777E-05  0.0000E+00
     -5.374  0.4681E-04  0.1310E-03  0.0000E+00
     -5.308  0.2198E-03  0.6616E-03  0.0000E+00
     -5.242  0.2533E-03  0.4984E-03  0.0000E+00
     -5.176  0.2342E-03  0.4070E-03  0.0000E+00
     -5.109  0.4616E-03  0.7597E-03  0.0000E+00
     -5.043  0.3948E-03  0.5166E-03  0.0000E+00