       N       E                     dE             d eps       ncg     rms          rms(c)
DAV:   1     0.559194653944E+03    0.55919E+03   -0.35926E+04  1008   0.811E+02
DAV:   2    -0.534066077912E+02   -0.61260E+03   -0.59340E+03  1274   0.181E+02
DAV:   3    -0.116083390969E+03   -0.62677E+02   -0.61892E+02  1246   0.630E+01
DAV:   4    -0.117754187249E+03   -0.16708E+01   -0.16597E+01  1274   0.116E+01
DAV:   5    -0.117803449239E+03   -0.49262E-01   -0.49220E-01  1302   0.200E+00    0.210E+01
DAV:   6    -0.111398692685E+03    0.64048E+01   -0.13581E+01  1162   0.972E+00    0.160E+01
DAV:   7    -0.111449803636E+03   -0.51111E-01   -0.44568E+00  1246   0.504E+00    0.691E+00
DAV:   8    -0.111420435838E+03    0.29368E-01   -0.39836E-01  1260   0.185E+00    0.261E+00
DAV:   9    -0.111427196728E+03   -0.67609E-02   -0.96076E-02  1260   0.982E-01    0.612E-01
DAV:  10    -0.111427642010E+03   -0.44528E-03   -0.77687E-03  1274   0.274E-01    0.310E-01
DAV:  11    -0.111428993119E+03   -0.13511E-02   -0.19131E-03  1204   0.138E-01    0.128E-01
DAV:  12    -0.111429280661E+03   -0.28754E-03   -0.27392E-04  1008   0.523E-02    0.571E-02
DAV:  13    -0.111429519712E+03   -0.23905E-03   -0.29784E-04  1078   0.516E-02    0.267E-02
DAV:  14    -0.111429525380E+03   -0.56683E-05   -0.14769E-05   756   0.139E-02
   1 F= -.11142953E+03 E0= -.11142953E+03  d E =-.111430E+03
       N       E                     dE             d eps       ncg     rms          rms(c)
DAV:   1    -0.111429533560E+03   -0.13848E-04   -0.55551E-04  1092   0.645E-02    0.210E-02
DAV:   2    -0.111429528470E+03    0.50901E-05   -0.37538E-05   756   0.189E-02
   2 F= -.11142953E+03 E0= -.11142953E+03  d E =-.308982E-05
       N       E                     dE             d eps       ncg     rms          rms(c)
DAV:   1    -0.111429539530E+03   -0.59695E-05   -0.44687E-05   756   0.193E-02    0.745E-03
DAV:   2    -0.111429539400E+03    0.12925E-06   -0.48330E-06   756   0.734E-03
   3 F= -.11142954E+03 E0= -.11142954E+03  d E =-.140202E-04
       N       E                     dE             d eps       ncg     rms          rms(c)
DAV:   1    -0.111429550641E+03   -0.11112E-04   -0.25990E-05   756   0.145E-02    0.432E-03
DAV:   2    -0.111429550636E+03    0.58371E-08   -0.36318E-06   756   0.610E-03
   4 F= -.11142955E+03 E0= -.11142955E+03  d E =-.252554E-04
       N       E                     dE             d eps       ncg     rms          rms(c)
DAV:   1    -0.111429564142E+03   -0.13500E-04   -0.45401E-05   756   0.191E-02    0.498E-03
DAV:   2    -0.111429564271E+03   -0.12956E-06   -0.64025E-06   756   0.806E-03
   5 F= -.11142956E+03 E0= -.11142956E+03  d E =-.388911E-04
       N       E                     dE             d eps       ncg     rms          rms(c)
DAV:   1    -0.111429593180E+03   -0.29038E-04   -0.19834E-04   756   0.395E-02    0.877E-03
DAV:   2    -0.111429594052E+03   -0.87233E-06   -0.27652E-05   756   0.168E-02
   6 F= -.11142959E+03 E0= -.11142959E+03  d E =-.297808E-04
       N       E                     dE             d eps       ncg     rms          rms(c)
DAV:   1    -0.111429601541E+03   -0.83610E-05   -0.91803E-05   756   0.264E-02    0.725E-03
DAV:   2    -0.111429601795E+03   -0.25448E-06   -0.17211E-05   714   0.131E-02
   7 F= -.11142960E+03 E0= -.11142960E+03  d E =-.375239E-04
       N       E                     dE             d eps       ncg     rms          rms(c)
DAV:   1    -0.111429608080E+03   -0.65397E-05   -0.19926E-04   840   0.382E-02    0.857E-03
DAV:   2    -0.111429608941E+03   -0.86089E-06   -0.27015E-05   672   0.163E-02
   8 F= -.11142961E+03 E0= -.11142961E+03  d E =-.714616E-05
       N       E                     dE             d eps       ncg     rms          rms(c)
DAV:   1    -0.111429611888E+03   -0.38071E-05   -0.16349E-05   672   0.127E-02    0.413E-03
DAV:   2    -0.111429611614E+03    0.27357E-06   -0.24385E-06   672   0.487E-03
   9 F= -.11142961E+03 E0= -.11142961E+03  d E =-.981885E-05
       N       E                     dE             d eps       ncg     rms          rms(c)
DAV:   1    -0.111429634185E+03   -0.22297E-04   -0.69873E-05   672   0.238E-02    0.492E-03
DAV:   2    -0.111429634683E+03   -0.49828E-06   -0.11814E-05   672   0.107E-02
  10 F= -.11142963E+03 E0= -.11142963E+03  d E =-.230692E-04
       N       E                     dE             d eps       ncg     rms          rms(c)
DAV:   1    -0.111429634770E+03   -0.58486E-06   -0.24117E-06   672   0.512E-03    0.256E-03
DAV:   2    -0.111429634685E+03    0.84558E-07   -0.55829E-07   630   0.245E-03
  11 F= -.11142963E+03 E0= -.11142963E+03  d E =-.230712E-04
       N       E                     dE             d eps       ncg     rms          rms(c)
DAV:   1    -0.111429657761E+03   -0.22992E-04   -0.63620E-05   630   0.224E-02    0.515E-03
DAV:   2    -0.111429658288E+03   -0.52619E-06   -0.10873E-05   546   0.102E-02
  12 F= -.11142966E+03 E0= -.11142966E+03  d E =-.236024E-04
       N       E                     dE             d eps       ncg     rms          rms(c)
DAV:   1    -0.111429658228E+03   -0.46615E-06   -0.29551E-06   546   0.536E-03    0.208E-03
DAV:   2    -0.111429658187E+03    0.40601E-07   -0.74690E-07   546   0.273E-03
  13 F= -.11142966E+03 E0= -.11142966E+03  d E =-.235017E-04
       N       E                     dE             d eps       ncg     rms          rms(c)
DAV:   1    -0.111429683371E+03   -0.25143E-04   -0.58984E-05   546   0.215E-02    0.576E-03
DAV:   2    -0.111429683714E+03   -0.34288E-06   -0.10248E-05   546   0.101E-02
  14 F= -.11142968E+03 E0= -.11142968E+03  d E =-.255269E-04
       N       E                     dE             d eps       ncg     rms          rms(c)
DAV:   1    -0.111429682621E+03    0.75000E-06   -0.31739E-05   546   0.157E-02    0.412E-03
DAV:   2    -0.111429682793E+03   -0.17231E-06   -0.65346E-06   546   0.803E-03
  15 F= -.11142968E+03 E0= -.11142968E+03  d E =-.246063E-04
       N       E                     dE             d eps       ncg     rms          rms(c)
DAV:   1    -0.111429684861E+03   -0.22403E-05   -0.41030E-06   546   0.636E-03    0.248E-03
DAV:   2    -0.111429684694E+03    0.16695E-06   -0.56954E-07   546   0.241E-03
  16 F= -.11142968E+03 E0= -.11142968E+03  d E =-.265073E-04
       N       E                     dE             d eps       ncg     rms          rms(c)
DAV:   1    -0.111429700466E+03   -0.15605E-04   -0.39347E-05   546   0.175E-02    0.404E-03
DAV:   2    -0.111429700917E+03   -0.45061E-06   -0.70070E-06   546   0.814E-03
  17 F= -.11142970E+03 E0= -.11142970E+03  d E =-.162223E-04
