 vasp.5.4.4.18Apr17-6-g9f103f2a35 (build Oct 27 2022 13:04:57) complex          
  
 executed on             LinuxIFC date 2024.07.04  08:45:30
 running on   14 total cores
 distrk:  each k-point on   14 cores,    1 groups
 distr:  one band on NCORES_PER_BAND=   1 cores,   14 groups


--------------------------------------------------------------------------------------------------------


 INCAR:
 POTCAR:    PAW_PBE Li 17Jan2003                  
 POTCAR:    PAW_PBE Sb 06Sep2000                  
 POTCAR:    PAW_PBE S 06Sep2000                   

 ----------------------------------------------------------------------------- 
|                                                                             |
|           W    W    AA    RRRRR   N    N  II  N    N   GGGG   !!!           |
|           W    W   A  A   R    R  NN   N  II  NN   N  G    G  !!!           |
|           W    W  A    A  R    R  N N  N  II  N N  N  G       !!!           |
|           W WW W  AAAAAA  RRRRR   N  N N  II  N  N N  G  GGG   !            |
|           WW  WW  A    A  R   R   N   NN  II  N   NN  G    G                |
|           W    W  A    A  R    R  N    N  II  N    N   GGGG   !!!           |
|                                                                             |
|      For optimal performance we recommend to set                            |
|        NCORE= 4 - approx SQRT( number of cores)                             |
|      NCORE specifies how many cores store one orbital (NPAR=cpu/NCORE).     |
|      This setting can  greatly improve the performance of VASP for DFT.     |
|      The default,   NCORE=1            might be grossly inefficient         |
|      on modern multi-core architectures or massively parallel machines.     |
|      Do your own testing !!!!                                               |
|      Unfortunately you need to use the default for GW and RPA calculations. |
|      (for HF NCORE is supported but not extensively tested yet)             |
|                                                                             |
 ----------------------------------------------------------------------------- 

 POTCAR:    PAW_PBE Li 17Jan2003                  
   VRHFIN =Li: s1p0                                                             
   LEXCH  = PE                                                                  
   EATOM  =     5.3001 eV,    0.3895 Ry                                         
                                                                                
   TITEL  = PAW_PBE Li 17Jan2003                                                
   LULTRA =        F    use ultrasoft PP ?                                      
   IUNSCR =        1    unscreen: 0-lin 1-nonlin 2-no                           
   RPACOR =    1.500    partial core radius                                     
   POMASS =    7.010; ZVAL   =    1.000    mass and valenz                      
   RCORE  =    2.050    outmost cutoff radius                                   
   RWIGS  =    2.600; RWIGS  =    1.376    wigner-seitz radius (au A)           
   ENMAX  =  140.000; ENMIN  =  100.000 eV                                      
   ICORE  =        2    local potential                                         
   LCOR   =        T    correct aug charges                                     
   LPAW   =        T    paw PP                                                  
   EAUG   =  331.638                                                            
   DEXC   =    0.000                                                            
   RMAX   =    2.098    core radius for proj-oper                               
   RAUG   =    1.300    factor for augmentation sphere                          
   RDEP   =    2.094    radius for radial grids                                 
   RDEPT  =    1.810    core radius for aug-charge                              
                                                                                
   Atomic configuration                                                         
    4 entries                                                                   
     n  l   j            E        occ.                                          
     1  0  0.50       -51.8549   2.0000                                         
     2  0  0.50        -2.8742   1.0000                                         
     2  1  0.50        -1.3606   0.0000                                         
     3  2  1.50        -1.3606   0.0000                                         
   Description                                                                  
     l       E           TYP  RCUT    TYP  RCUT                                 
     0     -2.8742052     23  2.050                                             
     0     27.2116520     23  2.050                                             
     1     -1.3605826     23  2.050                                             
     2     -1.3605826     23  2.050                                             
  local pseudopotential read in
  partial core-charges read in
  partial kinetic energy density read in
  atomic valenz-charges read in
  non local Contribution for L=           0  read in
    real space projection operators read in
  non local Contribution for L=           0  read in
    real space projection operators read in
  non local Contribution for L=           1  read in
    real space projection operators read in
    PAW grid and wavefunctions read in
 
   number of l-projection  operators is LMAX  =           3
   number of lm-projection operators is LMMAX =           5
 
 POTCAR:    PAW_PBE Sb 06Sep2000                  
   VRHFIN =Sb: s2p3                                                             
   LEXCH  = PE                                                                  
   EATOM  =   149.9515 eV,   11.0211 Ry                                         
                                                                                
   TITEL  = PAW_PBE Sb 06Sep2000                                                
   LULTRA =        F    use ultrasoft PP ?                                      
   IUNSCR =        1    unscreen: 0-lin 1-nonlin 2-no                           
   RPACOR =    2.200    partial core radius                                     
   POMASS =  121.750; ZVAL   =    5.000    mass and valenz                      
   RCORE  =    2.300    outmost cutoff radius                                   
   RWIGS  =    2.980; RWIGS  =    1.577    wigner-seitz radius (au A)           
   ENMAX  =  172.069; ENMIN  =  129.052 eV                                      
   ICORE  =        3    local potential                                         
   LCOR   =        T    correct aug charges                                     
   LPAW   =        T    paw PP                                                  
   EAUG   =  380.513                                                            
   DEXC   =    0.000                                                            
   RMAX   =    2.346    core radius for proj-oper                               
   RAUG   =    1.300    factor for augmentation sphere                          
   RDEP   =    2.360    radius for radial grids                                 
   RDEPT  =    2.192    core radius for aug-charge                              
                                                                                
   Atomic configuration                                                         
   13 entries                                                                   
     n  l   j            E        occ.                                          
     1  0  0.50    -30298.2797   2.0000                                         
     2  0  0.50     -4610.2252   2.0000                                         
     2  1  1.50     -4138.3407   6.0000                                         
     3  0  0.50      -903.8815   2.0000                                         
     3  1  1.50      -750.1337   6.0000                                         
     3  2  2.50      -515.7092  10.0000                                         
     4  0  0.50      -148.8034   2.0000                                         
     4  1  1.50      -101.7581   6.0000                                         
     4  2  2.50       -33.5048  10.0000                                         
     5  0  0.50       -12.8298   2.0000                                         
     5  1  0.50        -4.8276   3.0000                                         
     5  2  1.50        -4.0817   0.0000                                         
     4  3  2.50        -4.0817   0.0000                                         
   Description                                                                  
     l       E           TYP  RCUT    TYP  RCUT                                 
     0    -12.8297861     23  2.300                                             
     0     13.6058260     23  2.300                                             
     1     -4.8275512     23  2.300                                             
     1     -0.7245443     23  2.300                                             
     2     -4.0817478     23  2.300                                             
     3     -1.3605826     23  2.300                                             
  local pseudopotential read in
  partial core-charges read in
  partial kinetic energy density read in
  atomic valenz-charges read in
  non local Contribution for L=           0  read in
    real space projection operators read in
  non local Contribution for L=           0  read in
    real space projection operators read in
  non local Contribution for L=           1  read in
    real space projection operators read in
  non local Contribution for L=           1  read in
    real space projection operators read in
  non local Contribution for L=           2  read in
    real space projection operators read in
    PAW grid and wavefunctions read in
 
   number of l-projection  operators is LMAX  =           5
   number of lm-projection operators is LMMAX =          13
 
 POTCAR:    PAW_PBE S 06Sep2000                   
   VRHFIN =S : s2p4                                                             
   LEXCH  = PE                                                                  
   EATOM  =   276.8230 eV,   20.3459 Ry                                         
                                                                                
   TITEL  = PAW_PBE S 06Sep2000                                                 
   LULTRA =        F    use ultrasoft PP ?                                      
   IUNSCR =        1    unscreen: 0-lin 1-nonlin 2-no                           
   RPACOR =    1.500    partial core radius                                     
   POMASS =   32.066; ZVAL   =    6.000    mass and valenz                      
   RCORE  =    1.900    outmost cutoff radius                                   
   RWIGS  =    2.200; RWIGS  =    1.164    wigner-seitz radius (au A)           
   ENMAX  =  258.689; ENMIN  =  194.016 eV                                      
   ICORE  =        2    local potential                                         
   LCOR   =        T    correct aug charges                                     
   LPAW   =        T    paw PP                                                  
   EAUG   =  335.092                                                            
   DEXC   =    0.000                                                            
   RMAX   =    1.942    core radius for proj-oper                               
   RAUG   =    1.300    factor for augmentation sphere                          
   RDEP   =    1.954    radius for radial grids                                 
   RDEPT  =    1.744    core radius for aug-charge                              
                                                                                
   Atomic configuration                                                         
    6 entries                                                                   
     n  l   j            E        occ.                                          
     1  0  0.50     -2405.8406   2.0000                                         
     2  0  0.50      -211.7007   2.0000                                         
     2  1  1.50      -156.4958   6.0000                                         
     3  0  0.50       -17.2562   2.0000                                         
     3  1  0.50        -7.0085   4.0000                                         
     3  2  1.50        -6.8029   0.0000                                         
   Description                                                                  
     l       E           TYP  RCUT    TYP  RCUT                                 
     0    -17.2561641     23  1.900                                             
     0    -15.8743224     23  1.900                                             
     1     -7.0085400     23  1.900                                             
     1     -2.7779785     23  1.900                                             
     2     -6.8029130     23  1.900                                             
  local pseudopotential read in
  partial core-charges read in
  partial kinetic energy density read in
  atomic valenz-charges read in
  non local Contribution for L=           0  read in
    real space projection operators read in
  non local Contribution for L=           0  read in
    real space projection operators read in
  non local Contribution for L=           1  read in
    real space projection operators read in
  non local Contribution for L=           1  read in
    real space projection operators read in
    PAW grid and wavefunctions read in
 
   number of l-projection  operators is LMAX  =           4
   number of lm-projection operators is LMMAX =           8
 
 Optimization of the real space projectors (new method)

 maximal supplied QI-value         = 18.33
 optimisation between [QCUT,QGAM] = [  8.80, 17.60] = [ 21.68, 86.71] Ry 
 Optimized for a Real-space Cutoff    1.15 Angstroem

   l    n(q)    QCUT    max X(q) W(low)/X(q) W(high)/X(q)  e(spline) 
   0      6     8.799    33.825    0.11E-02    0.11E-02    0.82E-07
   0      6     8.799     8.944    0.75E-03    0.85E-03    0.59E-07
   1      5     8.799     4.214    0.92E-03    0.27E-03    0.41E-07
 Optimization of the real space projectors (new method)

 maximal supplied QI-value         = 16.25
 optimisation between [QCUT,QGAM] = [  8.78, 17.71] = [ 21.57, 87.87] Ry 
 Optimized for a Real-space Cutoff    1.26 Angstroem

   l    n(q)    QCUT    max X(q) W(low)/X(q) W(high)/X(q)  e(spline) 
   0      7     8.776    19.000    0.12E-02    0.42E-03    0.95E-07
   0      7     8.776     9.057    0.14E-02    0.54E-03    0.11E-06
   1      6     8.776   125.345    0.45E-03    0.22E-02    0.77E-07
   1      6     8.776    79.963    0.45E-03    0.21E-02    0.76E-07
   2      6     8.776     6.963    0.11E-02    0.51E-03    0.39E-07
 Optimization of the real space projectors (new method)

 maximal supplied QI-value         = 19.84
 optimisation between [QCUT,QGAM] = [  8.73, 17.66] = [ 21.34, 87.33] Ry 
 Optimized for a Real-space Cutoff    1.22 Angstroem

   l    n(q)    QCUT    max X(q) W(low)/X(q) W(high)/X(q)  e(spline) 
   0      6     8.731   187.594    0.15E-02    0.56E-03    0.90E-07
   0      6     8.731   164.243    0.15E-02    0.56E-03    0.89E-07
   1      6     8.731    67.533    0.37E-03    0.20E-02    0.11E-06
   1      6     8.731    50.729    0.36E-03    0.19E-02    0.10E-06
  PAW_PBE Li 17Jan2003                  :
 energy of atom  1       EATOM=   -5.3001
 kinetic energy error for atom=    0.0000 (will be added to EATOM!!)
  PAW_PBE Sb 06Sep2000                  :
 energy of atom  2       EATOM= -149.9515
 kinetic energy error for atom=    0.0018 (will be added to EATOM!!)
  PAW_PBE S 06Sep2000                   :
 energy of atom  3       EATOM= -276.8230
 kinetic energy error for atom=    0.0077 (will be added to EATOM!!)
 
 
 POSCAR: Li4 Sb8 S14                             
  positions in direct lattice
  velocities in cartesian coordinates
 exchange correlation table for  LEXCH =        8
   RHO(1)=    0.500       N(1)  =     2000
   RHO(2)=  100.500       N(2)  =     4000
 


--------------------------------------------------------------------------------------------------------


 ion  position               nearest neighbor table
   1  0.357  0.332  0.124-  25 2.53  19 2.56  14 2.78  18 2.88  22 2.91
   2  0.370  0.835  0.640-  16 2.50  21 2.52  23 2.56  24 3.01   9 3.47
   3  0.630  0.165  0.360-  24 2.50  19 2.52  22 2.56  16 3.01   7 3.47
   4  0.643  0.668  0.876-  15 2.53  21 2.56  18 2.78  14 2.88  23 2.91
   5  0.029  0.947  0.335-  24 2.47  17 2.54  13 2.77  16 2.78  19 3.28  10 3.64
   6  0.123  0.463  0.809-  15 2.52  20 2.52  23 2.59  26 2.89  18 3.15   8 3.74
   7  0.763  0.123  0.045-  19 2.48  22 2.59  14 2.69  13 2.90  21 3.08   3 3.47
   8  0.530  0.249  0.753-  14 2.53  15 2.57  26 2.59  20 3.07  21 3.11   6 3.74
   9  0.237  0.877  0.955-  21 2.48  23 2.59  18 2.69  26 2.90  19 3.08   2 3.47
  10  0.971  0.053  0.665-  16 2.47  20 2.54  26 2.77  24 2.78  21 3.28   5 3.64
  11  0.877  0.537  0.191-  25 2.52  17 2.52  22 2.59  13 2.89  14 3.15  12 3.74
  12  0.470  0.751  0.247-  18 2.53  25 2.57  13 2.59  17 3.07  19 3.11  11 3.74
  13  0.815  0.833  0.132-  12 2.59   5 2.77  11 2.89   7 2.90
  14  0.680  0.372  0.951-   8 2.53   7 2.69   1 2.78   4 2.88  11 3.15
  15  0.463  0.510  0.700-   6 2.52   4 2.53   8 2.57
  16  0.273  0.042  0.530-  10 2.47   2 2.50   5 2.78   3 3.01
  17  0.053  0.673  0.375-  11 2.52   5 2.54  12 3.07
  18  0.320  0.628  0.049-  12 2.53   9 2.69   4 2.78   1 2.88   6 3.15
  19  0.442  0.076  0.170-   7 2.48   3 2.52   1 2.56   9 3.08  12 3.11   5 3.28
  20  0.947  0.327  0.625-   6 2.52  10 2.54   8 3.07
  21  0.558  0.924  0.830-   9 2.48   2 2.52   4 2.56   7 3.08   8 3.11  10 3.28
  22  0.951  0.271  0.230-   3 2.56   7 2.59  11 2.59   1 2.91
  23  0.049  0.729  0.770-   2 2.56   9 2.59   6 2.59   4 2.91
  24  0.727  0.958  0.470-   5 2.47   3 2.50  10 2.78   2 3.01
  25  0.537  0.490  0.300-  11 2.52   1 2.53  12 2.57
  26  0.185  0.167  0.868-   8 2.59  10 2.77   6 2.89   9 2.90
 
  LATTYP: Found a triclinic cell.
 ALAT       =     8.8956073386
 B/A-ratio  =     1.1262728372
 C/A-ratio  =     1.2151902983
 COS(alpha) =     0.0021464333
 COS(beta)  =     0.0654567689
 COS(gamma) =     0.7356813087
  
  Lattice vectors:
  
 A1 = (   1.9876246886,   8.6552580654,  -0.5173836491)
 A2 = (  -4.9655663262,   8.6746206814,  -0.6870821634)
 A3 = (   0.6135396034,   1.2272837101,  10.7224215952)


Analysis of symmetry for initial positions (statically):
=====================================================================
 Subroutine PRICEL returns:
 Original cell was already a primitive cell.
 

 Routine SETGRP: Setting up the symmetry group for a 
 triclinic supercell.


 Subroutine GETGRP returns: Found  2 space group operations
 (whereof  2 operations were pure point group operations)
 out of a pool of  2 trial point group operations.


The static configuration has the point symmetry S_2 .


Analysis of symmetry for dynamics (positions and initial velocities):
=====================================================================
 Subroutine PRICEL returns:
 Original cell was already a primitive cell.
 

 Routine SETGRP: Setting up the symmetry group for a 
 triclinic supercell.


 Subroutine GETGRP returns: Found  2 space group operations
 (whereof  2 operations were pure point group operations)
 out of a pool of  2 trial point group operations.


The dynamic configuration has the point symmetry S_2 .


 Subroutine INISYM returns: Found  2 space group operations
 (whereof  2 operations are pure point group operations),
 and found     1 'primitive' translations

 
 
 KPOINTS: pymatgen with grid density = 807 / numbe

Automatic generation of k-mesh.
Space group operators:
 irot       det(A)        alpha          n_x          n_y          n_z        tau_x        tau_y        tau_z
    1     1.000000     0.000000     1.000000     0.000000     0.000000     0.000000     0.000000     0.000000
    2    -1.000000     0.000000     1.000000     0.000000     0.000000     0.000000     0.000000     0.000000
 
 Subroutine IBZKPT returns following result:
 ===========================================
 
 Found      6 irreducible k-points:
 
 Following reciprocal coordinates:
            Coordinates               Weight
  0.000000  0.250000  0.250000      2.000000
  0.333333  0.250000  0.250000      2.000000
 -0.333333  0.250000  0.250000      2.000000
 -0.000000 -0.250000  0.250000      2.000000
  0.333333 -0.250000  0.250000      2.000000
 -0.333333 -0.250000  0.250000      2.000000
 
 Following cartesian coordinates:
            Coordinates               Weight
  0.000721  0.027137 -0.026463      2.000000
 -0.047223  0.038235 -0.024990      2.000000
  0.048666  0.016038 -0.027936      2.000000
  0.000401 -0.030165 -0.019886      2.000000
 -0.047543 -0.019067 -0.018413      2.000000
  0.048346 -0.041263 -0.021359      2.000000
 


--------------------------------------------------------------------------------------------------------




 Dimension of arrays:
   k-points           NKPTS =      6   k-points in BZ     NKDIM =      6   number of bands    NBANDS=     84
   number of dos      NEDOS =    301   number of ions     NIONS =     26
   non local maximal  LDIM  =      5   non local SUM 2l+1 LMDIM =     13
   total plane-waves  NPLWV =  57600
   max r-space proj   IRMAX =    790   max aug-charges    IRDMAX=   2208
   dimension x,y,z NGX =    30 NGY =   40 NGZ =   48
   dimension x,y,z NGXF=    48 NGYF=   56 NGZF=   70
   support grid    NGXF=    48 NGYF=   56 NGZF=   70
   ions per type =               4   8  14
   NGX,Y,Z   is equivalent  to a cutoff of   7.17,  7.48,  7.38 a.u.
   NGXF,Y,Z  is equivalent  to a cutoff of  11.47, 10.47, 10.77 a.u.

 SYSTEM =  CIS                                     
 POSCAR =  Li4 Sb8 S14                             

 Startparameter for this run:
   NWRITE =      2    write-flag & timer
   PREC   = medium    normal or accurate (medium, high low for compatibility)
   ISTART =      0    job   : 0-new  1-cont  2-samecut
   ICHARG =      2    charge: 1-file 2-atom 10-const
   ISPIN  =      1    spin polarized calculation?
   LNONCOLLINEAR =      F non collinear calculations
   LSORBIT =      F    spin-orbit coupling
   INIWAV =      1    electr: 0-lowe 1-rand  2-diag
   LASPH  =      T    aspherical Exc in radial PAW
   METAGGA=      F    non-selfconsistent MetaGGA calc.

 Electronic Relaxation 1
   ENCUT  =  300.0 eV  22.05 Ry    4.70 a.u.   9.82 12.56 15.27*2*pi/ulx,y,z
   ENINI  =  300.0     initial cutoff
   ENAUG  =  380.5 eV  augmentation charge cutoff
   NELM   =     60;   NELMIN=  2; NELMDL= -5     # of ELM steps 
   EDIFF  = 0.1E-03   stopping-criterion for ELM
   LREAL  =      T    real-space projection
   NLSPLINE    = F    spline interpolate recip. space projectors
   LCOMPAT=      F    compatible to vasp.4.4
   GGA_COMPAT  = T    GGA compatible to vasp.4.4-vasp.4.6
   LMAXPAW     = -100 max onsite density
   LMAXMIX     =    4 max onsite mixed and CHGCAR
   VOSKOWN=      0    Vosko Wilk Nusair interpolation
   ROPT   =   -0.00200  -0.00200  -0.00200
 Ionic relaxation
   EDIFFG = -.5E-01   stopping-criterion for IOM
   NSW    =     99    number of steps for IOM
   NBLOCK =      1;   KBLOCK =     99    inner block; outer block 
   IBRION =      2    ionic relax: 0-MD 1-quasi-New 2-CG
   NFREE  =      1    steps in history (QN), initial steepest desc. (CG)
   ISIF   =      3    stress and relaxation
   IWAVPR =     11    prediction:  0-non 1-charg 2-wave 3-comb
   ISYM   =      2    0-nonsym 1-usesym 2-fastsym
   LCORR  =      T    Harris-Foulkes like correction to forces

   POTIM  = 0.1000    time-step for ionic-motion
   TEIN   =    0.0    initial temperature
   TEBEG  =    0.0;   TEEND  =   0.0 temperature during run
   SMASS  =  -3.00    Nose mass-parameter (am)
   estimated Nose-frequenzy (Omega)   =  0.10E-29 period in steps =****** mass=  -0.111E-26a.u.
   SCALEE = 1.0000    scale energy and forces
   NPACO  =    256;   APACO  = 16.0  distance and # of slots for P.C.
   PSTRESS=    0.0 pullay stress

  Mass of Ions in am
   POMASS =   7.01121.75 32.07
  Ionic Valenz
   ZVAL   =   1.00  5.00  6.00
  Atomic Wigner-Seitz radii
   RWIGS  =  -1.00 -1.00 -1.00
  virtual crystal weights 
   VCA    =   1.00  1.00  1.00
   NELECT =     128.0000    total number of electrons
   NUPDOWN=      -1.0000    fix difference up-down

 DOS related values:
   EMIN   =  10.00;   EMAX   =-10.00  energy-range for DOS
   EFERMI =   0.00
   ISMEAR =     0;   SIGMA  =   0.05  broadening in eV -4-tet -1-fermi 0-gaus

 Electronic relaxation 2 (details)
   IALGO  =     38    algorithm
   LDIAG  =      T    sub-space diagonalisation (order eigenvalues)
   LSUBROT=      F    optimize rotation matrix (better conditioning)
   TURBO    =      0    0=normal 1=particle mesh
   IRESTART =      0    0=no restart 2=restart with 2 vectors
   NREBOOT  =      0    no. of reboots
   NMIN     =      0    reboot dimension
   EREF     =   0.00    reference energy to select bands
   IMIX   =      4    mixing-type and parameters
     AMIX     =   0.40;   BMIX     =  1.00
     AMIX_MAG =   1.60;   BMIX_MAG =  1.00
     AMIN     =   0.10
     WC   =   100.;   INIMIX=   1;  MIXPRE=   1;  MAXMIX= -45

 Intra band minimization:
   WEIMIN = 0.0010     energy-eigenvalue tresh-hold
   EBREAK =  0.30E-06  absolut break condition
   DEPER  =   0.30     relativ break condition  

   TIME   =   0.40     timestep for ELM

  volume/ion in A,a.u.               =      24.99       168.61
  Fermi-wavevector in a.u.,A,eV,Ry     =   0.952622  1.800195 12.347132  0.907489
  Thomas-Fermi vector in A             =   2.081202
 
 Write flags
   LWAVE        =      F    write WAVECAR
   LDOWNSAMPLE  =      F    k-point downsampling of WAVECAR
   LCHARG       =      F    write CHGCAR
   LVTOT        =      F    write LOCPOT, total local potential
   LVHAR        =      F    write LOCPOT, Hartree potential only
   LELF         =      F    write electronic localiz. function (ELF)
   LORBIT       =     10    0 simple, 1 ext, 2 COOP (PROOUT), +10 PAW based schemes


 Dipole corrections
   LMONO  =      F    monopole corrections only (constant potential shift)
   LDIPOL =      F    correct potential (dipole corrections)
   IDIPOL =      0    1-x, 2-y, 3-z, 4-all directions 
   EPSILON=  1.0000000 bulk dielectric constant

 Exchange correlation treatment:
   GGA     =    --    GGA type
   LEXCH   =     8    internal setting for exchange type
   VOSKOWN=      0    Vosko Wilk Nusair interpolation
   LHFCALC =     F    Hartree Fock is set to
   LHFONE  =     F    Hartree Fock one center treatment
   AEXX    =    0.0000 exact exchange contribution

 Linear response parameters
   LEPSILON=     F    determine dielectric tensor
   LRPA    =     F    only Hartree local field effects (RPA)
   LNABLA  =     F    use nabla operator in PAW spheres
   LVEL    =     F    velocity operator in full k-point grid
   LINTERFAST=   F  fast interpolation
   KINTER  =     0    interpolate to denser k-point grid
   CSHIFT  =0.1000    complex shift for real part using Kramers Kronig
   OMEGAMAX=  -1.0    maximum frequency
   DEG_THRESHOLD= 0.2000000E-02 threshold for treating states as degnerate
   RTIME   =   -0.100 relaxation time in fs
  (WPLASMAI=    0.000 imaginary part of plasma frequency in eV, 0.658/RTIME)
   DFIELD  = 0.0000000 0.0000000 0.0000000 field for delta impulse in time
 
 Orbital magnetization related:
   ORBITALMAG=     F  switch on orbital magnetization
   LCHIMAG   =     F  perturbation theory with respect to B field
   DQ        =  0.001000  dq finite difference perturbation B field
   LLRAUG    =     F  two centre corrections for induced B field



--------------------------------------------------------------------------------------------------------


 conjugate gradient relaxation of ions
 charge density and potential will be updated during run
 non-spin polarized calculation
 Variant of blocked Davidson
 Davidson routine will perform the subspace rotation
 perform sub-space diagonalisation
    after iterative eigenvector-optimisation
 modified Broyden-mixing scheme, WC =      100.0
 initial mixing is a Kerker type mixing with AMIX =  0.4000 and BMIX =      1.0000
 Hartree-type preconditioning will be used
 using additional bands           20
 real space projection scheme for non local part
 use partial core corrections
 calculate Harris-corrections to forces 
   (improved forces if not selfconsistent)
 use gradient corrections 
 use of overlap-Matrix (Vanderbilt PP)
 Gauss-broadening in eV      SIGMA  =   0.05


--------------------------------------------------------------------------------------------------------


  energy-cutoff  :      300.00
  volume of cell :      649.64
      direct lattice vectors                 reciprocal lattice vectors
    -6.953191015  0.019362616 -0.169698514    -0.143834000  0.033294731  0.004419316
     1.987624689  8.655258065 -0.517383649     0.000640174  0.114603384 -0.013154084
    -0.613539603 -1.227283710-10.722421595     0.002245500 -0.006056839 -0.092697739

  length of vectors
     6.955288476  8.895607339 10.809855735     0.147703382  0.115357598  0.092922540


 
 k-points in units of 2pi/SCALE and weight: pymatgen with grid density = 807 / numbe
   0.00072142  0.02713664 -0.02646296       0.167
  -0.04722325  0.03823488 -0.02498985       0.167
   0.04866609  0.01603839 -0.02793606       0.167
   0.00040133 -0.03016506 -0.01988591       0.167
  -0.04754334 -0.01906681 -0.01841281       0.167
   0.04834600 -0.04126330 -0.02135902       0.167
 
 k-points in reciprocal lattice and weights: pymatgen with grid density = 807 / numbe
   0.00000000  0.25000000  0.25000000       0.167
   0.33333333  0.25000000  0.25000000       0.167
  -0.33333333  0.25000000  0.25000000       0.167
  -0.00000000 -0.25000000  0.25000000       0.167
   0.33333333 -0.25000000  0.25000000       0.167
  -0.33333333 -0.25000000  0.25000000       0.167
 
 position of ions in fractional coordinates (direct lattice) 
   0.35721016  0.33194238  0.12420746
   0.36975184  0.83456908  0.63985702
   0.63024816  0.16543092  0.36014298
   0.64278984  0.66805762  0.87579254
   0.02883219  0.94681864  0.33517764
   0.12304249  0.46339924  0.80921070
   0.76349195  0.12278245  0.04538733
   0.52953398  0.24856416  0.75329731
   0.23650805  0.87721755  0.95461267
   0.97116781  0.05318136  0.66482236
   0.87695751  0.53660076  0.19078930
   0.47046602  0.75143584  0.24670269
   0.81485521  0.83337835  0.13158153
   0.67956529  0.37158270  0.95116797
   0.46306964  0.50960846  0.70008329
   0.27269370  0.04228432  0.52969398
   0.05321916  0.67325770  0.37453900
   0.32043471  0.62841730  0.04883203
   0.44241120  0.07595713  0.16979295
   0.94678084  0.32674230  0.62546100
   0.55758880  0.92404287  0.83020705
   0.95051872  0.27078998  0.22988133
   0.04948128  0.72921002  0.77011867
   0.72730630  0.95771568  0.47030602
   0.53693036  0.49039154  0.29991671
   0.18514479  0.16662165  0.86841847
 
 position of ions in cartesian coordinates  (Angst):
  -1.90017984  2.72752566 -1.56416434
  -1.30472268  6.44528405 -7.35535548
  -4.27438325  1.00205292 -4.05414828
  -3.67892609  4.71981132 -9.84533941
   1.47579965  7.78415991 -4.08867727
  -0.43095699  3.02009137 -8.93733358
  -5.09250687  1.02179388 -0.67975122
  -3.65007638  1.23713061 -8.29563550
  -0.48659906  6.42554310-10.72975254
  -7.05490558 -0.33682294 -7.32082649
  -5.14814894  4.42724560 -2.47217018
  -1.92902954  6.21020637 -3.11386826
  -4.09013102  7.06739457 -1.98032872
  -4.57015956  2.06194936-10.50639606
  -2.63643011  3.56055820 -7.84883346
  -2.13703428 -0.27882299 -5.74775505
   0.73834616  5.36858398 -4.37332878
  -1.00894637  5.38538761 -0.90310770
  -3.02936999  0.45761064 -1.93496705
  -6.31745209  2.07875299 -7.03617498
  -2.54973594  6.98972633 -9.47453671
  -6.21195069  2.08003209 -2.76628845
   0.63284476  5.36730488 -8.64321531
  -3.44207165  7.72615996 -5.66174871
  -2.94267582  3.88677877 -3.56067030
  -1.48897491  0.37994240 -9.42917504
 


--------------------------------------------------------------------------------------------------------


 k-point  1 :   0.0000 0.2500 0.2500  plane waves:    7669
 k-point  2 :   0.3333 0.2500 0.2500  plane waves:    7671
 k-point  3 :  -0.3333 0.2500 0.2500  plane waves:    7668
 k-point  4 :  -0.0000-0.2500 0.2500  plane waves:    7665
 k-point  5 :   0.3333-0.2500 0.2500  plane waves:    7667
 k-point  6 :  -0.3333-0.2500 0.2500  plane waves:    7665

 maximum and minimum number of plane-waves per node :      7671     7665

 maximum number of plane-waves:      7671
 maximum index in each direction: 
   IXMAX=   10   IYMAX=   12   IZMAX=   15
   IXMIN=  -10   IYMIN=  -12   IZMIN=  -15


 serial   3D FFT for wavefunctions
 parallel 3D FFT for charge:
    minimum data exchange during FFTs selected (reduces bandwidth)


 total amount of memory used by VASP MPI-rank0    40647. kBytes
=======================================================================

   base      :      30000. kBytes
   nonlr-proj:       1733. kBytes
   fftplans  :        800. kBytes
   grid      :       3348. kBytes
   one-center:        210. kBytes
   wavefun   :       4556. kBytes
 
     INWAV:  cpu time    0.0000: real time    0.0000
 Broyden mixing: mesh for mixing (old mesh)
   NGX = 19   NGY = 25   NGZ = 31
  (NGX  = 48   NGY  = 56   NGZ  = 70)
  gives a total of  14725 points

 initial charge density was supplied:
 charge density of overlapping atoms calculated
 number of electron     128.0000000 magnetization 
 keeping initial charge density in first step


--------------------------------------------------------------------------------------------------------


 Maximum index for non-local projection operator          722
 Maximum index for augmentation-charges          291 (set IRDMAX)


--------------------------------------------------------------------------------------------------------


 First call to EWALD:  gamma=   0.205
 Maximum number of real-space cells 3x 3x 2
 Maximum number of reciprocal cells 2x 3x 3

    FEWALD:  cpu time    0.0021: real time    0.0021


--------------------------------------- Iteration      1(   1)  ---------------------------------------


    POTLOK:  cpu time    0.0225: real time    0.0225
    SETDIJ:  cpu time    0.2205: real time    0.2205
     EDDAV:  cpu time    0.6446: real time    0.6455
       DOS:  cpu time    0.0005: real time    0.0005
    --------------------------------------------
      LOOP:  cpu time    0.8881: real time    0.8890

 eigenvalue-minimisations  :  1008
 total energy-change (2. order) : 0.5591947E+03  (-0.3592560E+04)
 number of electron     128.0000000 magnetization 
 augmentation part      128.0000000 magnetization 

 Free energy of the ion-electron system (eV)
  ---------------------------------------------------
  alpha Z        PSCENC =        52.67184463
  Ewald energy   TEWEN  =     -4385.61739918
  -Hartree energ DENC   =      -902.95115202
  -exchange      EXHF   =         0.00000000
  -V(xc)+E(xc)   XCENC  =      -214.87903413
  PAW double counting   =      4384.86407100    -3886.31794253
  entropy T*S    EENTRO =        -0.01290393
  eigenvalues    EBANDS =       415.22448553
  atomic energy  EATOM  =      5096.21268456
  Solvation  Ediel_sol  =         0.00000000
  ---------------------------------------------------
  free energy    TOTEN  =       559.19465394 eV

  energy without entropy =      559.20755788  energy(sigma->0) =      559.20110591


--------------------------------------------------------------------------------------------------------




--------------------------------------- Iteration      1(   2)  ---------------------------------------


     EDDAV:  cpu time    0.7440: real time    0.7440
       DOS:  cpu time    0.0002: real time    0.0002
    --------------------------------------------
      LOOP:  cpu time    0.7442: real time    0.7442

 eigenvalue-minimisations  :  1274
 total energy-change (2. order) :-0.6126013E+03  (-0.5934045E+03)
 number of electron     128.0000000 magnetization 
 augmentation part      128.0000000 magnetization 

 Free energy of the ion-electron system (eV)
  ---------------------------------------------------
  alpha Z        PSCENC =        52.67184463
  Ewald energy   TEWEN  =     -4385.61739918
  -Hartree energ DENC   =      -902.95115202
  -exchange      EXHF   =         0.00000000
  -V(xc)+E(xc)   XCENC  =      -214.87903413
  PAW double counting   =      4384.86407100    -3886.31794253
  entropy T*S    EENTRO =        -0.00000000
  eigenvalues    EBANDS =      -197.38968014
  atomic energy  EATOM  =      5096.21268456
  Solvation  Ediel_sol  =         0.00000000
  ---------------------------------------------------
  free energy    TOTEN  =       -53.40660779 eV

  energy without entropy =      -53.40660779  energy(sigma->0) =      -53.40660779


--------------------------------------------------------------------------------------------------------




--------------------------------------- Iteration      1(   3)  ---------------------------------------


     EDDAV:  cpu time    0.6945: real time    0.6946
       DOS:  cpu time    0.0003: real time    0.0003
    --------------------------------------------
      LOOP:  cpu time    0.6948: real time    0.6949

 eigenvalue-minimisations  :  1246
 total energy-change (2. order) :-0.6267678E+02  (-0.6189196E+02)
 number of electron     128.0000000 magnetization 
 augmentation part      128.0000000 magnetization 

 Free energy of the ion-electron system (eV)
  ---------------------------------------------------
  alpha Z        PSCENC =        52.67184463
  Ewald energy   TEWEN  =     -4385.61739918
  -Hartree energ DENC   =      -902.95115202
  -exchange      EXHF   =         0.00000000
  -V(xc)+E(xc)   XCENC  =      -214.87903413
  PAW double counting   =      4384.86407100    -3886.31794253
  entropy T*S    EENTRO =        -0.00000000
  eigenvalues    EBANDS =      -260.06646331
  atomic energy  EATOM  =      5096.21268456
  Solvation  Ediel_sol  =         0.00000000
  ---------------------------------------------------
  free energy    TOTEN  =      -116.08339097 eV

  energy without entropy =     -116.08339097  energy(sigma->0) =     -116.08339097


--------------------------------------------------------------------------------------------------------




--------------------------------------- Iteration      1(   4)  ---------------------------------------


     EDDAV:  cpu time    0.8780: real time    0.8781
       DOS:  cpu time    0.0006: real time    0.0006
    --------------------------------------------
      LOOP:  cpu time    0.8785: real time    0.8786

 eigenvalue-minimisations  :  1274
 total energy-change (2. order) :-0.1670796E+01  (-0.1659658E+01)
 number of electron     128.0000000 magnetization 
 augmentation part      128.0000000 magnetization 

 Free energy of the ion-electron system (eV)
  ---------------------------------------------------
  alpha Z        PSCENC =        52.67184463
  Ewald energy   TEWEN  =     -4385.61739918
  -Hartree energ DENC   =      -902.95115202
  -exchange      EXHF   =         0.00000000
  -V(xc)+E(xc)   XCENC  =      -214.87903413
  PAW double counting   =      4384.86407100    -3886.31794253
  entropy T*S    EENTRO =        -0.00000000
  eigenvalues    EBANDS =      -261.73725959
  atomic energy  EATOM  =      5096.21268456
  Solvation  Ediel_sol  =         0.00000000
  ---------------------------------------------------
  free energy    TOTEN  =      -117.75418725 eV

  energy without entropy =     -117.75418725  energy(sigma->0) =     -117.75418725


--------------------------------------------------------------------------------------------------------




--------------------------------------- Iteration      1(   5)  ---------------------------------------


     EDDAV:  cpu time    0.8677: real time    0.8679
       DOS:  cpu time    0.0005: real time    0.0005
    CHARGE:  cpu time    0.0292: real time    0.0292
    MIXING:  cpu time    0.0007: real time    0.0007
    --------------------------------------------
      LOOP:  cpu time    0.8982: real time    0.8984

 eigenvalue-minimisations  :  1302
 total energy-change (2. order) :-0.4926199E-01  (-0.4921991E-01)
 number of electron     127.9999817 magnetization 
 augmentation part      -18.2533433 magnetization 

 Broyden mixing:
  rms(total) = 0.21050E+01    rms(broyden)= 0.21049E+01
  rms(prec ) = 0.24782E+01
  weight for this iteration     100.00

 Free energy of the ion-electron system (eV)
  ---------------------------------------------------
  alpha Z        PSCENC =        52.67184463
  Ewald energy   TEWEN  =     -4385.61739918
  -Hartree energ DENC   =      -902.95115202
  -exchange      EXHF   =         0.00000000
  -V(xc)+E(xc)   XCENC  =      -214.87903413
  PAW double counting   =      4384.86407100    -3886.31794253
  entropy T*S    EENTRO =        -0.00000000
  eigenvalues    EBANDS =      -261.78652158
  atomic energy  EATOM  =      5096.21268456
  Solvation  Ediel_sol  =         0.00000000
  ---------------------------------------------------
  free energy    TOTEN  =      -117.80344924 eV

  energy without entropy =     -117.80344924  energy(sigma->0) =     -117.80344924


--------------------------------------------------------------------------------------------------------




--------------------------------------- Iteration      1(   6)  ---------------------------------------


    POTLOK:  cpu time    0.0110: real time    0.0111
    SETDIJ:  cpu time    0.1631: real time    0.1638
     EDDAV:  cpu time    0.8594: real time    0.9097
       DOS:  cpu time    0.0005: real time    0.0005
    CHARGE:  cpu time    0.0237: real time    0.0237
    MIXING:  cpu time    0.0007: real time    0.0007
    --------------------------------------------
      LOOP:  cpu time    1.0584: real time    1.1095

 eigenvalue-minimisations  :  1162
 total energy-change (2. order) : 0.6404757E+01  (-0.1358127E+01)
 number of electron     127.9999822 magnetization 
 augmentation part      -18.0426301 magnetization 

 Broyden mixing:
  rms(total) = 0.15978E+01    rms(broyden)= 0.15978E+01
  rms(prec ) = 0.16390E+01
  weight for this iteration     100.00

 eigenvalues of (default mixing * dielectric matrix)
  average eigenvalue GAMMA=   1.7752
  1.7752

 Free energy of the ion-electron system (eV)
  ---------------------------------------------------
  alpha Z        PSCENC =        52.67184463
  Ewald energy   TEWEN  =     -4385.61739918
  -Hartree energ DENC   =      -947.14148905
  -exchange      EXHF   =         0.00000000
  -V(xc)+E(xc)   XCENC  =      -210.63218287
  PAW double counting   =      6069.81467625    -5572.82730013
  entropy T*S    EENTRO =        -0.00000000
  eigenvalues    EBANDS =      -213.87952690
  atomic energy  EATOM  =      5096.21268456
  Solvation  Ediel_sol  =         0.00000000
  ---------------------------------------------------
  free energy    TOTEN  =      -111.39869269 eV

  energy without entropy =     -111.39869269  energy(sigma->0) =     -111.39869269


--------------------------------------------------------------------------------------------------------




--------------------------------------- Iteration      1(   7)  ---------------------------------------


    POTLOK:  cpu time    0.0081: real time    0.0082
    SETDIJ:  cpu time    0.1584: real time    0.1584
     EDDAV:  cpu time    0.7157: real time    0.7158
       DOS:  cpu time    0.0002: real time    0.0002
    CHARGE:  cpu time    0.0237: real time    0.0237
    MIXING:  cpu time    0.0007: real time    0.0007
    --------------------------------------------
      LOOP:  cpu time    0.9069: real time    0.9071

 eigenvalue-minimisations  :  1246
 total energy-change (2. order) :-0.5111095E-01  (-0.4456843E+00)
 number of electron     127.9999830 magnetization 
 augmentation part      -18.0676416 magnetization 

 Broyden mixing:
  rms(total) = 0.69141E+00    rms(broyden)= 0.69138E+00
  rms(prec ) = 0.71225E+00
  weight for this iteration     100.00

 eigenvalues of (default mixing * dielectric matrix)
  average eigenvalue GAMMA=   1.4957
  0.9921  1.9992

 Free energy of the ion-electron system (eV)
  ---------------------------------------------------
  alpha Z        PSCENC =        52.67184463
  Ewald energy   TEWEN  =     -4385.61739918
  -Hartree energ DENC   =      -959.83616443
  -exchange      EXHF   =         0.00000000
  -V(xc)+E(xc)   XCENC  =      -209.04973508
  PAW double counting   =      8325.65503281    -7829.09567018
  entropy T*S    EENTRO =        -0.00000000
  eigenvalues    EBANDS =      -202.39039678
  atomic energy  EATOM  =      5096.21268456
  Solvation  Ediel_sol  =         0.00000000
  ---------------------------------------------------
  free energy    TOTEN  =      -111.44980364 eV

  energy without entropy =     -111.44980364  energy(sigma->0) =     -111.44980364


--------------------------------------------------------------------------------------------------------




--------------------------------------- Iteration      1(   8)  ---------------------------------------


    POTLOK:  cpu time    0.0091: real time    0.0092
    SETDIJ:  cpu time    0.1626: real time    0.1627
     EDDAV:  cpu time    0.9048: real time    0.9048
       DOS:  cpu time    0.0004: real time    0.0004
    CHARGE:  cpu time    0.0261: real time    0.0261
    MIXING:  cpu time    0.0008: real time    0.0008
    --------------------------------------------
      LOOP:  cpu time    1.1038: real time    1.1040

 eigenvalue-minimisations  :  1260
 total energy-change (2. order) : 0.2936780E-01  (-0.3983590E-01)
 number of electron     127.9999830 magnetization 
 augmentation part      -18.1007024 magnetization 

 Broyden mixing:
  rms(total) = 0.26145E+00    rms(broyden)= 0.26145E+00
  rms(prec ) = 0.27258E+00
  weight for this iteration     100.00

 eigenvalues of (default mixing * dielectric matrix)
  average eigenvalue GAMMA=   1.5850
  2.5636  1.0957  1.0957

 Free energy of the ion-electron system (eV)
  ---------------------------------------------------
  alpha Z        PSCENC =        52.67184463
  Ewald energy   TEWEN  =     -4385.61739918
  -Hartree energ DENC   =      -956.62200264
  -exchange      EXHF   =         0.00000000
  -V(xc)+E(xc)   XCENC  =      -209.09497360
  PAW double counting   =      9386.05769012    -8889.52902495
  entropy T*S    EENTRO =        -0.00000000
  eigenvalues    EBANDS =      -205.49925478
  atomic energy  EATOM  =      5096.21268456
  Solvation  Ediel_sol  =         0.00000000
  ---------------------------------------------------
  free energy    TOTEN  =      -111.42043584 eV

  energy without entropy =     -111.42043584  energy(sigma->0) =     -111.42043584


--------------------------------------------------------------------------------------------------------




--------------------------------------- Iteration      1(   9)  ---------------------------------------


    POTLOK:  cpu time    0.0136: real time    0.0138
    SETDIJ:  cpu time    0.1619: real time    0.1619
     EDDAV:  cpu time    0.8451: real time    0.8452
       DOS:  cpu time    0.0004: real time    0.0004
    CHARGE:  cpu time    0.0232: real time    0.0232
    MIXING:  cpu time    0.0005: real time    0.0005
    --------------------------------------------
      LOOP:  cpu time    1.0447: real time    1.0450

 eigenvalue-minimisations  :  1260
 total energy-change (2. order) :-0.6760890E-02  (-0.9607594E-02)
 number of electron     127.9999830 magnetization 
 augmentation part      -18.1022675 magnetization 

 Broyden mixing:
  rms(total) = 0.61236E-01    rms(broyden)= 0.61233E-01
  rms(prec ) = 0.64512E-01
  weight for this iteration     100.00

 eigenvalues of (default mixing * dielectric matrix)
  average eigenvalue GAMMA=   1.4224
  2.2696  1.0748  1.0748  1.2706

 Free energy of the ion-electron system (eV)
  ---------------------------------------------------
  alpha Z        PSCENC =        52.67184463
  Ewald energy   TEWEN  =     -4385.61739918
  -Hartree energ DENC   =      -959.68355038
  -exchange      EXHF   =         0.00000000
  -V(xc)+E(xc)   XCENC  =      -208.66375172
  PAW double counting   =     10036.11460535    -9539.75512487
  entropy T*S    EENTRO =        -0.00000000
  eigenvalues    EBANDS =      -202.70650512
  atomic energy  EATOM  =      5096.21268456
  Solvation  Ediel_sol  =         0.00000000
  ---------------------------------------------------
  free energy    TOTEN  =      -111.42719673 eV

  energy without entropy =     -111.42719673  energy(sigma->0) =     -111.42719673


--------------------------------------------------------------------------------------------------------




--------------------------------------- Iteration      1(  10)  ---------------------------------------


    POTLOK:  cpu time    0.0092: real time    0.0093
    SETDIJ:  cpu time    0.1603: real time    0.1603
     EDDAV:  cpu time    0.6557: real time    0.6557
       DOS:  cpu time    0.0002: real time    0.0002
    CHARGE:  cpu time    0.0247: real time    0.0247
    MIXING:  cpu time    0.0010: real time    0.0010
    --------------------------------------------
      LOOP:  cpu time    0.8510: real time    0.8512

 eigenvalue-minimisations  :  1274
 total energy-change (2. order) :-0.4452817E-03  (-0.7768735E-03)
 number of electron     127.9999830 magnetization 
 augmentation part      -18.1037926 magnetization 

 Broyden mixing:
  rms(total) = 0.30982E-01    rms(broyden)= 0.30981E-01
  rms(prec ) = 0.34080E-01
  weight for this iteration     100.00

 eigenvalues of (default mixing * dielectric matrix)
  average eigenvalue GAMMA=   1.4510
  2.4129  1.6066  1.0384  1.0384  1.1590

 Free energy of the ion-electron system (eV)
  ---------------------------------------------------
  alpha Z        PSCENC =        52.67184463
  Ewald energy   TEWEN  =     -4385.61739918
  -Hartree energ DENC   =      -959.69381822
  -exchange      EXHF   =         0.00000000
  -V(xc)+E(xc)   XCENC  =      -208.69728516
  PAW double counting   =      9895.83055101    -9399.46101271
  entropy T*S    EENTRO =        -0.00000000
  eigenvalues    EBANDS =      -202.67320695
  atomic energy  EATOM  =      5096.21268456
  Solvation  Ediel_sol  =         0.00000000
  ---------------------------------------------------
  free energy    TOTEN  =      -111.42764201 eV

  energy without entropy =     -111.42764201  energy(sigma->0) =     -111.42764201


--------------------------------------------------------------------------------------------------------




--------------------------------------- Iteration      1(  11)  ---------------------------------------


    POTLOK:  cpu time    0.0101: real time    0.0103
    SETDIJ:  cpu time    0.1612: real time    0.1612
     EDDAV:  cpu time    0.8995: real time    0.8995
       DOS:  cpu time    0.0005: real time    0.0010
    CHARGE:  cpu time    0.0253: real time    0.0253
    MIXING:  cpu time    0.0008: real time    0.0008
    --------------------------------------------
      LOOP:  cpu time    1.0975: real time    1.0982

 eigenvalue-minimisations  :  1204
 total energy-change (2. order) :-0.1351110E-02  (-0.1913125E-03)
 number of electron     127.9999830 magnetization 
 augmentation part      -18.1021322 magnetization 

 Broyden mixing:
  rms(total) = 0.12780E-01    rms(broyden)= 0.12779E-01
  rms(prec ) = 0.13973E-01
  weight for this iteration     100.00

 eigenvalues of (default mixing * dielectric matrix)
  average eigenvalue GAMMA=   1.4280
  1.9674  1.8903  1.4170  1.1513  1.0710  1.0710

 Free energy of the ion-electron system (eV)
  ---------------------------------------------------
  alpha Z        PSCENC =        52.67184463
  Ewald energy   TEWEN  =     -4385.61739918
  -Hartree energ DENC   =      -960.21874298
  -exchange      EXHF   =         0.00000000
  -V(xc)+E(xc)   XCENC  =      -208.65499603
  PAW double counting   =      9902.97441057    -9406.61962156
  entropy T*S    EENTRO =        -0.00000000
  eigenvalues    EBANDS =      -202.17717313
  atomic energy  EATOM  =      5096.21268456
  Solvation  Ediel_sol  =         0.00000000
  ---------------------------------------------------
  free energy    TOTEN  =      -111.42899312 eV

  energy without entropy =     -111.42899312  energy(sigma->0) =     -111.42899312


--------------------------------------------------------------------------------------------------------




--------------------------------------- Iteration      1(  12)  ---------------------------------------


    POTLOK:  cpu time    0.0101: real time    0.0102
    SETDIJ:  cpu time    0.1612: real time    0.1612
     EDDAV:  cpu time    0.6575: real time    0.6576
       DOS:  cpu time    0.0002: real time    0.0002
    CHARGE:  cpu time    0.0242: real time    0.0242
    MIXING:  cpu time    0.0010: real time    0.0010
    --------------------------------------------
      LOOP:  cpu time    0.8542: real time    0.8543

 eigenvalue-minimisations  :  1008
 total energy-change (2. order) :-0.2875415E-03  (-0.2739206E-04)
 number of electron     127.9999830 magnetization 
 augmentation part      -18.1015104 magnetization 

 Broyden mixing:
  rms(total) = 0.57140E-02    rms(broyden)= 0.57139E-02
  rms(prec ) = 0.69862E-02
  weight for this iteration     100.00

 eigenvalues of (default mixing * dielectric matrix)
  average eigenvalue GAMMA=   1.5611
  2.6205  2.6205  1.3185  1.3185  0.9433  1.0531  1.0531

 Free energy of the ion-electron system (eV)
  ---------------------------------------------------
  alpha Z        PSCENC =        52.67184463
  Ewald energy   TEWEN  =     -4385.61739918
  -Hartree energ DENC   =      -960.42177753
  -exchange      EXHF   =         0.00000000
  -V(xc)+E(xc)   XCENC  =      -208.64420842
  PAW double counting   =      9878.33572403    -9381.97951012
  entropy T*S    EENTRO =        -0.00000000
  eigenvalues    EBANDS =      -201.98663863
  atomic energy  EATOM  =      5096.21268456
  Solvation  Ediel_sol  =         0.00000000
  ---------------------------------------------------
  free energy    TOTEN  =      -111.42928066 eV

  energy without entropy =     -111.42928066  energy(sigma->0) =     -111.42928066


--------------------------------------------------------------------------------------------------------




--------------------------------------- Iteration      1(  13)  ---------------------------------------


    POTLOK:  cpu time    0.0098: real time    0.0099
    SETDIJ:  cpu time    0.1605: real time    0.1605
     EDDAV:  cpu time    0.7835: real time    0.7837
       DOS:  cpu time    0.0004: real time    0.0004
    CHARGE:  cpu time    0.0272: real time    0.0273
    MIXING:  cpu time    0.0007: real time    0.0007
    --------------------------------------------
      LOOP:  cpu time    0.9820: real time    0.9826

 eigenvalue-minimisations  :  1078
 total energy-change (2. order) :-0.2390511E-03  (-0.2978391E-04)
 number of electron     127.9999830 magnetization 
 augmentation part      -18.1010229 magnetization 

 Broyden mixing:
  rms(total) = 0.26697E-02    rms(broyden)= 0.26697E-02
  rms(prec ) = 0.29229E-02
  weight for this iteration     100.00

 eigenvalues of (default mixing * dielectric matrix)
  average eigenvalue GAMMA=   1.4913
  2.5545  2.3876  1.3445  1.3445  1.0765  1.0765  1.2879  0.8583

 Free energy of the ion-electron system (eV)
  ---------------------------------------------------
  alpha Z        PSCENC =        52.67184463
  Ewald energy   TEWEN  =     -4385.61739918
  -Hartree energ DENC   =      -960.67556948
  -exchange      EXHF   =         0.00000000
  -V(xc)+E(xc)   XCENC  =      -208.62636652
  PAW double counting   =      9866.18439968    -9369.82857182
  entropy T*S    EENTRO =        -0.00000000
  eigenvalues    EBANDS =      -201.75054159
  atomic energy  EATOM  =      5096.21268456
  Solvation  Ediel_sol  =         0.00000000
  ---------------------------------------------------
  free energy    TOTEN  =      -111.42951971 eV

  energy without entropy =     -111.42951971  energy(sigma->0) =     -111.42951971


--------------------------------------------------------------------------------------------------------




--------------------------------------- Iteration      1(  14)  ---------------------------------------


    POTLOK:  cpu time    0.0120: real time    0.0122
    SETDIJ:  cpu time    0.1604: real time    0.1609
     EDDAV:  cpu time    0.5199: real time    0.5200
       DOS:  cpu time    0.0003: real time    0.0003
    --------------------------------------------
      LOOP:  cpu time    0.6927: real time    0.6933

 eigenvalue-minimisations  :   756
 total energy-change (2. order) :-0.5668278E-05  (-0.1476856E-05)
 number of electron     127.9999830 magnetization 
 augmentation part      -18.1010229 magnetization 

 Free energy of the ion-electron system (eV)
  ---------------------------------------------------
  alpha Z        PSCENC =        52.67184463
  Ewald energy   TEWEN  =     -4385.61739918
  -Hartree energ DENC   =      -960.69551720
  -exchange      EXHF   =         0.00000000
  -V(xc)+E(xc)   XCENC  =      -208.62309242
  PAW double counting   =      9873.20481146    -9376.84901507
  entropy T*S    EENTRO =        -0.00000000
  eigenvalues    EBANDS =      -201.73384217
  atomic energy  EATOM  =      5096.21268456
  Solvation  Ediel_sol  =         0.00000000
  ---------------------------------------------------
  free energy    TOTEN  =      -111.42952538 eV

  energy without entropy =     -111.42952538  energy(sigma->0) =     -111.42952538


--------------------------------------------------------------------------------------------------------




 average (electrostatic) potential at core
  the test charge radii are     0.9748  1.1712  0.9698
  (the norm of the test charge is              1.0000)
       1 -26.1733       2 -26.2511       3 -26.2511       4 -26.1733       5 -89.2958
       6 -89.1923       7 -89.2410       8 -89.3049       9 -89.2410      10 -89.2958
      11 -89.1923      12 -89.3049      13 -87.3485      14 -87.2145      15 -87.0708
      16 -87.0666      17 -87.3398      18 -87.2145      19 -86.9706      20 -87.3398
      21 -86.9706      22 -87.1647      23 -87.1647      24 -87.0666      25 -87.0708
      26 -87.3485
 
 
 
 E-fermi :   4.0270     XC(G=0):  -8.6453     alpha+bet : -9.7235


 k-point     1 :       0.0000    0.2500    0.2500
  band No.  band energies     occupation 
      1      -9.9831      2.00000
      2      -9.8181      2.00000
      3      -9.2535      2.00000
      4      -9.0378      2.00000
      5      -8.9418      2.00000
      6      -8.6596      2.00000
      7      -8.4303      2.00000
      8      -8.3816      2.00000
      9      -8.2303      2.00000
     10      -8.1989      2.00000
     11      -8.1434      2.00000
     12      -8.1016      2.00000
     13      -8.0243      2.00000
     14      -7.9121      2.00000
     15      -5.3441      2.00000
     16      -5.1402      2.00000
     17      -5.0269      2.00000
     18      -4.6549      2.00000
     19      -4.5917      2.00000
     20      -4.2308      2.00000
     21      -3.6752      2.00000
     22      -3.2915      2.00000
     23      -1.2503      2.00000
     24      -1.0432      2.00000
     25      -0.9035      2.00000
     26      -0.7749      2.00000
     27      -0.7644      2.00000
     28      -0.4880      2.00000
     29      -0.3097      2.00000
     30      -0.0804      2.00000
     31       0.0340      2.00000
     32       0.1738      2.00000
     33       0.3400      2.00000
     34       0.3621      2.00000
     35       0.4327      2.00000
     36       0.6740      2.00000
     37       0.8207      2.00000
     38       0.9891      2.00000
     39       1.0769      2.00000
     40       1.0854      2.00000
     41       1.1495      2.00000
     42       1.2662      2.00000
     43       1.4195      2.00000
     44       1.4681      2.00000
     45       1.6817      2.00000
     46       1.7335      2.00000
     47       1.8071      2.00000
     48       1.9153      2.00000
     49       2.0185      2.00000
     50       2.1215      2.00000
     51       2.1633      2.00000
     52       2.2731      2.00000
     53       2.3794      2.00000
     54       2.4225      2.00000
     55       2.5067      2.00000
     56       2.5874      2.00000
     57       2.6999      2.00000
     58       2.8350      2.00000
     59       3.0180      2.00000
     60       3.1352      2.00000
     61       3.2518      2.00000
     62       3.3012      2.00000
     63       3.3380      2.00000
     64       3.5742      2.00000
     65       5.5130      0.00000
     66       5.6198      0.00000
     67       5.8407      0.00000
     68       5.9992      0.00000
     69       6.0544      0.00000
     70       6.2138      0.00000
     71       6.2936      0.00000
     72       6.3669      0.00000
     73       6.4306      0.00000
     74       6.5692      0.00000
     75       6.6563      0.00000
     76       6.7199      0.00000
     77       6.8317      0.00000
     78       6.9897      0.00000
     79       7.2191      0.00000
     80       7.3649      0.00000
     81       7.4126      0.00000
     82       7.5699      0.00000
     83       7.7655      0.00000
     84       7.9434      0.00000

 k-point     2 :       0.3333    0.2500    0.2500
  band No.  band energies     occupation 
      1      -9.7471      2.00000
      2      -9.7295      2.00000
      3      -9.3734      2.00000
      4      -9.1055      2.00000
      5      -8.9450      2.00000
      6      -8.7686      2.00000
      7      -8.5783      2.00000
      8      -8.4101      2.00000
      9      -8.2989      2.00000
     10      -8.1720      2.00000
     11      -8.1533      2.00000
     12      -8.0817      2.00000
     13      -8.0304      2.00000
     14      -8.0042      2.00000
     15      -5.3179      2.00000
     16      -4.9749      2.00000
     17      -4.8429      2.00000
     18      -4.6093      2.00000
     19      -4.5004      2.00000
     20      -4.0820      2.00000
     21      -3.7186      2.00000
     22      -3.5786      2.00000
     23      -1.1831      2.00000
     24      -0.9709      2.00000
     25      -0.8161      2.00000
     26      -0.7221      2.00000
     27      -0.6252      2.00000
     28      -0.4525      2.00000
     29      -0.2993      2.00000
     30      -0.0346      2.00000
     31       0.2069      2.00000
     32       0.3159      2.00000
     33       0.3775      2.00000
     34       0.4605      2.00000
     35       0.5295      2.00000
     36       0.6939      2.00000
     37       0.7969      2.00000
     38       0.9260      2.00000
     39       0.9504      2.00000
     40       0.9736      2.00000
     41       1.1285      2.00000
     42       1.2330      2.00000
     43       1.2524      2.00000
     44       1.4150      2.00000
     45       1.5677      2.00000
     46       1.6420      2.00000
     47       1.6980      2.00000
     48       1.7924      2.00000
     49       1.9501      2.00000
     50       2.0736      2.00000
     51       2.1756      2.00000
     52       2.2737      2.00000
     53       2.3401      2.00000
     54       2.3893      2.00000
     55       2.4626      2.00000
     56       2.5322      2.00000
     57       2.6567      2.00000
     58       2.8046      2.00000
     59       2.8559      2.00000
     60       3.1000      2.00000
     61       3.2313      2.00000
     62       3.3475      2.00000
     63       3.4287      2.00000
     64       3.5565      2.00000
     65       5.2078      0.00000
     66       5.3697      0.00000
     67       5.8098      0.00000
     68       5.9355      0.00000
     69       6.0638      0.00000
     70       6.2224      0.00000
     71       6.3283      0.00000
     72       6.3744      0.00000
     73       6.5325      0.00000
     74       6.7414      0.00000
     75       6.7488      0.00000
     76       6.8309      0.00000
     77       7.0940      0.00000
     78       7.1965      0.00000
     79       7.2205      0.00000
     80       7.2783      0.00000
     81       7.3526      0.00000
     82       7.5357      0.00000
     83       7.8203      0.00000
     84       7.9636      0.00000

 k-point     3 :      -0.3333    0.2500    0.2500
  band No.  band energies     occupation 
      1      -9.8657      2.00000
      2      -9.6394      2.00000
      3      -9.2713      2.00000
      4      -9.1391      2.00000
      5      -8.9002      2.00000
      6      -8.8109      2.00000
      7      -8.5505      2.00000
      8      -8.4194      2.00000
      9      -8.3177      2.00000
     10      -8.1926      2.00000
     11      -8.1401      2.00000
     12      -8.0995      2.00000
     13      -8.0649      2.00000
     14      -8.0297      2.00000
     15      -5.0936      2.00000
     16      -5.0300      2.00000
     17      -4.8201      2.00000
     18      -4.6509      2.00000
     19      -4.4995      2.00000
     20      -4.2379      2.00000
     21      -3.8526      2.00000
     22      -3.3890      2.00000
     23      -1.2322      2.00000
     24      -1.0795      2.00000
     25      -0.8411      2.00000
     26      -0.6544      2.00000
     27      -0.4131      2.00000
     28      -0.3604      2.00000
     29      -0.1158      2.00000
     30      -0.0591      2.00000
     31       0.0522      2.00000
     32       0.2647      2.00000
     33       0.3962      2.00000
     34       0.4351      2.00000
     35       0.5092      2.00000
     36       0.6351      2.00000
     37       0.6844      2.00000
     38       0.8753      2.00000
     39       0.8950      2.00000
     40       0.9772      2.00000
     41       1.1965      2.00000
     42       1.2314      2.00000
     43       1.3251      2.00000
     44       1.3704      2.00000
     45       1.4214      2.00000
     46       1.5652      2.00000
     47       1.7777      2.00000
     48       1.8260      2.00000
     49       1.9344      2.00000
     50       2.1122      2.00000
     51       2.2065      2.00000
     52       2.2927      2.00000
     53       2.3435      2.00000
     54       2.4287      2.00000
     55       2.5142      2.00000
     56       2.5777      2.00000
     57       2.6344      2.00000
     58       2.7143      2.00000
     59       2.7530      2.00000
     60       3.1063      2.00000
     61       3.1707      2.00000
     62       3.2909      2.00000
     63       3.4945      2.00000
     64       3.7684      2.00000
     65       5.3657      0.00000
     66       5.6512      0.00000
     67       5.7766      0.00000
     68       5.8145      0.00000
     69       6.1153      0.00000
     70       6.1509      0.00000
     71       6.2038      0.00000
     72       6.3128      0.00000
     73       6.4659      0.00000
     74       6.6364      0.00000
     75       6.8095      0.00000
     76       6.8994      0.00000
     77       6.9396      0.00000
     78       7.0370      0.00000
     79       7.2225      0.00000
     80       7.3410      0.00000
     81       7.5199      0.00000
     82       7.5357      0.00000
     83       7.8498      0.00000
     84       7.9549      0.00000

 k-point     4 :      -0.0000   -0.2500    0.2500
  band No.  band energies     occupation 
      1     -10.0246      2.00000
      2      -9.7197      2.00000
      3      -9.2724      2.00000
      4      -9.2308      2.00000
      5      -8.7902      2.00000
      6      -8.5735      2.00000
      7      -8.4704      2.00000
      8      -8.4047      2.00000
      9      -8.2754      2.00000
     10      -8.1637      2.00000
     11      -8.1583      2.00000
     12      -8.0765      2.00000
     13      -8.0361      2.00000
     14      -7.9189      2.00000
     15      -5.3325      2.00000
     16      -5.1524      2.00000
     17      -5.0181      2.00000
     18      -4.7894      2.00000
     19      -4.4419      2.00000
     20      -4.2174      2.00000
     21      -3.7708      2.00000
     22      -3.2320      2.00000
     23      -1.2201      2.00000
     24      -0.9294      2.00000
     25      -0.8825      2.00000
     26      -0.7780      2.00000
     27      -0.7143      2.00000
     28      -0.4931      2.00000
     29      -0.4119      2.00000
     30      -0.3148      2.00000
     31       0.0295      2.00000
     32       0.1440      2.00000
     33       0.2967      2.00000
     34       0.4329      2.00000
     35       0.4636      2.00000
     36       0.6333      2.00000
     37       0.8556      2.00000
     38       0.9005      2.00000
     39       0.9954      2.00000
     40       1.1878      2.00000
     41       1.2332      2.00000
     42       1.3286      2.00000
     43       1.3887      2.00000
     44       1.4725      2.00000
     45       1.6215      2.00000
     46       1.7637      2.00000
     47       1.8978      2.00000
     48       1.9761      2.00000
     49       2.0882      2.00000
     50       2.1298      2.00000
     51       2.2149      2.00000
     52       2.2271      2.00000
     53       2.3066      2.00000
     54       2.3527      2.00000
     55       2.4963      2.00000
     56       2.6149      2.00000
     57       2.6612      2.00000
     58       2.9437      2.00000
     59       2.9695      2.00000
     60       3.1290      2.00000
     61       3.1640      2.00000
     62       3.3634      2.00000
     63       3.4381      2.00000
     64       3.6282      2.00000
     65       5.3055      0.00000
     66       5.6284      0.00000
     67       5.7386      0.00000
     68       5.8533      0.00000
     69       5.9694      0.00000
     70       6.0650      0.00000
     71       6.2331      0.00000
     72       6.3754      0.00000
     73       6.4826      0.00000
     74       6.6226      0.00000
     75       6.6964      0.00000
     76       6.8683      0.00000
     77       6.9664      0.00000
     78       7.0444      0.00000
     79       7.1902      0.00000
     80       7.3797      0.00000
     81       7.4447      0.00000
     82       7.8147      0.00000
     83       7.8492      0.00000
     84       7.8998      0.00000

 k-point     5 :       0.3333   -0.2500    0.2500
  band No.  band energies     occupation 
      1      -9.8677      2.00000
      2      -9.6531      2.00000
      3      -9.2022      2.00000
      4      -9.1400      2.00000
      5      -8.9439      2.00000
      6      -8.8269      2.00000
      7      -8.5947      2.00000
      8      -8.4123      2.00000
      9      -8.2335      2.00000
     10      -8.2041      2.00000
     11      -8.1660      2.00000
     12      -8.1283      2.00000
     13      -8.0765      2.00000
     14      -7.9897      2.00000
     15      -5.1597      2.00000
     16      -4.9598      2.00000
     17      -4.7963      2.00000
     18      -4.6523      2.00000
     19      -4.5140      2.00000
     20      -4.2920      2.00000
     21      -3.7350      2.00000
     22      -3.4702      2.00000
     23      -1.2824      2.00000
     24      -1.0454      2.00000
     25      -0.9013      2.00000
     26      -0.6956      2.00000
     27      -0.4068      2.00000
     28      -0.2924      2.00000
     29      -0.1805      2.00000
     30      -0.0420      2.00000
     31       0.2040      2.00000
     32       0.2384      2.00000
     33       0.4339      2.00000
     34       0.5041      2.00000
     35       0.6044      2.00000
     36       0.6436      2.00000
     37       0.7084      2.00000
     38       0.8055      2.00000
     39       0.8642      2.00000
     40       0.9371      2.00000
     41       1.0727      2.00000
     42       1.2579      2.00000
     43       1.3336      2.00000
     44       1.3959      2.00000
     45       1.4471      2.00000
     46       1.5167      2.00000
     47       1.6890      2.00000
     48       1.8122      2.00000
     49       2.0064      2.00000
     50       2.1270      2.00000
     51       2.1808      2.00000
     52       2.2454      2.00000
     53       2.3625      2.00000
     54       2.4107      2.00000
     55       2.4982      2.00000
     56       2.5518      2.00000
     57       2.6624      2.00000
     58       2.7280      2.00000
     59       2.8171      2.00000
     60       3.0004      2.00000
     61       3.2521      2.00000
     62       3.3788      2.00000
     63       3.4914      2.00000
     64       3.6604      2.00000
     65       5.2842      0.00000
     66       5.6149      0.00000
     67       5.7429      0.00000
     68       5.9406      0.00000
     69       6.0373      0.00000
     70       6.1799      0.00000
     71       6.2488      0.00000
     72       6.3694      0.00000
     73       6.5860      0.00000
     74       6.6306      0.00000
     75       6.7865      0.00000
     76       6.9541      0.00000
     77       7.0567      0.00000
     78       7.0873      0.00000
     79       7.0973      0.00000
     80       7.2728      0.00000
     81       7.5061      0.00000
     82       7.5979      0.00000
     83       7.6913      0.00000
     84       7.8781      0.00000

 k-point     6 :      -0.3333   -0.2500    0.2500
  band No.  band energies     occupation 
      1      -9.8343      2.00000
      2      -9.5718      2.00000
      3      -9.4013      2.00000
      4      -9.1803      2.00000
      5      -8.9578      2.00000
      6      -8.8233      2.00000
      7      -8.4193      2.00000
      8      -8.3921      2.00000
      9      -8.3117      2.00000
     10      -8.1993      2.00000
     11      -8.1521      2.00000
     12      -8.1145      2.00000
     13      -8.0351      2.00000
     14      -8.0010      2.00000
     15      -5.2512      2.00000
     16      -5.1107      2.00000
     17      -4.8439      2.00000
     18      -4.7360      2.00000
     19      -4.2361      2.00000
     20      -4.0309      2.00000
     21      -3.8768      2.00000
     22      -3.5278      2.00000
     23      -1.2959      2.00000
     24      -1.0897      2.00000
     25      -0.7899      2.00000
     26      -0.6375      2.00000
     27      -0.5039      2.00000
     28      -0.3838      2.00000
     29      -0.1181      2.00000
     30      -0.0234      2.00000
     31      -0.0204      2.00000
     32       0.2861      2.00000
     33       0.3351      2.00000
     34       0.4843      2.00000
     35       0.5919      2.00000
     36       0.6861      2.00000
     37       0.7633      2.00000
     38       0.9050      2.00000
     39       1.0228      2.00000
     40       1.0293      2.00000
     41       1.0883      2.00000
     42       1.2149      2.00000
     43       1.2507      2.00000
     44       1.4473      2.00000
     45       1.4685      2.00000
     46       1.6169      2.00000
     47       1.7048      2.00000
     48       1.7718      2.00000
     49       1.9511      2.00000
     50       2.0443      2.00000
     51       2.0974      2.00000
     52       2.2572      2.00000
     53       2.3753      2.00000
     54       2.4128      2.00000
     55       2.5160      2.00000
     56       2.5658      2.00000
     57       2.6815      2.00000
     58       2.7192      2.00000
     59       2.9017      2.00000
     60       2.9816      2.00000
     61       3.2041      2.00000
     62       3.3417      2.00000
     63       3.4884      2.00000
     64       3.5597      2.00000
     65       5.6171      0.00000
     66       5.6956      0.00000
     67       5.8872      0.00000
     68       5.9315      0.00000
     69       6.0193      0.00000
     70       6.0227      0.00000
     71       6.1865      0.00000
     72       6.2020      0.00000
     73       6.4478      0.00000
     74       6.6235      0.00000
     75       6.7624      0.00000
     76       6.8839      0.00000
     77       6.9912      0.00000
     78       7.0993      0.00000
     79       7.1688      0.00000
     80       7.2587      0.00000
     81       7.4839      0.00000
     82       7.6855      0.00000
     83       7.8963      0.00000
     84       8.0159      0.00000


--------------------------------------------------------------------------------------------------------


 soft charge-density along one line, spin component           1
         0         1         2         3         4         5         6         7         8         9
 total charge-density along one line
 
 pseudopotential strength for first ion, spin component:           1
  1.168   5.235   0.000   0.002   0.002
  5.235  22.425   0.001   0.005   0.006
  0.000   0.001  -0.374  -0.002   0.001
  0.002   0.005  -0.002  -0.376   0.002
  0.002   0.006   0.001   0.002  -0.377
 total augmentation occupancy for first ion, spin component:           1
  0.605  -0.012  -0.004  -0.047  -0.056
 -0.012   0.000   0.000   0.001   0.001
 -0.004   0.000   0.054  -0.007   0.003
 -0.047   0.001  -0.007   0.045   0.004
 -0.056   0.001   0.003   0.004   0.041


------------------------ aborting loop because EDIFF is reached ----------------------------------------


 


 total charge     
 
# of ion       s       p       d       tot
------------------------------------------
    1        0.061   0.101   0.000   0.162
    2        0.067   0.111   0.000   0.178
    3        0.067   0.111   0.000   0.178
    4        0.061   0.101   0.000   0.162
    5        1.287   0.927   0.068   2.282
    6        1.287   0.936   0.071   2.294
    7        1.299   0.912   0.068   2.279
    8        1.299   0.907   0.067   2.273
    9        1.299   0.912   0.068   2.279
   10        1.287   0.927   0.068   2.282
   11        1.287   0.936   0.071   2.294
   12        1.299   0.907   0.067   2.273
   13        1.360   2.329   0.000   3.689
   14        1.353   2.343   0.000   3.697
   15        1.354   2.346   0.000   3.701
   16        1.351   2.350   0.000   3.701
   17        1.365   2.313   0.000   3.679
   18        1.353   2.343   0.000   3.697
   19        1.348   2.365   0.000   3.713
   20        1.365   2.313   0.000   3.679
   21        1.348   2.365   0.000   3.713
   22        1.353   2.343   0.000   3.696
   23        1.353   2.343   0.000   3.696
   24        1.351   2.350   0.000   3.701
   25        1.354   2.346   0.000   3.701
   26        1.360   2.329   0.000   3.689
--------------------------------------------------
tot         29.571  40.567   0.547  70.685
 
    CHARGE:  cpu time    0.0260: real time    0.0260
    FORLOC:  cpu time    0.0016: real time    0.0016
    FORNL :  cpu time    0.1713: real time    0.1713
    STRESS:  cpu time    0.3793: real time    0.3793
    FORCOR:  cpu time    0.0082: real time    0.0082
    FORHAR:  cpu time    0.0028: real time    0.0028
    MIXING:  cpu time    0.0007: real time    0.0007
    OFIELD:  cpu time    0.0000: real time    0.0000

  FORCE on cell =-STRESS in cart. coord.  units (eV):
  Direction    XX          YY          ZZ          XY          YZ          ZX
  --------------------------------------------------------------------------------------
  Alpha Z    52.67184    52.67184    52.67184
  Ewald   -1274.14656 -1399.05182 -1712.43256    33.29248  -139.14825   107.42265
  Hartree   439.16680   362.26877   159.35512    16.79654   -89.75707    64.89304
  E(xc)    -461.87773  -461.25021  -462.48767     0.13376    -0.04216     0.93015
  Local   -1453.90275 -1252.85449  -749.52933   -46.08705   224.46897  -165.16087
[...]
     18      -4.6549      2.00000
     19      -4.5162      2.00000
     20      -4.2944      2.00000
     21      -3.7375      2.00000
     22      -3.4731      2.00000
     23      -1.2833      2.00000
     24      -1.0466      2.00000
     25      -0.9022      2.00000
     26      -0.6966      2.00000
     27      -0.4085      2.00000
     28      -0.2934      2.00000
     29      -0.1814      2.00000
     30      -0.0433      2.00000
     31       0.2029      2.00000
     32       0.2371      2.00000
     33       0.4323      2.00000
     34       0.5029      2.00000
     35       0.6029      2.00000
     36       0.6420      2.00000
     37       0.7068      2.00000
     38       0.8044      2.00000
     39       0.8624      2.00000
     40       0.9356      2.00000
     41       1.0712      2.00000
     42       1.2562      2.00000
     43       1.3319      2.00000
     44       1.3940      2.00000
     45       1.4451      2.00000
     46       1.5149      2.00000
     47       1.6870      2.00000
     48       1.8105      2.00000
     49       2.0046      2.00000
     50       2.1251      2.00000
     51       2.1786      2.00000
     52       2.2432      2.00000
     53       2.3603      2.00000
     54       2.4087      2.00000
     55       2.4960      2.00000
     56       2.5497      2.00000
     57       2.6602      2.00000
     58       2.7254      2.00000
     59       2.8146      2.00000
     60       2.9977      2.00000
     61       3.2494      2.00000
     62       3.3757      2.00000
     63       3.4881      2.00000
     64       3.6570      2.00000
     65       5.2810      0.00000
     66       5.6122      0.00000
     67       5.7401      0.00000
     68       5.9371      0.00000
     69       6.0336      0.00000
     70       6.1767      0.00000
     71       6.2455      0.00000
     72       6.3654      0.00000
     73       6.5824      0.00000
     74       6.6264      0.00000
     75       6.7833      0.00000
     76       6.9505      0.00000
     77       7.0528      0.00000
     78       7.0831      0.00000
     79       7.0943      0.00000
     80       7.2692      0.00000
     81       7.5026      0.00000
     82       7.5935      0.00000
     83       7.6884      0.00000
     84       7.8738      0.00000

 k-point     6 :      -0.3333   -0.2500    0.2500
  band No.  band energies     occupation 
      1      -9.8349      2.00000
      2      -9.5724      2.00000
      3      -9.4022      2.00000
      4      -9.1808      2.00000
      5      -8.9587      2.00000
      6      -8.8239      2.00000
      7      -8.4208      2.00000
      8      -8.3937      2.00000
      9      -8.3133      2.00000
     10      -8.2002      2.00000
     11      -8.1530      2.00000
     12      -8.1163      2.00000
     13      -8.0376      2.00000
     14      -8.0026      2.00000
     15      -5.2529      2.00000
     16      -5.1127      2.00000
     17      -4.8459      2.00000
     18      -4.7380      2.00000
     19      -4.2387      2.00000
     20      -4.0335      2.00000
     21      -3.8795      2.00000
     22      -3.5307      2.00000
     23      -1.2969      2.00000
     24      -1.0909      2.00000
     25      -0.7910      2.00000
     26      -0.6388      2.00000
     27      -0.5048      2.00000
     28      -0.3851      2.00000
     29      -0.1191      2.00000
     30      -0.0244      2.00000
     31      -0.0217      2.00000
     32       0.2846      2.00000
     33       0.3336      2.00000
     34       0.4834      2.00000
     35       0.5907      2.00000
     36       0.6844      2.00000
     37       0.7619      2.00000
     38       0.9035      2.00000
     39       1.0210      2.00000
     40       1.0278      2.00000
     41       1.0866      2.00000
     42       1.2134      2.00000
     43       1.2491      2.00000
     44       1.4455      2.00000
     45       1.4667      2.00000
     46       1.6148      2.00000
     47       1.7030      2.00000
     48       1.7698      2.00000
     49       1.9488      2.00000
     50       2.0425      2.00000
     51       2.0955      2.00000
     52       2.2554      2.00000
     53       2.3732      2.00000
     54       2.4104      2.00000
     55       2.5139      2.00000
     56       2.5638      2.00000
     57       2.6788      2.00000
     58       2.7168      2.00000
     59       2.8990      2.00000
     60       2.9792      2.00000
     61       3.2011      2.00000
     62       3.3387      2.00000
     63       3.4850      2.00000
     64       3.5564      2.00000
     65       5.6136      0.00000
     66       5.6930      0.00000
     67       5.8841      0.00000
     68       5.9285      0.00000
     69       6.0155      0.00000
     70       6.0191      0.00000
     71       6.1830      0.00000
     72       6.1987      0.00000
     73       6.4441      0.00000
     74       6.6204      0.00000
     75       6.7585      0.00000
     76       6.8802      0.00000
     77       6.9876      0.00000
     78       7.0949      0.00000
     79       7.1653      0.00000
     80       7.2548      0.00000
     81       7.4796      0.00000
     82       7.6826      0.00000
     83       7.8898      0.00000
     84       8.0028      0.00000


--------------------------------------------------------------------------------------------------------


 soft charge-density along one line, spin component           1
         0         1         2         3         4         5         6         7         8         9
 total charge-density along one line
 
 pseudopotential strength for first ion, spin component:           1
  1.168   5.235   0.000   0.002   0.002
  5.235  22.425   0.001   0.005   0.006
  0.000   0.001  -0.374  -0.002   0.001
  0.002   0.005  -0.002  -0.376   0.002
  0.002   0.006   0.001   0.002  -0.377
 total augmentation occupancy for first ion, spin component:           1
  0.605  -0.012  -0.004  -0.047  -0.056
 -0.012   0.000   0.000   0.001   0.001
 -0.004   0.000   0.054  -0.007   0.003
 -0.047   0.001  -0.007   0.045   0.004
 -0.056   0.001   0.003   0.004   0.041


------------------------ aborting loop because EDIFF is reached ----------------------------------------


 


 total charge     
 
# of ion       s       p       d       tot
------------------------------------------
    1        0.061   0.101   0.000   0.162
    2        0.067   0.111   0.000   0.178
    3        0.067   0.111   0.000   0.178
    4        0.061   0.101   0.000   0.162
    5        1.287   0.927   0.068   2.282
    6        1.287   0.936   0.071   2.294
    7        1.299   0.912   0.067   2.279
    8        1.299   0.906   0.067   2.273
    9        1.299   0.912   0.067   2.279
   10        1.287   0.927   0.068   2.282
   11        1.287   0.936   0.071   2.294
   12        1.299   0.906   0.067   2.273
   13        1.360   2.329   0.000   3.689
   14        1.353   2.343   0.000   3.696
   15        1.354   2.346   0.000   3.700
   16        1.351   2.350   0.000   3.701
   17        1.365   2.313   0.000   3.678
   18        1.353   2.343   0.000   3.696
   19        1.348   2.365   0.000   3.713
   20        1.365   2.313   0.000   3.678
   21        1.348   2.365   0.000   3.713
   22        1.353   2.342   0.000   3.695
   23        1.353   2.342   0.000   3.695
   24        1.351   2.350   0.000   3.701
   25        1.354   2.346   0.000   3.700
   26        1.360   2.329   0.000   3.689
--------------------------------------------------
tot         29.571  40.564   0.547  70.681
 
    CHARGE:  cpu time    0.0237: real time    0.0237
    FORLOC:  cpu time    0.0016: real time    0.0016
    FORNL :  cpu time    0.1246: real time    0.1246
    STRESS:  cpu time    0.4263: real time    0.4263
    FORCOR:  cpu time    0.0081: real time    0.0081
    FORHAR:  cpu time    0.0027: real time    0.0029
    MIXING:  cpu time    0.0004: real time    0.0004
    OFIELD:  cpu time    0.0000: real time    0.0002

  FORCE on cell =-STRESS in cart. coord.  units (eV):
  Direction    XX          YY          ZZ          XY          YZ          ZX
  --------------------------------------------------------------------------------------
  Alpha Z    52.65545    52.65545    52.65545
  Ewald   -1274.05174 -1398.81424 -1712.29724    33.12532  -139.07900   107.35879
  Hartree   439.20973   362.36874   159.35294    16.79001   -89.75586    64.91733
  E(xc)    -461.86548  -461.23437  -462.47377     0.13415    -0.04240     0.93168
  Local   -1454.00238 -1253.12676  -749.59628   -45.93337   224.40851  -165.12920
  n-local  1685.88685  1680.02996  1687.97069    -1.00631    -0.42727    -6.84567
  augment  -383.36667  -382.95277  -385.42026     0.47289    -0.43403     1.86341
  Kinetic  1395.29050  1401.02512  1409.87593    -3.59963     5.36525    -3.13349
  Fock        0.00000     0.00000     0.00000     0.00000     0.00000     0.00000
  -------------------------------------------------------------------------------------
  Total      -0.24373    -0.04887     0.06747    -0.01693     0.03520    -0.03714
  in kB      -0.60092    -0.12049     0.16635    -0.04175     0.08678    -0.09158
  external pressure =       -0.19 kB  Pullay stress =        0.00 kB


 VOLUME and BASIS-vectors are now :
 -----------------------------------------------------------------------------
  energy-cutoff  :      300.00
  volume of cell :      649.84
      direct lattice vectors                 reciprocal lattice vectors
    -6.953140524  0.019844058 -0.169448929    -0.143832425  0.033278624  0.004411059
     1.987024421  8.656582972 -0.517024516     0.000647705  0.114584416 -0.013158932
    -0.613028356 -1.228087166-10.724025131     0.002241450 -0.006050152 -0.092683852

  length of vectors
     6.955233272  8.896741490 10.811508538     0.147697972  0.115339349  0.092908153


 FORCES acting on ions
    electron-ion (+dipol)            ewald-force                    non-local-force                 convergence-correction
 -----------------------------------------------------------------------------------------------
   -.708E+01 0.983E+00 0.375E+01   0.642E+01 -.103E+01 -.430E+01   0.661E+00 0.439E-01 0.548E+00   0.112E-04 -.408E-04 0.219E-04
   0.543E+01 0.894E+01 -.128E+02   -.490E+01 -.825E+01 0.122E+02   -.509E+00 -.701E+00 0.672E+00   -.471E-04 0.292E-04 0.502E-04
   -.543E+01 -.894E+01 0.128E+02   0.490E+01 0.825E+01 -.122E+02   0.509E+00 0.701E+00 -.672E+00   0.471E-04 -.292E-04 -.502E-04
   0.708E+01 -.983E+00 -.375E+01   -.642E+01 0.103E+01 0.430E+01   -.661E+00 -.439E-01 -.548E+00   -.112E-04 0.408E-04 -.219E-04
   0.165E+02 -.267E+02 0.121E+02   -.210E+02 0.345E+02 -.696E+01   0.457E+01 -.778E+01 -.515E+01   -.389E-03 0.543E-04 0.399E-04
   -.101E+02 -.129E+02 -.727E+01   0.115E+02 0.102E+02 -.284E+01   -.141E+01 0.272E+01 0.101E+02   0.285E-03 -.389E-03 -.275E-03
   0.245E+02 -.175E+01 -.849E+01   -.302E+02 -.125E+01 0.157E+02   0.564E+01 0.298E+01 -.718E+01   -.105E-03 -.135E-03 0.583E-03
   0.158E+02 -.749E+01 -.572E+02   -.192E+02 0.205E+01 0.646E+02   0.335E+01 0.541E+01 -.733E+01   -.444E-03 -.215E-03 -.103E-03
   -.245E+02 0.175E+01 0.849E+01   0.302E+02 0.125E+01 -.157E+02   -.564E+01 -.298E+01 0.718E+01   0.105E-03 0.135E-03 -.583E-03
   -.165E+02 0.267E+02 -.121E+02   0.210E+02 -.345E+02 0.696E+01   -.457E+01 0.778E+01 0.515E+01   0.389E-03 -.543E-04 -.399E-04
   0.101E+02 0.129E+02 0.727E+01   -.115E+02 -.102E+02 0.284E+01   0.141E+01 -.272E+01 -.101E+02   -.285E-03 0.389E-03 0.275E-03
   -.158E+02 0.749E+01 0.572E+02   0.192E+02 -.205E+01 -.646E+02   -.335E+01 -.541E+01 0.733E+01   0.444E-03 0.215E-03 0.103E-03
   0.170E+02 -.295E+01 -.250E+02   -.184E+02 0.340E+01 0.278E+02   0.137E+01 -.455E+00 -.276E+01   -.299E-03 0.585E-03 0.626E-03
   -.820E+00 -.399E+02 0.882E+01   0.137E+01 0.431E+02 -.104E+02   -.550E+00 -.319E+01 0.155E+01   -.420E-03 -.207E-03 0.332E-04
   0.322E+02 -.566E+02 -.892E+02   -.337E+02 0.598E+02 0.918E+02   0.145E+01 -.325E+01 -.264E+01   -.115E-03 0.168E-03 0.572E-03
   0.444E+02 -.205E+02 -.268E+02   -.479E+02 0.211E+02 0.279E+02   0.351E+01 -.589E+00 -.102E+01   -.742E-03 -.170E-03 0.103E-02
   0.227E+02 0.555E+02 0.852E+02   -.244E+02 -.575E+02 -.895E+02   0.164E+01 0.204E+01 0.429E+01   -.340E-03 0.180E-03 -.414E-03
   0.820E+00 0.399E+02 -.882E+01   -.137E+01 -.431E+02 0.104E+02   0.550E+00 0.319E+01 -.155E+01   0.420E-03 0.207E-03 -.332E-04
   -.417E+02 -.200E+02 0.567E+02   0.442E+02 0.206E+02 -.585E+02   -.256E+01 -.602E+00 0.184E+01   0.812E-03 -.104E-03 -.198E-03
   -.227E+02 -.555E+02 -.852E+02   0.244E+02 0.575E+02 0.895E+02   -.164E+01 -.204E+01 -.429E+01   0.340E-03 -.180E-03 0.414E-03
   0.417E+02 0.200E+02 -.567E+02   -.442E+02 -.206E+02 0.585E+02   0.256E+01 0.602E+00 -.184E+01   -.812E-03 0.104E-03 0.198E-03
   0.429E+02 -.447E+01 0.656E+02   -.452E+02 0.338E+01 -.680E+02   0.225E+01 0.110E+01 0.244E+01   -.323E-03 -.153E-03 -.146E-03
   -.429E+02 0.447E+01 -.656E+02   0.452E+02 -.338E+01 0.680E+02   -.225E+01 -.110E+01 -.244E+01   0.323E-03 0.153E-03 0.146E-03
   -.444E+02 0.205E+02 0.268E+02   0.479E+02 -.211E+02 -.279E+02   -.351E+01 0.589E+00 0.102E+01   0.742E-03 0.170E-03 -.103E-02
   -.322E+02 0.566E+02 0.892E+02   0.337E+02 -.598E+02 -.918E+02   -.145E+01 0.325E+01 0.264E+01   0.115E-03 -.168E-03 -.572E-03
   -.170E+02 0.295E+01 0.250E+02   0.184E+02 -.340E+01 -.278E+02   -.137E+01 0.455E+00 0.276E+01   0.299E-03 -.585E-03 -.626E-03
 -----------------------------------------------------------------------------------------------
   0.358E-12 -.111E-10 0.393E-10   -.711E-14 0.289E-13 -.355E-14   -.888E-15 -.111E-14 0.000E+00   0.555E-13 -.127E-11 0.288E-12
 
 
 POSITION                                       TOTAL-FORCE (eV/Angst)
 -----------------------------------------------------------------------------------
     -1.90029      2.72802     -1.56411        -0.000063     -0.000439      0.000522
     -1.30389      6.44555     -7.35646         0.019496     -0.009568     -0.008996
     -4.27525      1.00279     -4.05403        -0.019496      0.009568      0.008996
     -3.67885      4.72032     -9.84639         0.000063      0.000439     -0.000522
      1.47532      7.78513     -4.08875         0.015134      0.011002     -0.014776
     -0.43055      3.02010     -8.93826        -0.018197      0.018982     -0.005497
     -5.09224      1.02197     -0.67942         0.008517     -0.021948      0.012993
     -3.64968      1.23699     -8.29667         0.003532     -0.029659      0.027668
     -0.48690      6.42637    -10.73108        -0.008517      0.021948     -0.012993
     -7.05446     -0.33679     -7.32175        -0.015134     -0.011002      0.014776
     -5.14859      4.42824     -2.47223         0.018197     -0.018982      0.005497
     -1.92946      6.21135     -3.11383        -0.003532      0.029659     -0.027668
     -4.09050      7.06843     -1.98004        -0.000262     -0.004002     -0.000499
     -4.56979      2.06210    -10.50766         0.000113     -0.000021     -0.001483
     -2.63641      3.56114     -7.84968         0.001321      0.000306     -0.001830
     -2.13671     -0.27886     -5.74907         0.001813      0.001662     -0.006917
      0.73798      5.36897     -4.37388        -0.001690     -0.001143     -0.001285
     -1.00935      5.38624     -0.90284        -0.000113      0.000021      0.001483
     -3.02970      0.45760     -1.93516        -0.009775      0.000363     -0.000852
     -6.31712      2.07937     -7.03662         0.001690      0.001143      0.001285
     -2.54945      6.99074     -9.47534         0.009775     -0.000363      0.000852
     -6.21231      2.08072     -2.76633        -0.003531      0.000528      0.001679
      0.63316      5.36762     -8.64417         0.003531     -0.000528     -0.001679
     -3.44244      7.72720     -5.66143        -0.001813     -0.001662      0.006917
     -2.94273      3.88720     -3.56082        -0.001321     -0.000306      0.001830
     -1.48865      0.37991     -9.43046         0.000262      0.004002      0.000499
 -----------------------------------------------------------------------------------
    total drift:                                0.000000     -0.000000      0.000000


--------------------------------------------------------------------------------------------------------



  FREE ENERGIE OF THE ION-ELECTRON SYSTEM (eV)
  ---------------------------------------------------
  free  energy   TOTEN  =      -111.42970092 eV

  energy  without entropy=     -111.42970092  energy(sigma->0) =     -111.42970092
 
 d Force = 0.1767249E-04[ 0.290E-05, 0.324E-04]  d Energy = 0.1622234E-04 0.145E-05
 d Force =-0.1764816E-01[-0.177E-01,-0.176E-01]  d Ewald  =-0.4629668E-01 0.286E-01


--------------------------------------------------------------------------------------------------------


    POTLOK:  cpu time    0.1638: real time    0.1648


--------------------------------------------------------------------------------------------------------


 Conjugate gradient step on ions:
 trial-energy change:   -0.000016  1 .order   -0.000018   -0.000034   -0.000003
  (g-gl).g = 0.127E-03      g.g   = 0.177E-03  gl.gl    = 0.230E-03
 g(Force)  = 0.169E-03   g(Stress)= 0.806E-05 ortho     = 0.678E-06
 gamma     =   0.55360
 trial     =   0.19027
 opt step  =   0.20865  (harmonic =   0.20865) maximal distance =0.00013002
 next E    =  -111.429703   (d E  =  -0.00002)


--------------------------------------------------------------------------------------------------------


  
 reached required accuracy - stopping structural energy minimisation
     LOOP+:  cpu time    2.3087: real time    2.3189
    4ORBIT:  cpu time    0.0000: real time    0.0000
 


 total charge     
 
# of ion       s       p       d       tot
------------------------------------------
    1        0.061   0.101   0.000   0.162
    2        0.067   0.111   0.000   0.178
    3        0.067   0.111   0.000   0.178
    4        0.061   0.101   0.000   0.162
    5        1.287   0.927   0.068   2.282
    6        1.287   0.936   0.071   2.294
    7        1.299   0.912   0.067   2.279
    8        1.299   0.906   0.067   2.273
    9        1.299   0.912   0.067   2.279
   10        1.287   0.927   0.068   2.282
   11        1.287   0.936   0.071   2.294
   12        1.299   0.906   0.067   2.273
   13        1.360   2.329   0.000   3.689
   14        1.353   2.343   0.000   3.696
   15        1.354   2.346   0.000   3.700
   16        1.351   2.350   0.000   3.701
   17        1.365   2.313   0.000   3.678
   18        1.353   2.343   0.000   3.696
   19        1.348   2.365   0.000   3.713
   20        1.365   2.313   0.000   3.678
   21        1.348   2.365   0.000   3.713
   22        1.353   2.342   0.000   3.695
   23        1.353   2.342   0.000   3.695
   24        1.351   2.350   0.000   3.701
   25        1.354   2.346   0.000   3.700
   26        1.360   2.329   0.000   3.689
--------------------------------------------------
tot         29.571  40.564   0.547  70.681
 

 total amount of memory used by VASP MPI-rank0    40647. kBytes
=======================================================================

   base      :      30000. kBytes
   nonlr-proj:       1733. kBytes
   fftplans  :        800. kBytes
   grid      :       3348. kBytes
   one-center:        210. kBytes
   wavefun   :       4556. kBytes
 
  
  
 General timing and accounting informations for this job:
 ========================================================
  
                  Total CPU time used (sec):       54.305
                            User time (sec):       52.895
                          System time (sec):        1.410
                         Elapsed time (sec):       54.465
  
                   Maximum memory used (kb):       78624.
                   Average memory used (kb):           0.
  
                          Minor page faults:        37767
                          Major page faults:            0
                 Voluntary context switches:          135
