PROCAR new format
# of k-points:    6         # of bands:   84         # of ions:   26

 k-point     1 :    0.00000000 0.25000000 0.25000000     weight = 0.16666667

band     1 # energy   -9.98356372 # occ.  2.00000000
 
ion      s      p      d    tot
    1  0.000  0.000  0.000  0.000
    2  0.000  0.000  0.000  0.000
    3  0.000  0.000  0.000  0.000
    4  0.000  0.000  0.000  0.000
    5  0.016  0.001  0.000  0.017
    6  0.020  0.001  0.000  0.021
    7  0.017  0.000  0.000  0.018
    8  0.022  0.001  0.000  0.023
    9  0.017  0.000  0.000  0.018
   10  0.016  0.001  0.000  0.017
   11  0.020  0.001  0.000  0.021
   12  0.022  0.001  0.000  0.023
   13  0.057  0.001  0.000  0.057
   14  0.036  0.001  0.000  0.036
   15  0.026  0.001  0.000  0.027
   16  0.015  0.000  0.000  0.016
   17  0.036  0.001  0.000  0.037
   18  0.036  0.001  0.000  0.036
   19  0.022  0.000  0.000  0.023
   20  0.036  0.001  0.000  0.037
   21  0.022  0.000  0.000  0.023
   22  0.018  0.000  0.000  0.019
   23  0.018  0.000  0.000  0.019
   24  0.015  0.000  0.000  0.016
   25  0.026  0.001  0.000  0.027
   26  0.057  0.001  0.000  0.057
tot    0.574  0.015  0.000  0.589
 
band     2 # energy   -9.81851110 # occ.  2.00000000
 
ion      s      p      d    tot
    1  0.000  0.000  0.000  0.000
    2  0.000  0.000  0.000  0.000
    3  0.000  0.000  0.000  0.000
    4  0.000  0.000  0.000  0.000
    5  0.026  0.002  0.000  0.028
    6  0.024  0.001  0.000  0.026
    7  0.001  0.001  0.000  0.002
    8  0.023  0.001  0.000  0.024
    9  0.001  0.001  0.000  0.002
   10  0.026  0.002  0.000  0.028
   11  0.024  0.001  0.000  0.026
   12  0.023  0.001  0.000  0.024
   13  0.053  0.001  0.000  0.054
   14  0.020  0.001  0.000  0.020
   15  0.035  0.001  0.000  0.036
   16  0.033  0.001  0.000  0.034
   17  0.063  0.001  0.000  0.064
   18  0.020  0.001  0.000  0.020
   19  0.003  0.000  0.000  0.003
   20  0.063  0.001  0.000  0.064
   21  0.003  0.000  0.000  0.003
   22  0.009  0.000  0.000  0.009
   23  0.009  0.000  0.000  0.009
   24  0.033  0.001  0.000  0.034
   25  0.035  0.001  0.000  0.036
   26  0.053  0.001  0.000  0.054
tot    0.580  0.020  0.000  0.600
 
band     3 # energy   -9.25439794 # occ.  2.00000000
 
ion      s      p      d    tot
    1  0.000  0.000  0.000  0.000
    2  0.000  0.000  0.000  0.001
    3  0.000  0.000  0.000  0.001
    4  0.000  0.000  0.000  0.000
    5  0.001  0.001  0.000  0.001
    6  0.017  0.002  0.000  0.019
    7  0.036  0.002  0.000  0.039
    8  0.005  0.001  0.000  0.006
    9  0.036  0.002  0.000  0.039
   10  0.001  0.001  0.000  0.001
   11  0.017  0.002  0.000  0.019
   12  0.005  0.001  0.000  0.006
   13  0.011  0.000  0.000  0.011
   14  0.044  0.001  0.000  0.045
   15  0.020  0.001  0.000  0.021
   16  0.001  0.000  0.000  0.001
   17  0.030  0.000  0.000  0.031
   18  0.044  0.001  0.000  0.045
   19  0.060  0.001  0.000  0.062
   20  0.030  0.000  0.000  0.031
   21  0.060  0.001  0.000  0.062
   22  0.070  0.001  0.000  0.071
   23  0.070  0.001  0.000  0.071
   24  0.001  0.000  0.000  0.001
   25  0.020  0.001  0.000  0.021
   26  0.011  0.000  0.000  0.011
tot    0.593  0.024  0.000  0.617
 
band     4 # energy   -9.03849779 # occ.  2.00000000
 
ion      s      p      d    tot
    1  0.000  0.000  0.000  0.000
    2  0.000  0.000  0.000  0.001
    3  0.000  0.000  0.000  0.001
    4  0.000  0.000  0.000  0.000
    5  0.030  0.004  0.000  0.034
    6  0.012  0.001  0.000  0.013
    7  0.000  0.000  0.000  0.001
    8  0.012  0.002  0.000  0.014
    9  0.000  0.000  0.000  0.001
   10  0.030  0.004  0.000  0.034
   11  0.012  0.001  0.000  0.013
   12  0.012  0.002  0.000  0.014
   13  0.012  0.000  0.000  0.013
   14  0.020  0.001  0.000  0.021
   15  0.061  0.001  0.000  0.062
   16  0.134  0.002  0.000  0.136
   17  0.001  0.001  0.000  0.002
   18  0.020  0.001  0.000  0.021
   19  0.000  0.000  0.000  0.000
   20  0.001  0.001  0.000  0.002
   21  0.000  0.000  0.000  0.000
   22  0.017  0.000  0.000  0.017
   23  0.017  0.000  0.000  0.017
   24  0.134  0.002  0.000  0.136
   25  0.061  0.001  0.000  0.062
   26  0.012  0.000  0.000  0.013
tot    0.602  0.027  0.001  0.629
 
band     5 # energy   -8.94280892 # occ.  2.00000000
 
ion      s      p      d    tot
    1  0.000  0.000  0.000  0.000
    2  0.000  0.000  0.000  0.001
    3  0.000  0.000  0.000  0.001
    4  0.000  0.000  0.000  0.000
    5  0.011  0.001  0.000  0.013
    6  0.001  0.003  0.000  0.004
    7  0.031  0.003  0.000  0.034
    8  0.002  0.001  0.000  0.003
    9  0.031  0.003  0.000  0.034
   10  0.011  0.001  0.000  0.013
   11  0.001  0.003  0.000  0.004
   12  0.002  0.001  0.000  0.003
   13  0.043  0.001  0.000  0.044
   14  0.030  0.000  0.000  0.031
   15  0.005  0.000  0.000  0.005
   16  0.008  0.000  0.000  0.008
   17  0.039  0.001  0.000  0.040
   18  0.030  0.000  0.000  0.031
   19  0.057  0.001  0.000  0.058
   20  0.039  0.001  0.000  0.040
   21  0.057  0.001  0.000  0.058
   22  0.074  0.001  0.000  0.075
   23  0.074  0.001  0.000  0.075
   24  0.008  0.000  0.000  0.008
   25  0.005  0.000  0.000  0.005
   26  0.043  0.001  0.000  0.044
tot    0.603  0.028  0.001  0.631
 
band     6 # energy   -8.66067573 # occ.  2.00000000
 
ion      s      p      d    tot
    1  0.000  0.000  0.000  0.000
    2  0.000  0.000  0.000  0.000
    3  0.000  0.000  0.000  0.000
    4  0.000  0.000  0.000  0.000
    5  0.005  0.002  0.000  0.007
    6  0.010  0.004  0.000  0.014
    7  0.000  0.002  0.000  0.002
    8  0.012  0.003  0.000  0.015
    9  0.000  0.002  0.000  0.002
   10  0.005  0.002  0.000  0.007
   11  0.010  0.004  0.000  0.014
   12  0.012  0.003  0.000  0.015
   13  0.043  0.001  0.000  0.043
   14  0.071  0.001  0.000  0.071
   15  0.001  0.000  0.000  0.002
   16  0.000  0.000  0.000  0.000
   17  0.129  0.001  0.000  0.130
   18  0.071  0.001  0.000  0.071
   19  0.005  0.000  0.000  0.005
   20  0.129  0.001  0.000  0.130
   21  0.005  0.000  0.000  0.005
   22  0.037  0.000  0.000  0.037
   23  0.037  0.000  0.000  0.037
   24  0.000  0.000  0.000  0.000
   25  0.001  0.000  0.000  0.002
   26  0.043  0.001  0.000  0.043
tot    0.626  0.028  0.001  0.654
 
band     7 # energy   -8.43147548 # occ.  2.00000000
 
ion      s      p      d    tot
    1  0.000  0.000  0.000  0.000
    2  0.000  0.000  0.000  0.000
    3  0.000  0.000  0.000  0.000
    4  0.000  0.000  0.000  0.000
    5  0.006  0.002  0.000  0.008
    6  0.003  0.001  0.000  0.005
    7  0.005  0.002  0.000  0.007
    8  0.002  0.004  0.000  0.006
    9  0.005  0.002  0.000  0.007
   10  0.006  0.002  0.000  0.008
   11  0.003  0.001  0.000  0.005
   12  0.002  0.004  0.000  0.006
   13  0.104  0.000  0.000  0.105
   14  0.102  0.000  0.000  0.103
   15  0.049  0.001  0.000  0.050
   16  0.018  0.000  0.000  0.019
   17  0.008  0.000  0.000  0.009
   18  0.102  0.000  0.000  0.103
   19  0.013  0.000  0.000  0.014
   20  0.008  0.000  0.000  0.009
   21  0.013  0.000  0.000  0.014
   22  0.003  0.000  0.000  0.003
   23  0.003  0.000  0.000  0.003
   24  0.018  0.000  0.000  0.019
   25  0.049  0.001  0.000  0.050
   26  0.104  0.000  0.000  0.105
tot    0.629  0.024  0.002  0.656
 
band     8 # energy   -8.38319871 # occ.  2.00000000
 
ion      s      p      d    tot
    1  0.000  0.000  0.000  0.000
    2  0.000  0.000  0.000  0.000
    3  0.000  0.000  0.000  0.000
    4  0.000  0.000  0.000  0.000
    5  0.002  0.002  0.000  0.004
    6  0.004  0.003  0.000  0.007
    7  0.005  0.002  0.000  0.008
    8  0.006  0.003  0.000  0.009
    9  0.005  0.002  0.000  0.008
   10  0.002  0.002  0.000  0.004
   11  0.004  0.003  0.000  0.007
   12  0.006  0.003  0.000  0.009
   13  0.068  0.001  0.000  0.068
   14  0.001  0.000  0.000  0.001
   15  0.052  0.001  0.000  0.052
   16  0.010  0.000  0.000  0.010
   17  0.081  0.001  0.000  0.082
   18  0.001  0.000  0.000  0.001
   19  0.067  0.001  0.000  0.068
   20  0.081  0.001  0.000  0.082
   21  0.067  0.001  0.000  0.068
   22  0.021  0.000  0.000  0.022
   23  0.021  0.000  0.000  0.022
   24  0.010  0.000  0.000  0.010
   25  0.052  0.001  0.000  0.052
   26  0.068  0.001  0.000  0.068
tot    0.634  0.027  0.002  0.663
 
band     9 # energy   -8.23115870 # occ.  2.00000000
 
ion      s      p      d    tot
    1  0.000  0.000  0.000  0.000
    2  0.000  0.000  0.000  0.000
    3  0.000  0.000  0.000  0.000
    4  0.000  0.000  0.000  0.000
    5  0.001  0.002  0.000  0.004
    6  0.003  0.003  0.001  0.007
    7  0.001  0.002  0.000  0.003
    8  0.001  0.002  0.000  0.004
    9  0.001  0.002  0.000  0.003
   10  0.001  0.002  0.000  0.004
   11  0.003  0.003  0.001  0.007
   12  0.001  0.002  0.000  0.004
   13  0.013  0.000  0.000  0.013
   14  0.059  0.000  0.000  0.059
   15  0.030  0.000  0.000  0.031
   16  0.023  0.000  0.000  0.023
   17  0.084  0.001  0.000  0.085
   18  0.059  0.000  0.000  0.059
   19  0.006  0.000  0.000  0.006
   20  0.084  0.001  0.000  0.085
   21  0.006  0.000  0.000  0.006
   22  0.099  0.001  0.000  0.099
   23  0.099  0.001  0.000  0.099
   24  0.023  0.000  0.000  0.023
   25  0.030  0.000  0.000  0.031
   26  0.013  0.000  0.000  0.013
tot    0.642  0.025  0.003  0.669
 
band    10 # energy   -8.20027275 # occ.  2.00000000
 
ion      s      p      d    tot
    1  0.000  0.000  0.000  0.000
    2  0.000  0.000  0.000  0.000
    3  0.000  0.000  0.000  0.000
    4  0.000  0.000  0.000  0.000
    5  0.000  0.003  0.000  0.004
    6  0.000  0.002  0.000  0.002
    7  0.000  0.001  0.000  0.002
    8  0.003  0.002  0.000  0.005
    9  0.000  0.001  0.000  0.002
   10  0.000  0.003  0.000  0.004
   11  0.000  0.002  0.000  0.002
   12  0.003  0.002  0.000  0.005
   13  0.084  0.000  0.000  0.084
   14  0.069  0.000  0.000  0.070
   15  0.018  0.000  0.000  0.018
   16  0.043  0.000  0.000  0.043
   17  0.050  0.001  0.000  0.050
   18  0.069  0.000  0.000  0.070
   19  0.019  0.000  0.000  0.019
   20  0.050  0.001  0.000  0.050
   21  0.019  0.000  0.000  0.019
   22  0.038  0.000  0.000  0.038
   23  0.038  0.000  0.000  0.038
   24  0.043  0.000  0.000  0.043
   25  0.018  0.000  0.000  0.018
   26  0.084  0.000  0.000  0.084
tot    0.648  0.020  0.003  0.671
 
band    11 # energy   -8.14419659 # occ.  2.00000000
 
ion      s      p      d    tot
    1  0.000  0.000  0.000  0.000
    2  0.000  0.000  0.000  0.000
    3  0.000  0.000  0.000  0.000
    4  0.000  0.000  0.000  0.000
    5  0.000  0.001  0.000  0.001
    6  0.000  0.004  0.000  0.005
    7  0.000  0.002  0.000  0.003
    8  0.001  0.004  0.000  0.004
    9  0.000  0.002  0.000  0.003
   10  0.000  0.001  0.000  0.001
   11  0.000  0.004  0.000  0.005
   12  0.001  0.004  0.000  0.004
   13  0.017  0.000  0.000  0.018
   14  0.039  0.000  0.000  0.040
   15  0.154  0.001  0.000  0.155
   16  0.006  0.000  0.000  0.006
   17  0.008  0.000  0.000  0.008
   18  0.039  0.000  0.000  0.040
   19  0.025  0.000  0.000  0.025
   20  0.008  0.000  0.000  0.008
   21  0.025  0.000  0.000  0.025
   22  0.070  0.000  0.000  0.070
   23  0.070  0.000  0.000  0.070
   24  0.006  0.000  0.000  0.006
   25  0.154  0.001  0.000  0.155
   26  0.017  0.000  0.000  0.018
tot    0.641  0.027  0.002  0.670
 
band    12 # energy   -8.10344110 # occ.  2.00000000
 
ion      s      p      d    tot
    1  0.000  0.000  0.000  0.000
    2  0.000  0.000  0.000  0.000
    3  0.000  0.000  0.000  0.000
    4  0.000  0.000  0.000  0.000
    5  0.002  0.003  0.000  0.005
    6  0.002  0.002  0.000  0.004
    7  0.002  0.003  0.000  0.005
    8  0.001  0.001  0.000  0.002
    9  0.002  0.003  0.000  0.005
   10  0.002  0.003  0.000  0.005
   11  0.002  0.002  0.000  0.004
   12  0.001  0.001  0.000  0.002
   13  0.001  0.000  0.000  0.001
   14  0.065  0.000  0.000  0.065
   15  0.060  0.000  0.000  0.061
   16  0.064  0.001  0.000  0.064
   17  0.020  0.000  0.000  0.020
   18  0.065  0.000  0.000  0.065
   19  0.095  0.000  0.000  0.096
   20  0.020  0.000  0.000  0.020
   21  0.095  0.000  0.000  0.096
   22  0.013  0.000  0.000  0.013
   23  0.013  0.000  0.000  0.013
   24  0.064  0.001  0.000  0.064
   25  0.060  0.000  0.000  0.061
   26  0.001  0.000  0.000  0.001
tot    0.648  0.023  0.002  0.674
 
band    13 # energy   -8.02627959 # occ.  2.00000000
 
ion      s      p      d    tot
    1  0.000  0.000  0.000  0.001
    2  0.000  0.001  0.000  0.001
    3  0.000  0.001  0.000  0.001
    4  0.000  0.000  0.000  0.001
    5  0.001  0.002  0.000  0.003
    6  0.001  0.001  0.000  0.002
    7  0.000  0.003  0.001  0.004
    8  0.000  0.001  0.000  0.001
    9  0.000  0.003  0.001  0.004
   10  0.001  0.002  0.000  0.003
   11  0.001  0.001  0.000  0.002
   12  0.000  0.001  0.000  0.001
   13  0.037  0.000  0.000  0.037
   14  0.014  0.000  0.000  0.014
   15  0.041  0.000  0.000  0.041
   16  0.052  0.000  0.000  0.052
   17  0.004  0.000  0.000  0.004
   18  0.014  0.000  0.000  0.014
   19  0.108  0.000  0.000  0.109
   20  0.004  0.000  0.000  0.004
   21  0.108  0.000  0.000  0.109
   22  0.070  0.000  0.000  0.070
   23  0.070  0.000  0.000  0.070
   24  0.052  0.000  0.000  0.052
   25  0.041  0.000  0.000  0.041
   26  0.037  0.000  0.000  0.037
tot    0.656  0.018  0.003  0.677
 
band    14 # energy   -7.91433946 # occ.  2.00000000
 
ion      s      p      d    tot
    1  0.000  0.000  0.000  0.000
    2  0.000  0.000  0.000  0.001
    3  0.000  0.000  0.000  0.001
    4  0.000  0.000  0.000  0.000
    5  0.001  0.003  0.001  0.005
    6  0.001  0.001  0.000  0.001
    7  0.000  0.002  0.000  0.002
    8  0.001  0.000  0.000  0.001
    9  0.000  0.002  0.000  0.002
   10  0.001  0.003  0.001  0.005
   11  0.001  0.001  0.000  0.001
   12  0.001  0.000  0.000  0.001
   13  0.041  0.000  0.000  0.041
   14  0.002  0.000  0.000  0.002
   15  0.005  0.000  0.000  0.005
   16  0.160  0.001  0.000  0.161
   17  0.006  0.000  0.000  0.006
   18  0.002  0.000  0.000  0.002
   19  0.086  0.000  0.000  0.086
   20  0.006  0.000  0.000  0.006
   21  0.086  0.000  0.000  0.086
   22  0.030  0.000  0.000  0.030
   23  0.030  0.000  0.000  0.030
   24  0.160  0.001  0.000  0.161
   25  0.005  0.000  0.000  0.005
   26  0.041  0.000  0.000  0.041
tot    0.666  0.016  0.003  0.685
 
band    15 # energy   -5.34548848 # occ.  2.00000000
 
ion      s      p      d    tot
    1  0.000  0.000  0.000  0.000
    2  0.000  0.000  0.000  0.000
    3  0.000  0.000  0.000  0.000
    4  0.000  0.000  0.000  0.000
    5  0.036  0.001  0.000  0.037
    6  0.091  0.000  0.000  0.091
    7  0.032  0.000  0.000  0.033
    8  0.083  0.000  0.000  0.084
    9  0.032  0.000  0.000  0.033
   10  0.036  0.001  0.000  0.037
   11  0.091  0.000  0.000  0.091
   12  0.083  0.000  0.000  0.084
   13  0.003  0.003  0.000  0.006
   14  0.003  0.006  0.000  0.010
   15  0.001  0.007  0.000  0.008
   16  0.004  0.003  0.000  0.007
   17  0.001  0.008  0.000  0.008
   18  0.003  0.006  0.000  0.010
   19  0.001  0.003  0.000  0.004
   20  0.001  0.008  0.000  0.008
   21  0.001  0.003  0.000  0.004
   22  0.013  0.004  0.000  0.016
   23  0.013  0.004  0.000  0.016
   24  0.004  0.003  0.000  0.007
   25  0.001  0.007  0.000  0.008
   26  0.003  0.003  0.000  0.006
tot    0.536  0.071  0.000  0.608
 
band    16 # energy   -5.14149892 # occ.  2.00000000
 
ion      s      p      d    tot
    1  0.000  0.000  0.000  0.000
    2  0.000  0.000  0.000  0.000
    3  0.000  0.000  0.000  0.000
    4  0.000  0.000  0.000  0.000
    5  0.002  0.001  0.000  0.003
    6  0.076  0.001  0.000  0.077
    7  0.050  0.001  0.000  0.051
    8  0.107  0.001  0.000  0.107
    9  0.050  0.001  0.000  0.051
   10  0.002  0.001  0.000  0.003
   11  0.076  0.001  0.000  0.077
   12  0.107  0.001  0.000  0.107
   13  0.003  0.007  0.000  0.010
   14  0.004  0.007  0.000  0.011
   15  0.001  0.009  0.000  0.010
   16  0.000  0.001  0.000  0.001
   17  0.008  0.004  0.000  0.012
   18  0.004  0.007  0.000  0.011
   19  0.015  0.002  0.000  0.017
   20  0.008  0.004  0.000  0.012
   21  0.015  0.002  0.000  0.017
   22  0.004  0.005  0.000  0.009
   23  0.004  0.005  0.000  0.009
   24  0.000  0.001  0.000  0.001
   25  0.001  0.009  0.000  0.010
   26  0.003  0.007  0.000  0.010
tot    0.541  0.073  0.000  0.615
 
band    17 # energy   -5.02889556 # occ.  2.00000000
 
ion      s      p      d    tot
    1  0.000  0.000  0.000  0.000
    2  0.000  0.000  0.000  0.000
    3  0.000  0.000  0.000  0.000
    4  0.000  0.000  0.000  0.000
    5  0.112  0.000  0.000  0.112
    6  0.012  0.001  0.000  0.013
    7  0.048  0.000  0.000  0.048
    8  0.062  0.000  0.000  0.062
    9  0.048  0.000  0.000  0.048
   10  0.112  0.000  0.000  0.112
   11  0.012  0.001  0.000  0.013
   12  0.062  0.000  0.000  0.062
   13  0.000  0.007  0.000  0.007
   14  0.005  0.005  0.000  0.010
   15  0.011  0.003  0.000  0.014
   16  0.007  0.005  0.000  0.012
   17  0.007  0.006  0.000  0.013
   18  0.005  0.005  0.000  0.010
   19  0.005  0.004  0.000  0.009
   20  0.007  0.006  0.000  0.013
   21  0.005  0.004  0.000  0.009
   22  0.005  0.003  0.000  0.008
   23  0.005  0.003  0.000  0.008
   24  0.007  0.005  0.000  0.012
   25  0.011  0.003  0.000  0.014
   26  0.000  0.007  0.000  0.007
tot    0.549  0.072  0.001  0.621
 
band    18 # energy   -4.65722601 # occ.  2.00000000
 
ion      s      p      d    tot
    1  0.000  0.000  0.000  0.000
    2  0.000  0.000  0.000  0.000
    3  0.000  0.000  0.000  0.000
    4  0.000  0.000  0.000  0.000
    5  0.044  0.001  0.000  0.045
    6  0.058  0.001  0.000  0.059
    7  0.093  0.000  0.000  0.093
    8  0.015  0.001  0.000  0.016
    9  0.093  0.000  0.000  0.093
   10  0.044  0.001  0.000  0.045
   11  0.058  0.001  0.000  0.059
   12  0.015  0.001  0.000  0.016
   13  0.002  0.006  0.000  0.008
   14  0.006  0.004  0.000  0.010
   15  0.020  0.002  0.000  0.022
   16  0.007  0.004  0.000  0.011
   17  0.012  0.004  0.000  0.016
   18  0.006  0.004  0.000  0.010
   19  0.015  0.005  0.000  0.019
   20  0.012  0.004  0.000  0.016
   21  0.015  0.005  0.000  0.019
   22  0.010  0.007  0.000  0.017
   23  0.010  0.007  0.000  0.017
   24  0.007  0.004  0.000  0.011
   25  0.020  0.002  0.000  0.022
   26  0.002  0.006  0.000  0.008
tot    0.562  0.071  0.001  0.633
 
band    19 # energy   -4.59380110 # occ.  2.00000000
 
ion      s      p      d    tot
    1  0.000  0.000  0.000  0.000
    2  0.000  0.000  0.000  0.001
    3  0.000  0.000  0.000  0.001
    4  0.000  0.000  0.000  0.000
    5  0.136  0.000  0.000  0.136
    6  0.024  0.001  0.000  0.025
    7  0.037  0.000  0.000  0.037
    8  0.014  0.000  0.000  0.014
    9  0.037  0.000  0.000  0.037
   10  0.136  0.000  0.000  0.136
   11  0.024  0.001  0.000  0.025
   12  0.014  0.000  0.000  0.014
   13  0.000  0.004  0.000  0.005
   14  0.005  0.002  0.000  0.007
   15  0.009  0.001  0.000  0.011
   16  0.040  0.011  0.000  0.050
   17  0.008  0.009  0.000  0.017
   18  0.005  0.002  0.000  0.007
   19  0.006  0.004  0.000  0.010
   20  0.008  0.009  0.000  0.017
   21  0.006  0.004  0.000  0.010
   22  0.005  0.002  0.000  0.007
   23  0.005  0.002  0.000  0.007
   24  0.040  0.011  0.000  0.050
   25  0.009  0.001  0.000  0.011
   26  0.000  0.004  0.000  0.005
tot    0.570  0.069  0.001  0.640
 
band    20 # energy   -4.23367083 # occ.  2.00000000
 
ion      s      p      d    tot
    1  0.000  0.000  0.000  0.000
    2  0.000  0.000  0.000  0.000
    3  0.000  0.000  0.000  0.000
    4  0.000  0.000  0.000  0.000
    5  0.010  0.001  0.000  0.011
    6  0.047  0.001  0.000  0.048
    7  0.101  0.001  0.000  0.101
    8  0.052  0.001  0.000  0.053
    9  0.101  0.001  0.000  0.101
   10  0.010  0.001  0.000  0.011
   11  0.047  0.001  0.000  0.048
   12  0.052  0.001  0.000  0.053
   13  0.001  0.006  0.000  0.007
   14  0.029  0.003  0.000  0.031
   15  0.010  0.005  0.000  0.015
   16  0.000  0.001  0.000  0.002
   17  0.004  0.005  0.000  0.009
   18  0.029  0.003  0.000  0.031
   19  0.015  0.007  0.000  0.022
   20  0.004  0.005  0.000  0.009
   21  0.015  0.007  0.000  0.022
   22  0.024  0.004  0.000  0.029
   23  0.024  0.004  0.000  0.029
   24  0.000  0.001  0.000  0.002
   25  0.010  0.005  0.000  0.015
   26  0.001  0.006  0.000  0.007
tot    0.587  0.068  0.001  0.656
 
band    21 # energy   -3.67803503 # occ.  2.00000000
 
ion      s      p      d    tot
    1  0.000  0.000  0.000  0.000
    2  0.000  0.000  0.000  0.000
    3  0.000  0.000  0.000  0.000
    4  0.000  0.000  0.000  0.000
    5  0.060  0.000  0.000  0.061
    6  0.069  0.001  0.000  0.070
    7  0.007  0.002  0.000  0.009
    8  0.048  0.001  0.000  0.049
    9  0.007  0.002  0.000  0.009
   10  0.060  0.000  0.000  0.061
   11  0.069  0.001  0.000  0.070
   12  0.048  0.001  0.000  0.049
   13  0.025  0.005  0.000  0.030
   14  0.003  0.008  0.000  0.011
   15  0.025  0.005  0.000  0.030
   16  0.017  0.008  0.000  0.024
   17  0.034  0.004  0.000  0.038
   18  0.003  0.008  0.000  0.011
   19  0.004  0.000  0.000  0.004
   20  0.034  0.004  0.000  0.038
   21  0.004  0.000  0.000  0.004
   22  0.007  0.005  0.000  0.012
   23  0.007  0.005  0.000  0.012
   24  0.017  0.008  0.000  0.024
   25  0.025  0.005  0.000  0.030
   26  0.025  0.005  0.000  0.030
tot    0.597  0.077  0.001  0.674
 
band    22 # energy   -3.29474970 # occ.  2.00000000
 
ion      s      p      d    tot
    1  0.001  0.000  0.000  0.001
    2  0.000  0.000  0.000  0.000
    3  0.000  0.000  0.000  0.000
    4  0.001  0.000  0.000  0.001
    5  0.023  0.000  0.000  0.024
    6  0.048  0.001  0.000  0.049
    7  0.061  0.000  0.000  0.062
    8  0.059  0.000  0.000  0.060
    9  0.061  0.000  0.000  0.062
   10  0.023  0.000  0.000  0.024
   11  0.048  0.001  0.000  0.049
   12  0.059  0.000  0.000  0.060
   13  0.028  0.002  0.000  0.030
   14  0.022  0.005  0.000  0.027
   15  0.015  0.005  0.000  0.020
   16  0.006  0.004  0.000  0.010
   17  0.017  0.004  0.000  0.021
   18  0.022  0.005  0.000  0.027
   19  0.021  0.005  0.000  0.026
   20  0.017  0.004  0.000  0.021
   21  0.021  0.005  0.000  0.026
   22  0.011  0.005  0.000  0.016
   23  0.011  0.005  0.000  0.016
   24  0.006  0.004  0.000  0.010
   25  0.015  0.005  0.000  0.020
   26  0.028  0.002  0.000  0.030
tot    0.625  0.066  0.000  0.692
 
band    23 # energy   -1.25112429 # occ.  2.00000000
 
ion      s      p      d    tot
    1  0.000  0.001  0.000  0.001
    2  0.000  0.001  0.000  0.001
    3  0.000  0.001  0.000  0.001
    4  0.000  0.001  0.000  0.001
    5  0.000  0.016  0.000  0.017
    6  0.000  0.013  0.000  0.013
    7  0.000  0.021  0.000  0.022
    8  0.000  0.021  0.000  0.021
    9  0.000  0.021  0.000  0.022
   10  0.000  0.016  0.000  0.017
   11  0.000  0.013  0.000  0.013
   12  0.000  0.021  0.000  0.021
   13  0.001  0.038  0.000  0.038
   14  0.000  0.016  0.000  0.016
   15  0.001  0.009  0.000  0.010
   16  0.001  0.015  0.000  0.015
   17  0.000  0.016  0.000  0.016
   18  0.000  0.016  0.000  0.016
   19  0.000  0.024  0.000  0.024
   20  0.000  0.016  0.000  0.016
   21  0.000  0.024  0.000  0.024
   22  0.000  0.010  0.000  0.010
   23  0.000  0.010  0.000  0.010
   24  0.001  0.015  0.000  0.015
   25  0.001  0.009  0.000  0.010
   26  0.001  0.038  0.000  0.038
tot    0.009  0.398  0.002  0.409
 
band    24 # energy   -1.04423059 # occ.  2.00000000
 
ion      s      p      d    tot
    1  0.000  0.000  0.000  0.000
    2  0.000  0.001  0.000  0.001
    3  0.000  0.001  0.000  0.001
    4  0.000  0.000  0.000  0.000
    5  0.001  0.028  0.000  0.029
    6  0.000  0.016  0.000  0.016
    7  0.001  0.013  0.000  0.014
    8  0.001  0.013  0.000  0.015
    9  0.001  0.013  0.000  0.014
   10  0.001  0.028  0.000  0.029
   11  0.000  0.016  0.000  0.016
   12  0.001  0.013  0.000  0.015
   13  0.002  0.038  0.000  0.040
   14  0.000  0.014  0.000  0.015
   15  0.000  0.006  0.000  0.007
   16  0.001  0.030  0.000  0.031
   17  0.003  0.015  0.000  0.017
   18  0.000  0.014  0.000  0.015
   19  0.001  0.010  0.000  0.011
   20  0.003  0.015  0.000  0.017
   21  0.001  0.010  0.000  0.011
   22  0.000  0.016  0.000  0.016
   23  0.000  0.016  0.000  0.016
   24  0.001  0.030  0.000  0.031
   25  0.000  0.006  0.000  0.007
   26  0.002  0.038  0.000  0.040
tot    0.021  0.401  0.002  0.425
 
band    25 # energy   -0.90471207 # occ.  2.00000000
 
ion      s      p      d    tot
    1  0.001  0.001  0.000  0.002
    2  0.000  0.000  0.000  0.001
    3  0.000  0.000  0.000  0.001
    4  0.001  0.001  0.000  0.002
    5  0.000  0.007  0.000  0.008
    6  0.000  0.019  0.000  0.019
    7  0.000  0.019  0.000  0.020
    8  0.001  0.022  0.000  0.023
    9  0.000  0.019  0.000  0.020
   10  0.000  0.007  0.000  0.008
   11  0.000  0.019  0.000  0.019
   12  0.001  0.022  0.000  0.023
   13  0.001  0.042  0.000  0.043
   14  0.001  0.027  0.000  0.028
   15  0.000  0.019  0.000  0.020
   16  0.001  0.007  0.000  0.008
   17  0.002  0.008  0.000  0.010
   18  0.001  0.027  0.000  0.028
   19  0.000  0.020  0.000  0.020
   20  0.002  0.008  0.000  0.010
   21  0.000  0.020  0.000  0.020
   22  0.001  0.012  0.000  0.013
   23  0.001  0.012  0.000  0.013
   24  0.001  0.007  0.000  0.008
   25  0.000  0.019  0.000  0.020
   26  0.001  0.042  0.000  0.043
tot    0.016  0.408  0.003  0.427
 
band    26 # energy   -0.77589193 # occ.  2.00000000
 
ion      s      p      d    tot
    1  0.000  0.001  0.000  0.001
    2  0.001  0.000  0.000  0.001
    3  0.001  0.000  0.000  0.001
    4  0.000  0.001  0.000  0.001
    5  0.001  0.008  0.000  0.010
    6  0.000  0.028  0.000  0.029
    7  0.000  0.014  0.000  0.015
    8  0.000  0.015  0.000  0.016
    9  0.000  0.014  0.000  0.015
   10  0.001  0.008  0.000  0.010
   11  0.000  0.028  0.000  0.029
   12  0.000  0.015  0.000  0.016
   13  0.002  0.042  0.000  0.043
   14  0.001  0.022  0.000  0.023
   15  0.002  0.019  0.000  0.021
   16  0.001  0.003  0.000  0.004
   17  0.001  0.017  0.000  0.018
   18  0.001  0.022  0.000  0.023
   19  0.001  0.004  0.000  0.004
   20  0.001  0.017  0.000  0.018
   21  0.001  0.004  0.000  0.004
   22  0.001  0.028  0.000  0.029
   23  0.001  0.028  0.000  0.029
   24  0.001  0.003  0.000  0.004
   25  0.002  0.019  0.000  0.021
   26  0.002  0.042  0.000  0.043
tot    0.023  0.404  0.003  0.430
 
band    27 # energy   -0.76540121 # occ.  2.00000000
 
ion      s      p      d    tot
    1  0.000  0.000  0.000  0.001
    2  0.000  0.000  0.000  0.001
    3  0.000  0.000  0.000  0.001
    4  0.000  0.000  0.000  0.001
    5  0.000  0.029  0.000  0.030
    6  0.001  0.020  0.000  0.021
    7  0.000  0.006  0.000  0.007
    8  0.000  0.015  0.000  0.016
    9  0.000  0.006  0.000  0.007
   10  0.000  0.029  0.000  0.030
   11  0.001  0.020  0.000  0.021
   12  0.000  0.015  0.000  0.016
   13  0.001  0.034  0.000  0.035
   14  0.001  0.021  0.000  0.022
   15  0.001  0.009  0.000  0.009
   16  0.000  0.029  0.000  0.029
   17  0.000  0.029  0.000  0.029
   18  0.001  0.021  0.000  0.022
   19  0.001  0.004  0.000  0.004
   20  0.000  0.029  0.000  0.029
   21  0.001  0.004  0.000  0.004
   22  0.001  0.012  0.000  0.013
   23  0.001  0.012  0.000  0.013
   24  0.000  0.029  0.000  0.029
   25  0.001  0.009  0.000  0.009
   26  0.001  0.034  0.000  0.035
tot    0.014  0.414  0.003  0.431
 
band    28 # energy   -0.48901604 # occ.  2.00000000
 
ion      s      p      d    tot
    1  0.000  0.000  0.000  0.000
    2  0.000  0.001  0.000  0.002
    3  0.000  0.001  0.000  0.002
    4  0.000  0.000  0.000  0.000
    5  0.001  0.011  0.000  0.012
    6  0.001  0.022  0.000  0.023
    7  0.000  0.021  0.000  0.021
    8  0.002  0.016  0.000  0.019
    9  0.000  0.021  0.000  0.021
   10  0.001  0.011  0.000  0.012
   11  0.001  0.022  0.000  0.023
   12  0.002  0.016  0.000  0.019
   13  0.001  0.007  0.000  0.008
   14  0.000  0.034  0.000  0.034
   15  0.000  0.010  0.000  0.010
   16  0.001  0.017  0.000  0.017
   17  0.000  0.023  0.000  0.024
   18  0.000  0.034  0.000  0.034
   19  0.002  0.019  0.000  0.021
   20  0.000  0.023  0.000  0.024
   21  0.002  0.019  0.000  0.021
   22  0.002  0.023  0.000  0.025
   23  0.002  0.023  0.000  0.025
   24  0.001  0.017  0.000  0.017
   25  0.000  0.010  0.000  0.010
   26  0.001  0.007  0.000  0.008
tot    0.023  0.410  0.003  0.435
 
band    29 # energy   -0.31056914 # occ.  2.00000000
 
ion      s      p      d    tot
    1  0.000  0.000  0.000  0.001
    2  0.000  0.001  0.000  0.001
    3  0.000  0.001  0.000  0.001
    4  0.000  0.000  0.000  0.001
    5  0.001  0.013  0.001  0.015
    6  0.000  0.025  0.000  0.025
    7  0.000  0.004  0.000  0.005
    8  0.000  0.026  0.000  0.027
    9  0.000  0.004  0.000  0.005
   10  0.001  0.013  0.001  0.015
   11  0.000  0.025  0.000  0.025
   12  0.000  0.026  0.000  0.027
   13  0.001  0.026  0.000  0.027
   14  0.001  0.014  0.000  0.015
   15  0.000  0.038  0.000  0.038
   16  0.000  0.017  0.000  0.017
   17  0.001  0.023  0.000  0.024
   18  0.001  0.014  0.000  0.015
   19  0.001  0.011  0.000  0.012
   20  0.001  0.023  0.000  0.024
   21  0.001  0.011  0.000  0.012
   22  0.002  0.016  0.000  0.018
   23  0.002  0.016  0.000  0.018
   24  0.000  0.017  0.000  0.017
   25  0.000  0.038  0.000  0.038
   26  0.001  0.026  0.000  0.027
tot    0.018  0.428  0.004  0.450
 
band    30 # energy   -0.08179668 # occ.  2.00000000
 
ion      s      p      d    tot
    1  0.000  0.000  0.000  0.001
    2  0.001  0.001  0.000  0.002
    3  0.001  0.001  0.000  0.002
    4  0.000  0.000  0.000  0.001
    5  0.001  0.034  0.001  0.036
    6  0.002  0.008  0.001  0.010
    7  0.002  0.019  0.000  0.021
    8  0.000  0.004  0.001  0.004
    9  0.002  0.019  0.000  0.021
   10  0.001  0.034  0.001  0.036
   11  0.002  0.008  0.001  0.010
   12  0.000  0.004  0.001  0.004
   13  0.000  0.021  0.000  0.021
   14  0.001  0.009  0.000  0.009
   15  0.000  0.004  0.000  0.004
   16  0.002  0.040  0.000  0.042