/etc/profile: 第 79 行:ulimit: stack size: 无法修改 limit 值: 不允许的操作
/home/customer/.bashrc: 第 12 行:ulimit: stack size: 无法修改 limit 值: 不允许的操作
Intel(R) Parallel Studio XE 2018 Update 3 for Linux*
Copyright (C) 2009-2018 Intel Corporation. All rights reserved.
 running on   14 total cores
 distrk:  each k-point on   14 cores,    1 groups
 distr:  one band on    1 cores,   14 groups
 using from now: INCAR     
 vasp.5.4.4.18Apr17-6-g9f103f2a35 (build Oct 27 2022 13:04:57) complex          
  
 POSCAR found type information on POSCAR  Li Sb S 
 POSCAR found :  3 types and      26 ions
 scaLAPACK will be used

 ----------------------------------------------------------------------------- 
|                                                                             |
|           W    W    AA    RRRRR   N    N  II  N    N   GGGG   !!!           |
|           W    W   A  A   R    R  NN   N  II  NN   N  G    G  !!!           |
|           W    W  A    A  R    R  N N  N  II  N N  N  G       !!!           |
|           W WW W  AAAAAA  RRRRR   N  N N  II  N  N N  G  GGG   !            |
|           WW  WW  A    A  R   R   N   NN  II  N   NN  G    G                |
|           W    W  A    A  R    R  N    N  II  N    N   GGGG   !!!           |
|                                                                             |
|      For optimal performance we recommend to set                            |
|        NCORE= 4 - approx SQRT( number of cores)                             |
|      NCORE specifies how many cores store one orbital (NPAR=cpu/NCORE).     |
|      This setting can  greatly improve the performance of VASP for DFT.     |
|      The default,   NCORE=1            might be grossly inefficient         |
|      on modern multi-core architectures or massively parallel machines.     |
|      Do your own testing !!!!                                               |
|      Unfortunately you need to use the default for GW and RPA calculations. |
|      (for HF NCORE is supported but not extensively tested yet)             |
|                                                                             |
 ----------------------------------------------------------------------------- 

 LDA part: xc-table for Pade appr. of Perdew
 POSCAR, INCAR and KPOINTS ok, starting setup
 FFT: planning ...
 WAVECAR not read
 entering main loop
       N       E                     dE             d eps       ncg     rms          rms(c)
DAV:   1     0.554040342308E+03    0.55404E+03   -0.35916E+04  1008   0.809E+02
DAV:   2    -0.540021644123E+02   -0.60804E+03   -0.58964E+03  1288   0.180E+02
DAV:   3    -0.115977061359E+03   -0.61975E+02   -0.61216E+02  1232   0.629E+01
DAV:   4    -0.117671209198E+03   -0.16941E+01   -0.16835E+01  1302   0.116E+01
DAV:   5    -0.117720483027E+03   -0.49274E-01   -0.49240E-01  1288   0.198E+00    0.210E+01
DAV:   6    -0.111259491136E+03    0.64610E+01   -0.13729E+01  1176   0.981E+00    0.160E+01
DAV:   7    -0.111324474978E+03   -0.64984E-01   -0.45629E+00  1260   0.510E+00    0.697E+00
DAV:   8    -0.111294358053E+03    0.30117E-01   -0.40828E-01  1260   0.188E+00    0.267E+00
DAV:   9    -0.111301458950E+03   -0.71009E-02   -0.10229E-01  1260   0.101E+00    0.616E-01
DAV:  10    -0.111302071583E+03   -0.61263E-03   -0.79629E-03  1260   0.275E-01    0.319E-01
DAV:  11    -0.111303606108E+03   -0.15345E-02   -0.20687E-03  1218   0.143E-01    0.127E-01
DAV:  12    -0.111303918966E+03   -0.31286E-03   -0.27977E-04  1022   0.523E-02    0.571E-02
DAV:  13    -0.111304186798E+03   -0.26783E-03   -0.32232E-04  1092   0.528E-02    0.266E-02
DAV:  14    -0.111304196051E+03   -0.92531E-05   -0.15909E-05   756   0.143E-02
   1 F= -.11130420E+03 E0= -.11130420E+03  d E =-.111304E+03
 curvature:   0.00 expect dE= 0.000E+00 dE for cont linesearch  0.000E+00
 trial: gam= 0.00000 g(F)=  0.176E-02 g(S)=  0.440E-03 ort = 0.000E+00 (trialstep = 0.100E+01)
 search vector abs. value=  0.220E-02
 bond charge predicted
       N       E                     dE             d eps       ncg     rms          rms(c)
DAV:   1    -0.111306429705E+03   -0.22429E-02   -0.11091E-02  1162   0.280E-01    0.101E-01
DAV:   2    -0.111306375061E+03    0.54643E-04   -0.85759E-04  1260   0.817E-02
   2 F= -.11130638E+03 E0= -.11130638E+03  d E =-.217901E-02
 ZBRENT: can't locate minimum, use default step
 trial-energy change:   -0.002179  1 .order   -0.002242   -0.002197   -0.002287
 step:   4.0000(harm=  4.0000)  dis= 0.00506  next Energy=  -111.313707 (dE=-0.951E-02)
 bond charge predicted
       N       E                     dE             d eps       ncg     rms          rms(c)
DAV:   1    -0.111312484761E+03   -0.60551E-02   -0.97756E-02  1148   0.834E-01    0.310E-01
DAV:   2    -0.111311826104E+03    0.65866E-03   -0.76886E-03  1260   0.245E-01    0.136E-01
DAV:   3    -0.111311588874E+03    0.23723E-03   -0.65344E-04  1246   0.673E-02    0.768E-02
DAV:   4    -0.111311513384E+03    0.75490E-04   -0.10870E-04   756   0.312E-02
   3 F= -.11131151E+03 E0= -.11131151E+03  d E =-.731733E-02
 curvature:  -3.05 expect dE=-0.420E-02 dE for cont linesearch -0.197E-02
 ZBRENT: increasing intervall
 opt :  10.0000  next Energy=  -111.312084 (dE=-0.789E-02)
 bond charge predicted
       N       E                     dE             d eps       ncg     rms          rms(c)
DAV:   1    -0.111319181156E+03   -0.75923E-02   -0.39322E-01  1078   0.168E+00    0.620E-01
DAV:   2    -0.111317008861E+03    0.21723E-02   -0.30797E-02  1260   0.490E-01    0.253E-01
DAV:   3    -0.111316203206E+03    0.80565E-03   -0.25900E-03  1260   0.134E-01    0.139E-01
DAV:   4    -0.111315940671E+03    0.26253E-03   -0.38914E-04  1050   0.569E-02    0.585E-02
DAV:   5    -0.111315899973E+03    0.40698E-04   -0.14248E-04   756   0.345E-02
   4 F= -.11131590E+03 E0= -.11131590E+03  d E =-.117039E-01
 curvature:  -0.88 expect dE=-0.281E-02 dE for cont linesearch -0.113E-04
 trial: gam= 1.37288 g(F)=  0.246E-02 g(S)=  0.719E-03 ort = 0.167E-03 (trialstep = 0.790E+00)
 search vector abs. value=  0.778E-02
 bond charge predicted
       N       E                     dE             d eps       ncg     rms          rms(c)
DAV:   1    -0.111318419122E+03   -0.24785E-02   -0.19957E-02  1078   0.376E-01    0.911E-02
DAV:   2    -0.111318529370E+03   -0.11025E-03   -0.15695E-03  1260   0.109E-01    0.403E-02
DAV:   3    -0.111318521740E+03    0.76302E-05   -0.39169E-05   742   0.213E-02
   5 F= -.11131852E+03 E0= -.11131852E+03  d E =-.262177E-02
 ZBRENT: can't locate minimum, use default step
 trial-energy change:   -0.002622  1 .order   -0.002623   -0.002697   -0.002549
 step:   3.1611(harm= 14.3625)  dis= 0.00800  next Energy=  -111.340409 (dE=-0.245E-01)
 bond charge predicted
       N       E                     dE             d eps       ncg     rms          rms(c)
DAV:   1    -0.111323950104E+03   -0.54207E-02   -0.17968E-01  1008   0.112E+00    0.252E-01
DAV:   2    -0.111324901589E+03   -0.95149E-03   -0.13606E-02  1260   0.323E-01    0.109E-01
DAV:   3    -0.111324831466E+03    0.70123E-04   -0.42431E-04  1260   0.635E-02
   6 F= -.11132483E+03 E0= -.11132483E+03  d E =-.893149E-02
 curvature:  -5.22 expect dE=-0.149E-01 dE for cont linesearch -0.315E-02
 ZBRENT: increasing intervall
 opt :   7.9026  next Energy=  -111.330080 (dE=-0.142E-01)
 bond charge predicted
       N       E                     dE             d eps       ncg     rms          rms(c)
DAV:   1    -0.111324256318E+03    0.64527E-03   -0.72188E-01  1008   0.225E+00    0.496E-01
DAV:   2    -0.111327965236E+03   -0.37089E-02   -0.53784E-02  1260   0.644E-01    0.230E-01
DAV:   3    -0.111327656875E+03    0.30836E-03   -0.17289E-03  1260   0.127E-01    0.152E-01
DAV:   4    -0.111327492856E+03    0.16402E-03   -0.35879E-04  1078   0.533E-02    0.853E-02
DAV:   5    -0.111327448641E+03    0.44216E-04   -0.22688E-04   798   0.461E-02
   7 F= -.11132745E+03 E0= -.11132745E+03  d E =-.115487E-01
 curvature:  -8.71 expect dE=-0.368E-01 dE for cont linesearch -0.789E-04
 trial: gam= 1.07453 g(F)=  0.378E-02 g(S)=  0.443E-03 ort =-0.265E-03 (trialstep = 0.136E+01)
 search vector abs. value=  0.126E-01
 bond charge predicted
       N       E                     dE             d eps       ncg     rms          rms(c)
DAV:   1    -0.111330762205E+03   -0.32693E-02   -0.12105E-01  1008   0.907E-01    0.216E-01
DAV:   2    -0.111331518701E+03   -0.75650E-03   -0.94535E-03  1260   0.269E-01    0.741E-02
DAV:   3    -0.111331482121E+03    0.36579E-04   -0.18332E-04   938   0.471E-02
   8 F= -.11133148E+03 E0= -.11133148E+03  d E =-.403348E-02
 trial-energy change:   -0.004033  1 .order   -0.004609   -0.005369   -0.003848
 step:   4.8081(harm=  4.8081)  dis= 0.01345  next Energy=  -111.336924 (dE=-0.948E-02)
 bond charge predicted
       N       E                     dE             d eps       ncg     rms          rms(c)
DAV:   1    -0.111333834827E+03   -0.23161E-02   -0.77710E-01  1008   0.229E+00    0.501E-01
DAV:   2    -0.111338670628E+03   -0.48358E-02   -0.58844E-02  1260   0.676E-01    0.210E-01
DAV:   3    -0.111338420538E+03    0.25009E-03   -0.12446E-03  1274   0.116E-01    0.154E-01
DAV:   4    -0.111338293699E+03    0.12684E-03   -0.29827E-04   854   0.496E-02    0.918E-02
DAV:   5    -0.111338270213E+03    0.23485E-04   -0.19184E-04   756   0.405E-02
   9 F= -.11133827E+03 E0= -.11133827E+03  d E =-.108216E-01
 curvature:  -7.71 expect dE=-0.395E-01 dE for cont linesearch -0.157E-02
 ZBRENT: increasing intervall
 opt :  11.6998  next Energy=  -111.340914 (dE=-0.135E-01)
 bond charge predicted
       N       E                     dE             d eps       ncg     rms          rms(c)
DAV:   1    -0.111322480030E+03    0.15814E-01   -0.31148E+00  1008   0.459E+00    0.104E+00
DAV:   2    -0.111342357933E+03   -0.19878E-01   -0.24164E-01  1260   0.136E+00    0.396E-01
DAV:   3    -0.111341440203E+03    0.91773E-03   -0.51217E-03  1274   0.236E-01    0.289E-01
DAV:   4    -0.111341021296E+03    0.41891E-03   -0.12199E-03  1316   0.945E-02    0.174E-01
DAV:   5    -0.111340924523E+03    0.96774E-04   -0.36512E-04  1078   0.564E-02
  10 F= -.11134092E+03 E0= -.11134092E+03  d E =-.134759E-01
 curvature: -12.99 expect dE=-0.868E-01 dE for cont linesearch -0.227E-03
 trial: gam= 1.18677 g(F)=  0.501E-02 g(S)=  0.167E-02 ort =-0.470E-03 (trialstep = 0.186E+01)
 search vector abs. value=  0.234E-01
 bond charge predicted
       N       E                     dE             d eps       ncg     rms          rms(c)
DAV:   1    -0.111349100150E+03   -0.80789E-02   -0.48652E-01  1008   0.180E+00    0.499E-01
DAV:   2    -0.111350642889E+03   -0.15427E-02   -0.37175E-02  1260   0.540E-01    0.213E-01
DAV:   3    -0.111350348911E+03    0.29398E-03   -0.11279E-03  1260   0.100E-01    0.134E-01
DAV:   4    -0.111350195258E+03    0.15365E-03   -0.27886E-04   854   0.487E-02    0.633E-02
DAV:   5    -0.111350186025E+03    0.92338E-05   -0.15915E-04   756   0.354E-02
  11 F= -.11135019E+03 E0= -.11135019E+03  d E =-.926150E-02
 trial-energy change:   -0.009262  1 .order   -0.009900   -0.011363   -0.008436
 step:   7.2036(harm=  7.2036)  dis= 0.02428  next Energy=  -111.362985 (dE=-0.221E-01)
 bond charge predicted
       N       E                     dE             d eps       ncg     rms          rms(c)
DAV:   1    -0.111350731969E+03   -0.53671E-03   -0.41194E+00  1008   0.523E+00    0.144E+00
DAV:   2    -0.111364631454E+03   -0.13899E-01   -0.31909E-01  1260   0.158E+00    0.634E-01
DAV:   3    -0.111361985461E+03    0.26460E-02   -0.93392E-03  1274   0.290E-01    0.406E-01
DAV:   4    -0.111360580590E+03    0.14049E-02   -0.28341E-03  1274   0.146E-01    0.193E-01
DAV:   5    -0.111360431127E+03    0.14946E-03   -0.75732E-04  1176   0.755E-02    0.840E-02
DAV:   6    -0.111360419043E+03    0.12084E-04   -0.99315E-05   756   0.279E-02
  12 F= -.11136042E+03 E0= -.11136042E+03  d E =-.194945E-01
 curvature: -13.74 expect dE=-0.102E+00 dE for cont linesearch -0.650E-07
 trial: gam= 0.93693 g(F)=  0.712E-02 g(S)=  0.339E-03 ort =-0.105E-04 (trialstep = 0.245E+01)
 search vector abs. value=  0.280E-01
 bond charge predicted
       N       E                     dE             d eps       ncg     rms          rms(c)
DAV:   1    -0.111366040863E+03   -0.56097E-02   -0.93946E-01  1008   0.251E+00    0.629E-01
DAV:   2    -0.111370829922E+03   -0.47891E-02   -0.73055E-02  1260   0.760E-01    0.268E-01
DAV:   3    -0.111370439028E+03    0.39089E-03   -0.23310E-03  1302   0.147E-01    0.170E-01
DAV:   4    -0.111370210776E+03    0.22825E-03   -0.42883E-04  1120   0.578E-02    0.907E-02
DAV:   5    -0.111370154012E+03    0.56763E-04   -0.18609E-04   756   0.427E-02
  13 F= -.11137015E+03 E0= -.11137015E+03  d E =-.973497E-02
 trial-energy change:   -0.009735  1 .order   -0.011198   -0.018207   -0.004190
 step:   3.1768(harm=  3.1768)  dis= 0.01377  next Energy=  -111.372244 (dE=-0.118E-01)
 bond charge predicted
       N       E                     dE             d eps       ncg     rms          rms(c)
DAV:   1    -0.111370117849E+03    0.92927E-04   -0.81095E-02  1022   0.740E-01    0.204E-01
DAV:   2    -0.111370503463E+03   -0.38561E-03   -0.63841E-03  1260   0.224E-01    0.862E-02
DAV:   3    -0.111370472688E+03    0.30775E-04   -0.20504E-04   910   0.456E-02
  14 F= -.11137047E+03 E0= -.11137047E+03  d E =-.100536E-01
 curvature:  -5.96 expect dE=-0.366E-01 dE for cont linesearch -0.130E-04
 trial: gam= 0.28693 g(F)=  0.532E-02 g(S)=  0.816E-03 ort =-0.247E-03 (trialstep = 0.259E+01)
 search vector abs. value=  0.830E-02
 bond charge predicted
       N       E                     dE             d eps       ncg     rms          rms(c)
DAV:   1    -0.111381717009E+03   -0.11214E-01   -0.31217E-01  1008   0.147E+00    0.463E-01
DAV:   2    -0.111382587511E+03   -0.87050E-03   -0.27364E-02  1260   0.466E-01    0.223E-01
DAV:   3    -0.111382380210E+03    0.20730E-03   -0.13202E-03  1274   0.105E-01    0.159E-01
DAV:   4    -0.111382245883E+03    0.13433E-03   -0.20058E-04   798   0.438E-02    0.705E-02
DAV:   5    -0.111382209835E+03    0.36048E-04   -0.13528E-04   756   0.353E-02
  15 F= -.11138221E+03 E0= -.11138221E+03  d E =-.117371E-01
 trial-energy change:   -0.011737  1 .order   -0.012011   -0.015725   -0.008298
 step:   5.4876(harm=  5.4876)  dis= 0.01335  next Energy=  -111.387119 (dE=-0.166E-01)
 bond charge predicted
       N       E                     dE             d eps       ncg     rms          rms(c)
DAV:   1    -0.111385589967E+03   -0.33441E-02   -0.38946E-01  1008   0.165E+00    0.527E-01
DAV:   2    -0.111386662116E+03   -0.10721E-02   -0.34668E-02  1260   0.522E-01    0.232E-01
DAV:   3    -0.111386400702E+03    0.26141E-03   -0.16757E-03  1288   0.118E-01    0.161E-01
DAV:   4    -0.111386243329E+03    0.15737E-03   -0.24059E-04   840   0.474E-02    0.719E-02
DAV:   5    -0.111386197175E+03    0.46154E-04   -0.14638E-04   756   0.367E-02
  16 F= -.11138620E+03 E0= -.11138620E+03  d E =-.157245E-01
 curvature:  -3.75 expect dE=-0.181E-01 dE for cont linesearch -0.212E-04
 trial: gam= 0.79626 g(F)=  0.431E-02 g(S)=  0.501E-03 ort =-0.216E-03 (trialstep = 0.270E+01)
 search vector abs. value=  0.973E-02
 bond charge predicted
       N       E                     dE             d eps       ncg     rms          rms(c)
DAV:   1    -0.111392316715E+03   -0.60734E-02   -0.44010E-01  1008   0.171E+00    0.435E-01
DAV:   2    -0.111394841379E+03   -0.25247E-02   -0.34287E-02  1274   0.525E-01    0.190E-01
DAV:   3    -0.111394732054E+03    0.10933E-03   -0.13452E-03  1316   0.110E-01    0.118E-01
DAV:   4    -0.111394655406E+03    0.76648E-04   -0.15688E-04   756   0.391E-02
  17 F= -.11139466E+03 E0= -.11139466E+03  d E =-.845823E-02
 trial-energy change:   -0.008458  1 .order   -0.009448   -0.012548   -0.006348
 step:   5.4744(harm=  5.4744)  dis= 0.01219  next Energy=  -111.398895 (dE=-0.127E-01)
 bond charge predicted
       N       E                     dE             d eps       ncg     rms          rms(c)
DAV:   1    -0.111395809499E+03   -0.10774E-02   -0.45423E-01  1008   0.174E+00    0.432E-01
DAV:   2    -0.111398289808E+03   -0.24803E-02   -0.34645E-02  1274   0.530E-01    0.209E-01
DAV:   3    -0.111398185484E+03    0.10432E-03   -0.14700E-03  1316   0.114E-01    0.123E-01
DAV:   4    -0.111398100111E+03    0.85373E-04   -0.17052E-04   756   0.411E-02
  18 F= -.11139810E+03 E0= -.11139810E+03  d E =-.119029E-01
 curvature:  -5.74 expect dE=-0.185E-01 dE for cont linesearch -0.578E-03
 ZBRENT: increasing intervall
 opt :  11.0136  next Energy=  -111.396062 (dE=-0.986E-02)
 bond charge predicted
       N       E                     dE             d eps       ncg     rms          rms(c)
DAV:   1    -0.111380678645E+03    0.17507E-01   -0.18347E+00  1008   0.349E+00    0.880E-01
DAV:   2    -0.111390942921E+03   -0.10264E-01   -0.14112E-01  1274   0.107E+00    0.410E-01
DAV:   3    -0.111390506075E+03    0.43685E-03   -0.58089E-03  1316   0.227E-01    0.245E-01
DAV:   4    -0.111390179230E+03    0.32685E-03   -0.80466E-04  1260   0.815E-02    0.144E-01
DAV:   5    -0.111390052715E+03    0.12652E-03   -0.34133E-04  1036   0.592E-02    0.810E-02
DAV:   6    -0.111390061912E+03   -0.91966E-05   -0.18258E-04   756   0.379E-02
  19 F= -.11139006E+03 E0= -.11139006E+03  d E =-.386474E-02
 curvature:  20.25 expect dE= 0.150E+00 dE for cont linesearch  0.262E-01
 ZBRENT: bracketing found
 ZBRENT: interpolating
 opt :   6.6823  next Energy=  -111.398698 (dE=-0.125E-01)
 bond charge predicted
       N       E                     dE             d eps       ncg     rms          rms(c)
DAV:   1    -0.111393188879E+03   -0.31362E-02   -0.11300E+00  1008   0.273E+00    0.680E-01
DAV:   2    -0.111399720311E+03   -0.65314E-02   -0.87276E-02  1260   0.840E-01    0.314E-01
DAV:   3    -0.111399429648E+03    0.29066E-03   -0.34281E-03  1316   0.175E-01    0.207E-01
DAV:   4    -0.111399229753E+03    0.19990E-03   -0.43892E-04  1106   0.609E-02    0.130E-01
DAV:   5    -0.111399126299E+03    0.10345E-03   -0.22587E-04   826   0.494E-02    0.607E-02
DAV:   6    -0.111399130778E+03   -0.44790E-05   -0.17388E-04   756   0.358E-02
  20 F= -.11139913E+03 E0= -.11139913E+03  d E =-.129336E-01
 curvature:  -0.46 expect dE=-0.146E-02 dE for cont linesearch -0.165E-04
 trial: gam= 0.33730 g(F)=  0.200E-02 g(S)=  0.116E-02 ort = 0.589E-03 (trialstep = 0.350E+01)
 search vector abs. value=  0.466E-02
 bond charge predicted
       N       E                     dE             d eps       ncg     rms          rms(c)
DAV:   1    -0.111406847551E+03   -0.77213E-02   -0.42805E-01  1050   0.171E+00    0.619E-01
DAV:   2    -0.111406526194E+03    0.32136E-03   -0.34246E-02  1260   0.535E-01    0.265E-01
DAV:   3    -0.111405956511E+03    0.56968E-03   -0.25129E-03  1246   0.138E-01    0.165E-01
DAV:   4    -0.111405666903E+03    0.28961E-03   -0.33614E-04   952   0.563E-02    0.849E-02
DAV:   5    -0.111405576732E+03    0.90171E-04   -0.28146E-04   826   0.490E-02
  21 F= -.11140558E+03 E0= -.11140558E+03  d E =-.644595E-02
 trial-energy change:   -0.006446  1 .order   -0.006894   -0.011740   -0.002048
 step:   4.6763(harm=  4.2402)  dis= 0.00822  next Energy=  -111.405904 (dE=-0.677E-02)
 bond charge predicted
       N       E                     dE             d eps       ncg     rms          rms(c)
DAV:   1    -0.111405668652E+03   -0.17481E-05   -0.47560E-02  1106   0.575E-01    0.213E-01
DAV:   2    -0.111405595455E+03    0.73197E-04   -0.38592E-03  1260   0.179E-01    0.919E-02
DAV:   3    -0.111405527675E+03    0.67780E-04   -0.30824E-04   980   0.495E-02
  22 F= -.11140553E+03 E0= -.11140553E+03  d E =-.639690E-02
 curvature:  -1.92 expect dE=-0.346E-02 dE for cont linesearch -0.177E-04
 trial: gam= 0.47366 g(F)=  0.165E-02 g(S)=  0.154E-03 ort =-0.207E-03 (trialstep = 0.374E+01)
 search vector abs. value=  0.265E-02
 bond charge predicted
       N       E                     dE             d eps       ncg     rms          rms(c)
DAV:   1    -0.111409162755E+03   -0.35673E-02   -0.24127E-01  1008   0.128E+00    0.396E-01
DAV:   2    -0.111410279041E+03   -0.11163E-02   -0.19003E-02  1260   0.384E-01    0.145E-01
DAV:   3    -0.111410023930E+03    0.25511E-03   -0.47995E-04  1274   0.705E-02    0.105E-01
DAV:   4    -0.111409864909E+03    0.15902E-03   -0.28478E-04   840   0.507E-02    0.389E-02
DAV:   5    -0.111409866575E+03   -0.16659E-05   -0.13484E-04   756   0.330E-02
  23 F= -.11140987E+03 E0= -.11140987E+03  d E =-.433890E-02
 trial-energy change:   -0.004339  1 .order   -0.004722   -0.006367   -0.003076
 step:   7.2276(harm=  7.2276)  dis= 0.00858  next Energy=  -111.411687 (dE=-0.616E-02)
 bond charge predicted
       N       E                     dE             d eps       ncg     rms          rms(c)
DAV:   1    -0.111408789644E+03    0.10753E-02   -0.21273E-01  1008   0.120E+00    0.385E-01
DAV:   2    -0.111409906959E+03   -0.11173E-02   -0.17283E-02  1260   0.363E-01    0.124E-01
DAV:   3    -0.111409710458E+03    0.19650E-03   -0.40284E-04  1176   0.660E-02    0.888E-02
DAV:   4    -0.111409593649E+03    0.11681E-03   -0.22033E-04   756   0.451E-02    0.341E-02
DAV:   5    -0.111409594532E+03   -0.88321E-06   -0.11913E-04   756   0.317E-02
  24 F= -.11140959E+03 E0= -.11140959E+03  d E =-.406686E-02
 curvature:  -5.62 expect dE=-0.208E-01 dE for cont linesearch -0.220E-03
 trial: gam= 1.92221 g(F)=  0.208E-02 g(S)=  0.162E-02 ort =-0.322E-03 (trialstep = 0.959E+00)
 search vector abs. value=  0.123E-01
 bond charge predicted
       N       E                     dE             d eps       ncg     rms          rms(c)
DAV:   1    -0.111411779919E+03   -0.21863E-02   -0.69738E-02  1022   0.675E-01    0.183E-01
DAV:   2    -0.111412038098E+03   -0.25818E-03   -0.52757E-03  1260   0.200E-01    0.814E-02
DAV:   3    -0.111411988697E+03    0.49400E-04   -0.12855E-04   756   0.377E-02
  25 F= -.11141199E+03 E0= -.11141199E+03  d E =-.239417E-02
 trial-energy change:   -0.002394  1 .order   -0.002439   -0.002954   -0.001923
 step:   2.7480(harm=  2.7480)  dis= 0.00784  next Energy=  -111.413827 (dE=-0.423E-02)
 bond charge predicted
       N       E                     dE             d eps       ncg     rms          rms(c)
DAV:   1    -0.111413666580E+03   -0.16285E-02   -0.23811E-01  1008   0.124E+00    0.318E-01
DAV:   2    -0.111414424405E+03   -0.75783E-03   -0.17320E-02  1260   0.365E-01    0.161E-01
DAV:   3    -0.111414248492E+03    0.17591E-03   -0.52814E-04  1260   0.696E-02    0.111E-01
DAV:   4    -0.111414129751E+03    0.11874E-03   -0.13252E-04   756   0.348E-02    0.557E-02
DAV:   5    -0.111414102076E+03    0.27675E-04   -0.13786E-04   756   0.325E-02
  26 F= -.11141410E+03 E0= -.11141410E+03  d E =-.450754E-02
 curvature:  -5.47 expect dE=-0.121E-01 dE for cont linesearch -0.394E-03
 ZBRENT: increasing intervall
 opt :   6.3260  next Energy=  -111.413650 (dE=-0.406E-02)
 bond charge predicted
       N       E                     dE             d eps       ncg     rms          rms(c)
DAV:   1    -0.111408371821E+03    0.57579E-02   -0.97364E-01  1008   0.252E+00    0.669E-01
DAV:   2    -0.111411906761E+03   -0.35349E-02   -0.72254E-02  1260   0.745E-01    0.315E-01
DAV:   3    -0.111411249299E+03    0.65746E-03   -0.21190E-03  1288   0.140E-01    0.215E-01
DAV:   4    -0.111410833343E+03    0.41596E-03   -0.58265E-04  1176   0.670E-02    0.106E-01
DAV:   5    -0.111410732228E+03    0.10111E-03   -0.24096E-04   756   0.456E-02    0.331E-02
DAV:   6    -0.111410732880E+03   -0.65199E-06   -0.81622E-05   756   0.273E-02
  27 F= -.11141073E+03 E0= -.11141073E+03  d E =-.113835E-02
 curvature:   6.28 expect dE= 0.283E-01 dE for cont linesearch  0.259E-02
 ZBRENT: bracketing found
 ZBRENT: interpolating
 opt :   3.8023  next Energy=  -111.414597 (dE=-0.500E-02)
 bond charge predicted
       N       E                     dE             d eps       ncg     rms          rms(c)
DAV:   1    -0.111412774012E+03   -0.20418E-02   -0.48492E-01  1008   0.177E+00    0.462E-01
DAV:   2    -0.111414547872E+03   -0.17739E-02   -0.35777E-02  1260   0.525E-01    0.223E-01
DAV:   3    -0.111414222555E+03    0.32532E-03   -0.10342E-03  1274   0.979E-02    0.151E-01
DAV:   4    -0.111414020446E+03    0.20211E-03   -0.25884E-04   798   0.479E-02    0.753E-02
DAV:   5    -0.111413988161E+03    0.32285E-04   -0.22207E-04   784   0.410E-02
  28 F= -.11141399E+03 E0= -.11141399E+03  d E =-.439363E-02
 curvature:  -1.20 expect dE=-0.383E-02 dE for cont linesearch -0.840E-04
 ZBRENT: interpolating
 opt :   3.2789  next Energy=  -111.414231 (dE=-0.464E-02)
 bond charge predicted
       N       E                     dE             d eps       ncg     rms          rms(c)
DAV:   1    -0.111414151826E+03   -0.13138E-03   -0.20955E-02  1050   0.371E-01    0.101E-01
DAV:   2    -0.111414219633E+03   -0.67807E-04   -0.15845E-03  1260   0.109E-01    0.426E-02
DAV:   3    -0.111414204762E+03    0.14871E-04   -0.42550E-05   742   0.216E-02
  29 F= -.11141420E+03 E0= -.11141420E+03  d E =-.461023E-02
 curvature:  -3.46 expect dE=-0.861E-02 dE for cont linesearch -0.193E-04
 trial: gam= 0.20672 g(F)=  0.159E-02 g(S)=  0.898E-03 ort =-0.261E-03 (trialstep = 0.142E+01)
 search vector abs. value=  0.290E-02
 bond charge predicted
       N       E                     dE             d eps       ncg     rms          rms(c)
DAV:   1    -0.111417301128E+03   -0.30815E-02   -0.43781E-02  1008   0.561E-01    0.204E-01
DAV:   2    -0.111417368464E+03   -0.67336E-04   -0.34729E-03  1260   0.166E-01    0.669E-02
DAV:   3    -0.111417270871E+03    0.97593E-04   -0.11405E-04   756   0.374E-02
  30 F= -.11141727E+03 E0= -.11141727E+03  d E =-.306611E-02
 ZBRENT: can't locate minimum, use default step
 trial-energy change:   -0.003066  1 .order   -0.003105   -0.003459   -0.002750
 step:   5.6922(harm=  6.9385)  dis= 0.00669  next Energy=  -111.422639 (dE=-0.843E-02)
 bond charge predicted
       N       E                     dE             d eps       ncg     rms          rms(c)
DAV:   1    -0.111421216299E+03   -0.38478E-02   -0.37877E-01  1092   0.165E+00    0.600E-01
DAV:   2    -0.111421410575E+03   -0.19428E-03   -0.29260E-02  1260   0.482E-01    0.198E-01
DAV:   3    -0.111420479153E+03    0.93142E-03   -0.12749E-03  1288   0.113E-01    0.131E-01
DAV:   4    -0.111420055167E+03    0.42399E-03   -0.74573E-04  1176   0.764E-02    0.457E-02
DAV:   5    -0.111420024025E+03    0.31142E-04   -0.14240E-04   756   0.376E-02
  31 F= -.11142002E+03 E0= -.11142002E+03  d E =-.581926E-02
 curvature:  -3.93 expect dE=-0.725E-02 dE for cont linesearch -0.359E-03
 ZBRENT: interpolating
 opt :   4.7942  next Energy=  -111.420255 (dE=-0.605E-02)
 bond charge predicted
       N       E                     dE             d eps       ncg     rms          rms(c)
DAV:   1    -0.111420430409E+03   -0.37524E-03   -0.17320E-02  1036   0.352E-01    0.112E-01
DAV:   2    -0.111420443686E+03   -0.13277E-04   -0.13559E-03  1260   0.105E-01    0.537E-02
DAV:   3    -0.111420403776E+03    0.39909E-04   -0.43242E-05   700   0.229E-02
  32 F= -.11142040E+03 E0= -.11142040E+03  d E =-.619901E-02
 curvature:  -2.53 expect dE=-0.388E-02 dE for cont linesearch -0.270E-04
 trial: gam= 0.71426 g(F)=  0.120E-02 g(S)=  0.337E-03 ort =-0.176E-03 (trialstep = 0.210E+01)
 search vector abs. value=  0.276E-02
 bond charge predicted
       N       E                     dE             d eps       ncg     rms          rms(c)
DAV:   1    -0.111421546363E+03   -0.11027E-02   -0.64689E-02  1008   0.668E-01    0.190E-01
DAV:   2    -0.111421534166E+03    0.12197E-04   -0.48380E-03  1260   0.200E-01    0.100E-01
DAV:   3    -0.111421457962E+03    0.76204E-04   -0.29004E-04   924   0.499E-02
  33 F= -.11142146E+03 E0= -.11142146E+03  d E =-.105419E-02
 trial-energy change:   -0.001054  1 .order   -0.001750   -0.002952   -0.000548
 step:   2.5751(harm=  2.5751)  dis= 0.00413  next Energy=  -111.422216 (dE=-0.181E-02)
 bond charge predicted
       N       E                     dE             d eps       ncg     rms          rms(c)
DAV:   1    -0.111421506820E+03    0.27346E-04   -0.29040E-03  1078   0.142E-01    0.460E-02
DAV:   2    -0.111421462105E+03    0.44715E-04   -0.17604E-04   840   0.412E-02
  34 F= -.11142146E+03 E0= -.11142146E+03  d E =-.105833E-02
 curvature:  -2.53 expect dE=-0.202E-02 dE for cont linesearch -0.285E-05
 trial: gam= 0.30585 g(F)=  0.713E-03 g(S)=  0.877E-04 ort = 0.558E-04 (trialstep = 0.219E+01)
 search vector abs. value=  0.109E-02
 bond charge predicted
       N       E                     dE             d eps       ncg     rms          rms(c)
DAV:   1    -0.111422424680E+03   -0.91786E-03   -0.27769E-02  1008   0.436E-01    0.136E-01
DAV:   2    -0.111422504996E+03   -0.80316E-04   -0.22111E-03  1260   0.132E-01    0.602E-02
DAV:   3    -0.111422473285E+03    0.31711E-04   -0.58068E-05   742   0.248E-02
  35 F= -.11142247E+03 E0= -.11142247E+03  d E =-.101118E-02
 trial-energy change:   -0.001011  1 .order   -0.001332   -0.001794   -0.000871
 step:   4.2638(harm=  4.2638)  dis= 0.00357  next Energy=  -111.423206 (dE=-0.174E-02)
 bond charge predicted
       N       E                     dE             d eps       ncg     rms          rms(c)
DAV:   1    -0.111422632357E+03   -0.12736E-03   -0.23433E-02  1050   0.401E-01    0.122E-01
DAV:   2    -0.111422683504E+03   -0.51147E-04   -0.18062E-03  1274   0.119E-01    0.517E-02
DAV:   3    -0.111422656404E+03    0.27100E-04   -0.55921E-05   756   0.238E-02
  36 F= -.11142266E+03 E0= -.11142266E+03  d E =-.119430E-02
 curvature:  -2.85 expect dE=-0.278E-02 dE for cont linesearch -0.126E-05
 trial: gam= 1.13888 g(F)=  0.827E-03 g(S)=  0.149E-03 ort =-0.220E-04 (trialstep = 0.122E+01)
 search vector abs. value=  0.234E-02
 bond charge predicted
       N       E                     dE             d eps       ncg     rms          rms(c)
DAV:   1    -0.111423203756E+03   -0.52025E-03   -0.20124E-02  1050   0.366E-01    0.105E-01
DAV:   2    -0.111423301207E+03   -0.97451E-04   -0.15361E-03  1316   0.110E-01    0.416E-02
DAV:   3    -0.111423286497E+03    0.14710E-04   -0.40137E-05   742   0.212E-02
  37 F= -.11142329E+03 E0= -.11142329E+03  d E =-.630093E-03
 trial-energy change:   -0.000630  1 .order   -0.000672   -0.001156   -0.000187
 step:   1.4502(harm=  1.4502)  dis= 0.00172  next Energy=  -111.423346 (dE=-0.690E-03)
 bond charge predicted
       N       E                     dE             d eps       ncg     rms          rms(c)
DAV:   1    -0.111423309206E+03   -0.79997E-05   -0.64469E-04  1078   0.657E-02    0.187E-02
DAV:   2    -0.111423308820E+03    0.38624E-06   -0.35607E-05   700   0.190E-02
  38 F= -.11142331E+03 E0= -.11142331E+03  d E =-.652416E-03
 curvature:  -1.79 expect dE=-0.180E-02 dE for cont linesearch -0.861E-05
 trial: gam= 0.53688 g(F)=  0.922E-03 g(S)=  0.841E-04 ort = 0.106E-03 (trialstep = 0.126E+01)
 search vector abs. value=  0.180E-02
 bond charge predicted
       N       E                     dE             d eps       ncg     rms          rms(c)
DAV:   1    -0.111424281302E+03   -0.97210E-03   -0.15355E-02  1022   0.320E-01    0.928E-02
DAV:   2    -0.111424341727E+03   -0.60425E-04   -0.12675E-03  1274   0.101E-01    0.442E-02
DAV:   3    -0.111424329123E+03    0.12605E-04   -0.43229E-05   686   0.209E-02
  39 F= -.11142433E+03 E0= -.11142433E+03  d E =-.102030E-02
 trial-energy change:   -0.001020  1 .order   -0.001050   -0.001342   -0.000757
 step:   2.8988(harm=  2.8988)  dis= 0.00279  next Energy=  -111.424849 (dE=-0.154E-02)
 bond charge predicted
       N       E                     dE             d eps       ncg     rms          rms(c)
DAV:   1    -0.111424710501E+03   -0.36877E-03   -0.24831E-02  1008   0.409E-01    0.117E-01
DAV:   2    -0.111424789576E+03   -0.79074E-04   -0.20068E-03  1260   0.127E-01    0.555E-02
DAV:   3    -0.111424767518E+03    0.22058E-04   -0.77997E-05   728   0.277E-02
  40 F= -.11142477E+03 E0= -.11142477E+03  d E =-.145870E-02
 curvature:  -2.45 expect dE=-0.117E-02 dE for cont linesearch -0.465E-04
 ZBRENT: extrapolating
 opt :   3.6264  next Energy=  -111.424835 (dE=-0.153E-02)
 bond charge predicted
       N       E                     dE             d eps       ncg     rms          rms(c)
DAV:   1    -0.111424757819E+03    0.31757E-04   -0.46619E-03  1092   0.177E-01    0.502E-02
DAV:   2    -0.111424762912E+03   -0.50935E-05   -0.34681E-04  1134   0.543E-02
  41 F= -.11142476E+03 E0= -.11142476E+03  d E =-.145409E-02
 curvature:  -3.54 expect dE=-0.289E-02 dE for cont linesearch -0.380E-05
 trial: gam= 0.93229 g(F)=  0.686E-03 g(S)=  0.132E-03 ort =-0.439E-04 (trialstep = 0.136E+01)
 search vector abs. value=  0.230E-02
 bond charge predicted
       N       E                     dE             d eps       ncg     rms          rms(c)
DAV:   1    -0.111425470051E+03   -0.71223E-03   -0.23007E-02  1036   0.392E-01    0.127E-01
DAV:   2    -0.111425423502E+03    0.46549E-04   -0.18719E-03  1260   0.122E-01    0.646E-02
DAV:   3    -0.111425383649E+03    0.39853E-04   -0.81265E-05   728   0.270E-02
  42 F= -.11142538E+03 E0= -.11142538E+03  d E =-.620737E-03
 trial-energy change:   -0.000621  1 .order   -0.000790   -0.001054   -0.000526
 step:   2.7116(harm=  2.7116)  dis= 0.00289  next Energy=  -111.425815 (dE=-0.105E-02)
 bond charge predicted
       N       E                     dE             d eps       ncg     rms          rms(c)
DAV:   1    -0.111425603141E+03   -0.17964E-03   -0.21740E-02  1022   0.383E-01    0.123E-01
DAV:   2    -0.111425554004E+03    0.49137E-04   -0.17783E-03  1260   0.118E-01    0.592E-02
DAV:   3    -0.111425518376E+03    0.35628E-04   -0.85248E-05   756   0.273E-02
  43 F= -.11142552E+03 E0= -.11142552E+03  d E =-.755464E-03
 curvature:  -4.01 expect dE=-0.231E-02 dE for cont linesearch -0.865E-05
 trial: gam= 0.36193 g(F)=  0.505E-03 g(S)=  0.723E-04 ort = 0.704E-04 (trialstep = 0.163E+01)
 search vector abs. value=  0.929E-03
 bond charge predicted
       N       E                     dE             d eps       ncg     rms          rms(c)
DAV:   1    -0.111426231930E+03   -0.67793E-03   -0.10545E-02  1036   0.272E-01    0.749E-02
DAV:   2    -0.111426258176E+03   -0.26246E-04   -0.76558E-04  1274   0.769E-02
  44 F= -.11142626E+03 E0= -.11142626E+03  d E =-.739799E-03
 trial-energy change:   -0.000740  1 .order   -0.000656   -0.000981   -0.000330
 step:   2.4532(harm=  2.4532)  dis= 0.00230  next Energy=  -111.426258 (dE=-0.739E-03)
 bond charge predicted
       N       E                     dE             d eps       ncg     rms          rms(c)
DAV:   1    -0.111426395622E+03   -0.16369E-03   -0.27905E-03  1064   0.139E-01    0.392E-02
DAV:   2    -0.111426384850E+03    0.10772E-04   -0.16035E-04   770   0.393E-02
  45 F= -.11142638E+03 E0= -.11142638E+03  d E =-.866474E-03
 curvature:  -1.89 expect dE=-0.102E-02 dE for cont linesearch -0.491E-04
 ZBRENT: increasing intervall
 opt :   4.1034  next Energy=  -111.426563 (dE=-0.104E-02)
 bond charge predicted
       N       E                     dE             d eps       ncg     rms          rms(c)
DAV:   1    -0.111426487109E+03   -0.91488E-04   -0.11307E-02  1008   0.279E-01    0.747E-02
DAV:   2    -0.111426510313E+03   -0.23203E-04   -0.83248E-04  1288   0.812E-02
  46 F= -.11142651E+03 E0= -.11142651E+03  d E =-.991936E-03
 curvature:  -6.86 expect dE=-0.456E-02 dE for cont linesearch -0.408E-04
 trial: gam= 0.94848 g(F)=  0.425E-03 g(S)=  0.241E-03 ort = 0.743E-04 (trialstep = 0.120E+01)
 search vector abs. value=  0.164E-02
 bond charge predicted
       N       E                     dE             d eps       ncg     rms          rms(c)
DAV:   1    -0.111427268525E+03   -0.78142E-03   -0.14036E-02  1008   0.303E-01    0.880E-02
DAV:   2    -0.111427211016E+03    0.57508E-04   -0.98713E-04  1218   0.912E-02
  47 F= -.11142721E+03 E0= -.11142721E+03  d E =-.700704E-03
 trial-energy change:   -0.000701  1 .order   -0.000709   -0.000884   -0.000535
 step:   3.0417(harm=  3.0417)  dis= 0.00248  next Energy=  -111.427630 (dE=-0.112E-02)
 bond charge predicted
       N       E                     dE             d eps       ncg     rms          rms(c)
DAV:   1    -0.111427822683E+03   -0.55416E-03   -0.32631E-02  1008   0.462E-01    0.141E-01
DAV:   2    -0.111427656622E+03    0.16606E-03   -0.24122E-03  1274   0.140E-01    0.858E-02
DAV:   3    -0.111427580062E+03    0.76561E-04   -0.13712E-04   742   0.348E-02
  48 F= -.11142758E+03 E0= -.11142758E+03  d E =-.106975E-02
 curvature:  -3.39 expect dE=-0.312E-02 dE for cont linesearch -0.118E-03
 ZBRENT: increasing intervall
 opt :   6.7229  next Energy=  -111.427696 (dE=-0.119E-02)
 bond charge predicted
       N       E                     dE             d eps       ncg     rms          rms(c)
DAV:   1    -0.111427666194E+03   -0.95719E-05   -0.12816E-01  1008   0.919E-01    0.277E-01
DAV:   2    -0.111427297437E+03    0.36876E-03   -0.95033E-03  1232   0.277E-01    0.142E-01
DAV:   3    -0.111427097319E+03    0.20012E-03   -0.58873E-04  1288   0.670E-02    0.889E-02
DAV:   4    -0.111426987711E+03    0.10961E-03   -0.10566E-04   756   0.312E-02    0.380E-02
DAV:   5    -0.111426961828E+03    0.25883E-04   -0.89540E-05   756   0.260E-02
  49 F= -.11142696E+03 E0= -.11142696E+03  d E =-.451516E-03
 curvature:  -3.36 expect dE=-0.600E-02 dE for cont linesearch -0.212E-03
 ZBRENT: bracketing found
 ZBRENT: interpolating
 opt :   4.6090  next Energy=  -111.427767 (dE=-0.126E-02)
 bond charge predicted
       N       E                     dE             d eps       ncg     rms          rms(c)
DAV:   1    -0.111427746477E+03   -0.75877E-03   -0.43385E-02  1008   0.534E-01    0.165E-01
DAV:   2    -0.111427664726E+03    0.81751E-04   -0.32222E-03  1204   0.162E-01    0.879E-02
DAV:   3    -0.111427605949E+03    0.58777E-04   -0.16321E-04   742   0.380E-02
  50 F= -.11142761E+03 E0= -.11142761E+03  d E =-.109564E-02
 curvature:  -2.97 expect dE=-0.317E-02 dE for cont linesearch -0.810E-04
 ZBRENT: interpolating
 opt :   3.8719  next Energy=  -111.427684 (dE=-0.117E-02)
 bond charge predicted
       N       E                     dE             d eps       ncg     rms          rms(c)
DAV:   1    -0.111427663627E+03    0.10986E-05   -0.46619E-03  1036   0.175E-01    0.535E-02
DAV:   2    -0.111427629644E+03    0.33984E-04   -0.31028E-04   966   0.518E-02
  51 F= -.11142763E+03 E0= -.11142763E+03  d E =-.111933E-02
 curvature:  -2.86 expect dE=-0.282E-02 dE for cont linesearch -0.951E-06
 trial: gam= 1.24929 g(F)=  0.884E-03 g(S)=  0.103E-03 ort =-0.234E-04 (trialstep = 0.816E+00)
 search vector abs. value=  0.349E-02
 bond charge predicted
       N       E                     dE             d eps       ncg     rms          rms(c)
DAV:   1    -0.111428238458E+03   -0.57483E-03   -0.14886E-02  1008   0.310E-01    0.932E-02
DAV:   2    -0.111428298894E+03   -0.60435E-04   -0.11490E-03  1218   0.951E-02    0.411E-02
DAV:   3    -0.111428294373E+03    0.45209E-05   -0.42858E-05   546   0.208E-02
  52 F= -.11142829E+03 E0= -.11142829E+03  d E =-.664729E-03
 trial-energy change:   -0.000665  1 .order   -0.000676   -0.000782   -0.000570
 step:   3.0209(harm=  3.0209)  dis= 0.00360  next Energy=  -111.429076 (dE=-0.145E-02)
 bond charge predicted
       N       E                     dE             d eps       ncg     rms          rms(c)
DAV:   1    -0.111428916158E+03   -0.61726E-03   -0.10740E-01  1008   0.826E-01    0.226E-01
DAV:   2    -0.111429211754E+03   -0.29560E-03   -0.79587E-03  1260   0.252E-01    0.118E-01
DAV:   3    -0.111429139550E+03    0.72204E-04   -0.33310E-04  1022   0.548E-02
  53 F= -.11142914E+03 E0= -.11142914E+03  d E =-.150991E-02
 curvature:  -5.51 expect dE=-0.360E-02 dE for cont linesearch -0.660E-04
 ZBRENT: extrapolating
 opt :   3.9334  next Energy=  -111.429233 (dE=-0.160E-02)
 bond charge predicted
       N       E                     dE             d eps       ncg     rms          rms(c)
DAV:   1    -0.111429147256E+03    0.64497E-04   -0.17575E-02  1008   0.333E-01    0.833E-02
DAV:   2    -0.111429128285E+03    0.18972E-04   -0.11670E-03  1260   0.992E-02    0.617E-02
DAV:   3    -0.111429103999E+03    0.24286E-04   -0.64862E-05   756   0.247E-02
  54 F= -.11142910E+03 E0= -.11142910E+03  d E =-.147435E-02
 curvature:  -7.79 expect dE=-0.814E-02 dE for cont linesearch -0.674E-05
 trial: gam= 0.87670 g(F)=  0.756E-03 g(S)=  0.290E-03 ort =-0.550E-04 (trialstep = 0.138E+01)
 search vector abs. value=  0.363E-02
 bond charge predicted
       N       E                     dE             d eps       ncg     rms          rms(c)
DAV:   1    -0.111429991606E+03   -0.86332E-03   -0.41874E-02  1008   0.518E-01    0.117E-01
DAV:   2    -0.111430106601E+03   -0.11500E-03   -0.28409E-03  1260   0.153E-01    0.619E-02
DAV:   3    -0.111430071014E+03    0.35587E-04   -0.10252E-04   756   0.336E-02
  55 F= -.11143007E+03 E0= -.11143007E+03  d E =-.967015E-03
 trial-energy change:   -0.000967  1 .order   -0.000977   -0.001380   -0.000575
 step:   2.3706(harm=  2.3706)  dis= 0.00307  next Energy=  -111.430286 (dE=-0.118E-02)
 bond charge predicted
       N       E                     dE             d eps       ncg     rms          rms(c)
DAV:   1    -0.111430095636E+03    0.10965E-04   -0.20898E-02  1008   0.365E-01    0.805E-02
DAV:   2    -0.111430128465E+03   -0.32829E-04   -0.13739E-03  1260   0.107E-01    0.475E-02
DAV:   3    -0.111430105655E+03    0.22810E-04   -0.54816E-05   756   0.243E-02
  56 F= -.11143011E+03 E0= -.11143011E+03  d E =-.100166E-02
 curvature:  -4.32 expect dE=-0.534E-02 dE for cont linesearch -0.559E-06
 trial: gam= 0.67303 g(F)=  0.906E-03 g(S)=  0.331E-03 ort =-0.217E-04 (trialstep = 0.158E+01)
 search vector abs. value=  0.285E-02
 bond charge predicted
       N       E                     dE             d eps       ncg     rms          rms(c)
DAV:   1    -0.111431427380E+03   -0.12989E-02   -0.44384E-02  1008   0.540E-01    0.176E-01
DAV:   2    -0.111431273562E+03    0.15382E-03   -0.34512E-03  1260   0.165E-01    0.866E-02
DAV:   3    -0.111431192559E+03    0.81003E-04   -0.17384E-04   756   0.385E-02
  57 F= -.11143119E+03 E0= -.11143119E+03  d E =-.108690E-02
 trial-energy change:   -0.001087  1 .order   -0.001317   -0.001932   -0.000703
 step:   2.4846(harm=  2.4846)  dis= 0.00287  next Energy=  -111.431624 (dE=-0.152E-02)
 bond charge predicted
       N       E                     dE             d eps       ncg     rms          rms(c)
DAV:   1    -0.111431251307E+03    0.22256E-04   -0.13475E-02  1008   0.297E-01    0.971E-02
DAV:   2    -0.111431183976E+03    0.67330E-04   -0.10425E-03  1274   0.904E-02    0.473E-02
DAV:   3    -0.111431156615E+03    0.27362E-04   -0.60864E-05   742   0.223E-02
  58 F= -.11143116E+03 E0= -.11143116E+03  d E =-.105096E-02
 curvature:  -2.90 expect dE=-0.179E-02 dE for cont linesearch -0.970E-05
 trial: gam= 0.50891 g(F)=  0.521E-03 g(S)=  0.951E-04 ort =-0.977E-04 (trialstep = 0.176E+01)
 search vector abs. value=  0.126E-02
 bond charge predicted
       N       E                     dE             d eps       ncg     rms          rms(c)
DAV:   1    -0.111431622336E+03   -0.43836E-03   -0.19298E-02  1008   0.355E-01    0.879E-02
DAV:   2    -0.111431733351E+03   -0.11101E-03   -0.15328E-03  1274   0.108E-01    0.405E-02
DAV:   3    -0.111431725823E+03    0.75280E-05   -0.38153E-05   742   0.206E-02
  59 F= -.11143173E+03 E0= -.11143173E+03  d E =-.569209E-03
 trial-energy change:   -0.000569  1 .order   -0.000703   -0.000998   -0.000408
 step:   2.9831(harm=  2.9831)  dis= 0.00261  next Energy=  -111.432001 (dE=-0.845E-03)
 bond charge predicted
       N       E                     dE             d eps       ncg     rms          rms(c)
DAV:   1    -0.111431892396E+03   -0.15905E-03   -0.91373E-03  1022   0.245E-01    0.599E-02
DAV:   2    -0.111431940500E+03   -0.48104E-04   -0.70132E-04  1260   0.738E-02
  60 F= -.11143194E+03 E0= -.11143194E+03  d E =-.783886E-03
 curvature:  -3.31 expect dE=-0.202E-02 dE for cont linesearch -0.491E-05
 trial: gam= 0.86854 g(F)=  0.483E-03 g(S)=  0.128E-03 ort =-0.432E-04 (trialstep = 0.170E+01)
 search vector abs. value=  0.148E-02
 bond charge predicted
       N       E                     dE             d eps       ncg     rms          rms(c)
DAV:   1    -0.111432461134E+03   -0.56874E-03   -0.23276E-02  1022   0.388E-01    0.108E-01
DAV:   2    -0.111432531601E+03   -0.70467E-04   -0.17238E-03  1260   0.116E-01    0.538E-02
DAV:   3    -0.111432508496E+03    0.23105E-04   -0.53376E-05   742   0.237E-02
  61 F= -.11143251E+03 E0= -.11143251E+03  d E =-.567996E-03
 trial-energy change:   -0.000568  1 .order   -0.000601   -0.000973   -0.000229
 step:   2.2219(harm=  2.2219)  dis= 0.00261  next Energy=  -111.432577 (dE=-0.637E-03)
 bond charge predicted
       N       E                     dE             d eps       ncg     rms          rms(c)
DAV:   1    -0.111432497232E+03    0.34369E-04   -0.19203E-03  1036   0.112E-01    0.295E-02
DAV:   2    -0.111432493408E+03    0.38235E-05   -0.11482E-04   672   0.328E-02
  62 F= -.11143249E+03 E0= -.11143249E+03  d E =-.552908E-03
 curvature:  -2.87 expect dE=-0.208E-02 dE for cont linesearch -0.812E-06
 trial: gam= 0.90851 g(F)=  0.567E-03 g(S)=  0.157E-03 ort =-0.205E-04 (trialstep = 0.140E+01)
 search vector abs. value=  0.191E-02
 bond charge predicted
       N       E                     dE             d eps       ncg     rms          rms(c)
DAV:   1    -0.111432992487E+03   -0.49526E-03   -0.22657E-02  1050   0.383E-01    0.122E-01
DAV:   2    -0.111432893123E+03    0.99364E-04   -0.16850E-03  1302   0.115E-01    0.632E-02
DAV:   3    -0.111432844688E+03    0.48435E-04   -0.93069E-05   728   0.282E-02
  63 F= -.11143284E+03 E0= -.11143284E+03  d E =-.351280E-03
 trial-energy change:   -0.000351  1 .order   -0.000521   -0.000987   -0.000054
 step:   1.4802(harm=  1.4802)  dis= 0.00144  next Energy=  -111.433016 (dE=-0.522E-03)
 bond charge predicted
       N       E                     dE             d eps       ncg     rms          rms(c)
DAV:   1    -0.111432813711E+03    0.79413E-04   -0.49255E-05   588   0.209E-02    0.162E-02
DAV:   2    -0.111432809241E+03    0.44696E-05   -0.14672E-05   574   0.114E-02
  64 F= -.11143281E+03 E0= -.11143281E+03  d E =-.315833E-03
 curvature:  -2.00 expect dE=-0.102E-02 dE for cont linesearch -0.450E-05
 trial: gam= 0.59553 g(F)=  0.487E-03 g(S)=  0.207E-04 ort =-0.655E-04 (trialstep = 0.142E+01)
 search vector abs. value=  0.111E-02
 bond charge predicted
       N       E                     dE             d eps       ncg     rms          rms(c)
DAV:   1    -0.111433443771E+03   -0.63006E-03   -0.12458E-02  1008   0.283E-01    0.807E-02
DAV:   2    -0.111433476787E+03   -0.33016E-04   -0.95975E-04  1274   0.865E-02
  65 F= -.11143348E+03 E0= -.11143348E+03  d E =-.667546E-03
 trial-energy change:   -0.000668  1 .order   -0.000572   -0.000663   -0.000481
 step:   5.1482(harm=  5.1482)  dis= 0.00407  next Energy=  -111.434015 (dE=-0.121E-02)
 bond charge predicted
       N       E                     dE             d eps       ncg     rms          rms(c)
DAV:   1    -0.111432971376E+03    0.47240E-03   -0.85864E-02  1008   0.743E-01    0.206E-01
DAV:   2    -0.111433136707E+03   -0.16533E-03   -0.65097E-03  1274   0.226E-01    0.106E-01
DAV:   3    -0.111433041277E+03    0.95430E-04   -0.24711E-04   910   0.487E-02
  66 F= -.11143304E+03 E0= -.11143304E+03  d E =-.232036E-03
 curvature:  -6.08 expect dE=-0.810E-02 dE for cont linesearch -0.745E-03
 ZBRENT: interpolating
 opt :   3.2064  next Energy=  -111.433781 (dE=-0.972E-03)
 bond charge predicted
       N       E                     dE             d eps       ncg     rms          rms(c)
DAV:   1    -0.111433463214E+03   -0.32651E-03   -0.24964E-02  1008   0.402E-01    0.129E-01
DAV:   2    -0.111433590201E+03   -0.12699E-03   -0.21296E-03  1260   0.127E-01    0.430E-02
DAV:   3    -0.111433578206E+03    0.11995E-04   -0.57132E-05   588   0.249E-02
  67 F= -.11143358E+03 E0= -.11143358E+03  d E =-.768965E-03
 curvature:  -2.48 expect dE=-0.178E-02 dE for cont linesearch -0.734E-04
 ZBRENT: interpolating
 opt :   2.5839  next Energy=  -111.433635 (dE=-0.825E-03)
 bond charge predicted
       N       E                     dE             d eps       ncg     rms          rms(c)
DAV:   1    -0.111433634061E+03   -0.43859E-04   -0.22112E-03  1022   0.119E-01    0.309E-02
DAV:   2    -0.111433630331E+03    0.37292E-05   -0.13024E-04   546   0.351E-02
  68 F= -.11143363E+03 E0= -.11143363E+03  d E =-.821090E-03
 curvature:  -1.90 expect dE=-0.107E-02 dE for cont linesearch -0.784E-06
 trial: gam= 1.15612 g(F)=  0.347E-03 g(S)=  0.214E-03 ort =-0.213E-04 (trialstep = 0.917E+00)
 search vector abs. value=  0.199E-02
 bond charge predicted
       N       E                     dE             d eps       ncg     rms          rms(c)
DAV:   1    -0.111433775712E+03   -0.14165E-03   -0.96590E-03  1008   0.250E-01    0.706E-02
DAV:   2    -0.111433833004E+03   -0.57291E-04   -0.76484E-04  1190   0.757E-02
  69 F= -.11143383E+03 E0= -.11143383E+03  d E =-.202672E-03
 trial-energy change:   -0.000203  1 .order   -0.000273   -0.000491   -0.000054
 step:   1.0308(harm=  1.0308)  dis= 0.00114  next Energy=  -111.433906 (dE=-0.276E-03)
 bond charge predicted
       N       E                     dE             d eps       ncg     rms          rms(c)
DAV:   1    -0.111433836034E+03   -0.60322E-04   -0.15313E-04   588   0.331E-02    0.132E-02
DAV:   2    -0.111433837323E+03   -0.12892E-05   -0.20736E-05   546   0.156E-02
  70 F= -.11143384E+03 E0= -.11143384E+03  d E =-.206992E-03
 curvature:  -1.92 expect dE=-0.848E-03 dE for cont linesearch -0.190E-06
 trial: gam= 0.43261 g(F)=  0.428E-03 g(S)=  0.147E-04 ort =-0.141E-04 (trialstep = 0.940E+00)
 search vector abs. value=  0.803E-03
 bond charge predicted
       N       E                     dE             d eps       ncg     rms          rms(c)
DAV:   1    -0.111434146383E+03   -0.31035E-03   -0.37973E-03  1008   0.155E-01    0.418E-02
DAV:   2    -0.111434161713E+03   -0.15329E-04   -0.27060E-04  1022   0.472E-02
  71 F= -.11143416E+03 E0= -.11143416E+03  d E =-.324390E-03
 trial-energy change:   -0.000324  1 .order   -0.000325   -0.000411   -0.000240
 step:   2.2564(harm=  2.2564)  dis= 0.00163  next Energy=  -111.434330 (dE=-0.493E-03)
 bond charge predicted
       N       E                     dE             d eps       ncg     rms          rms(c)
DAV:   1    -0.111434123114E+03    0.23270E-04   -0.74636E-03  1008   0.218E-01    0.565E-02
DAV:   2    -0.111434150705E+03   -0.27591E-04   -0.55889E-04  1260   0.661E-02
  72 F= -.11143415E+03 E0= -.11143415E+03  d E =-.313382E-03
 curvature:  -2.07 expect dE=-0.128E-02 dE for cont linesearch -0.769E-04
 ZBRENT: interpolating
 opt :   1.7250  next Energy=  -111.434197 (dE=-0.359E-03)
 bond charge predicted
       N       E                     dE             d eps       ncg     rms          rms(c)
DAV:   1    -0.111434215595E+03   -0.92481E-04   -0.12330E-03   966   0.907E-02    0.418E-02
DAV:   2    -0.111434221115E+03   -0.55202E-05   -0.10800E-04   504   0.296E-02
  73 F= -.11143422E+03 E0= -.11143422E+03  d E =-.383792E-03
 curvature:  -1.24 expect dE=-0.565E-03 dE for cont linesearch -0.191E-04
 ZBRENT: bisectioning
 opt :   1.3324  next Energy=  -111.434256 (dE=-0.419E-03)
 bond charge predicted
       N       E                     dE             d eps       ncg     rms          rms(c)
DAV:   1    -0.111434224188E+03   -0.85929E-05   -0.72916E-04  1008   0.670E-02    0.186E-02
DAV:   2    -0.111434227431E+03   -0.32434E-05   -0.47286E-05   504   0.207E-02
  74 F= -.11143423E+03 E0= -.11143423E+03  d E =-.390108E-03
 curvature:  -2.26 expect dE=-0.682E-03 dE for cont linesearch -0.292E-04
 ZBRENT: interpolating
 opt :   1.5199  next Energy=  -111.434237 (dE=-0.400E-03)
 bond charge predicted
       N       E                     dE             d eps       ncg     rms          rms(c)
DAV:   1    -0.111434234058E+03   -0.98697E-05   -0.15005E-04   574   0.340E-02    0.108E-02
DAV:   2    -0.111434235296E+03   -0.12385E-05   -0.23416E-05   504   0.145E-02
  75 F= -.11143424E+03 E0= -.11143424E+03  d E =-.397973E-03
 curvature:  -0.74 expect dE=-0.275E-03 dE for cont linesearch -0.244E-05
 trial: gam= 1.12780 g(F)=  0.340E-03 g(S)=  0.313E-04 ort =-0.514E-04 (trialstep = 0.664E+00)
 search vector abs. value=  0.128E-02
 bond charge predicted
       N       E                     dE             d eps       ncg     rms          rms(c)
DAV:   1    -0.111434379311E+03   -0.14525E-03   -0.35730E-03  1008   0.149E-01    0.498E-02
DAV:   2    -0.111434385354E+03   -0.60434E-05   -0.24630E-04   756   0.458E-02
  76 F= -.11143439E+03 E0= -.11143439E+03  d E =-.150058E-03
 trial-energy change:   -0.000150  1 .order   -0.000155   -0.000208   -0.000102
 step:   1.3033(harm=  1.3033)  dis= 0.00135  next Energy=  -111.434440 (dE=-0.204E-03)
 bond charge predicted
       N       E                     dE             d eps       ncg     rms          rms(c)
DAV:   1    -0.111434441867E+03   -0.62556E-04   -0.32095E-03  1022   0.140E-01    0.437E-02
DAV:   2    -0.111434440608E+03    0.12588E-05   -0.20440E-04   812   0.423E-02
  77 F= -.11143444E+03 E0= -.11143444E+03  d E =-.205312E-03
 curvature:  -2.65 expect dE=-0.138E-02 dE for cont linesearch -0.288E-05
 trial: gam= 1.17561 g(F)=  0.480E-03 g(S)=  0.385E-04 ort = 0.372E-04 (trialstep = 0.427E+00)
 search vector abs. value=  0.237E-02
 bond charge predicted
       N       E                     dE             d eps       ncg     rms          rms(c)
DAV:   1    -0.111434564902E+03   -0.12303E-03   -0.23571E-03  1022   0.120E-01    0.328E-02
DAV:   2    -0.111434564340E+03    0.56165E-06   -0.14027E-04   560   0.359E-02
  78 F= -.11143456E+03 E0= -.11143456E+03  d E =-.123732E-03
 trial-energy change:   -0.000124  1 .order   -0.000142   -0.000240   -0.000045
 step:   0.5249(harm=  0.5249)  dis= 0.00074  next Energy=  -111.434588 (dE=-0.147E-03)
 bond charge predicted
       N       E                     dE             d eps       ncg     rms          rms(c)
DAV:   1    -0.111434568207E+03   -0.33054E-05   -0.13050E-04   574   0.296E-02    0.134E-02
DAV:   2    -0.111434568587E+03   -0.38014E-06   -0.22090E-05   504   0.154E-02
  79 F= -.11143457E+03 E0= -.11143457E+03  d E =-.127979E-03
 curvature:  -1.11 expect dE=-0.679E-03 dE for cont linesearch -0.398E-06
 trial: gam= 0.91174 g(F)=  0.544E-03 g(S)=  0.685E-04 ort = 0.292E-04 (trialstep = 0.401E+00)
 search vector abs. value=  0.264E-02
 bond charge predicted
       N       E                     dE             d eps       ncg     rms          rms(c)
DAV:   1    -0.111434783576E+03   -0.21537E-03   -0.21229E-03  1008   0.115E-01    0.228E-02
DAV:   2    -0.111434791100E+03   -0.75236E-05   -0.12319E-04   560   0.335E-02
  80 F= -.11143479E+03 E0= -.11143479E+03  d E =-.222512E-03
 trial-energy change:   -0.000223  1 .order   -0.000191   -0.000257   -0.000125
 step:   0.7807(harm=  0.7807)  dis= 0.00113  next Energy=  -111.434818 (dE=-0.250E-03)
 bond charge predicted
       N       E                     dE             d eps       ncg     rms          rms(c)
DAV:   1    -0.111434878865E+03   -0.95289E-04   -0.19388E-03   980   0.109E-01    0.213E-02
DAV:   2    -0.111434884461E+03   -0.55958E-05   -0.11160E-04   518   0.322E-02
  81 F= -.11143488E+03 E0= -.11143488E+03  d E =-.315874E-03
 curvature:  -1.61 expect dE=-0.786E-03 dE for cont linesearch -0.194E-04
 ZBRENT: increasing intervall
 opt :   1.5395  next Energy=  -111.434919 (dE=-0.351E-03)
 bond charge predicted
       N       E                     dE             d eps       ncg     rms          rms(c)
DAV:   1    -0.111434894140E+03   -0.15275E-04   -0.74766E-03  1008   0.216E-01    0.446E-02
DAV:   2    -0.111434925167E+03   -0.31026E-04   -0.51558E-04  1218   0.631E-02
  82 F= -.11143493E+03 E0= -.11143493E+03  d E =-.356579E-03
 curvature:  -2.89 expect dE=-0.180E-02 dE for cont linesearch -0.308E-04
 ZBRENT: bracketing found
 ZBRENT: interpolating
 opt :   1.1719  next Energy=  -111.434956 (dE=-0.387E-03)
 bond charge predicted
       N       E                     dE             d eps       ncg     rms          rms(c)
DAV:   1    -0.111434917816E+03   -0.23676E-04   -0.17123E-03   966   0.106E-01    0.418E-02
DAV:   2    -0.111434925674E+03   -0.78573E-05   -0.13058E-04   518   0.326E-02
  83 F= -.11143493E+03 E0= -.11143493E+03  d E =-.357086E-03
 curvature:  -2.89 expect dE=-0.131E-02 dE for cont linesearch -0.504E-05
 trial: gam= 0.87435 g(F)=  0.328E-03 g(S)=  0.126E-03 ort = 0.678E-04 (trialstep = 0.555E+00)
 search vector abs. value=  0.259E-02
 bond charge predicted
       N       E                     dE             d eps       ncg     rms          rms(c)
DAV:   1    -0.111435082865E+03   -0.16505E-03   -0.40322E-03  1008   0.163E-01    0.389E-02
DAV:   2    -0.111435095275E+03   -0.12410E-04   -0.27032E-04   840   0.466E-02
  84 F= -.11143510E+03 E0= -.11143510E+03  d E =-.169601E-03
 trial-energy change:   -0.000170  1 .order   -0.000135   -0.000285    0.000015
 step:   0.5283(harm=  0.5283)  dis= 0.00076  next Energy=  -111.435061 (dE=-0.136E-03)
 bond charge predicted
       N       E                     dE             d eps       ncg     rms          rms(c)
DAV:   1    -0.111435094861E+03   -0.11996E-04   -0.26988E-05   518   0.171E-02    0.113E-02
DAV:   2    -0.111435093917E+03    0.94349E-06   -0.62310E-06   504   0.783E-03
  85 F= -.11143509E+03 E0= -.11143509E+03  d E =-.168243E-03
 curvature:  -1.33 expect dE=-0.691E-03 dE for cont linesearch -0.180E-07
 trial: gam= 0.64276 g(F)=  0.441E-03 g(S)=  0.776E-04 ort =-0.591E-05 (trialstep = 0.550E+00)
 search vector abs. value=  0.158E-02
 bond charge predicted
       N       E                     dE             d eps       ncg     rms          rms(c)
DAV:   1    -0.111435308636E+03   -0.21378E-03   -0.28038E-03  1008   0.133E-01    0.395E-02
DAV:   2    -0.111435302593E+03    0.60427E-05   -0.17501E-04   616   0.395E-02
  86 F= -.11143530E+03 E0= -.11143530E+03  d E =-.208676E-03
 trial-energy change:   -0.000209  1 .order   -0.000215   -0.000283   -0.000146
 step:   1.1354(harm=  1.1354)  dis= 0.00121  next Energy=  -111.435386 (dE=-0.292E-03)
 bond charge predicted
       N       E                     dE             d eps       ncg     rms          rms(c)
DAV:   1    -0.111435354018E+03   -0.45382E-04   -0.32816E-03  1036   0.142E-01    0.421E-02
DAV:   2    -0.111435341092E+03    0.12926E-04   -0.21487E-04   826   0.430E-02
  87 F= -.11143534E+03 E0= -.11143534E+03  d E =-.247175E-03
 curvature:  -1.74 expect dE=-0.961E-03 dE for cont linesearch -0.157E-05
 trial: gam= 0.65609 g(F)=  0.540E-03 g(S)=  0.115E-04 ort = 0.378E-04 (trialstep = 0.667E+00)
 search vector abs. value=  0.128E-02
 bond charge predicted
       N       E                     dE             d eps       ncg     rms          rms(c)
DAV:   1    -0.111435546568E+03   -0.19255E-03   -0.28643E-03  1008   0.136E-01    0.374E-02
DAV:   2    -0.111435534301E+03    0.12267E-04   -0.18898E-04   630   0.417E-02
  88 F= -.11143553E+03 E0= -.11143553E+03  d E =-.193209E-03
 trial-energy change:   -0.000193  1 .order   -0.000225   -0.000385   -0.000065
 step:   0.8020(harm=  0.8020)  dis= 0.00070  next Energy=  -111.435572 (dE=-0.231E-03)
 bond charge predicted
       N       E                     dE             d eps       ncg     rms          rms(c)
DAV:   1    -0.111435539762E+03    0.68066E-05   -0.12371E-04   630   0.304E-02    0.159E-02
DAV:   2    -0.111435536633E+03    0.31292E-05   -0.30189E-05   546   0.176E-02
  89 F= -.11143554E+03 E0= -.11143554E+03  d E =-.195541E-03
 curvature:  -0.89 expect dE=-0.221E-03 dE for cont linesearch -0.356E-05
 ZBRENT: increasing intervall
 opt :   1.0719  next Energy=  -111.435549 (dE=-0.208E-03)
 bond charge predicted
       N       E                     dE             d eps       ncg     rms          rms(c)
DAV:   1    -0.111435545147E+03   -0.53849E-05   -0.49901E-04   924   0.561E-02    0.151E-02
DAV:   2    -0.111435544409E+03    0.73730E-06   -0.31214E-05   504   0.173E-02
  90 F= -.11143554E+03 E0= -.11143554E+03  d E =-.203318E-03
 curvature:  -3.11 expect dE=-0.701E-03 dE for cont linesearch -0.107E-05
 trial: gam= 0.34783 g(F)=  0.197E-03 g(S)=  0.279E-04 ort = 0.210E-04 (trialstep = 0.748E+00)
 search vector abs. value=  0.395E-03
 bond charge predicted
       N       E                     dE             d eps       ncg     rms          rms(c)
DAV:   1    -0.111435616381E+03   -0.71234E-04   -0.10286E-03  1022   0.832E-02    0.204E-02
DAV:   2    -0.111435616924E+03   -0.54338E-06   -0.67779E-05   518   0.257E-02
  91 F= -.11143562E+03 E0= -.11143562E+03  d E =-.725146E-04
 trial-energy change:   -0.000073  1 .order   -0.000082   -0.000174    0.000009
 step:   0.7094(harm=  0.7094)  dis= 0.00036  next Energy=  -111.435627 (dE=-0.824E-04)
 bond charge predicted
       N       E                     dE             d eps       ncg     rms          rms(c)
DAV:   1    -0.111435616373E+03    0.72714E-08   -0.13420E-05   504   0.128E-02    0.697E-03
DAV:   2    -0.111435615688E+03    0.68557E-06   -0.27530E-06   504   0.556E-03
  92 F= -.11143562E+03 E0= -.11143562E+03  d E =-.712783E-04
 curvature:  -0.60 expect dE=-0.204E-03 dE for cont linesearch -0.215E-06
 trial: gam= 1.43558 g(F)=  0.281E-03 g(S)=  0.586E-04 ort =-0.119E-04 (trialstep = 0.261E+00)
 search vector abs. value=  0.112E-02
 bond charge predicted
       N       E                     dE             d eps       ncg     rms          rms(c)
DAV:   1    -0.111435686519E+03   -0.70145E-04   -0.36632E-04   910   0.497E-02    0.125E-02
DAV:   2    -0.111435686261E+03    0.25717E-06   -0.25070E-05   518   0.156E-02
  93 F= -.11143569E+03 E0= -.11143569E+03  d E =-.705738E-04
 trial-energy change:   -0.000071  1 .order   -0.000072   -0.000084   -0.000060
 step:   0.9053(harm=  0.9053)  dis= 0.00083  next Energy=  -111.435762 (dE=-0.146E-03)
 bond charge predicted
       N       E                     dE             d eps       ncg     rms          rms(c)
DAV:   1    -0.111435733500E+03   -0.46981E-04   -0.23812E-03  1050   0.125E-01    0.348E-02
DAV:   2    -0.111435730414E+03    0.30857E-05   -0.14837E-04   714   0.378E-02
  94 F= -.11143573E+03 E0= -.11143573E+03  d E =-.114727E-03
 curvature:  -1.57 expect dE=-0.530E-03 dE for cont linesearch -0.251E-06
 trial: gam= 0.53137 g(F)=  0.262E-03 g(S)=  0.748E-04 ort =-0.134E-04 (trialstep = 0.390E+00)
 search vector abs. value=  0.639E-03
 bond charge predicted
       N       E                     dE             d eps       ncg     rms          rms(c)
DAV:   1    -0.111435810312E+03   -0.76812E-04   -0.52636E-04   938   0.587E-02    0.201E-02
DAV:   2    -0.111435801886E+03    0.84255E-05   -0.37466E-05   504   0.192E-02
  95 F= -.11143580E+03 E0= -.11143580E+03  d E =-.714719E-04
 trial-energy change:   -0.000071  1 .order   -0.000102   -0.000129   -0.000075
 step:   0.9335(harm=  0.9335)  dis= 0.00063  next Energy=  -111.435884 (dE=-0.154E-03)
 bond charge predicted
       N       E                     dE             d eps       ncg     rms          rms(c)
DAV:   1    -0.111435862793E+03   -0.52481E-04   -0.93092E-04  1148   0.788E-02    0.311E-02
DAV:   2    -0.111435851227E+03    0.11566E-04   -0.61794E-05   546   0.238E-02
  96 F= -.11143585E+03 E0= -.11143585E+03  d E =-.120812E-03
 curvature:  -0.90 expect dE=-0.206E-03 dE for cont linesearch -0.405E-06
 trial: gam= 0.54077 g(F)=  0.163E-03 g(S)=  0.647E-04 ort = 0.169E-04 (trialstep = 0.499E+00)
 search vector abs. value=  0.433E-03
 bond charge predicted
       N       E                     dE             d eps       ncg     rms          rms(c)
DAV:   1    -0.111435900991E+03   -0.38199E-04   -0.55061E-04   952   0.609E-02    0.224E-02
DAV:   2    -0.111435893964E+03    0.70273E-05   -0.44319E-05   504   0.200E-02
  97 F= -.11143589E+03 E0= -.11143589E+03  d E =-.427375E-04
 trial-energy change:   -0.000043  1 .order   -0.000052   -0.000118    0.000015
 step:   0.4425(harm=  0.4425)  dis= 0.00024  next Energy=  -111.435904 (dE=-0.524E-04)
 bond charge predicted
       N       E                     dE             d eps       ncg     rms          rms(c)
DAV:   1    -0.111435895372E+03    0.56197E-05   -0.23962E-05   504   0.143E-02    0.769E-03
DAV:   2    -0.111435896322E+03   -0.95064E-06   -0.36046E-06   504   0.596E-03
  98 F= -.11143590E+03 E0= -.11143590E+03  d E =-.450956E-04
 curvature:  -0.40 expect dE=-0.941E-04 dE for cont linesearch -0.177E-06
 trial: gam= 0.81229 g(F)=  0.174E-03 g(S)=  0.592E-04 ort =-0.138E-04 (trialstep = 0.425E+00)
 search vector abs. value=  0.496E-03
 bond charge predicted
       N       E                     dE             d eps       ncg     rms          rms(c)
DAV:   1    -0.111435927755E+03   -0.32383E-04   -0.35874E-04   924   0.495E-02    0.129E-02
DAV:   2    -0.111435929439E+03   -0.16845E-05   -0.23324E-05   504   0.147E-02
  99 F= -.11143593E+03 E0= -.11143593E+03  d E =-.331170E-04
 trial-energy change:   -0.000033  1 .order   -0.000053   -0.000094   -0.000011
 step:   0.4829(harm=  0.4829)  dis= 0.00030  next Energy=  -111.435950 (dE=-0.535E-04)
