/etc/profile: 第 79 行:ulimit: stack size: 无法修改 limit 值: 不允许的操作
/home/customer/.bashrc: 第 12 行:ulimit: stack size: 无法修改 limit 值: 不允许的操作
Intel(R) Parallel Studio XE 2018 Update 3 for Linux*
Copyright (C) 2009-2018 Intel Corporation. All rights reserved.
 running on   14 total cores
 distrk:  each k-point on   14 cores,    1 groups
 distr:  one band on    1 cores,   14 groups
 using from now: INCAR     
 vasp.5.4.4.18Apr17-6-g9f103f2a35 (build Oct 27 2022 13:04:57) complex          
  
 POSCAR found type information on POSCAR  Li Sb S 
 POSCAR found :  3 types and      26 ions
 scaLAPACK will be used

 ----------------------------------------------------------------------------- 
|                                                                             |
|           W    W    AA    RRRRR   N    N  II  N    N   GGGG   !!!           |
|           W    W   A  A   R    R  NN   N  II  NN   N  G    G  !!!           |
|           W    W  A    A  R    R  N N  N  II  N N  N  G       !!!           |
|           W WW W  AAAAAA  RRRRR   N  N N  II  N  N N  G  GGG   !            |
|           WW  WW  A    A  R   R   N   NN  II  N   NN  G    G                |
|           W    W  A    A  R    R  N    N  II  N    N   GGGG   !!!           |
|                                                                             |
|      For optimal performance we recommend to set                            |
|        NCORE= 4 - approx SQRT( number of cores)                             |
|      NCORE specifies how many cores store one orbital (NPAR=cpu/NCORE).     |
|      This setting can  greatly improve the performance of VASP for DFT.     |
|      The default,   NCORE=1            might be grossly inefficient         |
|      on modern multi-core architectures or massively parallel machines.     |
|      Do your own testing !!!!                                               |
|      Unfortunately you need to use the default for GW and RPA calculations. |
|      (for HF NCORE is supported but not extensively tested yet)             |
|                                                                             |
 ----------------------------------------------------------------------------- 

 LDA part: xc-table for Pade appr. of Perdew
 POSCAR, INCAR and KPOINTS ok, starting setup
 FFT: planning ...
 WAVECAR not read
 entering main loop
       N       E                     dE             d eps       ncg     rms          rms(c)
DAV:   1     0.587920132354E+03    0.58792E+03   -0.34579E+04  1008   0.786E+02
DAV:   2    -0.360241076311E+02   -0.62394E+03   -0.60343E+03  1274   0.176E+02
DAV:   3    -0.111669874146E+03   -0.75646E+02   -0.74850E+02  1246   0.666E+01
DAV:   4    -0.113850714134E+03   -0.21808E+01   -0.21681E+01  1302   0.129E+01
DAV:   5    -0.113926258599E+03   -0.75544E-01   -0.75487E-01  1372   0.231E+00    0.215E+01
DAV:   6    -0.107853523388E+03    0.60727E+01   -0.15274E+01  1176   0.899E+00    0.164E+01
DAV:   7    -0.107805510482E+03    0.48013E-01   -0.36393E+00  1330   0.410E+00    0.645E+00
DAV:   8    -0.107780306920E+03    0.25204E-01   -0.26187E-01  1344   0.151E+00    0.214E+00
DAV:   9    -0.107795674744E+03   -0.15368E-01   -0.69705E-02  1176   0.809E-01    0.564E-01
DAV:  10    -0.107798604713E+03   -0.29300E-02   -0.48839E-03  1358   0.193E-01    0.277E-01
DAV:  11    -0.107803841595E+03   -0.52369E-02   -0.61716E-03  1176   0.221E-01    0.181E-01
DAV:  12    -0.107804366367E+03   -0.52477E-03   -0.58273E-04  1246   0.650E-02    0.890E-02
DAV:  13    -0.107804866728E+03   -0.50036E-03   -0.55822E-04  1064   0.603E-02    0.447E-02
DAV:  14    -0.107804963943E+03   -0.97215E-04   -0.12620E-04   938   0.303E-02
   1 F= -.10780496E+03 E0= -.10780496E+03  d E =-.107805E+03
 curvature:   0.00 expect dE= 0.000E+00 dE for cont linesearch  0.000E+00
 trial: gam= 0.00000 g(F)=  0.530E-01 g(S)=  0.254E-01 ort = 0.000E+00 (trialstep = 0.100E+01)
 search vector abs. value=  0.784E-01
 bond charge predicted
       N       E                     dE             d eps       ncg     rms          rms(c)
DAV:   1    -0.107891455068E+03   -0.86588E-01   -0.76626E-01  1106   0.211E+00    0.735E-01
DAV:   2    -0.107884839155E+03    0.66159E-02   -0.54698E-02  1176   0.643E-01    0.342E-01
DAV:   3    -0.107882912199E+03    0.19270E-02   -0.43210E-03  1260   0.164E-01    0.212E-01
DAV:   4    -0.107882184913E+03    0.72729E-03   -0.12724E-03  1260   0.908E-02    0.104E-01
DAV:   5    -0.107882088899E+03    0.96014E-04   -0.34220E-04  1078   0.464E-02
   2 F= -.10788209E+03 E0= -.10788209E+03  d E =-.771250E-01
 ZBRENT: can't locate minimum, use default step
 trial-energy change:   -0.077125  1 .order   -0.077831   -0.078431   -0.077231
 step:   4.0000(harm= 65.3619)  dis= 0.02289  next Energy=  -110.368165 (dE=-0.256E+01)
 bond charge predicted
       N       E                     dE             d eps       ncg     rms          rms(c)
DAV:   1    -0.108190470673E+03   -0.30829E+00   -0.68796E+00  1008   0.634E+00    0.221E+00
DAV:   2    -0.108130653901E+03    0.59817E-01   -0.49785E-01  1176   0.193E+00    0.986E-01
DAV:   3    -0.108112836395E+03    0.17818E-01   -0.39916E-02  1260   0.499E-01    0.608E-01
DAV:   4    -0.108106527742E+03    0.63087E-02   -0.10832E-02  1274   0.265E-01    0.324E-01
DAV:   5    -0.108105559674E+03    0.96807E-03   -0.30278E-03  1288   0.134E-01    0.168E-01
DAV:   6    -0.108105480522E+03    0.79152E-04   -0.28418E-04   952   0.446E-02
   3 F= -.10810548E+03 E0= -.10810548E+03  d E =-.300517E+00
 curvature:  -2.98 expect dE=-0.211E+00 dE for cont linesearch -0.202E+00
 ZBRENT: increasing intervall
 opt :  10.0000  next Energy=  -108.518421 (dE=-0.713E+00)
 bond charge predicted
       N       E                     dE             d eps       ncg     rms          rms(c)
DAV:   1    -0.108835198534E+03   -0.72964E+00   -0.27831E+01  1008   0.128E+01    0.457E+00
DAV:   2    -0.108592387932E+03    0.24281E+00   -0.20506E+00  1176   0.392E+00    0.198E+00
DAV:   3    -0.108519921342E+03    0.72467E-01   -0.16995E-01  1260   0.103E+00    0.120E+00
DAV:   4    -0.108497010144E+03    0.22911E-01   -0.39498E-02  1260   0.514E-01    0.701E-01
DAV:   5    -0.108492844288E+03    0.41659E-02   -0.10199E-02  1274   0.249E-01    0.335E-01
DAV:   6    -0.108492262406E+03    0.58188E-03   -0.17579E-03  1372   0.985E-02    0.190E-01
DAV:   7    -0.108492280419E+03   -0.18012E-04   -0.27805E-04   966   0.547E-02
   4 F= -.10849228E+03 E0= -.10849228E+03  d E =-.687316E+00
 curvature:  -6.07 expect dE=-0.330E+00 dE for cont linesearch -0.268E+00
 ZBRENT: increasing intervall
 opt :  22.0000  next Energy=  -109.029101 (dE=-0.122E+01)
 bond charge predicted
       N       E                     dE             d eps       ncg     rms          rms(c)
DAV:   1    -0.110498651119E+03   -0.20064E+01   -0.11361E+02  1008   0.260E+01    0.106E+01
DAV:   2    -0.109490824602E+03    0.10078E+01   -0.87730E+00  1204   0.805E+00    0.404E+00
DAV:   3    -0.109190002076E+03    0.30082E+00   -0.75693E-01  1260   0.221E+00    0.260E+00
DAV:   4    -0.109114620671E+03    0.75381E-01   -0.13429E-01  1288   0.969E-01    0.180E+00
DAV:   5    -0.109094372447E+03    0.20248E-01   -0.30486E-02  1260   0.436E-01    0.729E-01
DAV:   6    -0.109089041473E+03    0.53310E-02   -0.14734E-02  1260   0.288E-01    0.247E-01
DAV:   7    -0.109089208277E+03   -0.16680E-03   -0.19309E-03  1428   0.123E-01    0.111E-01
DAV:   8    -0.109089273344E+03   -0.65067E-04   -0.13722E-04   840   0.397E-02
   5 F= -.10908927E+03 E0= -.10908927E+03  d E =-.128431E+01
 curvature: -12.14 expect dE=-0.773E+00 dE for cont linesearch -0.232E+00
 ZBRENT: increasing intervall
 opt :  46.0000  next Energy=  -109.533611 (dE=-0.173E+01)
 bond charge predicted
       N       E                     dE             d eps       ncg     rms          rms(c)
DAV:   1    -0.115001367224E+03   -0.59122E+01   -0.47141E+02  1008   0.537E+01    0.332E+01
DAV:   2    -0.110899367852E+03    0.41020E+01   -0.40161E+01  1176   0.171E+01    0.931E+00
DAV:   3    -0.109684775076E+03    0.12146E+01   -0.35456E+00  1260   0.491E+00    0.831E+00
DAV:   4    -0.109466474109E+03    0.21830E+00   -0.47439E-01  1260   0.187E+00    0.620E+00
DAV:   5    -0.109330880400E+03    0.13559E+00   -0.16478E-01  1260   0.980E-01    0.191E+00
DAV:   6    -0.109299216160E+03    0.31664E-01   -0.96262E-02  1260   0.821E-01    0.963E-01
DAV:   7    -0.109300770130E+03   -0.15540E-02   -0.18555E-02  1288   0.367E-01    0.445E-01
DAV:   8    -0.109300620543E+03    0.14959E-03   -0.15452E-03  1302   0.106E-01    0.276E-01
DAV:   9    -0.109300755965E+03   -0.13542E-03   -0.73140E-04  1176   0.730E-02    0.211E-01
DAV:  10    -0.109300762459E+03   -0.64938E-05   -0.97245E-05   756   0.296E-02
   6 F= -.10930076E+03 E0= -.10930076E+03  d E =-.149580E+01
 curvature: -23.27 expect dE=-0.515E+01 dE for cont linesearch -0.176E+00
 ZBRENT: bracketing found
 ZBRENT: interpolating
 opt :  36.7317  next Energy=  -109.413586 (dE=-0.161E+01)
 bond charge predicted
       N       E                     dE             d eps       ncg     rms          rms(c)
DAV:   1    -0.110196540822E+03   -0.89578E+00   -0.67036E+01  1008   0.201E+01    0.767E+00
DAV:   2    -0.109655490009E+03    0.54105E+00   -0.47568E+00  1204   0.624E+00    0.389E+00
DAV:   3    -0.109482569838E+03    0.17292E+00   -0.33690E-01  1260   0.152E+00    0.276E+00
DAV:   4    -0.109390396929E+03    0.92173E-01   -0.15652E-01  1260   0.992E-01    0.100E+00
DAV:   5    -0.109380730419E+03    0.96665E-02   -0.39893E-02  1260   0.494E-01    0.477E-01
DAV:   6    -0.109380109619E+03    0.62080E-03   -0.30207E-03  1330   0.147E-01    0.377E-01
DAV:   7    -0.109380022036E+03    0.87583E-04   -0.10077E-03  1246   0.903E-02    0.126E-01
DAV:   8    -0.109380015169E+03    0.68678E-05   -0.27691E-04   924   0.501E-02
   7 F= -.10938002E+03 E0= -.10938002E+03  d E =-.157505E+01
 curvature: -14.93 expect dE=-0.186E+01 dE for cont linesearch -0.284E-02
 trial: gam= 1.54058 g(F)=  0.107E+00 g(S)=  0.177E-01 ort = 0.386E-02 (trialstep = 0.198E+01)
 search vector abs. value=  0.323E+00
 bond charge predicted
       N       E                     dE             d eps       ncg     rms          rms(c)
DAV:   1    -0.109624575461E+03   -0.24455E+00   -0.10526E+01  1008   0.802E+00    0.225E+00
DAV:   2    -0.109632645534E+03   -0.80701E-02   -0.76757E-01  1246   0.250E+00    0.926E-01
DAV:   3    -0.109618902548E+03    0.13743E-01   -0.33684E-02  1260   0.540E-01    0.569E-01
DAV:   4    -0.109613402760E+03    0.54998E-02   -0.11854E-02  1274   0.288E-01    0.325E-01
DAV:   5    -0.109612545207E+03    0.85755E-03   -0.28008E-03  1260   0.151E-01    0.198E-01
DAV:   6    -0.109612483685E+03    0.61522E-04   -0.60533E-04  1190   0.621E-02
   8 F= -.10961248E+03 E0= -.10961248E+03  d E =-.232469E+00
 trial-energy change:   -0.232469  1 .order   -0.225706   -0.258632   -0.192780
 step:   4.4194(harm=  7.7752)  dis= 0.06241  next Energy=  -109.743929 (dE=-0.364E+00)
 bond charge predicted
       N       E                     dE             d eps       ncg     rms          rms(c)
DAV:   1    -0.109821321427E+03   -0.20878E+00   -0.15980E+01  1008   0.988E+00    0.273E+00
DAV:   2    -0.109832105356E+03   -0.10784E-01   -0.11612E+00  1246   0.308E+00    0.115E+00
DAV:   3    -0.109811354125E+03    0.20751E-01   -0.51592E-02  1246   0.667E-01    0.717E-01
DAV:   4    -0.109802941666E+03    0.84125E-02   -0.17505E-02  1260   0.352E-01    0.407E-01
DAV:   5    -0.109801528255E+03    0.14134E-02   -0.44035E-03  1274   0.189E-01    0.238E-01
DAV:   6    -0.109801430429E+03    0.97826E-04   -0.89049E-04  1246   0.757E-02
   9 F= -.10980143E+03 E0= -.10980143E+03  d E =-.421415E+00
 curvature:  -6.38 expect dE=-0.300E+00 dE for cont linesearch -0.716E-01
 ZBRENT: increasing intervall
 opt :   9.2988  next Energy=  -109.913245 (dE=-0.533E+00)
 bond charge predicted
       N       E                     dE             d eps       ncg     rms          rms(c)
DAV:   1    -0.109987377825E+03   -0.18585E+00   -0.63670E+01  1008   0.197E+01    0.598E+00
DAV:   2    -0.110025160041E+03   -0.37782E-01   -0.47242E+00  1246   0.618E+00    0.243E+00
DAV:   3    -0.109945705368E+03    0.79455E-01   -0.21421E-01  1260   0.136E+00    0.157E+00
DAV:   4    -0.109914718374E+03    0.30987E-01   -0.60860E-02  1260   0.666E-01    0.980E-01
DAV:   5    -0.109907614875E+03    0.71035E-02   -0.16785E-02  1260   0.366E-01    0.536E-01
DAV:   6    -0.109906838232E+03    0.77664E-03   -0.43152E-03  1288   0.168E-01    0.296E-01
DAV:   7    -0.109906908669E+03   -0.70436E-04   -0.72458E-04  1232   0.786E-02
  10 F= -.10990691E+03 E0= -.10990691E+03  d E =-.526894E+00
 curvature:  -9.98 expect dE=-0.472E+00 dE for cont linesearch -0.343E-02
 ZBRENT: bracketing found
 ZBRENT: interpolating
 opt :   8.5717  next Energy=  -109.910738 (dE=-0.531E+00)
 bond charge predicted
       N       E                     dE             d eps       ncg     rms          rms(c)
DAV:   1    -0.109914810221E+03   -0.79720E-02   -0.14095E+00  1008   0.294E+00    0.882E-01
DAV:   2    -0.109916034347E+03   -0.12241E-02   -0.10082E-01  1260   0.910E-01    0.369E-01
DAV:   3    -0.109914279509E+03    0.17548E-02   -0.49443E-03  1260   0.205E-01    0.231E-01
DAV:   4    -0.109913481945E+03    0.79756E-03   -0.13835E-03  1260   0.101E-01    0.116E-01
DAV:   5    -0.109913299796E+03    0.18215E-03   -0.47817E-04  1176   0.608E-02    0.559E-02
DAV:   6    -0.109913289328E+03    0.10468E-04   -0.69586E-05   756   0.235E-02
  11 F= -.10991329E+03 E0= -.10991329E+03  d E =-.533274E+00
 curvature: -11.14 expect dE=-0.511E+00 dE for cont linesearch -0.162E-02
 trial: gam= 0.31093 g(F)=  0.367E-01 g(S)=  0.920E-02 ort =-0.685E-02 (trialstep = 0.330E+01)
 search vector abs. value=  0.729E-01
 bond charge predicted
       N       E                     dE             d eps       ncg     rms          rms(c)
DAV:   1    -0.110080672770E+03   -0.16737E+00   -0.45241E+00  1008   0.560E+00    0.195E+00
DAV:   2    -0.110041738375E+03    0.38934E-01   -0.33263E-01  1260   0.170E+00    0.920E-01
DAV:   3    -0.110031852409E+03    0.98860E-02   -0.45968E-02  1260   0.565E-01    0.484E-01
DAV:   4    -0.110028490962E+03    0.33614E-02   -0.44343E-03  1260   0.203E-01    0.278E-01
DAV:   5    -0.110027425759E+03    0.10652E-02   -0.26135E-03  1260   0.140E-01    0.115E-01
DAV:   6    -0.110027414681E+03    0.11078E-04   -0.27161E-04   910   0.474E-02
  12 F= -.11002741E+03 E0= -.11002741E+03  d E =-.114125E+00
 trial-energy change:   -0.114125  1 .order   -0.114700   -0.144387   -0.085012
 step:   8.8967(harm=  8.0202)  dis= 0.06821  next Energy=  -110.096761 (dE=-0.183E+00)
 bond charge predicted
       N       E                     dE             d eps       ncg     rms          rms(c)
DAV:   1    -0.110206825224E+03   -0.17940E+00   -0.13137E+01  1008   0.958E+00    0.349E+00
DAV:   2    -0.110095950326E+03    0.11087E+00   -0.97539E-01  1260   0.291E+00    0.162E+00
DAV:   3    -0.110067021736E+03    0.28929E-01   -0.13221E-01  1260   0.959E-01    0.830E-01
DAV:   4    -0.110057156766E+03    0.98650E-02   -0.12714E-02  1260   0.343E-01    0.489E-01
DAV:   5    -0.110053910272E+03    0.32465E-02   -0.74752E-03  1260   0.237E-01    0.205E-01
DAV:   6    -0.110053850414E+03    0.59858E-04   -0.85098E-04  1260   0.812E-02
  13 F= -.11005385E+03 E0= -.11005385E+03  d E =-.140561E+00
 curvature:  -6.44 expect dE=-0.386E+00 dE for cont linesearch -0.178E-01
 ZBRENT: interpolating
 opt :   6.9080  next Energy=  -110.067970 (dE=-0.155E+00)
 bond charge predicted
       N       E                     dE             d eps       ncg     rms          rms(c)
DAV:   1    -0.110092403759E+03   -0.38493E-01   -0.16642E+00  1036   0.340E+00    0.114E+00
DAV:   2    -0.110078658136E+03    0.13746E-01   -0.12088E-01  1260   0.104E+00    0.571E-01
DAV:   3    -0.110075064679E+03    0.35935E-02   -0.17207E-02  1260   0.346E-01    0.317E-01
DAV:   4    -0.110073738711E+03    0.13260E-02   -0.16444E-03  1260   0.125E-01    0.171E-01
DAV:   5    -0.110073310311E+03    0.42840E-03   -0.10320E-03  1260   0.875E-02    0.595E-02
DAV:   6    -0.110073298409E+03    0.11902E-04   -0.86799E-05   756   0.283E-02
  14 F= -.11007330E+03 E0= -.11007330E+03  d E =-.160009E+00
 curvature:  -5.10 expect dE=-0.192E+00 dE for cont linesearch -0.923E-04
 trial: gam= 0.73233 g(F)=  0.164E-01 g(S)=  0.212E-01 ort =-0.115E-02 (trialstep = 0.391E+01)
 search vector abs. value=  0.749E-01
 bond charge predicted
       N       E                     dE             d eps       ncg     rms          rms(c)
DAV:   1    -0.110183379766E+03   -0.11007E+00   -0.59363E+00  1008   0.641E+00    0.183E+00
DAV:   2    -0.110189483029E+03   -0.61033E-02   -0.45066E-01  1260   0.195E+00    0.987E-01
DAV:   3    -0.110183858309E+03    0.56247E-02   -0.26757E-02  1260   0.459E-01    0.644E-01
DAV:   4    -0.110180529198E+03    0.33291E-02   -0.38211E-03  1260   0.171E-01    0.308E-01
DAV:   5    -0.110179262621E+03    0.12666E-02   -0.28463E-03  1260   0.145E-01    0.131E-01
DAV:   6    -0.110179242941E+03    0.19680E-04   -0.44626E-04  1162   0.586E-02
  15 F= -.11017924E+03 E0= -.11017924E+03  d E =-.105945E+00
 trial-energy change:   -0.105945  1 .order   -0.111758   -0.143454   -0.080061
 step:   8.8442(harm=  8.8442)  dis= 0.06035  next Energy=  -110.235611 (dE=-0.162E+00)
 bond charge predicted
       N       E                     dE             d eps       ncg     rms          rms(c)
DAV:   1    -0.110240974838E+03   -0.61712E-01   -0.94526E+00  1050   0.807E+00    0.235E+00
DAV:   2    -0.110250683086E+03   -0.97082E-02   -0.72024E-01  1274   0.246E+00    0.123E+00
DAV:   3    -0.110241566587E+03    0.91165E-02   -0.42292E-02  1260   0.576E-01    0.814E-01
DAV:   4    -0.110236306310E+03    0.52603E-02   -0.60166E-03  1274   0.215E-01    0.394E-01
DAV:   5    -0.110234222671E+03    0.20836E-02   -0.48349E-03  1246   0.189E-01    0.167E-01
DAV:   6    -0.110234208033E+03    0.14638E-04   -0.75618E-04  1232   0.763E-02
  16 F= -.11023421E+03 E0= -.11023421E+03  d E =-.160910E+00
 curvature:  -9.03 expect dE=-0.208E+00 dE for cont linesearch -0.138E-03
 trial: gam= 0.48699 g(F)=  0.164E-01 g(S)=  0.659E-02 ort = 0.107E-02 (trialstep = 0.490E+01)
 search vector abs. value=  0.418E-01
 bond charge predicted
       N       E                     dE             d eps       ncg     rms          rms(c)
DAV:   1    -0.110313393787E+03   -0.79171E-01   -0.51993E+00  1008   0.593E+00    0.161E+00
DAV:   2    -0.110334082846E+03   -0.20689E-01   -0.38579E-01  1260   0.176E+00    0.697E-01
DAV:   3    -0.110329752703E+03    0.43301E-02   -0.10460E-02  1316   0.324E-01    0.488E-01
DAV:   4    -0.110327112164E+03    0.26405E-02   -0.46450E-03  1260   0.188E-01    0.213E-01
DAV:   5    -0.110326847289E+03    0.26487E-03   -0.14859E-03  1288   0.106E-01    0.995E-02
DAV:   6    -0.110326852158E+03   -0.48688E-05   -0.14125E-04   756   0.356E-02
  17 F= -.11032685E+03 E0= -.11032685E+03  d E =-.926441E-01
 trial-energy change:   -0.092644  1 .order   -0.094078   -0.115256   -0.072901
 step:  13.3217(harm= 13.3217)  dis= 0.05704  next Energy=  -110.391026 (dE=-0.157E+00)
 bond charge predicted
       N       E                     dE             d eps       ncg     rms          rms(c)
DAV:   1    -0.110364950346E+03   -0.38103E-01   -0.15369E+01  1008   0.102E+01    0.292E+00
DAV:   2    -0.110427228142E+03   -0.62278E-01   -0.11399E+00  1260   0.302E+00    0.126E+00
DAV:   3    -0.110414421884E+03    0.12806E-01   -0.30939E-02  1302   0.558E-01    0.883E-01
DAV:   4    -0.110406507558E+03    0.79143E-02   -0.14148E-02  1260   0.328E-01    0.372E-01
DAV:   5    -0.110405755966E+03    0.75159E-03   -0.45147E-03  1260   0.184E-01    0.171E-01
DAV:   6    -0.110405784141E+03   -0.28175E-04   -0.51979E-04  1176   0.614E-02
  18 F= -.11040578E+03 E0= -.11040578E+03  d E =-.171576E+00
 curvature: -11.84 expect dE=-0.201E+00 dE for cont linesearch -0.157E-02
 trial: gam= 0.71824 g(F)=  0.149E-01 g(S)=  0.207E-02 ort = 0.235E-02 (trialstep = 0.656E+01)
 search vector abs. value=  0.420E-01
 bond charge predicted
       N       E                     dE             d eps       ncg     rms          rms(c)
DAV:   1    -0.110471668521E+03   -0.65913E-01   -0.84905E+00  1008   0.743E+00    0.201E+00
DAV:   2    -0.110516486406E+03   -0.44818E-01   -0.65505E-01  1260   0.227E+00    0.778E-01
DAV:   3    -0.110512422681E+03    0.40637E-02   -0.15914E-02  1260   0.406E-01    0.548E-01
DAV:   4    -0.110510145034E+03    0.22776E-02   -0.55919E-03  1274   0.204E-01    0.265E-01
DAV:   5    -0.110509996634E+03    0.14840E-03   -0.13757E-03  1246   0.104E-01    0.120E-01
DAV:   6    -0.110510001425E+03   -0.47914E-05   -0.15089E-04   756   0.367E-02
  19 F= -.11051000E+03 E0= -.11051000E+03  d E =-.104217E+00
 trial-energy change:   -0.104217  1 .order   -0.100423   -0.122678   -0.078169
 step:  12.4114(harm= 18.0767)  dis= 0.06217  next Energy=  -110.547578 (dE=-0.142E+00)
 bond charge predicted
       N       E                     dE             d eps       ncg     rms          rms(c)
DAV:   1    -0.110519221242E+03   -0.92246E-02   -0.67520E+00  1008   0.663E+00    0.177E+00
DAV:   2    -0.110554515080E+03   -0.35294E-01   -0.51781E-01  1260   0.202E+00    0.700E-01
DAV:   3    -0.110551315312E+03    0.31998E-02   -0.12819E-02  1274   0.363E-01    0.488E-01
DAV:   4    -0.110549547009E+03    0.17683E-02   -0.41397E-03  1274   0.175E-01    0.240E-01
DAV:   5    -0.110549389240E+03    0.15777E-03   -0.10867E-03  1246   0.927E-02    0.110E-01
DAV:   6    -0.110549394956E+03   -0.57162E-05   -0.14163E-04   756   0.357E-02
  20 F= -.11054939E+03 E0= -.11054939E+03  d E =-.143611E+00
 curvature: -15.38 expect dE=-0.278E+00 dE for cont linesearch -0.458E-02
 ZBRENT: extrapolating
 opt :  14.8819  next Energy=  -110.553765 (dE=-0.148E+00)
 bond charge predicted
       N       E                     dE             d eps       ncg     rms          rms(c)
DAV:   1    -0.110549159553E+03    0.22969E-03   -0.12046E+00  1008   0.280E+00    0.740E-01
DAV:   2    -0.110555420487E+03   -0.62609E-02   -0.92115E-02  1260   0.852E-01    0.294E-01
DAV:   3    -0.110554865492E+03    0.55500E-03   -0.23046E-03  1274   0.154E-01    0.205E-01
DAV:   4    -0.110554565975E+03    0.29952E-03   -0.68464E-04  1176   0.716E-02    0.101E-01
DAV:   5    -0.110554535453E+03    0.30522E-04   -0.17098E-04   756   0.403E-02
  21 F= -.11055454E+03 E0= -.11055454E+03  d E =-.148751E+00
 curvature: -14.66 expect dE=-0.409E+00 dE for cont linesearch -0.356E-03
 trial: gam= 1.83056 g(F)=  0.134E-01 g(S)=  0.145E-01 ort = 0.101E-02 (trialstep = 0.200E+01)
 search vector abs. value=  0.172E+00
 bond charge predicted
       N       E                     dE             d eps       ncg     rms          rms(c)
DAV:   1    -0.110603393492E+03   -0.48828E-01   -0.31554E+00  1008   0.457E+00    0.122E+00
DAV:   2    -0.110612799071E+03   -0.94056E-02   -0.22845E-01  1260   0.137E+00    0.586E-01
DAV:   3    -0.110609990191E+03    0.28089E-02   -0.89555E-03  1288   0.288E-01    0.393E-01
DAV:   4    -0.110608192278E+03    0.17979E-02   -0.21499E-03  1260   0.133E-01    0.186E-01
DAV:   5    -0.110607757764E+03    0.43451E-03   -0.13366E-03  1288   0.101E-01    0.714E-02
DAV:   6    -0.110607763031E+03   -0.52666E-05   -0.16566E-04   756   0.384E-02
  22 F= -.11060776E+03 E0= -.11060776E+03  d E =-.532276E-01
 trial-energy change:   -0.053228  1 .order   -0.052495   -0.059629   -0.045362
 step:   5.4659(harm=  8.3748)  dis= 0.06251  next Energy=  -110.650730 (dE=-0.962E-01)
 bond charge predicted
       N       E                     dE             d eps       ncg     rms          rms(c)
DAV:   1    -0.110643429152E+03   -0.35671E-01   -0.94434E+00  1008   0.789E+00    0.217E+00
DAV:   2    -0.110672742840E+03   -0.29314E-01   -0.68624E-01  1260   0.237E+00    0.103E+00
DAV:   3    -0.110664347189E+03    0.83957E-02   -0.26153E-02  1302   0.493E-01    0.708E-01
DAV:   4    -0.110658880237E+03    0.54670E-02   -0.65114E-03  1260   0.231E-01    0.337E-01
DAV:   5    -0.110657555362E+03    0.13249E-02   -0.41997E-03  1260   0.179E-01    0.126E-01
DAV:   6    -0.110657586246E+03   -0.30885E-04   -0.60242E-04  1176   0.678E-02
  23 F= -.11065759E+03 E0= -.11065759E+03  d E =-.103051E+00
 curvature: -19.19 expect dE=-0.397E+00 dE for cont linesearch -0.834E-02
 ZBRENT: increasing intervall
 opt :  12.3902  next Energy=  -110.620683 (dE=-0.661E-01)
 bond charge predicted
       N       E                     dE             d eps       ncg     rms          rms(c)
DAV:   1    -0.110574392376E+03    0.83163E-01   -0.37524E+01  1008   0.157E+01    0.488E+00
DAV:   2    -0.110696172495E+03   -0.12178E+00   -0.27587E+00  1260   0.474E+00    0.229E+00
DAV:   3    -0.110662868453E+03    0.33304E-01   -0.10161E-01  1288   0.978E-01    0.162E+00
DAV:   4    -0.110640502748E+03    0.22366E-01   -0.26068E-02  1274   0.461E-01    0.773E-01
DAV:   5    -0.110634820314E+03    0.56824E-02   -0.18614E-02  1260   0.376E-01    0.275E-01
DAV:   6    -0.110634973911E+03   -0.15360E-03   -0.26197E-03  1274   0.142E-01    0.202E-01
DAV:   7    -0.110634957423E+03    0.16488E-04   -0.11738E-04   756   0.335E-02
  24 F= -.11063496E+03 E0= -.11063496E+03  d E =-.804220E-01
 curvature:  84.88 expect dE= 0.493E+01 dE for cont linesearch  0.181E+00
 ZBRENT: bracketing found
 ZBRENT: interpolating
 opt :   7.6196  next Energy=  -110.666906 (dE=-0.112E+00)
 bond charge predicted
       N       E                     dE             d eps       ncg     rms          rms(c)
DAV:   1    -0.110641755053E+03   -0.67811E-02   -0.17890E+01  1008   0.109E+01    0.299E+00
DAV:   2    -0.110697177142E+03   -0.55422E-01   -0.13044E+00  1260   0.325E+00    0.118E+00
DAV:   3    -0.110680779979E+03    0.16397E-01   -0.48879E-02  1302   0.676E-01    0.833E-01
DAV:   4    -0.110671769145E+03    0.90108E-02   -0.11132E-02  1302   0.303E-01    0.431E-01
DAV:   5    -0.110669507480E+03    0.22617E-02   -0.60568E-03  1232   0.218E-01    0.144E-01
DAV:   6    -0.110669528895E+03   -0.21415E-04   -0.10503E-03  1274   0.877E-02    0.109E-01
DAV:   7    -0.110669525417E+03    0.34782E-05   -0.67968E-05   756   0.258E-02
  25 F= -.11066953E+03 E0= -.11066953E+03  d E =-.114990E+00
 curvature:  -4.37 expect dE=-0.112E+00 dE for cont linesearch -0.485E-04
 trial: gam= 0.81204 g(F)=  0.222E-01 g(S)=  0.341E-02 ort = 0.138E-02 (trialstep = 0.313E+01)
 search vector abs. value=  0.141E+00
 bond charge predicted
       N       E                     dE             d eps       ncg     rms          rms(c)
DAV:   1    -0.110732512723E+03   -0.62984E-01   -0.50532E+00  1036   0.584E+00    0.154E+00
DAV:   2    -0.110748463139E+03   -0.15950E-01   -0.38023E-01  1246   0.175E+00    0.645E-01
DAV:   3    -0.110743114118E+03    0.53490E-02   -0.12778E-02  1330   0.361E-01    0.449E-01
DAV:   4    -0.110740073762E+03    0.30404E-02   -0.51052E-03  1246   0.202E-01    0.205E-01
DAV:   5    -0.110739604839E+03    0.46892E-03   -0.15199E-03  1274   0.114E-01    0.101E-01
DAV:   6    -0.110739602573E+03    0.22651E-05   -0.26889E-04   840   0.480E-02
  26 F= -.11073960E+03 E0= -.11073960E+03  d E =-.700772E-01
 trial-energy change:   -0.070077  1 .order   -0.070756   -0.083504   -0.058009
 step:  10.2414(harm= 10.2414)  dis= 0.11655  next Energy=  -110.806274 (dE=-0.137E+00)
 bond charge predicted
       N       E                     dE             d eps       ncg     rms          rms(c)
DAV:   1    -0.110754193441E+03   -0.14589E-01   -0.26320E+01  1008   0.133E+01    0.386E+00
DAV:   2    -0.110839722406E+03   -0.85529E-01   -0.20136E+00  1260   0.401E+00    0.153E+00
DAV:   3    -0.110811368114E+03    0.28354E-01   -0.64350E-02  1330   0.819E-01    0.107E+00
DAV:   4    -0.110795404382E+03    0.15964E-01   -0.28201E-02  1260   0.471E-01    0.494E-01
DAV:   5    -0.110793088041E+03    0.23163E-02   -0.77123E-03  1274   0.260E-01    0.254E-01
DAV:   6    -0.110793091750E+03   -0.37089E-05   -0.15429E-03  1260   0.107E-01    0.143E-01
DAV:   7    -0.110793087333E+03    0.44170E-05   -0.20012E-04   756   0.442E-02
  27 F= -.11079309E+03 E0= -.11079309E+03  d E =-.123562E+00
 curvature: -27.12 expect dE=-0.710E+00 dE for cont linesearch -0.761E-04
 trial: gam= 0.84031 g(F)=  0.130E-01 g(S)=  0.132E-01 ort =-0.630E-03 (trialstep = 0.455E+01)
 search vector abs. value=  0.125E+00
 bond charge predicted
       N       E                     dE             d eps       ncg     rms          rms(c)
DAV:   1    -0.110833967872E+03   -0.40876E-01   -0.98146E+00  1008   0.796E+00    0.215E+00
DAV:   2    -0.110899360029E+03   -0.65392E-01   -0.77401E-01  1260   0.248E+00    0.828E-01
DAV:   3    -0.110895929170E+03    0.34309E-02   -0.18234E-02  1260   0.442E-01    0.559E-01
DAV:   4    -0.110894161546E+03    0.17676E-02   -0.40416E-03  1344   0.174E-01    0.356E-01
DAV:   5    -0.110893642762E+03    0.51878E-03   -0.15123E-03  1218   0.110E-01    0.168E-01
DAV:   6    -0.110893650224E+03   -0.74625E-05   -0.87527E-04  1260   0.771E-02
  28 F= -.11089365E+03 E0= -.11089365E+03  d E =-.100563E+00
 trial-energy change:   -0.100563  1 .order   -0.098280   -0.116771   -0.079789
 step:   9.9685(harm= 14.3657)  dis= 0.11503  next Energy=  -110.945020 (dE=-0.152E+00)
 bond charge predicted
       N       E                     dE             d eps       ncg     rms          rms(c)
DAV:   1    -0.110866729918E+03    0.26913E-01   -0.13951E+01  1008   0.950E+00    0.266E+00
DAV:   2    -0.110959621059E+03   -0.92891E-01   -0.11047E+00  1260   0.295E+00    0.970E-01
DAV:   3    -0.110954804485E+03    0.48166E-02   -0.26151E-02  1260   0.530E-01    0.646E-01
DAV:   4    -0.110952362522E+03    0.24420E-02   -0.59611E-03  1316   0.212E-01    0.407E-01
DAV:   5    -0.110951758767E+03    0.60376E-03   -0.20037E-03  1232   0.127E-01    0.192E-01
DAV:   6    -0.110951782880E+03   -0.24113E-04   -0.11415E-03  1260   0.895E-02    0.912E-02
DAV:   7    -0.110951765279E+03    0.17601E-04   -0.20904E-04   756   0.441E-02
  29 F= -.11095177E+03 E0= -.11095177E+03  d E =-.158678E+00
 curvature: -27.96 expect dE=-0.561E+00 dE for cont linesearch -0.820E-03
 trial: gam= 0.52057 g(F)=  0.156E-01 g(S)=  0.447E-02 ort = 0.191E-02 (trialstep = 0.563E+01)
 search vector abs. value=  0.559E-01
 bond charge predicted
       N       E                     dE             d eps       ncg     rms          rms(c)
DAV:   1    -0.111019509422E+03   -0.67727E-01   -0.74718E+00  1008   0.697E+00    0.220E+00
DAV:   2    -0.111039321329E+03   -0.19812E-01   -0.57884E-01  1246   0.218E+00    0.113E+00
DAV:   3    -0.111034053611E+03    0.52677E-02   -0.24108E-02  1302   0.444E-01    0.807E-01
DAV:   4    -0.111030464336E+03    0.35893E-02   -0.58726E-03  1260   0.212E-01    0.347E-01
DAV:   5    -0.111029860469E+03    0.60387E-03   -0.24486E-03  1246   0.132E-01    0.113E-01
DAV:   6    -0.111029836752E+03    0.23717E-04   -0.27562E-04   910   0.472E-02
  30 F= -.11102984E+03 E0= -.11102984E+03  d E =-.780715E-01
 trial-energy change:   -0.078071  1 .order   -0.082879   -0.118617   -0.047141
 step:   9.3491(harm=  9.3491)  dis= 0.06827  next Energy=  -111.050190 (dE=-0.984E-01)
 bond charge predicted
       N       E                     dE             d eps       ncg     rms          rms(c)
DAV:   1    -0.111040131345E+03   -0.10271E-01   -0.32571E+00  1008   0.459E+00    0.144E+00
DAV:   2    -0.111048605072E+03   -0.84737E-02   -0.25171E-01  1232   0.144E+00    0.710E-01
DAV:   3    -0.111046302884E+03    0.23022E-02   -0.10692E-02  1330   0.295E-01    0.495E-01
DAV:   4    -0.111044743407E+03    0.15595E-02   -0.25877E-03  1260   0.141E-01    0.217E-01
DAV:   5    -0.111044484073E+03    0.25933E-03   -0.10254E-03  1218   0.858E-02    0.753E-02
DAV:   6    -0.111044470012E+03    0.14062E-04   -0.11461E-04   756   0.315E-02
  31 F= -.11104447E+03 E0= -.11104447E+03  d E =-.927047E-01
 curvature: -12.42 expect dE=-0.270E+00 dE for cont linesearch -0.467E-06
 trial: gam= 1.17374 g(F)=  0.100E-01 g(S)=  0.117E-01 ort =-0.459E-04 (trialstep = 0.361E+01)
 search vector abs. value=  0.987E-01
 bond charge predicted
       N       E                     dE             d eps       ncg     rms          rms(c)
DAV:   1    -0.111101378423E+03   -0.56894E-01   -0.49204E+00  1008   0.568E+00    0.165E+00
DAV:   2    -0.111109290260E+03   -0.79118E-02   -0.35287E-01  1246   0.172E+00    0.781E-01
DAV:   3    -0.111105304457E+03    0.39858E-02   -0.18301E-02  1274   0.388E-01    0.476E-01
DAV:   4    -0.111102886539E+03    0.24179E-02   -0.37673E-03  1260   0.173E-01    0.249E-01
DAV:   5    -0.111102334569E+03    0.55197E-03   -0.19282E-03  1260   0.123E-01    0.116E-01
DAV:   6    -0.111102348947E+03   -0.14378E-04   -0.29650E-04   938   0.478E-02
  32 F= -.11110235E+03 E0= -.11110235E+03  d E =-.578789E-01
 trial-energy change:   -0.057879  1 .order   -0.056517   -0.078444   -0.034590
 step:   5.8059(harm=  6.4627)  dis= 0.05460  next Energy=  -111.113151 (dE=-0.687E-01)
 bond charge predicted
       N       E                     dE             d eps       ncg     rms          rms(c)
DAV:   1    -0.111114844020E+03   -0.12509E-01   -0.18170E+00  1008   0.346E+00    0.990E-01
DAV:   2    -0.111117635642E+03   -0.27916E-02   -0.13037E-01  1232   0.105E+00    0.483E-01
DAV:   3    -0.111116153187E+03    0.14825E-02   -0.69193E-03  1288   0.238E-01    0.296E-01
DAV:   4    -0.111115222199E+03    0.93099E-03   -0.14323E-03  1246   0.107E-01    0.156E-01
DAV:   5    -0.111115019552E+03    0.20265E-03   -0.78359E-04  1190   0.782E-02    0.746E-02
DAV:   6    -0.111115028561E+03   -0.90087E-05   -0.11036E-04   756   0.307E-02
  33 F= -.11111503E+03 E0= -.11111503E+03  d E =-.705585E-01
 curvature: -13.91 expect dE=-0.108E+00 dE for cont linesearch -0.659E-03
 ZBRENT: extrapolating
 opt :   6.4456  next Energy=  -111.115720 (dE=-0.713E-01)
 bond charge predicted
       N       E                     dE             d eps       ncg     rms          rms(c)
DAV:   1    -0.111115719870E+03   -0.70032E-03   -0.15483E-01  1008   0.101E+00    0.286E-01
DAV:   2    -0.111115974933E+03   -0.25506E-03   -0.11159E-02  1246   0.306E-01    0.137E-01
DAV:   3    -0.111115848617E+03    0.12632E-03   -0.57467E-04  1218   0.690E-02    0.865E-02
DAV:   4    -0.111115773033E+03    0.75584E-04   -0.10236E-04   756   0.311E-02
  34 F= -.11111577E+03 E0= -.11111577E+03  d E =-.713030E-01
 curvature: -14.60 expect dE=-0.126E+00 dE for cont linesearch -0.141E-03
 trial: gam= 0.15923 g(F)=  0.819E-02 g(S)=  0.441E-03 ort = 0.976E-03 (trialstep = 0.418E+01)
 search vector abs. value=  0.114E-01
 bond charge predicted
       N       E                     dE             d eps       ncg     rms          rms(c)
DAV:   1    -0.111143080952E+03   -0.27232E-01   -0.10886E+00  1008   0.272E+00    0.817E-01
DAV:   2    -0.111147694049E+03   -0.46131E-02   -0.88957E-02  1260   0.841E-01    0.326E-01
DAV:   3    -0.111146839272E+03    0.85478E-03   -0.27716E-03  1316   0.161E-01    0.214E-01
DAV:   4    -0.111146414531E+03    0.42474E-03   -0.97859E-04  1246   0.848E-02    0.827E-02
DAV:   5    -0.111146381667E+03    0.32864E-04   -0.15390E-04   756   0.395E-02
  35 F= -.11114638E+03 E0= -.11114638E+03  d E =-.306086E-01
 trial-energy change:   -0.030609  1 .order   -0.028863   -0.036730   -0.020995
 step:   6.8469(harm=  9.7563)  dis= 0.01578  next Energy=  -111.153535 (dE=-0.378E-01)
 bond charge predicted
       N       E                     dE             d eps       ncg     rms          rms(c)
DAV:   1    -0.111155855128E+03   -0.94406E-02   -0.43930E-01  1008   0.173E+00    0.538E-01
DAV:   2    -0.111157736692E+03   -0.18816E-02   -0.36329E-02  1260   0.536E-01    0.205E-01
DAV:   3    -0.111157394531E+03    0.34216E-03   -0.11320E-03  1302   0.103E-01    0.129E-01
DAV:   4    -0.111157237201E+03    0.15733E-03   -0.37382E-04  1008   0.537E-02    0.497E-02
DAV:   5    -0.111157230499E+03    0.67020E-05   -0.76352E-05   756   0.280E-02
  36 F= -.11115723E+03 E0= -.11115723E+03  d E =-.414575E-01
 curvature:  -4.62 expect dE=-0.180E-01 dE for cont linesearch -0.545E-02
 ZBRENT: increasing intervall
 opt :  12.1818  next Energy=  -111.169634 (dE=-0.539E-01)
 bond charge predicted
       N       E                     dE             d eps       ncg     rms          rms(c)
DAV:   1    -0.111160411236E+03   -0.31740E-02   -0.17720E+00  1008   0.348E+00    0.107E+00
DAV:   2    -0.111168069606E+03   -0.76584E-02   -0.14638E-01  1260   0.108E+00    0.420E-01
DAV:   3    -0.111166680267E+03    0.13893E-02   -0.45227E-03  1330   0.206E-01    0.270E-01
DAV:   4    -0.111166000894E+03    0.67937E-03   -0.16304E-03  1232   0.109E-01    0.101E-01
DAV:   5    -0.111165956988E+03    0.43906E-04   -0.24703E-04   840   0.494E-02
  37 F= -.11116596E+03 E0= -.11116596E+03  d E =-.501840E-01
 curvature: -10.52 expect dE=-0.119E+00 dE for cont linesearch -0.338E-04
 trial: gam= 1.39190 g(F)=  0.778E-02 g(S)=  0.351E-02 ort =-0.192E-03 (trialstep = 0.201E+01)
 search vector abs. value=  0.329E-01
 bond charge predicted
       N       E                     dE             d eps       ncg     rms          rms(c)
DAV:   1    -0.111181906910E+03   -0.15906E-01   -0.70483E-01  1008   0.217E+00    0.563E-01
DAV:   2    -0.111185249015E+03   -0.33421E-02   -0.55009E-02  1260   0.662E-01    0.286E-01
DAV:   3    -0.111184937952E+03    0.31106E-03   -0.15023E-03  1288   0.122E-01    0.200E-01
DAV:   4    -0.111184738538E+03    0.19941E-03   -0.46560E-04  1148   0.600E-02    0.926E-02
DAV:   5    -0.111184707420E+03    0.31118E-04   -0.12642E-04   756   0.341E-02
  38 F= -.11118471E+03 E0= -.11118471E+03  d E =-.187504E-01
 ZBRENT: can't locate minimum, use default step
 trial-energy change:   -0.018750  1 .order   -0.019400   -0.022146   -0.016655
 step:   8.0357(harm=  8.1031)  dis= 0.03799  next Energy=  -111.210619 (dE=-0.447E-01)
 bond charge predicted
       N       E                     dE             d eps       ncg     rms          rms(c)
DAV:   1    -0.111184929456E+03   -0.19092E-03   -0.63469E+00  1008   0.651E+00    0.167E+00
DAV:   2    -0.111215718801E+03   -0.30789E-01   -0.49317E-01  1260   0.198E+00    0.863E-01
DAV:   3    -0.111212928766E+03    0.27900E-02   -0.13281E-02  1288   0.363E-01    0.621E-01
DAV:   4    -0.111211095166E+03    0.18336E-02   -0.39517E-03  1246   0.174E-01    0.307E-01
DAV:   5    -0.111210794560E+03    0.30061E-03   -0.14230E-03  1260   0.104E-01    0.115E-01
DAV:   6    -0.111210782896E+03    0.11664E-04   -0.18879E-04   756   0.383E-02
  39 F= -.11121078E+03 E0= -.11121078E+03  d E =-.448259E-01
 curvature: -12.10 expect dE=-0.143E+00 dE for cont linesearch -0.620E-05
 trial: gam= 0.82352 g(F)=  0.994E-02 g(S)=  0.186E-02 ort =-0.130E-03 (trialstep = 0.312E+01)
 search vector abs. value=  0.339E-01
 bond charge predicted
       N       E                     dE             d eps       ncg     rms          rms(c)
DAV:   1    -0.111228937535E+03   -0.18143E-01   -0.19411E+00  1008   0.355E+00    0.880E-01
DAV:   2    -0.111239328154E+03   -0.10391E-01   -0.13471E-01  1260   0.104E+00    0.364E-01
DAV:   3    -0.111238365440E+03    0.96271E-03   -0.28082E-03  1302   0.176E-01    0.255E-01
DAV:   4    -0.111237776796E+03    0.58864E-03   -0.13897E-03  1190   0.102E-01    0.136E-01
DAV:   5    -0.111237728957E+03    0.47839E-04   -0.41565E-04  1036   0.578E-02
  40 F= -.11123773E+03 E0= -.11123773E+03  d E =-.269461E-01
 trial-energy change:   -0.026946  1 .order   -0.030392   -0.036484   -0.024300
 step:   9.3450(harm=  9.3450)  dis= 0.04535  next Energy=  -111.265406 (dE=-0.546E-01)
 bond charge predicted
       N       E                     dE             d eps       ncg     rms          rms(c)
DAV:   1    -0.111232359271E+03    0.54175E-02   -0.76809E+00  1008   0.707E+00    0.183E+00
DAV:   2    -0.111273475874E+03   -0.41117E-01   -0.53404E-01  1260   0.208E+00    0.716E-01
DAV:   3    -0.111269681763E+03    0.37941E-02   -0.11150E-02  1302   0.352E-01    0.498E-01
DAV:   4    -0.111267413513E+03    0.22682E-02   -0.54869E-03  1190   0.202E-01    0.260E-01
DAV:   5    -0.111267248596E+03    0.16492E-03   -0.16660E-03  1302   0.113E-01    0.115E-01
DAV:   6    -0.111267277601E+03   -0.29005E-04   -0.20199E-04   756   0.425E-02
  41 F= -.11126728E+03 E0= -.11126728E+03  d E =-.564947E-01
 curvature: -13.56 expect dE=-0.112E+00 dE for cont linesearch -0.781E-03
 trial: gam= 0.37563 g(F)=  0.723E-02 g(S)=  0.107E-02 ort = 0.140E-02 (trialstep = 0.437E+01)
 search vector abs. value=  0.141E-01
 bond charge predicted
       N       E                     dE             d eps       ncg     rms          rms(c)
DAV:   1    -0.111290334612E+03   -0.23086E-01   -0.11734E+00  1008   0.289E+00    0.817E-01
DAV:   2    -0.111294694767E+03   -0.43602E-02   -0.93353E-02  1260   0.870E-01    0.353E-01
DAV:   3    -0.111293916248E+03    0.77852E-03   -0.45504E-03  1316   0.203E-01    0.211E-01
DAV:   4    -0.111293517093E+03    0.39916E-03   -0.84346E-04  1218   0.813E-02    0.101E-01
DAV:   5    -0.111293381454E+03    0.13564E-03   -0.29957E-04   938   0.535E-02    0.551E-02
DAV:   6    -0.111293382538E+03   -0.10842E-05   -0.11991E-04   756   0.307E-02
  42 F= -.11129338E+03 E0= -.11129338E+03  d E =-.261049E-01
 trial-energy change:   -0.026105  1 .order   -0.028254   -0.038497   -0.018011
 step:   8.2041(harm=  8.2041)  dis= 0.02777  next Energy=  -111.303450 (dE=-0.362E-01)
 bond charge predicted
       N       E                     dE             d eps       ncg     rms          rms(c)
DAV:   1    -0.111299096061E+03   -0.57146E-02   -0.90403E-01  1008   0.254E+00    0.729E-01
DAV:   2    -0.111302401427E+03   -0.33054E-02   -0.71727E-02  1260   0.762E-01    0.304E-01
DAV:   3    -0.111301784023E+03    0.61740E-03   -0.35247E-03  1316   0.179E-01    0.177E-01
DAV:   4    -0.111301481374E+03    0.30265E-03   -0.66135E-04  1176   0.718E-02    0.867E-02
DAV:   5    -0.111301380288E+03    0.10109E-03   -0.22169E-04   896   0.463E-02    0.462E-02
DAV:   6    -0.111301381362E+03   -0.10741E-05   -0.94112E-05   756   0.273E-02
  43 F= -.11130138E+03 E0= -.11130138E+03  d E =-.341038E-01
 curvature:  -6.57 expect dE=-0.412E-01 dE for cont linesearch -0.387E-04
 trial: gam= 0.72116 g(F)=  0.599E-02 g(S)=  0.284E-03 ort = 0.288E-03 (trialstep = 0.513E+01)
 search vector abs. value=  0.140E-01
 bond charge predicted
       N       E                     dE             d eps       ncg     rms          rms(c)
DAV:   1    -0.111318365581E+03   -0.16985E-01   -0.15077E+00  1008   0.326E+00    0.759E-01
DAV:   2    -0.111326400586E+03   -0.80350E-02   -0.11411E-01  1274   0.962E-01    0.309E-01
DAV:   3    -0.111325788796E+03    0.61179E-03   -0.39885E-03  1302   0.196E-01    0.189E-01
DAV:   4    -0.111325467162E+03    0.32163E-03   -0.73376E-04  1274   0.752E-02    0.991E-02
DAV:   5    -0.111325390024E+03    0.77139E-04   -0.27559E-04   910   0.555E-02
  44 F= -.11132539E+03 E0= -.11132539E+03  d E =-.240087E-01
 trial-energy change:   -0.024009  1 .order   -0.021714   -0.033248   -0.010181
 step:   6.4300(harm=  7.3992)  dis= 0.02389  next Energy=  -111.326713 (dE=-0.253E-01)
 bond charge predicted
       N       E                     dE             d eps       ncg     rms          rms(c)
DAV:   1    -0.111327378242E+03   -0.19111E-02   -0.94346E-02  1036   0.818E-01    0.208E-01
DAV:   2    -0.111327870255E+03   -0.49201E-03   -0.72568E-03  1274   0.241E-01    0.813E-02
DAV:   3    -0.111327841013E+03    0.29243E-04   -0.24882E-04   966   0.516E-02
  45 F= -.11132784E+03 E0= -.11132784E+03  d E =-.264597E-01
 curvature:  -6.55 expect dE=-0.299E-01 dE for cont linesearch -0.929E-03
 ZBRENT: increasing intervall
 opt :   9.0231  next Energy=  -111.330017 (dE=-0.286E-01)
 bond charge predicted
       N       E                     dE             d eps       ncg     rms          rms(c)
DAV:   1    -0.111324662022E+03    0.32082E-02   -0.38088E-01  1008   0.164E+00    0.383E-01
DAV:   2    -0.111326571111E+03   -0.19091E-02   -0.28348E-02  1274   0.481E-01    0.164E-01
DAV:   3    -0.111326403953E+03    0.16716E-03   -0.10774E-03  1316   0.101E-01    0.101E-01
DAV:   4    -0.111326314909E+03    0.89044E-04   -0.17479E-04   756   0.402E-02
  46 F= -.11132631E+03 E0= -.11132631E+03  d E =-.249335E-01
 curvature: -15.33 expect dE=-0.102E+00 dE for cont linesearch -0.285E-02
 ZBRENT: bracketing found
 ZBRENT: interpolating
 opt :   7.6393  next Energy=  -111.328694 (dE=-0.273E-01)
 bond charge predicted
       N       E                     dE             d eps       ncg     rms          rms(c)
DAV:   1    -0.111327537721E+03   -0.11338E-02   -0.11299E-01  1008   0.889E-01    0.197E-01
DAV:   2    -0.111328167624E+03   -0.62990E-03   -0.86409E-03  1274   0.266E-01    0.881E-02
DAV:   3    -0.111328112021E+03    0.55603E-04   -0.24919E-04   966   0.521E-02
  47 F= -.11132811E+03 E0= -.11132811E+03  d E =-.267307E-01
 curvature:  -4.59 expect dE=-0.227E-01 dE for cont linesearch -0.112E-03
 trial: gam= 0.70902 g(F)=  0.392E-02 g(S)=  0.103E-02 ort =-0.584E-03 (trialstep = 0.563E+01)
 search vector abs. value=  0.112E-01
 bond charge predicted
       N       E                     dE             d eps       ncg     rms          rms(c)
DAV:   1    -0.111344163932E+03   -0.15996E-01   -0.22010E+00  1008   0.381E+00    0.118E+00
DAV:   2    -0.111348971812E+03   -0.48079E-02   -0.16633E-01  1260   0.116E+00    0.510E-01
DAV:   3    -0.111346972773E+03    0.19990E-02   -0.59761E-03  1260   0.225E-01    0.347E-01
DAV:   4    -0.111345812703E+03    0.11601E-02   -0.20179E-03  1260   0.122E-01    0.120E-01
DAV:   5    -0.111345712605E+03    0.10010E-03   -0.47211E-04  1162   0.575E-02    0.565E-02
DAV:   6    -0.111345693630E+03    0.18974E-04   -0.41528E-05   756   0.182E-02
  48 F= -.11134569E+03 E0= -.11134569E+03  d E =-.175816E-01
 trial-energy change:   -0.017582  1 .order   -0.016113   -0.025534   -0.006693
 step:   6.9068(harm=  7.6361)  dis= 0.01930  next Energy=  -111.346466 (dE=-0.184E-01)
 bond charge predicted
       N       E                     dE             d eps       ncg     rms          rms(c)
DAV:   1    -0.111346774734E+03   -0.10621E-02   -0.11295E-01  1008   0.862E-01    0.261E-01
DAV:   2    -0.111347018591E+03   -0.24386E-03   -0.85023E-03  1260   0.262E-01    0.107E-01
DAV:   3    -0.111346903992E+03    0.11460E-03   -0.27317E-04   938   0.509E-02    0.694E-02
DAV:   4    -0.111346836455E+03    0.67537E-04   -0.14896E-04   756   0.350E-02
  49 F= -.11134684E+03 E0= -.11134684E+03  d E =-.187244E-01
 curvature:  -8.16 expect dE=-0.314E-01 dE for cont linesearch -0.307E-03
 trial: gam= 0.48814 g(F)=  0.279E-02 g(S)=  0.106E-02 ort = 0.648E-03 (trialstep = 0.589E+01)
 search vector abs. value=  0.714E-02
 bond charge predicted
       N       E                     dE             d eps       ncg     rms          rms(c)
DAV:   1    -0.111357349318E+03   -0.10445E-01   -0.16336E+00  1008   0.326E+00    0.811E-01
DAV:   2    -0.111364897316E+03   -0.75480E-02   -0.11783E-01  1260   0.983E-01    0.345E-01
DAV:   3    -0.111364057783E+03    0.83953E-03   -0.35294E-03  1274   0.185E-01    0.238E-01
DAV:   4    -0.111363536044E+03    0.52174E-03   -0.91425E-04  1316   0.870E-02    0.113E-01
DAV:   5    -0.111363463110E+03    0.72934E-04   -0.27915E-04   840   0.507E-02
  50 F= -.11136346E+03 E0= -.11136346E+03  d E =-.166267E-01
 trial-energy change:   -0.016627  1 .order   -0.016165   -0.024518   -0.007812
 step:   8.1302(harm=  8.6429)  dis= 0.01845  next Energy=  -111.364975 (dE=-0.181E-01)
 bond charge predicted
       N       E                     dE             d eps       ncg     rms          rms(c)
DAV:   1    -0.111364893602E+03   -0.13576E-02   -0.23322E-01  1008   0.123E+00    0.322E-01
DAV:   2    -0.111365937710E+03   -0.10441E-02   -0.17019E-02  1260   0.372E-01    0.125E-01
DAV:   3    -0.111365819731E+03    0.11798E-03   -0.53209E-04  1260   0.719E-02    0.825E-02
DAV:   4    -0.111365754388E+03    0.65343E-04   -0.10179E-04   756   0.319E-02
  51 F= -.11136575E+03 E0= -.11136575E+03  d E =-.189179E-01
 curvature:  -7.16 expect dE=-0.229E-01 dE for cont linesearch -0.591E-03
 ZBRENT: increasing intervall
 opt :  12.6125  next Energy=  -111.366693 (dE=-0.199E-01)
 bond charge predicted
       N       E                     dE             d eps       ncg     rms          rms(c)
DAV:   1    -0.111360045650E+03    0.57741E-02   -0.93895E-01  1008   0.247E+00    0.614E-01
DAV:   2    -0.111364284150E+03   -0.42385E-02   -0.67509E-02  1260   0.744E-01    0.260E-01
DAV:   3    -0.111363795606E+03    0.48854E-03   -0.20758E-03  1260   0.142E-01    0.178E-01
DAV:   4    -0.111363500232E+03    0.29537E-03   -0.51235E-04  1204   0.656E-02    0.846E-02
DAV:   5    -0.111363458175E+03    0.42057E-04   -0.16206E-04   756   0.395E-02
  52 F= -.11136346E+03 E0= -.11136346E+03  d E =-.166217E-01
 curvature: -11.36 expect dE=-0.822E-01 dE for cont linesearch -0.247E-02
 ZBRENT: bracketing found
 ZBRENT: interpolating
 opt :   9.8387  next Energy=  -111.366410 (dE=-0.196E-01)
 bond charge predicted
       N       E                     dE             d eps       ncg     rms          rms(c)
DAV:   1    -0.111364335519E+03   -0.83529E-03   -0.36612E-01  1008   0.154E+00    0.367E-01
DAV:   2    -0.111366084460E+03   -0.17489E-02   -0.26423E-02  1260   0.467E-01    0.180E-01
DAV:   3    -0.111365891692E+03    0.19277E-03   -0.76134E-04  1260   0.862E-02    0.130E-01
DAV:   4    -0.111365745088E+03    0.14660E-03   -0.18336E-04   756   0.428E-02    0.630E-02
DAV:   5    -0.111365722878E+03    0.22210E-04   -0.16627E-04   756   0.373E-02
  53 F= -.11136572E+03 E0= -.11136572E+03  d E =-.188864E-01
 curvature:  -3.01 expect dE=-0.131E-01 dE for cont linesearch -0.491E-04
 trial: gam= 1.30689 g(F)=  0.357E-02 g(S)=  0.777E-03 ort =-0.341E-03 (trialstep = 0.305E+01)
 search vector abs. value=  0.157E-01
 bond charge predicted
       N       E                     dE             d eps       ncg     rms          rms(c)
DAV:   1    -0.111372291417E+03   -0.65463E-02   -0.96156E-01  1008   0.252E+00    0.646E-01
DAV:   2    -0.111376151010E+03   -0.38596E-02   -0.69154E-02  1260   0.762E-01    0.291E-01
DAV:   3    -0.111375380771E+03    0.77024E-03   -0.22702E-03  1358   0.149E-01    0.204E-01
DAV:   4    -0.111374892001E+03    0.48877E-03   -0.64061E-04  1176   0.721E-02    0.101E-01
DAV:   5    -0.111374771637E+03    0.12036E-03   -0.29357E-04   826   0.524E-02    0.363E-02
DAV:   6    -0.111374778144E+03   -0.65069E-05   -0.10315E-04   756   0.297E-02
  54 F= -.11137478E+03 E0= -.11137478E+03  d E =-.905527E-02
 trial-energy change:   -0.009055  1 .order   -0.008787   -0.011897   -0.005677
 step:   5.8269(harm=  5.8269)  dis= 0.01566  next Energy=  -111.377100 (dE=-0.114E-01)
 bond charge predicted
       N       E                     dE             d eps       ncg     rms          rms(c)
DAV:   1    -0.111375456543E+03   -0.68491E-03   -0.80130E-01  1008   0.231E+00    0.600E-01
DAV:   2    -0.111378652225E+03   -0.31957E-02   -0.58171E-02  1260   0.696E-01    0.253E-01
DAV:   3    -0.111378012460E+03    0.63976E-03   -0.19279E-03  1358   0.137E-01    0.177E-01
DAV:   4    -0.111377627070E+03    0.38539E-03   -0.50423E-04  1148   0.643E-02    0.884E-02
DAV:   5    -0.111377528516E+03    0.98554E-04   -0.23523E-04   756   0.480E-02
  55 F= -.11137753E+03 E0= -.11137753E+03  d E =-.118056E-01
 curvature: -11.68 expect dE=-0.260E-01 dE for cont linesearch -0.145E-03
 trial: gam= 0.25103 g(F)=  0.178E-02 g(S)=  0.439E-03 ort = 0.441E-03 (trialstep = 0.360E+01)
 search vector abs. value=  0.343E-02
 bond charge predicted
       N       E                     dE             d eps       ncg     rms          rms(c)
DAV:   1    -0.111384321294E+03   -0.66942E-02   -0.23486E-01  1036   0.126E+00    0.300E-01
DAV:   2    -0.111385234248E+03   -0.91295E-03   -0.17858E-02  1260   0.380E-01    0.139E-01
DAV:   3    -0.111385079640E+03    0.15461E-03   -0.70969E-04  1274   0.823E-02    0.909E-02
DAV:   4    -0.111384988503E+03    0.91137E-04   -0.99475E-05   756   0.317E-02
  56 F= -.11138499E+03 E0= -.11138499E+03  d E =-.745999E-02
 ZBRENT: can't locate minimum, use default step
 trial-energy change:   -0.007460  1 .order   -0.007362   -0.008409   -0.006315
 step:  14.4104(harm= 14.4674)  dis= 0.02369  next Energy=  -111.394413 (dE=-0.169E-01)
 bond charge predicted
       N       E                     dE             d eps       ncg     rms          rms(c)
DAV:   1    -0.111378890379E+03    0.61893E-02   -0.21074E+00  1008   0.377E+00    0.880E-01
DAV:   2    -0.111386922317E+03   -0.80319E-02   -0.15825E-01  1260   0.114E+00    0.435E-01
DAV:   3    -0.111385537452E+03    0.13849E-02   -0.63864E-03  1288   0.246E-01    0.284E-01
DAV:   4    -0.111384694765E+03    0.84269E-03   -0.10819E-03  1288   0.961E-02    0.151E-01
DAV:   5    -0.111384363867E+03    0.33090E-03   -0.70688E-04  1204   0.800E-02    0.821E-02
DAV:   6    -0.111384366915E+03   -0.30475E-05   -0.19760E-04   756   0.417E-02
  57 F= -.11138437E+03 E0= -.11138437E+03  d E =-.683840E-02
 curvature: -10.63 expect dE=-0.548E-01 dE for cont linesearch -0.162E-02
 ZBRENT: interpolating
 opt :  11.2563  next Energy=  -111.385506 (dE=-0.798E-02)
 bond charge predicted
       N       E                     dE             d eps       ncg     rms          rms(c)
DAV:   1    -0.111386051960E+03   -0.16881E-02   -0.17945E-01  1022   0.110E+00    0.242E-01
DAV:   2    -0.111386753291E+03   -0.70133E-03   -0.13167E-02  1260   0.329E-01    0.124E-01
DAV:   3    -0.111386634046E+03    0.11924E-03   -0.51942E-04  1246   0.701E-02    0.877E-02
DAV:   4    -0.111386560778E+03    0.73268E-04   -0.73260E-05   700   0.272E-02
  58 F= -.11138656E+03 E0= -.11138656E+03  d E =-.903226E-02
 curvature:  -7.49 expect dE=-0.289E-01 dE for cont linesearch -0.477E-03
 ZBRENT: interpolating
 opt :   6.6934  next Energy=  -111.387851 (dE=-0.103E-01)
 bond charge predicted
       N       E                     dE             d eps       ncg     rms          rms(c)
DAV:   1    -0.111387056229E+03   -0.42218E-03   -0.37218E-01  1008   0.158E+00    0.376E-01
DAV:   2    -0.111388388387E+03   -0.13322E-02   -0.27613E-02  1260   0.474E-01    0.180E-01
DAV:   3    -0.111388137430E+03    0.25096E-03   -0.11963E-03  1288   0.106E-01    0.113E-01
DAV:   4    -0.111387996101E+03    0.14133E-03   -0.15818E-04   770   0.400E-02    0.611E-02
DAV:   5    -0.111387938736E+03    0.57365E-04   -0.19007E-04   756   0.427E-02
  59 F= -.11138794E+03 E0= -.11138794E+03  d E =-.104102E-01
 curvature: -20.28 expect dE=-0.619E-01 dE for cont linesearch -0.123E-05
 trial: gam= 1.39138 g(F)=  0.276E-02 g(S)=  0.292E-03 ort = 0.144E-04 (trialstep = 0.149E+01)
 search vector abs. value=  0.974E-02
 bond charge predicted
       N       E                     dE             d eps       ncg     rms          rms(c)
DAV:   1    -0.111390562928E+03   -0.25668E-02   -0.13769E-01  1008   0.939E-01    0.216E-01
DAV:   2    -0.111391201559E+03   -0.63863E-03   -0.99007E-03  1260   0.283E-01    0.105E-01
DAV:   3    -0.111391119313E+03    0.82247E-04   -0.19599E-04   840   0.493E-02
  60 F= -.11139112E+03 E0= -.11139112E+03  d E =-.318058E-02
 trial-energy change:   -0.003181  1 .order   -0.003204   -0.004573   -0.001835
 step:   2.4844(harm=  2.4844)  dis= 0.00700  next Energy=  -111.391758 (dE=-0.382E-02)
 bond charge predicted
       N       E                     dE             d eps       ncg     rms          rms(c)
DAV:   1    -0.111391795262E+03   -0.59370E-03   -0.57790E-02  1036   0.609E-01    0.133E-01
DAV:   2    -0.111391996303E+03   -0.20104E-03   -0.39415E-03  1260   0.179E-01    0.699E-02
DAV:   3    -0.111391957992E+03    0.38311E-04   -0.91788E-05   756   0.332E-02
  61 F= -.11139196E+03 E0= -.11139196E+03  d E =-.401926E-02
 curvature:  -3.93 expect dE=-0.812E-02 dE for cont linesearch -0.329E-03
 ZBRENT: increasing intervall
 opt :   4.4785  next Energy=  -111.393098 (dE=-0.516E-02)
 bond charge predicted
       N       E                     dE             d eps       ncg     rms          rms(c)
DAV:   1    -0.111391961543E+03    0.34760E-04   -0.24051E-01  1008   0.124E+00    0.285E-01
DAV:   2    -0.111392975264E+03   -0.10137E-02   -0.17143E-02  1260   0.371E-01    0.132E-01
DAV:   3    -0.111392834561E+03    0.14070E-03   -0.43002E-04  1232   0.669E-02    0.917E-02
DAV:   4    -0.111392745539E+03    0.89022E-04   -0.13393E-04   756   0.354E-02
  62 F= -.11139275E+03 E0= -.11139275E+03  d E =-.480680E-02
 curvature: -13.62 expect dE=-0.498E-01 dE for cont linesearch -0.231E-03
 trial: gam= 0.80764 g(F)=  0.348E-02 g(S)=  0.175E-03 ort = 0.406E-03 (trialstep = 0.190E+01)
 search vector abs. value=  0.107E-01
 bond charge predicted
       N       E                     dE             d eps       ncg     rms          rms(c)
DAV:   1    -0.111398376825E+03   -0.55423E-02   -0.24662E-01  1008   0.126E+00    0.322E-01
DAV:   2    -0.111399222184E+03   -0.84536E-03   -0.18238E-02  1260   0.381E-01    0.152E-01
DAV:   3    -0.111399075441E+03    0.14674E-03   -0.55822E-04  1260   0.721E-02    0.949E-02
DAV:   4    -0.111398991715E+03    0.83726E-04   -0.12923E-04   728   0.346E-02
  63 F= -.11139899E+03 E0= -.11139899E+03  d E =-.624618E-02
 trial-energy change:   -0.006246  1 .order   -0.006386   -0.007589   -0.005184
 step:   6.0084(harm=  6.0084)  dis= 0.01619  next Energy=  -111.404718 (dE=-0.120E-01)
 bond charge predicted
       N       E                     dE             d eps       ncg     rms          rms(c)
DAV:   1    -0.111399423108E+03   -0.34767E-03   -0.11583E+00  1008   0.274E+00    0.704E-01
DAV:   2    -0.111403509512E+03   -0.40864E-02   -0.86256E-02  1260   0.829E-01    0.336E-01
DAV:   3    -0.111402799880E+03    0.70963E-03   -0.26261E-03  1302   0.156E-01    0.210E-01
DAV:   4    -0.111402394988E+03    0.40489E-03   -0.73806E-04  1218   0.756E-02    0.105E-01
DAV:   5    -0.111402333165E+03    0.61823E-04   -0.22684E-04   812   0.439E-02
  64 F= -.11140233E+03 E0= -.11140233E+03  d E =-.958763E-02
 curvature:  -8.04 expect dE=-0.201E-01 dE for cont linesearch -0.297E-03
 ZBRENT: interpolating
 opt :   5.2399  next Energy=  -111.402574 (dE=-0.983E-02)
 bond charge predicted
       N       E                     dE             d eps       ncg     rms          rms(c)
DAV:   1    -0.111402392473E+03    0.25147E-05   -0.42915E-02  1008   0.524E-01    0.132E-01
DAV:   2    -0.111402572572E+03   -0.18010E-03   -0.31403E-03  1260   0.160E-01    0.783E-02
DAV:   3    -0.111402546107E+03    0.26466E-04   -0.69254E-05   714   0.282E-02
  65 F= -.11140255E+03 E0= -.11140255E+03  d E =-.980057E-02
 curvature:  -6.53 expect dE=-0.148E-01 dE for cont linesearch -0.751E-05
 trial: gam= 0.41863 g(F)=  0.181E-02 g(S)=  0.453E-03 ort =-0.111E-03 (trialstep = 0.257E+01)
 search vector abs. value=  0.404E-02
 bond charge predicted
       N       E                     dE             d eps       ncg     rms          rms(c)
DAV:   1    -0.111405171975E+03   -0.25994E-02   -0.15950E-01  1008   0.103E+00    0.301E-01
DAV:   2    -0.111405918844E+03   -0.74687E-03   -0.13372E-02  1260   0.326E-01    0.134E-01
DAV:   3    -0.111405825674E+03    0.93170E-04   -0.43594E-04  1232   0.631E-02
  66 F= -.11140583E+03 E0= -.11140583E+03  d E =-.327957E-02
 trial-energy change:   -0.003280  1 .order   -0.003312   -0.005712   -0.000911
 step:   3.0594(harm=  3.0594)  dis= 0.00701  next Energy=  -111.405944 (dE=-0.340E-02)
 bond charge predicted
       N       E                     dE             d eps       ncg     rms          rms(c)
DAV:   1    -0.111405824846E+03    0.93999E-04   -0.50049E-03  1148   0.184E-01    0.581E-02
DAV:   2    -0.111405808653E+03    0.16193E-04   -0.31086E-04  1134   0.537E-02
  67 F= -.11140581E+03 E0= -.11140581E+03  d E =-.326255E-02
 curvature:  -2.78 expect dE=-0.282E-02 dE for cont linesearch -0.133E-05
 trial: gam= 0.28501 g(F)=  0.799E-03 g(S)=  0.212E-03 ort = 0.440E-04 (trialstep = 0.267E+01)
 search vector abs. value=  0.136E-02
 bond charge predicted
       N       E                     dE             d eps       ncg     rms          rms(c)
DAV:   1    -0.111407921054E+03   -0.20962E-02   -0.67561E-02  1008   0.668E-01    0.219E-01
DAV:   2    -0.111407896299E+03    0.24755E-04   -0.54915E-03  1260   0.213E-01    0.110E-01
DAV:   3    -0.111407798004E+03    0.98295E-04   -0.29299E-04   952   0.510E-02
  68 F= -.11140780E+03 E0= -.11140780E+03  d E =-.198935E-02
 trial-energy change:   -0.001989  1 .order   -0.002252   -0.002733   -0.001771
 step:   7.5877(harm=  7.5877)  dis= 0.00784  next Energy=  -111.409693 (dE=-0.388E-02)
 bond charge predicted
       N       E                     dE             d eps       ncg     rms          rms(c)
DAV:   1    -0.111409033835E+03   -0.11375E-02   -0.22626E-01  1008   0.122E+00    0.399E-01
DAV:   2    -0.111408820742E+03    0.21309E-03   -0.18131E-02  1260   0.388E-01    0.201E-01
DAV:   3    -0.111408492282E+03    0.32846E-03   -0.11536E-03  1274   0.958E-02    0.124E-01
DAV:   4    -0.111408310424E+03    0.18186E-03   -0.18481E-04   756   0.422E-02    0.540E-02
DAV:   5    -0.111408261198E+03    0.49226E-04   -0.16294E-04   770   0.370E-02
  69 F= -.11140826E+03 E0= -.11140826E+03  d E =-.245255E-02
 curvature:  -5.06 expect dE=-0.827E-02 dE for cont linesearch -0.264E-03
 ZBRENT: interpolating
 opt :   6.1760  next Energy=  -111.408450 (dE=-0.264E-02)
 bond charge predicted
       N       E                     dE             d eps       ncg     rms          rms(c)
DAV:   1    -0.111408566831E+03   -0.25641E-03   -0.19203E-02  1036   0.354E-01    0.116E-01
DAV:   2    -0.111408580909E+03   -0.14078E-04   -0.15445E-03  1260   0.114E-01    0.615E-02
DAV:   3    -0.111408557821E+03    0.23088E-04   -0.70718E-05   644   0.259E-02
  70 F= -.11140856E+03 E0= -.11140856E+03  d E =-.274917E-02
 curvature:  -3.61 expect dE=-0.479E-02 dE for cont linesearch -0.474E-04
 trial: gam= 1.39679 g(F)=  0.491E-03 g(S)=  0.838E-03 ort =-0.134E-03 (trialstep = 0.127E+01)
 search vector abs. value=  0.362E-02
 bond charge predicted
       N       E                     dE             d eps       ncg     rms          rms(c)
DAV:   1    -0.111409692845E+03   -0.11119E-02   -0.38976E-02  1036   0.503E-01    0.153E-01
DAV:   2    -0.111409757305E+03   -0.64460E-04   -0.30442E-03  1260   0.156E-01    0.668E-02
DAV:   3    -0.111409713105E+03    0.44200E-04   -0.11091E-04   728   0.342E-02
  71 F= -.11140971E+03 E0= -.11140971E+03  d E =-.115528E-02
 trial-energy change:   -0.001155  1 .order   -0.001226   -0.001453   -0.000999
 step:   4.0758(harm=  4.0758)  dis= 0.00715  next Energy=  -111.410886 (dE=-0.233E-02)
 bond charge predicted
       N       E                     dE             d eps       ncg     rms          rms(c)
DAV:   1    -0.111410722138E+03   -0.96483E-03   -0.18258E-01  1008   0.109E+00    0.313E-01
DAV:   2    -0.111410829591E+03   -0.10745E-03   -0.13540E-02  1260   0.331E-01    0.149E-01
DAV:   3    -0.111410604542E+03    0.22505E-03   -0.64788E-04  1260   0.752E-02    0.984E-02
DAV:   4    -0.111410490797E+03    0.11374E-03   -0.13858E-04   756   0.362E-02    0.484E-02
DAV:   5    -0.111410473452E+03    0.17345E-04   -0.13089E-04   756   0.324E-02
  72 F= -.11141047E+03 E0= -.11141047E+03  d E =-.191563E-02
 curvature:  -6.45 expect dE=-0.789E-02 dE for cont linesearch -0.146E-04
 trial: gam= 0.48002 g(F)=  0.108E-02 g(S)=  0.142E-03 ort = 0.906E-04 (trialstep = 0.183E+01)
 search vector abs. value=  0.214E-02
 bond charge predicted
       N       E                     dE             d eps       ncg     rms          rms(c)
DAV:   1    -0.111412351354E+03   -0.18606E-02   -0.41470E-02  1036   0.522E-01    0.170E-01
DAV:   2    -0.111412307213E+03    0.44142E-04   -0.33596E-03  1260   0.162E-01    0.757E-02
DAV:   3    -0.111412257004E+03    0.50209E-04   -0.14432E-04   756   0.364E-02
  73 F= -.11141226E+03 E0= -.11141226E+03  d E =-.178355E-02
 trial-energy change:   -0.001784  1 .order   -0.001723   -0.002318   -0.001128
 step:   3.5687(harm=  3.5687)  dis= 0.00406  next Energy=  -111.412731 (dE=-0.226E-02)
 bond charge predicted
       N       E                     dE             d eps       ncg     rms          rms(c)
DAV:   1    -0.111412852539E+03   -0.54533E-03   -0.35268E-02  1008   0.481E-01    0.154E-01
DAV:   2    -0.111412766161E+03    0.86378E-04   -0.27963E-03  1274   0.149E-01    0.774E-02
DAV:   3    -0.111412714517E+03    0.51644E-04   -0.13583E-04   742   0.347E-02
  74 F= -.11141271E+03 E0= -.11141271E+03  d E =-.224107E-02
 curvature:  -3.02 expect dE=-0.314E-02 dE for cont linesearch -0.631E-04
 ZBRENT: increasing intervall
 opt :   7.0417  next Energy=  -111.412045 (dE=-0.157E-02)
 bond charge predicted
       N       E                     dE             d eps       ncg     rms          rms(c)
DAV:   1    -0.111413135688E+03   -0.36953E-03   -0.14494E-01  1008   0.975E-01    0.318E-01
DAV:   2    -0.111412901944E+03    0.23374E-03   -0.11600E-02  1260   0.302E-01    0.154E-01
DAV:   3    -0.111412713888E+03    0.18806E-03   -0.59776E-04  1260   0.688E-02    0.951E-02
DAV:   4    -0.111412624971E+03    0.88917E-04   -0.12975E-04   756   0.334E-02
  75 F= -.11141262E+03 E0= -.11141262E+03  d E =-.215152E-02
 curvature:  32.04 expect dE= 0.434E-01 dE for cont linesearch  0.371E-03
 trial: gam= 1.25046 g(F)=  0.124E-02 g(S)=  0.108E-03 ort =-0.158E-03 (trialstep = 0.143E+01)
 search vector abs. value=  0.431E-02
 bond charge predicted
       N       E                     dE             d eps       ncg     rms          rms(c)
DAV:   1    -0.111413657535E+03   -0.94365E-03   -0.53275E-02  1008   0.580E-01    0.152E-01
DAV:   2    -0.111413858542E+03   -0.20101E-03   -0.40255E-03  1260   0.177E-01    0.628E-02
DAV:   3    -0.111413823921E+03    0.34621E-04   -0.10516E-04   756   0.347E-02
  76 F= -.11141382E+03 E0= -.11141382E+03  d E =-.119895E-02
 trial-energy change:   -0.001199  1 .order   -0.001261   -0.001652   -0.000870
 step:   3.0208(harm=  3.0208)  dis= 0.00558  next Energy=  -111.414371 (dE=-0.175E-02)
 bond charge predicted
       N       E                     dE             d eps       ncg     rms          rms(c)
DAV:   1    -0.111414017611E+03   -0.15907E-03   -0.66272E-02  1008   0.645E-01    0.164E-01
DAV:   2    -0.111414258123E+03   -0.24051E-03   -0.48864E-03  1274   0.196E-01    0.754E-02
DAV:   3    -0.111414210312E+03    0.47811E-04   -0.12198E-04   784   0.373E-02
  77 F= -.11141421E+03 E0= -.11141421E+03  d E =-.158534E-02
 curvature:  -5.63 expect dE=-0.102E-01 dE for cont linesearch -0.423E-04
 trial: gam= 0.54260 g(F)=  0.141E-02 g(S)=  0.399E-03 ort = 0.180E-03 (trialstep = 0.175E+01)
 search vector abs. value=  0.327E-02
 bond charge predicted
       N       E                     dE             d eps       ncg     rms          rms(c)
DAV:   1    -0.111416933111E+03   -0.26750E-02   -0.58602E-02  1008   0.627E-01    0.196E-01
DAV:   2    -0.111417117234E+03   -0.18412E-03   -0.48813E-03  1274   0.198E-01    0.999E-02
DAV:   3    -0.111417078463E+03    0.38771E-04   -0.17189E-04   770   0.405E-02
  78 F= -.11141708E+03 E0= -.11141708E+03  d E =-.286815E-02
 trial-energy change:   -0.002868  1 .order   -0.002773   -0.003331   -0.002214
 step:   5.2089(harm=  5.2089)  dis= 0.00787  next Energy=  -111.419175 (dE=-0.497E-02)
 bond charge predicted
       N       E                     dE             d eps       ncg     rms          rms(c)
DAV:   1    -0.111417408919E+03   -0.29169E-03   -0.23109E-01  1008   0.124E+00    0.389E-01
DAV:   2    -0.111418084815E+03   -0.67590E-03   -0.19471E-02  1274   0.396E-01    0.186E-01
DAV:   3    -0.111417921696E+03    0.16312E-03   -0.83753E-04  1260   0.825E-02    0.123E-01
DAV:   4    -0.111417809305E+03    0.11239E-03   -0.14992E-04   756   0.367E-02    0.511E-02
DAV:   5    -0.111417783708E+03    0.25598E-04   -0.99317E-05   728   0.290E-02
  79 F= -.11141778E+03 E0= -.11141778E+03  d E =-.357340E-02
 curvature:  -4.47 expect dE=-0.415E-02 dE for cont linesearch -0.245E-03
 ZBRENT: interpolating
 opt :   4.3421  next Energy=  -111.417967 (dE=-0.376E-02)
 bond charge predicted
       N       E                     dE             d eps       ncg     rms          rms(c)
DAV:   1    -0.111417991315E+03   -0.18201E-03   -0.15069E-02  1008   0.315E-01    0.974E-02
DAV:   2    -0.111418048086E+03   -0.56771E-04   -0.12458E-03  1260   0.101E-01    0.505E-02
DAV:   3    -0.111418037558E+03    0.10528E-04   -0.39690E-05   658   0.196E-02
  80 F= -.11141804E+03 E0= -.11141804E+03  d E =-.382725E-02
 curvature:  -3.35 expect dE=-0.233E-02 dE for cont linesearch -0.403E-04
 ZBRENT: interpolating
 opt :   3.6804  next Energy=  -111.418112 (dE=-0.390E-02)
 bond charge predicted
       N       E                     dE             d eps       ncg     rms          rms(c)
DAV:   1    -0.111418079338E+03   -0.31252E-04   -0.81261E-03  1022   0.233E-01    0.712E-02
DAV:   2    -0.111418099246E+03   -0.19908E-04   -0.66412E-04  1260   0.732E-02
  81 F= -.11141810E+03 E0= -.11141810E+03  d E =-.388893E-02
 curvature:  -6.19 expect dE=-0.445E-02 dE for cont linesearch -0.338E-05
 trial: gam= 0.42750 g(F)=  0.585E-03 g(S)=  0.134E-03 ort = 0.422E-04 (trialstep = 0.213E+01)
 search vector abs. value=  0.135E-02
 bond charge predicted
       N       E                     dE             d eps       ncg     rms          rms(c)
DAV:   1    -0.111418686442E+03   -0.60710E-03   -0.33657E-02  1008   0.468E-01    0.129E-01
DAV:   2    -0.111418833571E+03   -0.14713E-03   -0.26660E-03  1260   0.144E-01    0.503E-02
DAV:   3    -0.111418814188E+03    0.19383E-04   -0.57585E-05   742   0.264E-02
  82 F= -.11141881E+03 E0= -.11141881E+03  d E =-.714941E-03
 trial-energy change:   -0.000715  1 .order   -0.000910   -0.001573   -0.000247
 step:   2.5312(harm=  2.5312)  dis= 0.00281  next Energy=  -111.419032 (dE=-0.933E-03)
 bond charge predicted
       N       E                     dE             d eps       ncg     rms          rms(c)
DAV:   1    -0.111418820398E+03    0.13173E-04   -0.97426E-04  1036   0.804E-02    0.196E-02
DAV:   2    -0.111418821230E+03   -0.83193E-06   -0.54625E-05   630   0.235E-02
  83 F= -.11141882E+03 E0= -.11141882E+03  d E =-.721983E-03
 curvature:  -2.32 expect dE=-0.175E-02 dE for cont linesearch -0.612E-06
 trial: gam= 0.97253 g(F)=  0.679E-03 g(S)=  0.741E-04 ort =-0.189E-04 (trialstep = 0.150E+01)
 search vector abs. value=  0.200E-02
 bond charge predicted
       N       E                     dE             d eps       ncg     rms          rms(c)
DAV:   1    -0.111419485071E+03   -0.66467E-03   -0.26314E-02  1008   0.412E-01    0.107E-01
DAV:   2    -0.111419624699E+03   -0.13963E-03   -0.18925E-03  1246   0.125E-01    0.441E-02
DAV:   3    -0.111419609976E+03    0.14723E-04   -0.39341E-05   728   0.225E-02
  84 F= -.11141961E+03 E0= -.11141961E+03  d E =-.788746E-03
 trial-energy change:   -0.000789  1 .order   -0.000740   -0.001102   -0.000377
 step:   2.2822(harm=  2.2822)  dis= 0.00292  next Energy=  -111.419659 (dE=-0.838E-03)
 bond charge predicted
       N       E                     dE             d eps       ncg     rms          rms(c)
DAV:   1    -0.111419656234E+03   -0.31535E-04   -0.65031E-03  1022   0.205E-01    0.507E-02
DAV:   2    -0.111419682955E+03   -0.26721E-04   -0.43090E-04  1176   0.599E-02
  85 F= -.11141968E+03 E0= -.11141968E+03  d E =-.861725E-03
 curvature:  -3.10 expect dE=-0.192E-02 dE for cont linesearch -0.188E-08
 trial: gam= 0.48454 g(F)=  0.592E-03 g(S)=  0.267E-04 ort = 0.110E-05 (trialstep = 0.166E+01)
 search vector abs. value=  0.109E-02
 bond charge predicted
       N       E                     dE             d eps       ncg     rms          rms(c)
DAV:   1    -0.111420292960E+03   -0.63673E-03   -0.14949E-02  1022   0.318E-01    0.915E-02
DAV:   2    -0.111420350971E+03   -0.58011E-04   -0.11449E-03  1274   0.993E-02    0.405E-02
DAV:   3    -0.111420334913E+03    0.16058E-04   -0.42024E-05   742   0.215E-02
  86 F= -.11142033E+03 E0= -.11142033E+03  d E =-.651958E-03
 trial-energy change:   -0.000652  1 .order   -0.000673   -0.001027   -0.000320
 step:   2.4061(harm=  2.4061)  dis= 0.00224  next Energy=  -111.420428 (dE=-0.745E-03)
 bond charge predicted
       N       E                     dE             d eps       ncg     rms          rms(c)
DAV:   1    -0.111420449515E+03   -0.98544E-04   -0.27726E-03  1134   0.138E-01    0.401E-02
DAV:   2    -0.111420452340E+03   -0.28250E-05   -0.17280E-04   798   0.417E-02
  87 F= -.11142045E+03 E0= -.11142045E+03  d E =-.769385E-03
 curvature:  -2.11 expect dE=-0.790E-03 dE for cont linesearch -0.449E-04
 ZBRENT: increasing intervall
 opt :   3.9044  next Energy=  -111.420619 (dE=-0.936E-03)
 bond charge predicted
       N       E                     dE             d eps       ncg     rms          rms(c)
DAV:   1    -0.111420542559E+03   -0.93044E-04   -0.12272E-02  1036   0.287E-01    0.885E-02
DAV:   2    -0.111420594747E+03   -0.52189E-04   -0.97389E-04  1302   0.911E-02
  88 F= -.11142059E+03 E0= -.11142059E+03  d E =-.911793E-03
 curvature:  -7.84 expect dE=-0.320E-02 dE for cont linesearch -0.384E-04
 trial: gam= 0.87722 g(F)=  0.293E-03 g(S)=  0.116E-03 ort =-0.730E-04 (trialstep = 0.205E+01)
 search vector abs. value=  0.112E-02
 bond charge predicted
       N       E                     dE             d eps       ncg     rms          rms(c)
DAV:   1    -0.111421313548E+03   -0.77099E-03   -0.20703E-02  1022   0.372E-01    0.990E-02
DAV:   2    -0.111421303560E+03    0.99879E-05   -0.14609E-03  1260   0.112E-01    0.577E-02
DAV:   3    -0.111421276520E+03    0.27041E-04   -0.58924E-05   742   0.238E-02
  89 F= -.11142128E+03 E0= -.11142128E+03  d E =-.681772E-03
 ZBRENT: can't locate minimum, use default step
 trial-energy change:   -0.000682  1 .order   -0.000634   -0.000707   -0.000562
 step:   8.2034(harm= 10.0056)  dis= 0.00838  next Energy=  -111.422318 (dE=-0.172E-02)
 bond charge predicted
       N       E                     dE             d eps       ncg     rms          rms(c)
DAV:   1    -0.111421792123E+03   -0.48856E-03   -0.18333E-01  1008   0.111E+00    0.314E-01
DAV:   2    -0.111421836453E+03   -0.44330E-04   -0.13563E-02  1260   0.334E-01    0.157E-01
DAV:   3    -0.111421629089E+03    0.20736E-03   -0.64083E-04  1288   0.721E-02    0.100E-01
DAV:   4    -0.111421522042E+03    0.10705E-03   -0.13733E-04   756   0.348E-02    0.488E-02
DAV:   5    -0.111421507104E+03    0.14938E-04   -0.12776E-04   714   0.301E-02
  90 F= -.11142151E+03 E0= -.11142151E+03  d E =-.912356E-03
 curvature: -15.41 expect dE=-0.257E-01 dE for cont linesearch -0.542E-03
 ZBRENT: interpolating
 opt :   5.6198  next Energy=  -111.421763 (dE=-0.117E-02)
 bond charge predicted
       N       E                     dE             d eps       ncg     rms          rms(c)
DAV:   1    -0.111421829293E+03   -0.30725E-03   -0.32845E-02  1008   0.468E-01    0.134E-01
DAV:   2    -0.111421869688E+03   -0.40395E-04   -0.24124E-03  1260   0.142E-01    0.734E-02
DAV:   3    -0.111421836890E+03    0.32798E-04   -0.89170E-05   644   0.294E-02
  91 F= -.11142184E+03 E0= -.11142184E+03  d E =-.124214E-02
 curvature:  -7.29 expect dE=-0.571E-02 dE for cont linesearch -0.101E-07
 trial: gam= 1.54716 g(F)=  0.583E-03 g(S)=  0.201E-03 ort =-0.125E-05 (trialstep = 0.894E+00)
 search vector abs. value=  0.346E-02
 bond charge predicted
       N       E                     dE             d eps       ncg     rms          rms(c)
DAV:   1    -0.111422349769E+03   -0.48008E-03   -0.10245E-02  1008   0.267E-01    0.718E-02
DAV:   2    -0.111422401567E+03   -0.51798E-04   -0.82644E-04  1232   0.806E-02
  92 F= -.11142240E+03 E0= -.11142240E+03  d E =-.564677E-03
 ZBRENT: can't locate minimum, use default step
 trial-energy change:   -0.000565  1 .order   -0.000660   -0.000699   -0.000620
 step:   3.5772(harm=  7.9210)  dis= 0.00740  next Energy=  -111.424934 (dE=-0.310E-02)
 bond charge predicted
       N       E                     dE             d eps       ncg     rms          rms(c)
DAV:   1    -0.111423080819E+03   -0.73105E-03   -0.86606E-02  1008   0.777E-01    0.178E-01
DAV:   2    -0.111423410057E+03   -0.32924E-03   -0.64464E-03  1260   0.227E-01    0.931E-02
DAV:   3    -0.111423345821E+03    0.64236E-04   -0.20351E-04   854   0.472E-02
  93 F= -.11142335E+03 E0= -.11142335E+03  d E =-.150893E-02
 curvature: -10.82 expect dE=-0.932E-02 dE for cont linesearch -0.129E-03
 ZBRENT: extrapolating
 opt :   4.6871  next Energy=  -111.423458 (dE=-0.162E-02)
 bond charge predicted
       N       E                     dE             d eps       ncg     rms          rms(c)
DAV:   1    -0.111423332727E+03    0.77329E-04   -0.13914E-02  1036   0.311E-01    0.710E-02
DAV:   2    -0.111423348823E+03   -0.16095E-04   -0.96044E-04  1260   0.882E-02
  94 F= -.11142335E+03 E0= -.11142335E+03  d E =-.151193E-02
 curvature:  -9.45 expect dE=-0.119E-01 dE for cont linesearch -0.128E-04
 trial: gam= 1.30956 g(F)=  0.125E-02 g(S)=  0.115E-04 ort = 0.683E-04 (trialstep = 0.776E+00)
 search vector abs. value=  0.737E-02
 bond charge predicted
       N       E                     dE             d eps       ncg     rms          rms(c)
DAV:   1    -0.111424112470E+03   -0.77974E-03   -0.13728E-02  1036   0.314E-01    0.773E-02
DAV:   2    -0.111424129298E+03   -0.16828E-04   -0.10206E-03  1260   0.905E-02    0.495E-02
DAV:   3    -0.111424110676E+03    0.18622E-04   -0.42501E-05   742   0.213E-02
  95 F= -.11142411E+03 E0= -.11142411E+03  d E =-.761853E-03
 trial-energy change:   -0.000762  1 .order   -0.000862   -0.001046   -0.000678
 step:   2.2022(harm=  2.2022)  dis= 0.00728  next Energy=  -111.424834 (dE=-0.149E-02)
 bond charge predicted
       N       E                     dE             d eps       ncg     rms          rms(c)
DAV:   1    -0.111424484914E+03   -0.35562E-03   -0.45499E-02  1008   0.573E-01    0.140E-01
DAV:   2    -0.111424641339E+03   -0.15642E-03   -0.35485E-03  1260   0.166E-01    0.675E-02
DAV:   3    -0.111424608777E+03    0.32562E-04   -0.13671E-04   756   0.382E-02
  96 F= -.11142461E+03 E0= -.11142461E+03  d E =-.125995E-02
 curvature:  -6.01 expect dE=-0.490E-02 dE for cont linesearch -0.173E-04
 trial: gam= 0.61523 g(F)=  0.709E-03 g(S)=  0.106E-03 ort =-0.145E-03 (trialstep = 0.106E+01)
 search vector abs. value=  0.343E-02
 bond charge predicted
       N       E                     dE             d eps       ncg     rms          rms(c)
DAV:   1    -0.111425079595E+03   -0.43826E-03   -0.11620E-02  1036   0.286E-01    0.621E-02
DAV:   2    -0.111425137584E+03   -0.57989E-04   -0.91598E-04  1260   0.844E-02
  97 F= -.11142514E+03 E0= -.11142514E+03  d E =-.528807E-03
 trial-energy change:   -0.000529  1 .order   -0.000594   -0.000770   -0.000417
 step:   2.3142(harm=  2.3142)  dis= 0.00456  next Energy=  -111.425449 (dE=-0.840E-03)
 bond charge predicted
       N       E                     dE             d eps       ncg     rms          rms(c)
DAV:   1    -0.111425149976E+03   -0.70381E-04   -0.16686E-02  1022   0.342E-01    0.726E-02
DAV:   2    -0.111425236343E+03   -0.86367E-04   -0.12766E-03  1260   0.101E-01    0.436E-02
DAV:   3    -0.111425228835E+03    0.75084E-05   -0.35295E-05   714   0.203E-02
  98 F= -.11142523E+03 E0= -.11142523E+03  d E =-.620058E-03
 curvature:  -5.46 expect dE=-0.725E-02 dE for cont linesearch -0.198E-03
 ZBRENT: interpolating
 opt :   1.7215  next Energy=  -111.425333 (dE=-0.725E-03)
 bond charge predicted
       N       E                     dE             d eps       ncg     rms          rms(c)
DAV:   1    -0.111425281440E+03   -0.45097E-04   -0.39909E-03  1036   0.167E-01    0.439E-02
DAV:   2    -0.111425306057E+03   -0.24617E-04   -0.31239E-04   868   0.514E-02
  99 F= -.11142531E+03 E0= -.11142531E+03  d E =-.697280E-03
 curvature:  -2.88 expect dE=-0.288E-02 dE for cont linesearch -0.191E-06
 trial: gam= 0.66972 g(F)=  0.684E-03 g(S)=  0.319E-03 ort =-0.151E-04 (trialstep = 0.119E+01)
 search vector abs. value=  0.252E-02
