<?xml version="1.0" encoding="ISO-8859-1"?>
<modeling>
 <generator>
  <i name="program" type="string">vasp </i>
  <i name="version" type="string">5.4.4.18Apr17-6-g9f103f2a35  </i>
  <i name="subversion" type="string">(build Oct 27 2022 13:04:57) complex            parallel </i>
  <i name="platform" type="string">LinuxIFC </i>
  <i name="date" type="string">2024 07 04 </i>
  <i name="time" type="string">08:45:30 </i>
 </generator>
 <incar>
  <i type="string" name="SYSTEM"> CIS</i>
  <i type="int" name="ISTART">     0</i>
  <i type="string" name="PREC">medium</i>
  <i type="int" name="ICHARG">     2</i>
  <i type="int" name="IBRION">     2</i>
  <i name="EDIFF">      0.00010000</i>
  <i name="EDIFFG">     -0.05000000</i>
  <i type="int" name="NSW">    99</i>
  <i type="int" name="ISIF">     3</i>
  <i name="ENCUT">    300.00000000</i>
  <i name="POTIM">      0.10000000</i>
  <i type="string" name="LREAL"> Auto</i>
  <i type="int" name="ISMEAR">     0</i>
  <i name="SIGMA">      0.05000000</i>
  <i type="int" name="LMAXMIX">     4</i>
  <i type="logical" name="LWAVE"> F  </i>
  <i type="logical" name="LCHARG"> F  </i>
  <i type="int" name="LORBIT">    10</i>
  <i type="logical" name="LASPH"> T  </i>
  <v type="int" name="KPOINT_BSE">    -1     0     0     0</v>
  <i type="logical" name="LASPH"> T  </i>
 </incar>
 <structure name="primitive_cell" >
  <crystal>
   <varray name="basis" >
    <v>      -6.95319101       0.01936262      -0.16969851 </v>
    <v>       1.98762469       8.65525807      -0.51738365 </v>
    <v>      -0.61353960      -1.22728371     -10.72242160 </v>
   </varray>
   <i name="volume">    649.63987887 </i>
   <varray name="rec_basis" >
    <v>      -0.14383400       0.03329473       0.00441932 </v>
    <v>       0.00064017       0.11460338      -0.01315408 </v>
    <v>       0.00224550      -0.00605684      -0.09269774 </v>
   </varray>
  </crystal>
  <varray name="positions" >
   <v>       0.35721016       0.33194238       0.12420746 </v>
   <v>      -0.46306964       0.49039154       0.29991671 </v>
   <v>       0.44241120       0.07595713       0.16979295 </v>
   <v>      -0.32043471       0.37158270      -0.04883203 </v>
   <v>       0.32043471      -0.37158270       0.04883203 </v>
   <v>      -0.04948128       0.27078998       0.22988133 </v>
   <v>       0.18514479       0.16662165      -0.13158153 </v>
   <v>      -0.23650805       0.12278245       0.04538733 </v>
   <v>      -0.12304249      -0.46339924       0.19078930 </v>
   <v>       0.47046602      -0.24856416       0.24670269 </v>
   <v>      -0.36975184       0.16543092       0.36014298 </v>
   <v>      -0.47046602       0.24856416      -0.24670269 </v>
   <v>      -0.35721016      -0.33194238      -0.12420746 </v>
   <v>       0.12304249       0.46339924      -0.19078930 </v>
   <v>       0.23650805      -0.12278245      -0.04538733 </v>
   <v>       0.02883219      -0.05318136       0.33517764 </v>
   <v>       0.05321916      -0.32674230       0.37453900 </v>
   <v>      -0.18514479      -0.16662165       0.13158153 </v>
   <v>       0.46306964      -0.49039154      -0.29991671 </v>
   <v>      -0.44241120      -0.07595713      -0.16979295 </v>
   <v>       0.27269370       0.04228432      -0.47030602 </v>
   <v>      -0.05321916       0.32674230      -0.37453900 </v>
   <v>      -0.02883219       0.05318136      -0.33517764 </v>
   <v>      -0.27269370      -0.04228432       0.47030602 </v>
   <v>       0.04948128      -0.27078998      -0.22988133 </v>
   <v>       0.36975184      -0.16543092      -0.36014298 </v>
  </varray>
 </structure>
 <varray name="primitive_index" >
  <v type="int" >        1 </v>
  <v type="int" >       25 </v>
  <v type="int" >       19 </v>
  <v type="int" >       14 </v>
  <v type="int" >       18 </v>
  <v type="int" >       22 </v>
  <v type="int" >       26 </v>
  <v type="int" >        7 </v>
  <v type="int" >       11 </v>
  <v type="int" >       12 </v>
  <v type="int" >        3 </v>
  <v type="int" >        8 </v>
  <v type="int" >        4 </v>
  <v type="int" >        6 </v>
  <v type="int" >        9 </v>
  <v type="int" >        5 </v>
  <v type="int" >       17 </v>
  <v type="int" >       13 </v>
  <v type="int" >       15 </v>
  <v type="int" >       21 </v>
  <v type="int" >       16 </v>
  <v type="int" >       20 </v>
  <v type="int" >       10 </v>
  <v type="int" >       24 </v>
  <v type="int" >       23 </v>
  <v type="int" >        2 </v>
 </varray>
 <kpoints>
  <generation param="Monkhorst-Pack">
   <v type="int" name="divisions">       3        2        2 </v>
   <v name="usershift">      0.00000000       0.00000000       0.00000000 </v>
   <v name="genvec1">      0.33333333       0.00000000       0.00000000 </v>
   <v name="genvec2">      0.00000000       0.50000000       0.00000000 </v>
   <v name="genvec3">      0.00000000       0.00000000       0.50000000 </v>
   <v name="shift">      0.00000000       0.50000000       0.50000000 </v>
  </generation>
  <varray name="kpointlist" >
   <v>       0.00000000       0.25000000       0.25000000 </v>
   <v>       0.33333333       0.25000000       0.25000000 </v>
   <v>      -0.33333333       0.25000000       0.25000000 </v>
   <v>      -0.00000000      -0.25000000       0.25000000 </v>
   <v>       0.33333333      -0.25000000       0.25000000 </v>
   <v>      -0.33333333      -0.25000000       0.25000000 </v>
  </varray>
  <varray name="weights" >
   <v>       0.16666667 </v>
   <v>       0.16666667 </v>
   <v>       0.16666667 </v>
   <v>       0.16666667 </v>
   <v>       0.16666667 </v>
   <v>       0.16666667 </v>
  </varray>
 </kpoints>
 <parameters>
  <separator name="general" >
   <i type="string" name="SYSTEM">CIS</i>
   <i type="logical" name="LCOMPAT"> F  </i>
  </separator>
  <separator name="electronic" >
   <i type="string" name="PREC">medium</i>
   <i name="ENMAX">    300.00000000</i>
   <i name="ENAUG">    380.51300000</i>
   <i name="EDIFF">      0.00010000</i>
   <i type="int" name="IALGO">    38</i>
   <i type="int" name="IWAVPR">    11</i>
   <i type="int" name="NBANDS">    84</i>
   <i name="NELECT">    128.00000000</i>
   <i type="int" name="TURBO">     0</i>
   <i type="int" name="IRESTART">     0</i>
   <i type="int" name="NREBOOT">     0</i>
   <i type="int" name="NMIN">     0</i>
   <i name="EREF">      0.00000000</i>
   <separator name="electronic smearing" >
    <i type="int" name="ISMEAR">     0</i>
    <i name="SIGMA">      0.05000000</i>
    <i name="KSPACING">      0.50000000</i>
    <i type="logical" name="KGAMMA"> T  </i>
   </separator>
   <separator name="electronic projectors" >
    <i type="logical" name="LREAL"> T  </i>
    <v name="ROPT">     -0.00200000     -0.00200000     -0.00200000</v>
    <i type="int" name="LMAXPAW">  -100</i>
    <i type="int" name="LMAXMIX">     4</i>
    <i type="logical" name="NLSPLINE"> F  </i>
   </separator>
   <separator name="electronic startup" >
    <i type="int" name="ISTART">     0</i>
    <i type="int" name="ICHARG">     2</i>
    <i type="int" name="INIWAV">     1</i>
   </separator>
   <separator name="electronic spin" >
    <i type="int" name="ISPIN">     1</i>
    <i type="logical" name="LNONCOLLINEAR"> F  </i>
    <v name="MAGMOM">      1.00000000      1.00000000      1.00000000      1.00000000      1.00000000      1.00000000      1.00000000      1.00000000      1.00000000      1.00000000      1.00000000      1.00000000      1.00000000      1.00000000      1.00000000      1.00000000      1.00000000      1.00000000      1.00000000      1.00000000
      1.00000000      1.00000000      1.00000000      1.00000000      1.00000000      1.00000000</v>
    <i name="NUPDOWN">     -1.00000000</i>
    <i type="logical" name="LSORBIT"> F  </i>
    <v name="SAXIS">      0.00000000      0.00000000      1.00000000</v>
    <i type="logical" name="LSPIRAL"> F  </i>
    <v name="QSPIRAL">      0.00000000      0.00000000      0.00000000</v>
    <i type="logical" name="LZEROZ"> F  </i>
   </separator>
   <separator name="electronic exchange-correlation" >
    <i type="logical" name="LASPH"> T  </i>
    <i type="logical" name="LMETAGGA"> F  </i>
   </separator>
   <separator name="electronic convergence" >
    <i type="int" name="NELM">    60</i>
    <i type="int" name="NELMDL">    -5</i>
    <i type="int" name="NELMIN">     2</i>
    <i name="ENINI">    300.00000000</i>
    <separator name="electronic convergence detail" >
     <i type="logical" name="LDIAG"> T  </i>
     <i type="logical" name="LSUBROT"> F  </i>
     <i name="WEIMIN">      0.00100000</i>
     <i name="EBREAK">      0.00000030</i>
     <i name="DEPER">      0.30000000</i>
     <i type="int" name="NRMM">     4</i>
     <i name="TIME">      0.40000000</i>
    </separator>
   </separator>
   <separator name="electronic mixer" >
    <i name="AMIX">      0.40000000</i>
    <i name="BMIX">      1.00000000</i>
    <i name="AMIN">      0.10000000</i>
    <i name="AMIX_MAG">      1.60000000</i>
    <i name="BMIX_MAG">      1.00000000</i>
    <separator name="electronic mixer details" >
     <i type="int" name="IMIX">     4</i>
     <i type="logical" name="MIXFIRST"> F  </i>
     <i type="int" name="MAXMIX">   -45</i>
     <i name="WC">    100.00000000</i>
     <i type="int" name="INIMIX">     1</i>
     <i type="int" name="MIXPRE">     1</i>
     <i type="int" name="MREMOVE">     5</i>
    </separator>
   </separator>
   <separator name="electronic dipolcorrection" >
    <i type="logical" name="LDIPOL"> F  </i>
    <i type="logical" name="LMONO"> F  </i>
    <i type="int" name="IDIPOL">     0</i>
    <i name="EPSILON">      1.00000000</i>
    <v name="DIPOL">   -100.00000000   -100.00000000   -100.00000000</v>
    <i name="EFIELD">      0.00000000</i>
   </separator>
  </separator>
  <separator name="grids" >
   <i type="int" name="NGX">    30</i>
   <i type="int" name="NGY">    40</i>
   <i type="int" name="NGZ">    48</i>
   <i type="int" name="NGXF">    48</i>
   <i type="int" name="NGYF">    56</i>
   <i type="int" name="NGZF">    70</i>
   <i type="logical" name="ADDGRID"> F  </i>
  </separator>
  <separator name="ionic" >
   <i type="int" name="NSW">    99</i>
   <i type="int" name="IBRION">     2</i>
   <i type="int" name="MDALGO">     0</i>
   <i type="int" name="ISIF">     3</i>
   <i name="PSTRESS">      0.00000000</i>
   <i name="EDIFFG">     -0.05000000</i>
   <i type="int" name="NFREE">     1</i>
   <i name="POTIM">      0.10000000</i>
   <i name="SMASS">     -3.00000000</i>
   <i name="SCALEE">      1.00000000</i>
  </separator>
  <separator name="ionic md" >
   <i name="TEBEG">      0.00010000</i>
   <i name="TEEND">      0.00010000</i>
   <i type="int" name="NBLOCK">     1</i>
   <i type="int" name="KBLOCK">    99</i>
   <i type="int" name="NPACO">   256</i>
   <i name="APACO">     16.00000000</i>
  </separator>
  <separator name="symmetry" >
   <i type="int" name="ISYM">     2</i>
   <i name="SYMPREC">      0.00001000</i>
  </separator>
  <separator name="dos" >
   <i type="int" name="LORBIT">    10</i>
   <v name="RWIGS">     -1.00000000     -1.00000000     -1.00000000</v>
   <i type="int" name="NEDOS">   301</i>
   <i name="EMIN">     10.00000000</i>
   <i name="EMAX">    -10.00000000</i>
   <i name="EFERMI">      0.00000000</i>
  </separator>
  <separator name="writing" >
   <i type="int" name="NWRITE">     2</i>
   <i type="logical" name="LWAVE"> F  </i>
   <i type="logical" name="LDOWNSAMPLE"> F  </i>
   <i type="logical" name="LCHARG"> F  </i>
   <i type="logical" name="LPARD"> F  </i>
   <i type="logical" name="LVTOT"> F  </i>
   <i type="logical" name="LVHAR"> F  </i>
   <i type="logical" name="LELF"> F  </i>
   <i type="logical" name="LOPTICS"> F  </i>
   <v name="STM">      0.00000000      0.00000000      0.00000000      0.00000000      0.00000000      0.00000000      0.00000000</v>
  </separator>
  <separator name="performance" >
   <i type="int" name="NPAR">    14</i>
   <i type="int" name="NSIM">     4</i>
   <i type="int" name="NBLK">    -1</i>
   <i type="logical" name="LPLANE"> T  </i>
   <i type="logical" name="LSCALAPACK"> T  </i>
   <i type="logical" name="LSCAAWARE"> F  </i>
   <i type="logical" name="LSCALU"> F  </i>
   <i type="logical" name="LASYNC"> F  </i>
   <i type="logical" name="LORBITALREAL"> F  </i>
  </separator>
  <separator name="miscellaneous" >
   <i type="int" name="IDIOT">     3</i>
   <i type="int" name="ISPECIAL">     0</i>
   <i type="logical" name="LMUSIC"> F  </i>
   <v name="POMASS">      7.01000000    121.75000000     32.06600000</v>
   <v name="DARWINR">      0.00000000      0.00000000      0.00000000</v>
   <v name="DARWINV">      1.00000000      1.00000000      1.00000000</v>
   <i type="logical" name="LCORR"> T  </i>
  </separator>
  <i type="logical" name="GGA_COMPAT"> T  </i>
  <i type="logical" name="LBERRY"> F  </i>
  <i type="int" name="ICORELEVEL">     0</i>
  <i type="logical" name="LDAU"> F  </i>
  <i type="int" name="I_CONSTRAINED_M">     0</i>
  <separator name="electronic exchange-correlation" >
   <i type="string" name="GGA">--</i>
   <i type="int" name="VOSKOWN">     0</i>
   <i type="logical" name="LHFCALC"> F  </i>
   <i type="string" name="PRECFOCK"></i>
   <i type="logical" name="LSYMGRAD"> F  </i>
   <i type="logical" name="LHFONE"> F  </i>
   <i type="logical" name="LRHFCALC"> F  </i>
   <i type="logical" name="LTHOMAS"> F  </i>
   <i type="logical" name="LMODELHF"> F  </i>
   <i name="ENCUT4O">     -1.00000000</i>
   <i type="int" name="EXXOEP">     0</i>
   <i type="int" name="FOURORBIT">     0</i>
   <i name="AEXX">      0.00000000</i>
   <i name="HFALPHA">      0.00000000</i>
   <i name="MCALPHA">      0.00000000</i>
   <i name="ALDAX">      1.00000000</i>
   <i name="AGGAX">      1.00000000</i>
   <i name="ALDAC">      1.00000000</i>
   <i name="AGGAC">      1.00000000</i>
   <i type="int" name="NKREDX">     1</i>
   <i type="int" name="NKREDY">     1</i>
   <i type="int" name="NKREDZ">     1</i>
   <i type="logical" name="SHIFTRED"> F  </i>
   <i type="logical" name="ODDONLY"> F  </i>
   <i type="logical" name="EVENONLY"> F  </i>
   <i type="int" name="LMAXFOCK">     0</i>
   <i type="int" name="NMAXFOCKAE">     0</i>
   <i type="logical" name="LFOCKAEDFT"> F  </i>
   <i name="HFSCREEN">      0.00000000</i>
   <i name="HFSCREENC">      0.00000000</i>
   <i type="int" name="NBANDSGWLOW">     0</i>
  </separator>
  <separator name="vdW DFT" >
   <i type="logical" name="LUSE_VDW"> F  </i>
   <i name="Zab_VDW">     -0.84910000</i>
   <i name="PARAM1">      0.12340000</i>
   <i name="PARAM2">      1.00000000</i>
   <i name="PARAM3">      0.00000000</i>
  </separator>
  <separator name="model GW" >
   <i type="int" name="MODEL_GW">     0</i>
   <i name="MODEL_EPS0">     14.99168951</i>
   <i name="MODEL_ALPHA">      1.00000000</i>
  </separator>
  <separator name="linear response parameters" >
   <i type="logical" name="LEPSILON"> F  </i>
   <i type="logical" name="LRPA"> F  </i>
   <i type="logical" name="LNABLA"> F  </i>
   <i type="logical" name="LVEL"> F  </i>
   <i type="int" name="KINTER">     0</i>
   <i name="CSHIFT">      0.10000000</i>
   <i name="OMEGAMAX">     -1.00000000</i>
   <i name="DEG_THRESHOLD">      0.00200000</i>
   <i name="RTIME">     -0.10000000</i>
   <i name="WPLASMAI">      0.00000000</i>
   <v name="DFIELD">      0.00000000      0.00000000      0.00000000</v>
   <v name="WPLASMA">      0.00000000      0.00000000      0.00000000      0.00000000      0.00000000      0.00000000      0.00000000      0.00000000      0.00000000</v>
  </separator>
  <separator name="orbital magnetization" >
   <i type="logical" name="NUCIND"> F  </i>
   <v name="MAGPOS">      0.00000000      0.00000000      0.00000000</v>
   <i type="logical" name="LNICSALL"> T  </i>
   <i type="logical" name="ORBITALMAG"> F  </i>
   <i type="logical" name="LMAGBLOCH"> F  </i>
   <i type="logical" name="LCHIMAG"> F  </i>
   <i type="logical" name="LGAUGE"> T  </i>
   <i type="int" name="MAGATOM">     0</i>
   <v name="MAGDIPOL">      0.00000000      0.00000000      0.00000000</v>
   <v name="AVECCONST">      0.00000000      0.00000000      0.00000000</v>
  </separator>
  <separator name="response functions" >
   <i type="logical" name="LADDER"> F  </i>
   <i type="logical" name="LRPAFORCE"> F  </i>
   <i type="logical" name="LFXC"> F  </i>
   <i type="logical" name="LHARTREE"> T  </i>
   <i type="int" name="IBSE">     0</i>
   <v type="int" name="KPOINT">    -1     0     0     0</v>
   <i type="logical" name="LTCTE"> F  </i>
   <i type="logical" name="LTETE"> F  </i>
   <i type="logical" name="LTRIPLET"> F  </i>
   <i type="logical" name="LFXCEPS"> F  </i>
   <i type="logical" name="LFXHEG"> F  </i>
   <i type="int" name="NATURALO">     2</i>
   <i type="logical" name="L2ORDER"> F  </i>
   <i type="logical" name="LMP2LT"> F  </i>
   <i type="logical" name="LUSEW"> F  </i>
   <i name="ENCUTGW">     -2.00000000</i>
   <i name="ENCUTGWSOFT">     -2.00000000</i>
   <i name="ENCUTLF">     -1.00000000</i>
   <i type="int" name="LMAXMP2">    -1</i>
   <i name="SCISSOR">      0.00000000</i>
   <i type="int" name="NOMEGA">     0</i>
   <i type="int" name="NOMEGAR">     0</i>
   <i type="int" name="NBANDSGW">    -1</i>
   <i type="int" name="NBANDSO">    -1</i>
   <i type="int" name="NBANDSV">    -1</i>
   <i type="int" name="NELM">     1</i>
   <i type="int" name="NELMHF">     1</i>
   <i type="int" name="DIM">     3</i>
   <i type="int" name="ANTIRES">     0</i>
   <i name="OMEGAMAX">    -30.00000000</i>
   <i name="OMEGAMIN">    -30.00000000</i>
   <i name="OMEGATL">   -200.00000000</i>
   <i type="int" name="OMEGAGRID">   140</i>
   <i name="CSHIFT">     -0.10000000</i>
   <i type="logical" name="SELFENERGY"> F  </i>
   <i type="logical" name="LSPECTRAL"> F  </i>
   <i type="logical" name="LSPECTRALGW"> F  </i>
   <i type="logical" name="LSINGLES"> F  </i>
   <i type="logical" name="LFERMIGW"> F  </i>
   <i type="logical" name="ODDONLYGW"> F  </i>
   <i type="logical" name="EVENONLYGW"> F  </i>
   <i type="int" name="NKREDLFX">     1</i>
   <i type="int" name="NKREDLFY">     1</i>
   <i type="int" name="NKREDLFZ">     1</i>
   <i type="int" name="MAXMEM">  2800</i>
   <i type="int" name="TELESCOPE">     0</i>
   <i type="int" name="TAUPAR">     1</i>
   <i type="int" name="OMEGAPAR">    -1</i>
   <i name="LAMBDA">      1.00000000</i>
  </separator>
  <separator name="External order field" >
   <i name="OFIELD_KAPPA">      0.00000000</i>
   <v name="OFIELD_K">      0.00000000      0.00000000      0.00000000</v>
   <i name="OFIELD_Q6_NEAR">      0.00000000</i>
   <i name="OFIELD_Q6_FAR">      0.00000000</i>
   <i name="OFIELD_A">      0.00000000</i>
  </separator>
 </parameters>
 <atominfo>
  <atoms>      26 </atoms>
  <types>       3 </types>
  <array name="atoms" >
   <dimension dim="1">ion</dimension>
   <field type="string">element</field>
   <field type="int">atomtype</field>
   <set>
    <rc><c>Li</c><c>   1</c></rc>
    <rc><c>Li</c><c>   1</c></rc>
    <rc><c>Li</c><c>   1</c></rc>
    <rc><c>Li</c><c>   1</c></rc>
    <rc><c>Sb</c><c>   2</c></rc>
    <rc><c>Sb</c><c>   2</c></rc>
    <rc><c>Sb</c><c>   2</c></rc>
    <rc><c>Sb</c><c>   2</c></rc>
    <rc><c>Sb</c><c>   2</c></rc>
    <rc><c>Sb</c><c>   2</c></rc>
    <rc><c>Sb</c><c>   2</c></rc>
    <rc><c>Sb</c><c>   2</c></rc>
    <rc><c>S </c><c>   3</c></rc>
    <rc><c>S </c><c>   3</c></rc>
    <rc><c>S </c><c>   3</c></rc>
    <rc><c>S </c><c>   3</c></rc>
    <rc><c>S </c><c>   3</c></rc>
    <rc><c>S </c><c>   3</c></rc>
    <rc><c>S </c><c>   3</c></rc>
    <rc><c>S </c><c>   3</c></rc>
    <rc><c>S </c><c>   3</c></rc>
    <rc><c>S </c><c>   3</c></rc>
    <rc><c>S </c><c>   3</c></rc>
    <rc><c>S </c><c>   3</c></rc>
    <rc><c>S </c><c>   3</c></rc>
    <rc><c>S </c><c>   3</c></rc>
   </set>
  </array>
  <array name="atomtypes" >
   <dimension dim="1">type</dimension>
   <field type="int">atomspertype</field>
   <field type="string">element</field>
   <field>mass</field>
   <field>valence</field>
   <field type="string">pseudopotential</field>
   <set>
    <rc><c>   4</c><c>Li</c><c>      7.01000000</c><c>      1.00000000</c><c>  PAW_PBE Li 17Jan2003                  </c></rc>
    <rc><c>   8</c><c>Sb</c><c>    121.75000000</c><c>      5.00000000</c><c>  PAW_PBE Sb 06Sep2000                  </c></rc>
    <rc><c>  14</c><c>S </c><c>     32.06600000</c><c>      6.00000000</c><c>  PAW_PBE S 06Sep2000                   </c></rc>
   </set>
  </array>
 </atominfo>
 <structure name="initialpos" >
  <crystal>
   <varray name="basis" >
    <v>      -6.95319101       0.01936262      -0.16969851 </v>
    <v>       1.98762469       8.65525807      -0.51738365 </v>
    <v>      -0.61353960      -1.22728371     -10.72242160 </v>
   </varray>
   <i name="volume">    649.63987887 </i>
   <varray name="rec_basis" >
    <v>      -0.14383400       0.03329473       0.00441932 </v>
    <v>       0.00064017       0.11460338      -0.01315408 </v>
    <v>       0.00224550      -0.00605684      -0.09269774 </v>
   </varray>
  </crystal>
  <varray name="positions" >
   <v>       0.35721016       0.33194238       0.12420746 </v>
   <v>       0.36975184       0.83456908       0.63985702 </v>
   <v>       0.63024816       0.16543092       0.36014298 </v>
   <v>       0.64278984       0.66805762       0.87579254 </v>
   <v>       0.02883219       0.94681864       0.33517764 </v>
   <v>       0.12304249       0.46339924       0.80921070 </v>
   <v>       0.76349195       0.12278245       0.04538733 </v>
   <v>       0.52953398       0.24856416       0.75329731 </v>
   <v>       0.23650805       0.87721755       0.95461267 </v>
   <v>       0.97116781       0.05318136       0.66482236 </v>
   <v>       0.87695751       0.53660076       0.19078930 </v>
   <v>       0.47046602       0.75143584       0.24670269 </v>
   <v>       0.81485521       0.83337835       0.13158153 </v>
   <v>       0.67956529       0.37158270       0.95116797 </v>
   <v>       0.46306964       0.50960846       0.70008329 </v>
   <v>       0.27269370       0.04228432       0.52969398 </v>
   <v>       0.05321916       0.67325770       0.37453900 </v>
   <v>       0.32043471       0.62841730       0.04883203 </v>
   <v>       0.44241120       0.07595713       0.16979295 </v>
   <v>       0.94678084       0.32674230       0.62546100 </v>
   <v>       0.55758880       0.92404287       0.83020705 </v>
   <v>       0.95051872       0.27078998       0.22988133 </v>
   <v>       0.04948128       0.72921002       0.77011867 </v>
   <v>       0.72730630       0.95771568       0.47030602 </v>
   <v>       0.53693036       0.49039154       0.29991671 </v>
   <v>       0.18514479       0.16662165       0.86841847 </v>
  </varray>
 </structure>
 <calculation>
  <scstep>
   <time name="dav">    0.64    0.65</time>
   <time name="total">    0.89    0.89</time>
   <energy>
    <i name="alphaZ">     52.67184463 </i>
    <i name="ewald">  -4385.61739918 </i>
    <i name="hartreedc">   -902.95115202 </i>
    <i name="XCdc">   -214.87903413 </i>
    <i name="pawpsdc">   4384.86407100 </i>
    <i name="pawaedc">  -3886.31794253 </i>
    <i name="eentropy">     -0.01290393 </i>
    <i name="bandstr">    415.22448553 </i>
    <i name="atom">   5096.21268456 </i>
    <i name="e_fr_energy">    559.19465394 </i>
    <i name="e_wo_entrp">    559.20755788 </i>
    <i name="e_0_energy">    559.20110591 </i>
   </energy>
  </scstep>
  <scstep>
   <time name="dav">    0.74    0.74</time>
   <time name="total">    0.74    0.74</time>
   <energy>
    <i name="e_fr_energy">    -53.40660779 </i>
    <i name="e_wo_entrp">    -53.40660779 </i>
    <i name="e_0_energy">    -53.40660779 </i>
   </energy>
  </scstep>
  <scstep>
   <time name="dav">    0.69    0.69</time>
   <time name="total">    0.69    0.69</time>
   <energy>
    <i name="e_fr_energy">   -116.08339097 </i>
    <i name="e_wo_entrp">   -116.08339097 </i>
    <i name="e_0_energy">   -116.08339097 </i>
   </energy>
  </scstep>
  <scstep>
   <time name="dav">    0.88    0.88</time>
   <time name="total">    0.88    0.88</time>
   <energy>
    <i name="e_fr_energy">   -117.75418725 </i>
    <i name="e_wo_entrp">   -117.75418725 </i>
    <i name="e_0_energy">   -117.75418725 </i>
   </energy>
  </scstep>
  <scstep>
   <time name="dav">    0.87    0.87</time>
   <time name="total">    0.90    0.90</time>
   <energy>
    <i name="e_fr_energy">   -117.80344924 </i>
    <i name="e_wo_entrp">   -117.80344924 </i>
    <i name="e_0_energy">   -117.80344924 </i>
   </energy>
  </scstep>
  <scstep>
   <time name="dav">    0.86    0.91</time>
   <time name="total">    1.06    1.11</time>
   <energy>
    <i name="e_fr_energy">   -111.39869269 </i>
    <i name="e_wo_entrp">   -111.39869269 </i>
    <i name="e_0_energy">   -111.39869269 </i>
   </energy>
  </scstep>
  <scstep>
   <time name="dav">    0.72    0.72</time>
   <time name="total">    0.91    0.91</time>
   <energy>
    <i name="e_fr_energy">   -111.44980364 </i>
    <i name="e_wo_entrp">   -111.44980364 </i>
    <i name="e_0_energy">   -111.44980364 </i>
   </energy>
  </scstep>
  <scstep>
   <time name="dav">    0.90    0.90</time>
   <time name="total">    1.10    1.10</time>
   <energy>
    <i name="e_fr_energy">   -111.42043584 </i>
    <i name="e_wo_entrp">   -111.42043584 </i>
    <i name="e_0_energy">   -111.42043584 </i>
   </energy>
  </scstep>
  <scstep>
   <time name="dav">    0.85    0.85</time>
   <time name="total">    1.04    1.04</time>
   <energy>
    <i name="e_fr_energy">   -111.42719673 </i>
    <i name="e_wo_entrp">   -111.42719673 </i>
    <i name="e_0_energy">   -111.42719673 </i>
   </energy>
  </scstep>
  <scstep>
   <time name="dav">    0.66    0.66</time>
   <time name="total">    0.85    0.85</time>
   <energy>
    <i name="e_fr_energy">   -111.42764201 </i>
    <i name="e_wo_entrp">   -111.42764201 </i>
    <i name="e_0_energy">   -111.42764201 </i>
   </energy>
  </scstep>
  <scstep>
   <time name="dav">    0.90    0.90</time>
   <time name="total">    1.10    1.10</time>
   <energy>
    <i name="e_fr_energy">   -111.42899312 </i>
    <i name="e_wo_entrp">   -111.42899312 </i>
    <i name="e_0_energy">   -111.42899312 </i>
   </energy>
  </scstep>
  <scstep>
   <time name="dav">    0.66    0.66</time>
   <time name="total">    0.85    0.85</time>
   <energy>
    <i name="e_fr_energy">   -111.42928066 </i>
    <i name="e_wo_entrp">   -111.42928066 </i>
    <i name="e_0_energy">   -111.42928066 </i>
   </energy>
  </scstep>
  <scstep>
   <time name="dav">    0.78    0.78</time>
   <time name="total">    0.98    0.98</time>
   <energy>
    <i name="e_fr_energy">   -111.42951971 </i>
    <i name="e_wo_entrp">   -111.42951971 </i>
    <i name="e_0_energy">   -111.42951971 </i>
   </energy>
  </scstep>
  <scstep>
   <time name="dav">    0.52    0.52</time>
   <time name="total">    0.69    0.69</time>
   <energy>
    <i name="alphaZ">     52.67184463 </i>
    <i name="ewald">  -4385.61739918 </i>
    <i name="hartreedc">   -960.69551720 </i>
    <i name="XCdc">   -208.62309242 </i>
    <i name="pawpsdc">   9873.20481146 </i>
    <i name="pawaedc">  -9376.84901507 </i>
    <i name="eentropy">     -0.00000000 </i>
    <i name="bandstr">   -201.73384217 </i>
    <i name="atom">   5096.21268456 </i>
    <i name="e_fr_energy">   -111.42952538 </i>
    <i name="e_wo_entrp">   -111.42952538 </i>
    <i name="e_0_energy">   -111.42952538 </i>
   </energy>
  </scstep>
  <structure>
   <crystal>
    <varray name="basis" >
     <v>      -6.95319101       0.01936262      -0.16969851 </v>
     <v>       1.98762469       8.65525807      -0.51738365 </v>
     <v>      -0.61353960      -1.22728371     -10.72242160 </v>
    </varray>
    <i name="volume">    649.63987887 </i>
    <varray name="rec_basis" >
     <v>      -0.14383400       0.03329473       0.00441932 </v>
     <v>       0.00064017       0.11460338      -0.01315408 </v>
     <v>       0.00224550      -0.00605684      -0.09269774 </v>
    </varray>
   </crystal>
   <varray name="positions" >
    <v>       0.35721016       0.33194238       0.12420746 </v>
    <v>       0.36975184       0.83456908       0.63985702 </v>
    <v>       0.63024816       0.16543092       0.36014298 </v>
    <v>       0.64278984       0.66805762       0.87579254 </v>
    <v>       0.02883219       0.94681864       0.33517764 </v>
    <v>       0.12304249       0.46339924       0.80921070 </v>
    <v>       0.76349195       0.12278245       0.04538733 </v>
    <v>       0.52953398       0.24856416       0.75329731 </v>
    <v>       0.23650805       0.87721755       0.95461267 </v>
    <v>       0.97116781       0.05318136       0.66482236 </v>
    <v>       0.87695751       0.53660076       0.19078930 </v>
    <v>       0.47046602       0.75143584       0.24670269 </v>
    <v>       0.81485521       0.83337835       0.13158153 </v>
    <v>       0.67956529       0.37158270       0.95116797 </v>
    <v>       0.46306964       0.50960846       0.70008329 </v>
    <v>       0.27269370       0.04228432       0.52969398 </v>
    <v>       0.05321916       0.67325770       0.37453900 </v>
    <v>       0.32043471       0.62841730       0.04883203 </v>
    <v>       0.44241120       0.07595713       0.16979295 </v>
    <v>       0.94678084       0.32674230       0.62546100 </v>
    <v>       0.55758880       0.92404287       0.83020705 </v>
    <v>       0.95051872       0.27078998       0.22988133 </v>
    <v>       0.04948128       0.72921002       0.77011867 </v>
    <v>       0.72730630       0.95771568       0.47030602 </v>
    <v>       0.53693036       0.49039154       0.29991671 </v>
    <v>       0.18514479       0.16662165       0.86841847 </v>
   </varray>
  </structure>
  <varray name="forces" >
   <v>       0.00012160      -0.00038802       0.00089098 </v>
   <v>       0.01898793      -0.00963981      -0.00937368 </v>
   <v>      -0.01898793       0.00963981       0.00937368 </v>
   <v>      -0.00012160       0.00038802      -0.00089098 </v>
   <v>      -0.05165230      -0.00262426      -0.01043170 </v>
   <v>       0.00432114       0.00976147       0.00879487 </v>
   <v>       0.00417641      -0.01837854       0.01148239 </v>
   <v>       0.00022823      -0.03103869       0.02944765 </v>
   <v>      -0.00417641       0.01837854      -0.01148239 </v>
   <v>       0.05165230       0.00262426       0.01043170 </v>
   <v>      -0.00432114      -0.00976147      -0.00879487 </v>
   <v>      -0.00022823       0.03103869      -0.02944765 </v>
   <v>       0.00087329      -0.00767415       0.00088211 </v>
   <v>       0.00181691       0.00418855      -0.00230142 </v>
   <v>      -0.00118643       0.00714028      -0.00118976 </v>
   <v>       0.00144722       0.00430424      -0.01184810 </v>
   <v>      -0.00324583      -0.00568735      -0.00417686 </v>
   <v>      -0.00181691      -0.00418855       0.00230142 </v>
   <v>      -0.00814643      -0.00392436      -0.00126152 </v>
   <v>       0.00324583       0.00568735       0.00417686 </v>
   <v>       0.00814643       0.00392436       0.00126152 </v>
   <v>      -0.00807040       0.00161259      -0.00090738 </v>
   <v>       0.00807040      -0.00161259       0.00090738 </v>
   <v>      -0.00144722      -0.00430424       0.01184810 </v>
   <v>       0.00118643      -0.00714028       0.00118976 </v>
   <v>      -0.00087329       0.00767415      -0.00088211 </v>
  </varray>
  <varray name="stress" >
   <v>      -0.01831705      -0.12674334      -0.06719181 </v>
   <v>      -0.12674219       0.46857699       0.10514964 </v>
   <v>      -0.06719118       0.10514953       0.47962144 </v>
  </varray>
  <energy>
   <i name="e_fr_energy">   -111.42952538 </i>
   <i name="e_wo_entrp">   -111.42952538 </i>
   <i name="e_0_energy">     -0.00000000 </i>
  </energy>
  <time name="totalsc">   13.70   13.76</time>
 </calculation>
 <calculation>
  <scstep>
   <time name="dav">    0.86    0.86</time>
   <time name="total">    1.06    1.06</time>
   <energy>
    <i name="alphaZ">     52.66447565 </i>
    <i name="ewald">  -4385.46908386 </i>
    <i name="hartreedc">   -960.64108445 </i>
    <i name="XCdc">   -208.63199486 </i>
    <i name="pawpsdc">   9871.95557824 </i>
    <i name="pawaedc">  -9375.59870222 </i>
    <i name="eentropy">     -0.00000000 </i>
    <i name="bandstr">   -201.92140662 </i>
    <i name="atom">   5096.21268456 </i>
    <i name="e_fr_energy">   -111.42953356 </i>
    <i name="e_wo_entrp">   -111.42953356 </i>
    <i name="e_0_energy">   -111.42953356 </i>
   </energy>
  </scstep>
  <scstep>
   <time name="dav">    0.54    0.54</time>
   <time name="total">    0.71    0.71</time>
   <energy>
    <i name="alphaZ">     52.66447565 </i>
    <i name="ewald">  -4385.46908386 </i>
    <i name="hartreedc">   -960.71798950 </i>
    <i name="XCdc">   -208.62824710 </i>
    <i name="pawpsdc">   9870.45960619 </i>
    <i name="pawaedc">  -9374.10317881 </i>
    <i name="eentropy">     -0.00000000 </i>
    <i name="bandstr">   -201.84779560 </i>
    <i name="atom">   5096.21268456 </i>
    <i name="e_fr_energy">   -111.42952847 </i>
    <i name="e_wo_entrp">   -111.42952847 </i>
    <i name="e_0_energy">   -111.42952847 </i>
   </energy>
  </scstep>
  <structure>
   <crystal>
    <varray name="basis" >
     <v>      -6.95317050       0.01949390      -0.16964016 </v>
     <v>       1.98745938       8.65582223      -0.51730414 </v>
     <v>      -0.61340610      -1.22752819     -10.72320863 </v>
    </varray>
    <i name="volume">    649.73077859 </i>
    <varray name="rec_basis" >
     <v>      -0.14383372       0.03328957       0.00441702 </v>
     <v>       0.00064223       0.11459552      -0.01315494 </v>
     <v>       0.00224445      -0.00605490      -0.09269093 </v>
    </varray>
   </crystal>
   <varray name="positions" >
    <v>       0.35720991       0.33194183       0.12420669 </v>
    <v>       0.36972199       0.83455973       0.63986638 </v>
    <v>       0.63027801       0.16544027       0.36013362 </v>
    <v>       0.64279009       0.66805817       0.87579331 </v>
    <v>       0.02890258       0.94681675       0.33518601 </v>
    <v>       0.12304001       0.46340895       0.80920235 </v>
    <v>       0.76348074       0.12276070       0.04537823 </v>
    <v>       0.52952495       0.24852610       0.75327279 </v>
    <v>       0.23651926       0.87723930       0.95462177 </v>
    <v>       0.97109742       0.05318325       0.66481399 </v>
    <v>       0.87695999       0.53659105       0.19079765 </v>
    <v>       0.47047505       0.75147390       0.24672721 </v>
    <v>       0.81485157       0.83336976       0.13158121 </v>
    <v>       0.67956402       0.37158763       0.95116983 </v>
    <v>       0.46307353       0.50961650       0.70008391 </v>
    <v>       0.27269257       0.04229060       0.52970435 </v>
    <v>       0.05322165       0.67325192       0.37454300 </v>
    <v>       0.32043598       0.62841237       0.04883017 </v>
    <v>       0.44242119       0.07595290       0.16979413 </v>
    <v>       0.94677835       0.32674808       0.62545700 </v>
    <v>       0.55757881       0.92404710       0.83020587 </v>
    <v>       0.95053040       0.27079183       0.22988187 </v>
    <v>       0.04946960       0.72920817       0.77011813 </v>
    <v>       0.72730743       0.95770940       0.47029565 </v>
    <v>       0.53692647       0.49038350       0.29991609 </v>
    <v>       0.18514843       0.16663024       0.86841879 </v>
   </varray>
  </structure>
  <varray name="forces" >
   <v>       0.00013654      -0.00013724       0.00091244 </v>
   <v>       0.01935734      -0.00990291      -0.00932736 </v>
   <v>      -0.01935734       0.00990291       0.00932736 </v>
   <v>      -0.00013654       0.00013724      -0.00091244 </v>
   <v>       0.06452942      -0.02093949       0.01158934 </v>
   <v>       0.00495989       0.01274060       0.01101182 </v>
   <v>       0.00475148      -0.02064793       0.01322856 </v>
   <v>       0.02564441       0.02226763      -0.02876812 </v>
   <v>      -0.00475148       0.02064793      -0.01322856 </v>
   <v>      -0.06452942       0.02093949      -0.01158934 </v>
   <v>      -0.00495989      -0.01274060      -0.01101182 </v>
   <v>      -0.02564441      -0.02226763       0.02876812 </v>
   <v>       0.00073462      -0.00632083      -0.00137583 </v>
   <v>       0.00145792       0.00066763       0.00105890 </v>
   <v>      -0.00099384       0.00270193      -0.00073202 </v>
   <v>       0.00346383       0.00366626      -0.01088243 </v>
   <v>      -0.00260666      -0.00440757      -0.00327152 </v>
   <v>      -0.00145792      -0.00066763      -0.00105890 </v>
   <v>      -0.00631071      -0.00353841      -0.00062877 </v>
   <v>       0.00260666       0.00440757       0.00327152 </v>
   <v>       0.00631071       0.00353841       0.00062877 </v>
   <v>      -0.00554291       0.00098823       0.00048637 </v>
   <v>       0.00554291      -0.00098823      -0.00048637 </v>
   <v>      -0.00346383      -0.00366626       0.01088243 </v>
   <v>       0.00099384      -0.00270193       0.00073202 </v>
   <v>      -0.00073462       0.00632083       0.00137583 </v>
  </varray>
  <varray name="stress" >
   <v>       0.03309470      -0.09419362      -0.02451318 </v>
   <v>      -0.09419249       0.43073654       0.20017737 </v>
   <v>      -0.02451364       0.20017834       0.02433948 </v>
  </varray>
  <energy>
   <i name="e_fr_energy">   -111.42952847 </i>
   <i name="e_wo_entrp">   -111.42952847 </i>
   <i name="e_0_energy">     -0.00000000 </i>
  </energy>
  <time name="totalsc">    2.70    2.70</time>
 </calculation>
 <calculation>
  <scstep>
   <time name="dav">    0.65    0.65</time>
   <time name="total">    0.85    0.85</time>
   <energy>
    <i name="alphaZ">     52.66613277 </i>
    <i name="ewald">  -4385.50244245 </i>
    <i name="hartreedc">   -960.78160418 </i>
    <i name="XCdc">   -208.62420891 </i>
    <i name="pawpsdc">   9869.08936738 </i>
    <i name="pawaedc">  -9372.73248125 </i>
    <i name="eentropy">     -0.00000000 </i>
    <i name="bandstr">   -201.75698746 </i>
    <i name="atom">   5096.21268456 </i>
    <i name="e_fr_energy">   -111.42953953 </i>
    <i name="e_wo_entrp">   -111.42953953 </i>
    <i name="e_0_energy">   -111.42953953 </i>
   </energy>
  </scstep>
  <scstep>
   <time name="dav">    0.61    0.61</time>
   <time name="total">    0.78    0.78</time>
   <energy>
    <i name="alphaZ">     52.66613277 </i>
    <i name="ewald">  -4385.50244245 </i>
    <i name="hartreedc">   -960.77923707 </i>
    <i name="XCdc">   -208.62468043 </i>
    <i name="pawpsdc">   9868.75567285 </i>
    <i name="pawaedc">  -9372.39826528 </i>
    <i name="eentropy">     -0.00000000 </i>
    <i name="bandstr">   -201.75940436 </i>
    <i name="atom">   5096.21268456 </i>
    <i name="e_fr_energy">   -111.42953940 </i>
    <i name="e_wo_entrp">   -111.42953940 </i>
    <i name="e_0_energy">   -111.42953940 </i>
   </energy>
  </scstep>
  <structure>
   <crystal>
    <varray name="basis" >
     <v>      -6.95317512       0.01946438      -0.16965328 </v>
     <v>       1.98749656       8.65569535      -0.51732202 </v>
     <v>      -0.61343613      -1.22747321     -10.72303163 </v>
    </varray>
    <i name="volume">    649.71033495 </i>
    <varray name="rec_basis" >
     <v>      -0.14383378       0.03329073       0.00441753 </v>
     <v>       0.00064177       0.11459729      -0.01315475 </v>
     <v>       0.00224469      -0.00605534      -0.09269246 </v>
    </varray>
   </crystal>
   <varray name="positions" >
    <v>       0.35720997       0.33194196       0.12420686 </v>
    <v>       0.36972870       0.83456183       0.63986428 </v>
    <v>       0.63027130       0.16543817       0.36013572 </v>
    <v>       0.64279003       0.66805804       0.87579314 </v>
    <v>       0.02888675       0.94681717       0.33518413 </v>
    <v>       0.12304057       0.46340677       0.80920423 </v>
    <v>       0.76348326       0.12276559       0.04538028 </v>
    <v>       0.52952698       0.24853466       0.75327830 </v>
    <v>       0.23651674       0.87723441       0.95461972 </v>
    <v>       0.97111325       0.05318283       0.66481587 </v>
    <v>       0.87695943       0.53659323       0.19079577 </v>
    <v>       0.47047302       0.75146534       0.24672170 </v>
    <v>       0.81485239       0.83337169       0.13158128 </v>
    <v>       0.67956431       0.37158652       0.95116941 </v>
    <v>       0.46307265       0.50961470       0.70008377 </v>
    <v>       0.27269283       0.04228919       0.52970202 </v>
    <v>       0.05322109       0.67325322       0.37454210 </v>
    <v>       0.32043569       0.62841348       0.04883059 </v>
    <v>       0.44241894       0.07595385       0.16979386 </v>
    <v>       0.94677891       0.32674678       0.62545790 </v>
    <v>       0.55758106       0.92404615       0.83020614 </v>
    <v>       0.95052778       0.27079141       0.22988175 </v>
    <v>       0.04947222       0.72920859       0.77011825 </v>
    <v>       0.72730717       0.95771081       0.47029798 </v>
    <v>       0.53692735       0.49038530       0.29991623 </v>
    <v>       0.18514761       0.16662831       0.86841872 </v>
   </varray>
  </structure>
  <varray name="forces" >
   <v>       0.00018286      -0.00016954       0.00092762 </v>
   <v>       0.01923285      -0.00986948      -0.00931573 </v>
   <v>      -0.01923285       0.00986948       0.00931573 </v>
   <v>      -0.00018286       0.00016954      -0.00092762 </v>
   <v>       0.06678637      -0.02089832       0.01244771 </v>
   <v>       0.00476079       0.01205634       0.01041560 </v>
   <v>       0.00441486      -0.02019268       0.01275211 </v>
   <v>       0.02565148       0.02316270      -0.02977524 </v>
   <v>      -0.00441486       0.02019268      -0.01275211 </v>
   <v>      -0.06678637       0.02089832      -0.01244771 </v>
   <v>      -0.00476079      -0.01205634      -0.01041560 </v>
   <v>      -0.02565148      -0.02316270       0.02977524 </v>
   <v>       0.00068937      -0.00773469      -0.00063223 </v>
   <v>       0.00139533       0.00224939      -0.00040101 </v>
   <v>      -0.00118518       0.00524740      -0.00024290 </v>
   <v>       0.00283073       0.00440312      -0.01253097 </v>
   <v>      -0.00400863      -0.00526680      -0.00444942 </v>
   <v>      -0.00139533      -0.00224939       0.00040101 </v>
   <v>      -0.00800633      -0.00491365      -0.00091020 </v>
   <v>       0.00400863       0.00526680       0.00444942 </v>
   <v>       0.00800633       0.00491365       0.00091020 </v>
   <v>      -0.00804029       0.00134309      -0.00043848 </v>
   <v>       0.00804029      -0.00134309       0.00043848 </v>
   <v>      -0.00283073      -0.00440312       0.01253097 </v>
   <v>       0.00118518      -0.00524740       0.00024290 </v>
   <v>      -0.00068937       0.00773469       0.00063223 </v>
  </varray>
  <varray name="stress" >
   <v>      -0.09719627      -0.09131280      -0.01621932 </v>
   <v>      -0.09131244       0.29705596       0.19269772 </v>
   <v>      -0.01622021       0.19269894      -0.12544897 </v>
  </varray>
  <energy>
   <i name="e_fr_energy">   -111.42953940 </i>
   <i name="e_wo_entrp">   -111.42953940 </i>
   <i name="e_0_energy">     -0.00000000 </i>
  </energy>
  <time name="totalsc">    2.64    2.65</time>
 </calculation>
 <calculation>
  <scstep>
   <time name="dav">    0.55    0.55</time>
   <time name="total">    0.74    0.74</time>
   <energy>
    <i name="alphaZ">     52.66763267 </i>
    <i name="ewald">  -4385.53263337 </i>
    <i name="hartreedc">   -960.79588296 </i>
    <i name="XCdc">   -208.62260609 </i>
    <i name="pawpsdc">   9868.81416951 </i>
    <i name="pawaedc">  -9372.45627641 </i>
    <i name="eentropy">     -0.00000000 </i>
    <i name="bandstr">   -201.71663856 </i>
    <i name="atom">   5096.21268456 </i>
    <i name="e_fr_energy">   -111.42955064 </i>
    <i name="e_wo_entrp">   -111.42955064 </i>
    <i name="e_0_energy">   -111.42955064 </i>
   </energy>
  </scstep>
  <scstep>
   <time name="dav">    0.58    0.58</time>
   <time name="total">    0.75    0.75</time>
   <energy>
    <i name="alphaZ">     52.66763267 </i>
    <i name="ewald">  -4385.53263337 </i>
    <i name="hartreedc">   -960.78421176 </i>
    <i name="XCdc">   -208.62311439 </i>
    <i name="pawpsdc">   9868.92549368 </i>
    <i name="pawaedc">  -9372.56744187 </i>
    <i name="eentropy">     -0.00000000 </i>
    <i name="bandstr">   -201.72796016 </i>
    <i name="atom">   5096.21268456 </i>
    <i name="e_fr_energy">   -111.42955064 </i>
    <i name="e_wo_entrp">   -111.42955064 </i>
    <i name="e_0_energy">   -111.42955064 </i>
   </energy>
  </scstep>
  <structure>
   <crystal>
    <varray name="basis" >
     <v>      -6.95317929       0.01943765      -0.16966516 </v>
     <v>       1.98753020       8.65558051      -0.51733821 </v>
     <v>      -0.61346330      -1.22742344     -10.72287143 </v>
    </varray>
    <i name="volume">    649.69183214 </i>
    <varray name="rec_basis" >
     <v>      -0.14383384       0.03329178       0.00441800 </v>
     <v>       0.00064135       0.11459889      -0.01315457 </v>
     <v>       0.00224490      -0.00605573      -0.09269385 </v>
    </varray>
   </crystal>
   <varray name="positions" >
    <v>       0.35721002       0.33194207       0.12420702 </v>
    <v>       0.36973478       0.83456374       0.63986237 </v>
    <v>       0.63026522       0.16543626       0.36013763 </v>
    <v>       0.64278998       0.66805793       0.87579298 </v>
    <v>       0.02887242       0.94681756       0.33518242 </v>
    <v>       0.12304107       0.46340479       0.80920593 </v>
    <v>       0.76348554       0.12277002       0.04538213 </v>
    <v>       0.52952882       0.24854241       0.75328329 </v>
    <v>       0.23651446       0.87722998       0.95461787 </v>
    <v>       0.97112758       0.05318244       0.66481758 </v>
    <v>       0.87695893       0.53659521       0.19079407 </v>
    <v>       0.47047118       0.75145759       0.24671671 </v>
    <v>       0.81485313       0.83337344       0.13158135 </v>
    <v>       0.67956456       0.37158552       0.95116903 </v>
    <v>       0.46307186       0.50961306       0.70008364 </v>
    <v>       0.27269306       0.04228791       0.52969991 </v>
    <v>       0.05322058       0.67325440       0.37454128 </v>
    <v>       0.32043544       0.62841448       0.04883097 </v>
    <v>       0.44241691       0.07595471       0.16979362 </v>
    <v>       0.94677942       0.32674560       0.62545872 </v>
    <v>       0.55758309       0.92404529       0.83020638 </v>
    <v>       0.95052540       0.27079104       0.22988164 </v>
    <v>       0.04947460       0.72920896       0.77011836 </v>
    <v>       0.72730694       0.95771209       0.47030009 </v>
    <v>       0.53692814       0.49038694       0.29991636 </v>
    <v>       0.18514687       0.16662656       0.86841865 </v>
   </varray>
  </structure>
  <varray name="forces" >
   <v>       0.00019618      -0.00023982       0.00092826 </v>
   <v>       0.01915944      -0.00988909      -0.00927811 </v>
   <v>      -0.01915944       0.00988909       0.00927811 </v>
   <v>      -0.00019618       0.00023982      -0.00092826 </v>
   <v>       0.06857055      -0.02045397       0.01294324 </v>
   <v>       0.00470787       0.01151339       0.00990768 </v>
   <v>       0.00436224      -0.01990450       0.01259638 </v>
   <v>       0.02541518       0.02369302      -0.03032015 </v>
   <v>      -0.00436224       0.01990450      -0.01259638 </v>
   <v>      -0.06857055       0.02045397      -0.01294324 </v>
   <v>      -0.00470787      -0.01151339      -0.00990768 </v>
   <v>      -0.02541518      -0.02369302       0.03032015 </v>
   <v>       0.00060922      -0.00802683       0.00000153 </v>
   <v>       0.00139462       0.00305615      -0.00114756 </v>
   <v>      -0.00136513       0.00656552       0.00025114 </v>
   <v>       0.00216785       0.00460650      -0.01252494 </v>
   <v>      -0.00418781      -0.00580787      -0.00515960 </v>
   <v>      -0.00139462      -0.00305615       0.00114756 </v>
   <v>      -0.00829584      -0.00513906      -0.00132220 </v>
   <v>       0.00418781       0.00580787       0.00515960 </v>
   <v>       0.00829584       0.00513906       0.00132220 </v>
   <v>      -0.00867889       0.00148242      -0.00112177 </v>
   <v>       0.00867889      -0.00148242       0.00112177 </v>
   <v>      -0.00216785      -0.00460650       0.01252494 </v>
   <v>       0.00136513      -0.00656552      -0.00025114 </v>
   <v>      -0.00060922       0.00802683      -0.00000153 </v>
  </varray>
  <varray name="stress" >
   <v>      -0.10225628      -0.09094461      -0.01472152 </v>
   <v>      -0.09094423       0.28362302       0.18765250 </v>
   <v>      -0.01472233       0.18765294      -0.14291433 </v>
  </varray>
  <energy>
   <i name="e_fr_energy">   -111.42955064 </i>
   <i name="e_wo_entrp">   -111.42955064 </i>
   <i name="e_0_energy">     -0.00000000 </i>
  </energy>
  <time name="totalsc">    2.54    2.55</time>
 </calculation>
 <calculation>
  <scstep>
   <time name="dav">    0.65    0.66</time>
   <time name="total">    0.84    0.86</time>
   <energy>
    <i name="alphaZ">     52.66973858 </i>
    <i name="ewald">  -4385.57501848 </i>
    <i name="hartreedc">   -960.80392037 </i>
    <i name="XCdc">   -208.61994674 </i>
    <i name="pawpsdc">   9869.26972438 </i>
    <i name="pawaedc">  -9372.91160075 </i>
    <i name="eentropy">     -0.00000000 </i>
    <i name="bandstr">   -201.67122533 </i>
    <i name="atom">   5096.21268456 </i>
    <i name="e_fr_energy">   -111.42956414 </i>
    <i name="e_wo_entrp">   -111.42956414 </i>
    <i name="e_0_energy">   -111.42956414 </i>
   </energy>
  </scstep>
  <scstep>
   <time name="dav">    0.49    0.49</time>
   <time name="total">    0.66    0.66</time>
   <energy>
    <i name="alphaZ">     52.66973858 </i>
    <i name="ewald">  -4385.57501848 </i>
    <i name="hartreedc">   -960.78542428 </i>
    <i name="XCdc">   -208.62068194 </i>
    <i name="pawpsdc">   9869.44973774 </i>
    <i name="pawaedc">  -9373.09163120 </i>
    <i name="eentropy">     -0.00000000 </i>
    <i name="bandstr">   -201.68896926 </i>
    <i name="atom">   5096.21268456 </i>
    <i name="e_fr_energy">   -111.42956427 </i>
    <i name="e_wo_entrp">   -111.42956427 </i>
    <i name="e_0_energy">   -111.42956427 </i>
   </energy>
  </scstep>
  <structure>
   <crystal>
    <varray name="basis" >
     <v>      -6.95318515       0.01940013      -0.16968184 </v>
     <v>       1.98757745       8.65541929      -0.51736093 </v>
     <v>      -0.61350145      -1.22735358     -10.72264651 </v>
    </varray>
    <i name="volume">    649.66585530 </i>
    <varray name="rec_basis" >
     <v>      -0.14383392       0.03329326       0.00441866 </v>
     <v>       0.00064076       0.11460114      -0.01315433 </v>
     <v>       0.00224520      -0.00605629      -0.09269579 </v>
    </varray>
   </crystal>
   <varray name="positions" >
    <v>       0.35721009       0.33194222       0.12420724 </v>
    <v>       0.36974331       0.83456641       0.63985970 </v>
    <v>       0.63025669       0.16543359       0.36014030 </v>
    <v>       0.64278991       0.66805778       0.87579276 </v>
    <v>       0.02885230       0.94681810       0.33518003 </v>
    <v>       0.12304178       0.46340202       0.80920831 </v>
    <v>       0.76348875       0.12277623       0.04538473 </v>
    <v>       0.52953140       0.24855328       0.75329030 </v>
    <v>       0.23651125       0.87722377       0.95461527 </v>
    <v>       0.97114770       0.05318190       0.66481997 </v>
    <v>       0.87695822       0.53659798       0.19079169 </v>
    <v>       0.47046860       0.75144672       0.24670970 </v>
    <v>       0.81485417       0.83337590       0.13158144 </v>
    <v>       0.67956493       0.37158411       0.95116850 </v>
    <v>       0.46307075       0.50961076       0.70008346 </v>
    <v>       0.27269338       0.04228612       0.52969694 </v>
    <v>       0.05321987       0.67325605       0.37454014 </v>
    <v>       0.32043507       0.62841589       0.04883150 </v>
    <v>       0.44241405       0.07595592       0.16979328 </v>
    <v>       0.94678013       0.32674395       0.62545986 </v>
    <v>       0.55758595       0.92404408       0.83020672 </v>
    <v>       0.95052206       0.27079051       0.22988148 </v>
    <v>       0.04947794       0.72920949       0.77011852 </v>
    <v>       0.72730662       0.95771388       0.47030306 </v>
    <v>       0.53692925       0.49038924       0.29991654 </v>
    <v>       0.18514583       0.16662410       0.86841856 </v>
   </varray>
  </structure>
  <varray name="forces" >
   <v>       0.00021914      -0.00032205       0.00092245 </v>
   <v>       0.01906238      -0.00987404      -0.00924068 </v>
   <v>      -0.01906238       0.00987404       0.00924068 </v>
   <v>      -0.00021914       0.00032205      -0.00092245 </v>
   <v>       0.07114010      -0.01990984       0.01362153 </v>
   <v>       0.00461917       0.01076774       0.00933127 </v>
   <v>       0.00430535      -0.01943055       0.01226282 </v>
   <v>      -0.01301692      -0.00251447       0.01393504 </v>
   <v>      -0.00430535       0.01943055      -0.01226282 </v>
   <v>      -0.07114010       0.01990984      -0.01362153 </v>
   <v>      -0.00461917      -0.01076774      -0.00933127 </v>
   <v>       0.01301692       0.00251447      -0.01393504 </v>
   <v>       0.00058410      -0.00837006       0.00054718 </v>
   <v>       0.00138872       0.00405622      -0.00196664 </v>
   <v>      -0.00143739       0.00778024       0.00061870 </v>
   <v>       0.00156042       0.00491397      -0.01258996 </v>
   <v>      -0.00428952      -0.00633120      -0.00564087 </v>
   <v>      -0.00138872      -0.00405622       0.00196664 </v>
   <v>      -0.00869960      -0.00533630      -0.00157813 </v>
   <v>       0.00428952       0.00633120       0.00564087 </v>
   <v>       0.00869960       0.00533630       0.00157813 </v>
   <v>      -0.00932756       0.00171312      -0.00173888 </v>
   <v>       0.00932756      -0.00171312       0.00173888 </v>
   <v>      -0.00156042      -0.00491397       0.01258996 </v>
   <v>       0.00143739      -0.00778024      -0.00061870 </v>
   <v>      -0.00058410       0.00837006      -0.00054718 </v>
  </varray>
  <varray name="stress" >
   <v>      -0.31511159      -0.11931307      -0.02185248 </v>
   <v>      -0.11931281       0.34342586       0.06674078 </v>
   <v>      -0.02185279       0.06674093       0.10807240 </v>
  </varray>
  <energy>
   <i name="e_fr_energy">   -111.42956427 </i>
   <i name="e_wo_entrp">   -111.42956427 </i>
   <i name="e_0_energy">     -0.00000000 </i>
  </energy>
  <time name="totalsc">    2.58    2.59</time>
 </calculation>
 <calculation>
  <scstep>
   <time name="dav">    0.54    0.54</time>
   <time name="total">    0.73    0.73</time>
   <energy>
    <i name="alphaZ">     52.66612395 </i>
    <i name="ewald">  -4385.49749751 </i>
    <i name="hartreedc">   -960.72902590 </i>
    <i name="XCdc">   -208.62666163 </i>
    <i name="pawpsdc">   9869.86704110 </i>
    <i name="pawaedc">  -9373.50902820 </i>
    <i name="eentropy">     -0.00000000 </i>
    <i name="bandstr">   -201.81322954 </i>
    <i name="atom">   5096.21268456 </i>
    <i name="e_fr_energy">   -111.42959318 </i>
    <i name="e_wo_entrp">   -111.42959318 </i>
    <i name="e_0_energy">   -111.42959318 </i>
   </energy>
  </scstep>
  <scstep>
   <time name="dav">    0.56    0.56</time>
   <time name="total">    0.73    0.73</time>
   <energy>
    <i name="alphaZ">     52.66612395 </i>
    <i name="ewald">  -4385.49749751 </i>
    <i name="hartreedc">   -960.75510443 </i>
    <i name="XCdc">   -208.62541264 </i>
    <i name="pawpsdc">   9869.98509512 </i>
    <i name="pawaedc">  -9373.62723349 </i>
    <i name="eentropy">     -0.00000000 </i>
    <i name="bandstr">   -201.78824961 </i>
    <i name="atom">   5096.21268456 </i>
    <i name="e_fr_energy">   -111.42959405 </i>
    <i name="e_wo_entrp">   -111.42959405 </i>
    <i name="e_0_energy">   -111.42959405 </i>
   </energy>
  </scstep>
  <structure>
   <crystal>
    <varray name="basis" >
     <v>      -6.95305430       0.01950329      -0.16964887 </v>
     <v>       1.98741370       8.65581562      -0.51729964 </v>
     <v>      -0.61341128      -1.22751941     -10.72305816 </v>
    </varray>
    <i name="volume">    649.71044383 </i>
    <varray name="rec_basis" >
     <v>      -0.14383609       0.03328940       0.00441733 </v>
     <v>       0.00064241       0.11459557      -0.01315505 </v>
     <v>       0.00224463      -0.00605497      -0.09269224 </v>
    </varray>
   </crystal>
   <varray name="positions" >
    <v>       0.35720984       0.33194181       0.12420661 </v>
    <v>       0.36971919       0.83455877       0.63986720 </v>
    <v>       0.63028081       0.16544123       0.36013280 </v>
    <v>       0.64279016       0.66805819       0.87579339 </v>
    <v>       0.02884439       0.94680866       0.33518018 </v>
    <v>       0.12303975       0.46341022       0.80920139 </v>
    <v>       0.76347954       0.12275824       0.04537716 </v>
    <v>       0.52953405       0.24853497       0.75327495 </v>
    <v>       0.23652046       0.87724176       0.95462284 </v>
    <v>       0.97115561       0.05319134       0.66481982 </v>
    <v>       0.87696025       0.53658978       0.19079861 </v>
    <v>       0.47046595       0.75146503       0.24672505 </v>
    <v>       0.81485130       0.83336870       0.13158131 </v>
    <v>       0.67956411       0.37158802       0.95116989 </v>
    <v>       0.46307412       0.50961742       0.70008335 </v>
    <v>       0.27269247       0.04229145       0.52970554 </v>
    <v>       0.05322232       0.67325119       0.37454385 </v>
    <v>       0.32043589       0.62841198       0.04883011 </v>
    <v>       0.44242221       0.07595195       0.16979437 </v>
    <v>       0.94677768       0.32674881       0.62545615 </v>
    <v>       0.55757779       0.92404805       0.83020563 </v>
    <v>       0.95053212       0.27079208       0.22988218 </v>
    <v>       0.04946788       0.72920792       0.77011782 </v>
    <v>       0.72730753       0.95770855       0.47029446 </v>
    <v>       0.53692588       0.49038258       0.29991665 </v>
    <v>       0.18514870       0.16663130       0.86841869 </v>
   </varray>
  </structure>
  <varray name="forces" >
   <v>       0.00009315      -0.00023930       0.00087754 </v>
   <v>       0.01914750      -0.00985553      -0.00916558 </v>
   <v>      -0.01914750       0.00985553       0.00916558 </v>
   <v>      -0.00009315       0.00023930      -0.00087754 </v>
   <v>       0.05355048       0.00756991       0.01122135 </v>
   <v>       0.00509368       0.01252469       0.01057102 </v>
   <v>       0.00450440      -0.02010326       0.01319567 </v>
   <v>       0.02441458       0.02418168      -0.02983267 </v>
   <v>      -0.00450440       0.02010326      -0.01319567 </v>
   <v>      -0.05355048      -0.00756991      -0.01122135 </v>
   <v>      -0.00509368      -0.01252469      -0.01057102 </v>
   <v>      -0.02441458      -0.02418168       0.02983267 </v>
   <v>       0.00057226      -0.00521394      -0.00058207 </v>
   <v>       0.00104919       0.00029805       0.00077073 </v>
   <v>      -0.00126787       0.00238729       0.00005847 </v>
   <v>       0.00090247       0.00306993      -0.00736829 </v>
   <v>      -0.00205736      -0.00351961      -0.00321444 </v>
   <v>      -0.00104919      -0.00029805      -0.00077073 </v>
   <v>      -0.00469912      -0.00280225      -0.00107766 </v>
   <v>       0.00205736       0.00351961       0.00321444 </v>
   <v>       0.00469912       0.00280225       0.00107766 </v>
   <v>      -0.00430042       0.00035959       0.00021363 </v>
   <v>       0.00430042      -0.00035959      -0.00021363 </v>
   <v>      -0.00090247      -0.00306993       0.00736829 </v>
   <v>       0.00126787      -0.00238729      -0.00005847 </v>
   <v>      -0.00057226       0.00521394       0.00058207 </v>
  </varray>
  <varray name="stress" >
   <v>       0.06083190      -0.18193200      -0.01478509 </v>
   <v>      -0.18193157       0.48563274       0.16924241 </v>
   <v>      -0.01478543       0.16924363      -0.07529663 </v>
  </varray>
  <energy>
   <i name="e_fr_energy">   -111.42959405 </i>
   <i name="e_wo_entrp">   -111.42959405 </i>
   <i name="e_0_energy">     -0.00000000 </i>
  </energy>
  <time name="totalsc">    2.47    2.47</time>
 </calculation>
 <calculation>
  <scstep>
   <time name="dav">    0.56    0.56</time>
   <time name="total">    0.75    0.76</time>
   <energy>
    <i name="alphaZ">     52.66405371 </i>
    <i name="ewald">  -4385.45309000 </i>
    <i name="hartreedc">   -960.74328017 </i>
    <i name="XCdc">   -208.62813400 </i>
    <i name="pawpsdc">   9869.52703456 </i>
    <i name="pawaedc">  -9373.16919393 </i>
    <i name="eentropy">     -0.00000000 </i>
    <i name="bandstr">   -201.83967628 </i>
    <i name="atom">   5096.21268456 </i>
    <i name="e_fr_energy">   -111.42960154 </i>
    <i name="e_wo_entrp">   -111.42960154 </i>
    <i name="e_0_energy">   -111.42960154 </i>
   </energy>
  </scstep>
  <scstep>
   <time name="dav">    0.61    0.61</time>
   <time name="total">    0.78    0.78</time>
   <energy>
    <i name="alphaZ">     52.66405371 </i>
    <i name="ewald">  -4385.45309000 </i>
    <i name="hartreedc">   -960.76806107 </i>
    <i name="XCdc">   -208.62719303 </i>
    <i name="pawpsdc">   9869.18905220 </i>
    <i name="pawaedc">  -9372.83119262 </i>
    <i name="eentropy">     -0.00000000 </i>
    <i name="bandstr">   -201.81585555 </i>
    <i name="atom">   5096.21268456 </i>
    <i name="e_fr_energy">   -111.42960180 </i>
    <i name="e_wo_entrp">   -111.42960180 </i>
    <i name="e_0_energy">   -111.42960180 </i>
   </energy>
  </scstep>
  <structure>
   <crystal>
    <varray name="basis" >
     <v>      -6.95297935       0.01956237      -0.16962999 </v>
     <v>       1.98731991       8.65604264      -0.51726453 </v>
     <v>      -0.61335963      -1.22761440     -10.72329396 </v>
    </varray>
    <i name="volume">    649.73598410 </i>
    <varray name="rec_basis" >
     <v>      -0.14383733       0.03328719       0.00441657 </v>
     <v>       0.00064336       0.11459239      -0.01315546 </v>
     <v>       0.00224430      -0.00605421      -0.09269021 </v>
    </varray>
   </crystal>
   <varray name="positions" >
    <v>       0.35720970       0.33194158       0.12420624 </v>
    <v>       0.36970538       0.83455440       0.63987150 </v>
    <v>       0.63029462       0.16544560       0.36012850 </v>
    <v>       0.64279030       0.66805842       0.87579376 </v>
    <v>       0.02883986       0.94680326       0.33518027 </v>
    <v>       0.12303859       0.46341493       0.80919743 </v>
    <v>       0.76347426       0.12274793       0.04537282 </v>
    <v>       0.52953558       0.24852448       0.75326615 </v>
    <v>       0.23652574       0.87725207       0.95462718 </v>
    <v>       0.97116014       0.05319674       0.66481973 </v>
    <v>       0.87696141       0.53658507       0.19080257 </v>
    <v>       0.47046442       0.75147552       0.24673385 </v>
    <v>       0.81484965       0.83336458       0.13158123 </v>
    <v>       0.67956364       0.37159025       0.95117068 </v>
    <v>       0.46307605       0.50962123       0.70008329 </v>
    <v>       0.27269195       0.04229451       0.52971046 </v>
    <v>       0.05322372       0.67324841       0.37454598 </v>
    <v>       0.32043636       0.62840975       0.04882932 </v>
    <v>       0.44242689       0.07594967       0.16979499 </v>
    <v>       0.94677628       0.32675159       0.62545402 </v>
    <v>       0.55757311       0.92405033       0.83020501 </v>
    <v>       0.95053788       0.27079297       0.22988258 </v>
    <v>       0.04946212       0.72920703       0.77011742 </v>
    <v>       0.72730805       0.95770549       0.47028954 </v>
    <v>       0.53692395       0.49037877       0.29991671 </v>
    <v>       0.18515035       0.16663542       0.86841877 </v>
   </varray>
  </structure>
  <varray name="forces" >
   <v>       0.00008761      -0.00013782       0.00084707 </v>
   <v>       0.01924266      -0.00986182      -0.00919732 </v>
   <v>      -0.01924266       0.00986182       0.00919732 </v>
   <v>      -0.00008761       0.00013782      -0.00084707 </v>
   <v>       0.04744420       0.04344272       0.02379418 </v>
   <v>       0.00856823      -0.02405051       0.00610187 </v>
   <v>       0.00465680      -0.02114484       0.01401445 </v>
   <v>       0.02385574       0.02346951      -0.02843971 </v>
   <v>      -0.00465680       0.02114484      -0.01401445 </v>
   <v>      -0.04744420      -0.04344272      -0.02379418 </v>
   <v>      -0.00856823       0.02405051      -0.00610187 </v>
   <v>      -0.02385574      -0.02346951       0.02843971 </v>
   <v>       0.00069507      -0.00533532      -0.00119392 </v>
   <v>       0.00112541      -0.00061598       0.00142317 </v>
   <v>      -0.00127549       0.00148809      -0.00026693 </v>
   <v>       0.00093831       0.00298864      -0.00771720 </v>
   <v>      -0.00217493      -0.00324522      -0.00287739 </v>
   <v>      -0.00112541       0.00061598      -0.00142317 </v>
   <v>      -0.00472095      -0.00284973      -0.00073115 </v>
   <v>       0.00217493       0.00324522       0.00287739 </v>
   <v>       0.00472095       0.00284973       0.00073115 </v>
   <v>      -0.00421418       0.00016321       0.00079991 </v>
   <v>       0.00421418      -0.00016321      -0.00079991 </v>
   <v>      -0.00093831      -0.00298864       0.00771720 </v>
   <v>       0.00127549      -0.00148809       0.00026693 </v>
   <v>      -0.00069507       0.00533532       0.00119392 </v>
  </varray>
  <varray name="stress" >
   <v>       0.03150462      -0.12886808      -0.00486898 </v>
   <v>      -0.12886690       0.01541665       0.07018807 </v>
   <v>      -0.00487056       0.07018842      -0.12615416 </v>
  </varray>
  <energy>
   <i name="e_fr_energy">   -111.42960180 </i>
   <i name="e_wo_entrp">   -111.42960180 </i>
   <i name="e_0_energy">     -0.00000000 </i>
  </energy>
  <time name="totalsc">    2.53    2.53</time>
 </calculation>
 <calculation>
  <scstep>
   <time name="dav">    0.61    0.62</time>
   <time name="total">    0.82    0.82</time>
   <energy>
    <i name="alphaZ">     52.66180868 </i>
    <i name="ewald">  -4385.39221006 </i>
    <i name="hartreedc">   -960.76653802 </i>
    <i name="XCdc">   -208.63029425 </i>
    <i name="pawpsdc">   9868.60833299 </i>
    <i name="pawaedc">  -9372.25029639 </i>
    <i name="eentropy">     -0.00000000 </i>
    <i name="bandstr">   -201.87309558 </i>
    <i name="atom">   5096.21268456 </i>
    <i name="e_fr_energy">   -111.42960808 </i>
    <i name="e_wo_entrp">   -111.42960808 </i>
    <i name="e_0_energy">   -111.42960808 </i>
   </energy>
  </scstep>
  <scstep>
   <time name="dav">    0.57    0.57</time>
   <time name="total">    0.74    0.74</time>
   <energy>
    <i name="alphaZ">     52.66180868 </i>
    <i name="ewald">  -4385.39221006 </i>
    <i name="hartreedc">   -960.78955941 </i>
    <i name="XCdc">   -208.62938245 </i>
    <i name="pawpsdc">   9868.38670338 </i>
    <i name="pawaedc">  -9372.02858194 </i>
    <i name="eentropy">     -0.00000000 </i>
    <i name="bandstr">   -201.85107170 </i>
    <i name="atom">   5096.21268456 </i>
    <i name="e_fr_energy">   -111.42960894 </i>
    <i name="e_wo_entrp">   -111.42960894 </i>
    <i name="e_0_energy">   -111.42960894 </i>
   </energy>
  </scstep>
  <structure>
   <crystal>
    <varray name="basis" >
     <v>      -6.95290239       0.01968864      -0.16960364 </v>
     <v>       1.98714138       8.65630735      -0.51718097 </v>
     <v>      -0.61328532      -1.22777221     -10.72350044 </v>
    </varray>
    <i name="volume">    649.76368312 </i>
    <varray name="rec_basis" >
     <v>      -0.14383829       0.03328332       0.00441550 </v>
     <v>       0.00064541       0.11458849      -0.01315656 </v>
     <v>       0.00224383      -0.00605287      -0.09268844 </v>
    </varray>
   </crystal>
   <varray name="positions" >
    <v>       0.35720948       0.33194118       0.12420550 </v>
    <v>       0.36967621       0.83454515       0.63988049 </v>
    <v>       0.63032379       0.16545485       0.36011951 </v>
    <v>       0.64279052       0.66805882       0.87579450 </v>
    <v>       0.02881342       0.94681538       0.33517098 </v>
    <v>       0.12302922       0.46340936       0.80919105 </v>
    <v>       0.76346267       0.12272512       0.04536297 </v>
    <v>       0.52952639       0.24852403       0.75326564 </v>
    <v>       0.23653733       0.87727488       0.95463703 </v>
    <v>       0.97118658       0.05318462       0.66482902 </v>
    <v>       0.87697078       0.53659064       0.19080895 </v>
    <v>       0.47047361       0.75147597       0.24673436 </v>
    <v>       0.81484654       0.83335724       0.13158171 </v>
    <v>       0.67956238       0.37159261       0.95117113 </v>
    <v>       0.46307930       0.50962652       0.70008326 </v>
    <v>       0.27269105       0.04229998       0.52971919 </v>
    <v>       0.05322618       0.67324372       0.37454967 </v>
    <v>       0.32043762       0.62840739       0.04882887 </v>
    <v>       0.44243485       0.07594565       0.16979603 </v>
    <v>       0.94677382       0.32675628       0.62545033 </v>
    <v>       0.55756515       0.92405435       0.83020397 </v>
    <v>       0.95054729       0.27079408       0.22988273 </v>
    <v>       0.04945271       0.72920592       0.77011727 </v>
    <v>       0.72730895       0.95770002       0.47028081 </v>
    <v>       0.53692070       0.49037348       0.29991674 </v>
    <v>       0.18515346       0.16664276       0.86841829 </v>
   </varray>
  </structure>
  <varray name="forces" >
   <v>       0.00002510      -0.00007209       0.00074667 </v>
   <v>       0.01935507      -0.00988673      -0.00915821 </v>
   <v>      -0.01935507       0.00988673       0.00915821 </v>
   <v>      -0.00002510       0.00007209      -0.00074667 </v>
   <v>      -0.05707463       0.03159702       0.00352588 </v>
   <v>       0.00991622      -0.02369495       0.00818231 </v>
   <v>       0.00803543       0.03571239      -0.09950121 </v>
   <v>       0.02409093       0.02392337      -0.02783917 </v>
   <v>      -0.00803543      -0.03571239       0.09950121 </v>
   <v>       0.05707463      -0.03159702      -0.00352588 </v>
   <v>      -0.00991622       0.02369495      -0.00818231 </v>
   <v>      -0.02409093      -0.02392337       0.02783917 </v>
   <v>       0.00011931      -0.00460420      -0.00082905 </v>
   <v>       0.00055383      -0.00157575       0.00115307 </v>
   <v>      -0.00073371       0.00095692      -0.00037686 </v>
   <v>       0.00027276       0.00256456      -0.00626789 </v>
   <v>      -0.00189295      -0.00088470      -0.00224871 </v>
   <v>      -0.00055383       0.00157575      -0.00115307 </v>
   <v>      -0.00417735      -0.00257271      -0.00059316 </v>
   <v>       0.00189295       0.00088470       0.00224871 </v>
   <v>       0.00417735       0.00257271       0.00059316 </v>
   <v>      -0.00323794       0.00005733       0.00165807 </v>
   <v>       0.00323794      -0.00005733      -0.00165807 </v>
   <v>      -0.00027276      -0.00256456       0.00626789 </v>
   <v>       0.00073371      -0.00095692       0.00037686 </v>
   <v>      -0.00011931       0.00460420       0.00082905 </v>
  </varray>
  <varray name="stress" >
   <v>       0.20831443      -0.01712610      -0.21764315 </v>
   <v>      -0.01712512      -0.00327762       0.14693983 </v>
   <v>      -0.21764308       0.14693985      -0.27587056 </v>
  </varray>
  <energy>
   <i name="e_fr_energy">   -111.42960894 </i>
   <i name="e_wo_entrp">   -111.42960894 </i>
   <i name="e_0_energy">     -0.00000000 </i>
  </energy>
  <time name="totalsc">    2.63    2.63</time>
 </calculation>
 <calculation>
  <scstep>
   <time name="dav">    0.38    0.38</time>
   <time name="total">    0.57    0.58</time>
   <energy>
    <i name="alphaZ">     52.66252784 </i>
    <i name="ewald">  -4385.41171513 </i>
    <i name="hartreedc">   -960.80638966 </i>
    <i name="XCdc">   -208.62798603 </i>
    <i name="pawpsdc">   9867.98502223 </i>
    <i name="pawaedc">  -9371.62669479 </i>
    <i name="eentropy">     -0.00000000 </i>
    <i name="bandstr">   -201.81706091 </i>
    <i name="atom">   5096.21268456 </i>
    <i name="e_fr_energy">   -111.42961189 </i>
    <i name="e_wo_entrp">   -111.42961189 </i>
    <i name="e_0_energy">   -111.42961189 </i>
   </energy>
  </scstep>
  <scstep>
   <time name="dav">    0.56    0.56</time>
   <time name="total">    0.73    0.73</time>
   <energy>
    <i name="alphaZ">     52.66252784 </i>
    <i name="ewald">  -4385.41171513 </i>
    <i name="hartreedc">   -960.80596808 </i>
    <i name="XCdc">   -208.62818488 </i>
    <i name="pawpsdc">   9867.79162984 </i>
    <i name="pawaedc">  -9371.43311145 </i>
    <i name="eentropy">     -0.00000000 </i>
    <i name="bandstr">   -201.81747431 </i>
    <i name="atom">   5096.21268456 </i>
    <i name="e_fr_energy">   -111.42961161 </i>
    <i name="e_wo_entrp">   -111.42961161 </i>
    <i name="e_0_energy">   -111.42961161 </i>
   </energy>
  </scstep>
  <structure>
   <crystal>
    <varray name="basis" >
     <v>      -6.95292705       0.01964819      -0.16961208 </v>
     <v>       1.98719857       8.65622255      -0.51720774 </v>
     <v>      -0.61330912      -1.22772166     -10.72343429 </v>
    </varray>
    <i name="volume">    649.75480994 </i>
    <varray name="rec_basis" >
     <v>      -0.14383798       0.03328456       0.00441584 </v>
     <v>       0.00064475       0.11458974      -0.01315621 </v>
     <v>       0.00224398      -0.00605330      -0.09268901 </v>
    </varray>
   </crystal>
   <varray name="positions" >
    <v>       0.35720955       0.33194131       0.12420574 </v>
    <v>       0.36968556       0.83454811       0.63987761 </v>
    <v>       0.63031444       0.16545189       0.36012239 </v>
    <v>       0.64279045       0.66805869       0.87579426 </v>
    <v>       0.02882189       0.94681150       0.33517396 </v>
    <v>       0.12303222       0.46341114       0.80919309 </v>
    <v>       0.76346638       0.12273243       0.04536613 </v>
    <v>       0.52952933       0.24852417       0.75326581 </v>
    <v>       0.23653362       0.87726757       0.95463387 </v>
    <v>       0.97117811       0.05318850       0.66482604 </v>
    <v>       0.87696778       0.53658886       0.19080691 </v>
    <v>       0.47047067       0.75147583       0.24673419 </v>
    <v>       0.81484754       0.83335959       0.13158155 </v>
    <v>       0.67956278       0.37159185       0.95117099 </v>
    <v>       0.46307826       0.50962483       0.70008327 </v>
    <v>       0.27269134       0.04229823       0.52971639 </v>
    <v>       0.05322540       0.67324522       0.37454848 </v>
    <v>       0.32043722       0.62840815       0.04882901 </v>
    <v>       0.44243230       0.07594694       0.16979570 </v>
    <v>       0.94677460       0.32675478       0.62545152 </v>
    <v>       0.55756770       0.92405306       0.83020430 </v>
    <v>       0.95054427       0.27079373       0.22988269 </v>
    <v>       0.04945573       0.72920627       0.77011731 </v>
    <v>       0.72730866       0.95770177       0.47028361 </v>
    <v>       0.53692174       0.49037517       0.29991673 </v>
    <v>       0.18515246       0.16664041       0.86841845 </v>
   </varray>
  </structure>
  <varray name="forces" >
   <v>       0.00009855      -0.00005299       0.00076336 </v>
   <v>       0.01938216      -0.00991837      -0.00922633 </v>
   <v>      -0.01938216       0.00991837       0.00922633 </v>
   <v>      -0.00009855       0.00005299      -0.00076336 </v>
   <v>      -0.05703251       0.03150519       0.00311469 </v>
   <v>       0.00973111      -0.02365368       0.00788943 </v>
   <v>       0.02828707       0.02058488      -0.04848990 </v>
   <v>       0.02401204       0.02361171      -0.02768410 </v>
   <v>      -0.02828707      -0.02058488       0.04848990 </v>
   <v>       0.05703251      -0.03150519      -0.00311469 </v>
   <v>      -0.00973111       0.02365368      -0.00788943 </v>
   <v>      -0.02401204      -0.02361171       0.02768410 </v>
   <v>       0.00045508      -0.00708579      -0.00104985 </v>
   <v>       0.00138795      -0.00031406       0.00076241 </v>
   <v>      -0.00135936       0.00316431      -0.00029687 </v>
   <v>       0.00090197       0.00388212      -0.01102438 </v>
   <v>      -0.00330658      -0.00383391      -0.00388206 </v>
   <v>      -0.00138795       0.00031406      -0.00076241 </v>
   <v>      -0.00695058      -0.00435032      -0.00059680 </v>
   <v>       0.00330658       0.00383391       0.00388206 </v>
   <v>       0.00695058       0.00435032       0.00059680 </v>
   <v>      -0.00681580       0.00042127       0.00077162 </v>
   <v>       0.00681580      -0.00042127      -0.00077162 </v>
   <v>      -0.00090197      -0.00388212       0.01102438 </v>
   <v>       0.00135936      -0.00316431       0.00029687 </v>
   <v>      -0.00045508       0.00708579       0.00104985 </v>
  </varray>
  <varray name="stress" >
   <v>       0.19706610      -0.05296426      -0.10151755 </v>
   <v>      -0.05296324      -0.01804920       0.05954494 </v>
   <v>      -0.10151796       0.05954529      -0.04339561 </v>
  </varray>
  <energy>
   <i name="e_fr_energy">   -111.42961161 </i>
   <i name="e_wo_entrp">   -111.42961161 </i>
   <i name="e_0_energy">     -0.00000000 </i>
  </energy>
  <time name="totalsc">    2.41    2.42</time>
 </calculation>
 <calculation>
  <scstep>
   <time name="dav">    0.51    0.51</time>
   <time name="total">    0.70    0.70</time>
   <energy>
    <i name="alphaZ">     52.66103172 </i>
    <i name="ewald">  -4385.36546992 </i>
    <i name="hartreedc">   -960.79747207 </i>
    <i name="XCdc">   -208.63035688 </i>
    <i name="pawpsdc">   9867.83393720 </i>
    <i name="pawaedc">  -9371.47526299 </i>
    <i name="eentropy">     -0.00000000 </i>
    <i name="bandstr">   -201.86872582 </i>
    <i name="atom">   5096.21268456 </i>
    <i name="e_fr_energy">   -111.42963418 </i>
    <i name="e_wo_entrp">   -111.42963418 </i>
    <i name="e_0_energy">   -111.42963418 </i>
   </energy>
  </scstep>
  <scstep>
   <time name="dav">    0.50    0.50</time>
   <time name="total">    0.66    0.67</time>
   <energy>
    <i name="alphaZ">     52.66103172 </i>
    <i name="ewald">  -4385.36546992 </i>
    <i name="hartreedc">   -960.80897159 </i>
    <i name="XCdc">   -208.62988148 </i>
    <i name="pawpsdc">   9867.97279650 </i>
    <i name="pawaedc">  -9371.61408604 </i>
    <i name="eentropy">     -0.00000000 </i>
    <i name="bandstr">   -201.85773844 </i>
    <i name="atom">   5096.21268456 </i>
    <i name="e_fr_energy">   -111.42963468 </i>
    <i name="e_wo_entrp">   -111.42963468 </i>
    <i name="e_0_energy">   -111.42963468 </i>
   </energy>
  </scstep>
  <structure>
   <crystal>
    <varray name="basis" >
     <v>      -6.95292451       0.01973101      -0.16957530 </v>
     <v>       1.98709647       8.65636438      -0.51714991 </v>
     <v>      -0.61323532      -1.22782932     -10.72353801 </v>
    </varray>
    <i name="volume">    649.77326967 </i>
    <varray name="rec_basis" >
     <v>      -0.14383759       0.03328213       0.00441473 </v>
     <v>       0.00064606       0.11458760      -0.01315706 </v>
     <v>       0.00224340      -0.00605237      -0.09268811 </v>
    </varray>
   </crystal>
   <varray name="positions" >
[...]
        <r>  0.0000  0.0024  0.0000 </r>
        <r>  0.0017  0.0141  0.0012 </r>
        <r>  0.0022  0.0233  0.0021 </r>
        <r>  0.0011  0.0468  0.0007 </r>
        <r>  0.0001  0.0342  0.0012 </r>
        <r>  0.0011  0.0468  0.0007 </r>
        <r>  0.0017  0.0141  0.0012 </r>
        <r>  0.0022  0.0233  0.0021 </r>
        <r>  0.0001  0.0342  0.0012 </r>
        <r>  0.0010  0.0065  0.0000 </r>
        <r>  0.0113  0.0174  0.0000 </r>
        <r>  0.0009  0.0132  0.0000 </r>
        <r>  0.0010  0.0115  0.0000 </r>
        <r>  0.0046  0.0206  0.0000 </r>
        <r>  0.0113  0.0174  0.0000 </r>
        <r>  0.0033  0.0023  0.0000 </r>
        <r>  0.0046  0.0206  0.0000 </r>
        <r>  0.0033  0.0023  0.0000 </r>
        <r>  0.0015  0.0070  0.0000 </r>
        <r>  0.0015  0.0070  0.0000 </r>
        <r>  0.0010  0.0115  0.0000 </r>
        <r>  0.0009  0.0132  0.0000 </r>
        <r>  0.0010  0.0065  0.0000 </r>
       </set>
       <set comment="band 70">
        <r>  0.0001  0.0018  0.0000 </r>
        <r>  0.0001  0.0001  0.0000 </r>
        <r>  0.0001  0.0001  0.0000 </r>
        <r>  0.0001  0.0018  0.0000 </r>
        <r>  0.0040  0.0330  0.0015 </r>
        <r>  0.0046  0.0556  0.0018 </r>
        <r>  0.0012  0.0344  0.0008 </r>
        <r>  0.0002  0.0133  0.0004 </r>
        <r>  0.0012  0.0344  0.0008 </r>
        <r>  0.0040  0.0330  0.0015 </r>
        <r>  0.0046  0.0556  0.0018 </r>
        <r>  0.0002  0.0133  0.0004 </r>
        <r>  0.0038  0.0092  0.0000 </r>
        <r>  0.0032  0.0054  0.0000 </r>
        <r>  0.0002  0.0013  0.0000 </r>
        <r>  0.0000  0.0046  0.0000 </r>
        <r>  0.0066  0.0169  0.0000 </r>
        <r>  0.0032  0.0054  0.0000 </r>
        <r>  0.0001  0.0073  0.0000 </r>
        <r>  0.0066  0.0169  0.0000 </r>
        <r>  0.0001  0.0073  0.0000 </r>
        <r>  0.0104  0.0226  0.0000 </r>
        <r>  0.0104  0.0226  0.0000 </r>
        <r>  0.0000  0.0046  0.0000 </r>
        <r>  0.0002  0.0013  0.0000 </r>
        <r>  0.0038  0.0092  0.0000 </r>
       </set>
       <set comment="band 71">
        <r>  0.0006  0.0012  0.0000 </r>
        <r>  0.0013  0.0016  0.0000 </r>
        <r>  0.0013  0.0016  0.0000 </r>
        <r>  0.0006  0.0012  0.0000 </r>
        <r>  0.0002  0.0231  0.0009 </r>
        <r>  0.0020  0.0113  0.0005 </r>
        <r>  0.0017  0.0290  0.0009 </r>
        <r>  0.0025  0.0554  0.0011 </r>
        <r>  0.0017  0.0290  0.0009 </r>
        <r>  0.0002  0.0231  0.0009 </r>
        <r>  0.0020  0.0113  0.0005 </r>
        <r>  0.0025  0.0554  0.0011 </r>
        <r>  0.0031  0.0107  0.0000 </r>
        <r>  0.0014  0.0101  0.0000 </r>
        <r>  0.0077  0.0234  0.0000 </r>
        <r>  0.0014  0.0069  0.0000 </r>
        <r>  0.0013  0.0175  0.0000 </r>
        <r>  0.0014  0.0101  0.0000 </r>
        <r>  0.0014  0.0099  0.0000 </r>
        <r>  0.0013  0.0175  0.0000 </r>
        <r>  0.0014  0.0099  0.0000 </r>
        <r>  0.0007  0.0087  0.0000 </r>
        <r>  0.0007  0.0087  0.0000 </r>
        <r>  0.0014  0.0069  0.0000 </r>
        <r>  0.0077  0.0234  0.0000 </r>
        <r>  0.0031  0.0107  0.0000 </r>
       </set>
       <set comment="band 72">
        <r>  0.0016  0.0017  0.0000 </r>
        <r>  0.0000  0.0019  0.0000 </r>
        <r>  0.0000  0.0019  0.0000 </r>
        <r>  0.0016  0.0017  0.0000 </r>
        <r>  0.0057  0.0560  0.0014 </r>
        <r>  0.0020  0.0307  0.0004 </r>
        <r>  0.0005  0.0316  0.0009 </r>
        <r>  0.0000  0.0150  0.0004 </r>
        <r>  0.0005  0.0316  0.0009 </r>
        <r>  0.0057  0.0560  0.0014 </r>
        <r>  0.0020  0.0307  0.0004 </r>
        <r>  0.0000  0.0150  0.0004 </r>
        <r>  0.0007  0.0104  0.0000 </r>
        <r>  0.0002  0.0047  0.0000 </r>
        <r>  0.0003  0.0025  0.0000 </r>
        <r>  0.0041  0.0110  0.0000 </r>
        <r>  0.0017  0.0200  0.0000 </r>
        <r>  0.0002  0.0047  0.0000 </r>
        <r>  0.0004  0.0065  0.0000 </r>
        <r>  0.0017  0.0200  0.0000 </r>
        <r>  0.0004  0.0065  0.0000 </r>
        <r>  0.0062  0.0153  0.0000 </r>
        <r>  0.0062  0.0153  0.0000 </r>
        <r>  0.0041  0.0110  0.0000 </r>
        <r>  0.0003  0.0025  0.0000 </r>
        <r>  0.0007  0.0104  0.0000 </r>
       </set>
       <set comment="band 73">
        <r>  0.0015  0.0012  0.0000 </r>
        <r>  0.0000  0.0014  0.0000 </r>
        <r>  0.0000  0.0014  0.0000 </r>
        <r>  0.0015  0.0012  0.0000 </r>
        <r>  0.0045  0.0690  0.0012 </r>
        <r>  0.0005  0.0038  0.0012 </r>
        <r>  0.0001  0.0429  0.0002 </r>
        <r>  0.0022  0.0178  0.0016 </r>
        <r>  0.0001  0.0429  0.0002 </r>
        <r>  0.0045  0.0690  0.0012 </r>
        <r>  0.0005  0.0038  0.0012 </r>
        <r>  0.0022  0.0178  0.0016 </r>
        <r>  0.0054  0.0086  0.0000 </r>
        <r>  0.0001  0.0257  0.0000 </r>
        <r>  0.0006  0.0034  0.0000 </r>
        <r>  0.0012  0.0162  0.0000 </r>
        <r>  0.0019  0.0200  0.0000 </r>
        <r>  0.0001  0.0257  0.0000 </r>
        <r>  0.0028  0.0009  0.0000 </r>
        <r>  0.0019  0.0200  0.0000 </r>
        <r>  0.0028  0.0009  0.0000 </r>
        <r>  0.0006  0.0038  0.0000 </r>
        <r>  0.0006  0.0038  0.0000 </r>
        <r>  0.0012  0.0162  0.0000 </r>
        <r>  0.0006  0.0034  0.0000 </r>
        <r>  0.0054  0.0086  0.0000 </r>
       </set>
       <set comment="band 74">
        <r>  0.0001  0.0010  0.0000 </r>
        <r>  0.0005  0.0012  0.0000 </r>
        <r>  0.0005  0.0012  0.0000 </r>
        <r>  0.0001  0.0010  0.0000 </r>
        <r>  0.0002  0.0318  0.0006 </r>
        <r>  0.0003  0.0462  0.0016 </r>
        <r>  0.0018  0.0226  0.0007 </r>
        <r>  0.0009  0.0369  0.0007 </r>
        <r>  0.0018  0.0226  0.0007 </r>
        <r>  0.0002  0.0318  0.0006 </r>
        <r>  0.0003  0.0462  0.0016 </r>
        <r>  0.0009  0.0369  0.0007 </r>
        <r>  0.0007  0.0109  0.0000 </r>
        <r>  0.0003  0.0146  0.0000 </r>
        <r>  0.0045  0.0120  0.0000 </r>
        <r>  0.0007  0.0157  0.0000 </r>
        <r>  0.0039  0.0113  0.0000 </r>
        <r>  0.0003  0.0146  0.0000 </r>
        <r>  0.0005  0.0113  0.0000 </r>
        <r>  0.0039  0.0113  0.0000 </r>
        <r>  0.0005  0.0113  0.0000 </r>
        <r>  0.0010  0.0138  0.0000 </r>
        <r>  0.0010  0.0138  0.0000 </r>
        <r>  0.0007  0.0157  0.0000 </r>
        <r>  0.0045  0.0120  0.0000 </r>
        <r>  0.0007  0.0109  0.0000 </r>
       </set>
       <set comment="band 75">
        <r>  0.0009  0.0010  0.0000 </r>
        <r>  0.0014  0.0017  0.0000 </r>
        <r>  0.0014  0.0017  0.0000 </r>
        <r>  0.0009  0.0010  0.0000 </r>
        <r>  0.0034  0.0054  0.0006 </r>
        <r>  0.0011  0.0200  0.0006 </r>
        <r>  0.0014  0.0489  0.0016 </r>
        <r>  0.0006  0.0557  0.0010 </r>
        <r>  0.0014  0.0489  0.0016 </r>
        <r>  0.0034  0.0054  0.0006 </r>
        <r>  0.0011  0.0200  0.0006 </r>
        <r>  0.0006  0.0557  0.0010 </r>
        <r>  0.0013  0.0022  0.0000 </r>
        <r>  0.0005  0.0051  0.0000 </r>
        <r>  0.0029  0.0160  0.0000 </r>
        <r>  0.0007  0.0074  0.0000 </r>
        <r>  0.0010  0.0165  0.0000 </r>
        <r>  0.0005  0.0051  0.0000 </r>
        <r>  0.0014  0.0190  0.0000 </r>
        <r>  0.0010  0.0165  0.0000 </r>
        <r>  0.0014  0.0190  0.0000 </r>
        <r>  0.0006  0.0218  0.0000 </r>
        <r>  0.0006  0.0218  0.0000 </r>
        <r>  0.0007  0.0074  0.0000 </r>
        <r>  0.0029  0.0160  0.0000 </r>
        <r>  0.0013  0.0022  0.0000 </r>
       </set>
       <set comment="band 76">
        <r>  0.0019  0.0020  0.0000 </r>
        <r>  0.0010  0.0014  0.0000 </r>
        <r>  0.0010  0.0014  0.0000 </r>
        <r>  0.0019  0.0020  0.0000 </r>
        <r>  0.0024  0.0372  0.0008 </r>
        <r>  0.0032  0.0280  0.0017 </r>
        <r>  0.0004  0.0430  0.0005 </r>
        <r>  0.0010  0.0182  0.0005 </r>
        <r>  0.0004  0.0430  0.0005 </r>
        <r>  0.0024  0.0372  0.0008 </r>
        <r>  0.0032  0.0280  0.0017 </r>
        <r>  0.0010  0.0182  0.0005 </r>
        <r>  0.0023  0.0193  0.0000 </r>
        <r>  0.0001  0.0194  0.0000 </r>
        <r>  0.0026  0.0135  0.0000 </r>
        <r>  0.0002  0.0037  0.0000 </r>
        <r>  0.0004  0.0233  0.0000 </r>
        <r>  0.0001  0.0194  0.0000 </r>
        <r>  0.0019  0.0104  0.0000 </r>
        <r>  0.0004  0.0233  0.0000 </r>
        <r>  0.0019  0.0104  0.0000 </r>
        <r>  0.0004  0.0082  0.0000 </r>
        <r>  0.0004  0.0082  0.0000 </r>
        <r>  0.0002  0.0037  0.0000 </r>
        <r>  0.0026  0.0135  0.0000 </r>
        <r>  0.0023  0.0193  0.0000 </r>
       </set>
       <set comment="band 77">
        <r>  0.0007  0.0004  0.0000 </r>
        <r>  0.0019  0.0012  0.0000 </r>
        <r>  0.0019  0.0012  0.0000 </r>
        <r>  0.0007  0.0004  0.0000 </r>
        <r>  0.0004  0.0387  0.0020 </r>
        <r>  0.0037  0.0202  0.0007 </r>
        <r>  0.0021  0.0481  0.0015 </r>
        <r>  0.0008  0.0236  0.0009 </r>
        <r>  0.0021  0.0481  0.0015 </r>
        <r>  0.0004  0.0387  0.0020 </r>
        <r>  0.0037  0.0202  0.0007 </r>
        <r>  0.0008  0.0236  0.0009 </r>
        <r>  0.0003  0.0095  0.0000 </r>
        <r>  0.0003  0.0038  0.0000 </r>
        <r>  0.0035  0.0119  0.0000 </r>
        <r>  0.0006  0.0127  0.0000 </r>
        <r>  0.0011  0.0166  0.0000 </r>
        <r>  0.0003  0.0038  0.0000 </r>
        <r>  0.0001  0.0101  0.0000 </r>
        <r>  0.0011  0.0166  0.0000 </r>
        <r>  0.0001  0.0101  0.0000 </r>
        <r>  0.0003  0.0318  0.0000 </r>
        <r>  0.0003  0.0318  0.0000 </r>
        <r>  0.0006  0.0127  0.0000 </r>
        <r>  0.0035  0.0119  0.0000 </r>
        <r>  0.0003  0.0095  0.0000 </r>
       </set>
       <set comment="band 78">
        <r>  0.0001  0.0026  0.0000 </r>
        <r>  0.0008  0.0026  0.0000 </r>
        <r>  0.0008  0.0026  0.0000 </r>
        <r>  0.0001  0.0026  0.0000 </r>
        <r>  0.0019  0.0175  0.0007 </r>
        <r>  0.0004  0.0214  0.0006 </r>
        <r>  0.0001  0.0374  0.0015 </r>
        <r>  0.0003  0.0448  0.0020 </r>
        <r>  0.0001  0.0374  0.0015 </r>
        <r>  0.0019  0.0175  0.0007 </r>
        <r>  0.0004  0.0214  0.0006 </r>
        <r>  0.0003  0.0448  0.0020 </r>
        <r>  0.0002  0.0075  0.0000 </r>
        <r>  0.0013  0.0184  0.0000 </r>
        <r>  0.0007  0.0228  0.0000 </r>
        <r>  0.0031  0.0087  0.0000 </r>
        <r>  0.0021  0.0106  0.0000 </r>
        <r>  0.0013  0.0184  0.0000 </r>
        <r>  0.0043  0.0235  0.0000 </r>
        <r>  0.0021  0.0106  0.0000 </r>
        <r>  0.0043  0.0235  0.0000 </r>
        <r>  0.0011  0.0151  0.0000 </r>
        <r>  0.0011  0.0151  0.0000 </r>
        <r>  0.0031  0.0087  0.0000 </r>
        <r>  0.0007  0.0228  0.0000 </r>
        <r>  0.0002  0.0075  0.0000 </r>
       </set>
       <set comment="band 79">
        <r>  0.0021  0.0015  0.0000 </r>
        <r>  0.0019  0.0027  0.0000 </r>
        <r>  0.0019  0.0027  0.0000 </r>
        <r>  0.0021  0.0015  0.0000 </r>
        <r>  0.0012  0.0187  0.0007 </r>
        <r>  0.0079  0.0707  0.0016 </r>
        <r>  0.0003  0.0119  0.0006 </r>
        <r>  0.0021  0.0159  0.0008 </r>
        <r>  0.0003  0.0119  0.0006 </r>
        <r>  0.0012  0.0187  0.0007 </r>
        <r>  0.0079  0.0707  0.0016 </r>
        <r>  0.0021  0.0159  0.0008 </r>
        <r>  0.0011  0.0091  0.0000 </r>
        <r>  0.0002  0.0078  0.0000 </r>
        <r>  0.0027  0.0209  0.0000 </r>
        <r>  0.0011  0.0139  0.0000 </r>
        <r>  0.0034  0.0287  0.0000 </r>
        <r>  0.0002  0.0078  0.0000 </r>
        <r>  0.0004  0.0048  0.0000 </r>
        <r>  0.0034  0.0287  0.0000 </r>
        <r>  0.0004  0.0048  0.0000 </r>
        <r>  0.0003  0.0054  0.0000 </r>
        <r>  0.0003  0.0054  0.0000 </r>
        <r>  0.0011  0.0139  0.0000 </r>
        <r>  0.0027  0.0209  0.0000 </r>
        <r>  0.0011  0.0091  0.0000 </r>
       </set>
       <set comment="band 80">
        <r>  0.0001  0.0006  0.0000 </r>
        <r>  0.0004  0.0026  0.0000 </r>
        <r>  0.0004  0.0026  0.0000 </r>
        <r>  0.0001  0.0006  0.0000 </r>
        <r>  0.0000  0.0275  0.0010 </r>
        <r>  0.0009  0.0611  0.0030 </r>
        <r>  0.0020  0.0120  0.0012 </r>
        <r>  0.0004  0.0210  0.0016 </r>
        <r>  0.0020  0.0120  0.0012 </r>
        <r>  0.0000  0.0275  0.0010 </r>
        <r>  0.0009  0.0611  0.0030 </r>
        <r>  0.0004  0.0210  0.0016 </r>
        <r>  0.0007  0.0142  0.0000 </r>
        <r>  0.0030  0.0127  0.0000 </r>
        <r>  0.0027  0.0346  0.0000 </r>
        <r>  0.0004  0.0148  0.0000 </r>
        <r>  0.0003  0.0065  0.0000 </r>
        <r>  0.0030  0.0127  0.0000 </r>
        <r>  0.0010  0.0110  0.0000 </r>
        <r>  0.0003  0.0065  0.0000 </r>
        <r>  0.0010  0.0110  0.0000 </r>
        <r>  0.0002  0.0083  0.0000 </r>
        <r>  0.0002  0.0083  0.0000 </r>
        <r>  0.0004  0.0148  0.0000 </r>
        <r>  0.0027  0.0346  0.0000 </r>
        <r>  0.0007  0.0142  0.0000 </r>
       </set>
       <set comment="band 81">
        <r>  0.0018  0.0019  0.0000 </r>
        <r>  0.0005  0.0030  0.0000 </r>
        <r>  0.0005  0.0030  0.0000 </r>
        <r>  0.0018  0.0019  0.0000 </r>
        <r>  0.0006  0.0278  0.0008 </r>
        <r>  0.0023  0.0197  0.0017 </r>
        <r>  0.0012  0.0451  0.0008 </r>
        <r>  0.0004  0.0375  0.0009 </r>
        <r>  0.0012  0.0451  0.0008 </r>
        <r>  0.0006  0.0278  0.0008 </r>
        <r>  0.0023  0.0197  0.0017 </r>
        <r>  0.0004  0.0375  0.0009 </r>
        <r>  0.0003  0.0153  0.0000 </r>
        <r>  0.0009  0.0131  0.0000 </r>
        <r>  0.0003  0.0231  0.0000 </r>
        <r>  0.0005  0.0019  0.0000 </r>
        <r>  0.0020  0.0182  0.0000 </r>
        <r>  0.0009  0.0131  0.0000 </r>
        <r>  0.0009  0.0186  0.0000 </r>
        <r>  0.0020  0.0182  0.0000 </r>
        <r>  0.0009  0.0186  0.0000 </r>
        <r>  0.0018  0.0235  0.0000 </r>
        <r>  0.0018  0.0235  0.0000 </r>
        <r>  0.0005  0.0019  0.0000 </r>
        <r>  0.0003  0.0231  0.0000 </r>
        <r>  0.0003  0.0153  0.0000 </r>
       </set>
       <set comment="band 82">
        <r>  0.0007  0.0014  0.0000 </r>
        <r>  0.0010  0.0014  0.0000 </r>
        <r>  0.0010  0.0014  0.0000 </r>
        <r>  0.0007  0.0014  0.0000 </r>
        <r>  0.0009  0.0470  0.0024 </r>
        <r>  0.0024  0.0147  0.0011 </r>
        <r>  0.0002  0.0052  0.0013 </r>
        <r>  0.0016  0.0492  0.0020 </r>
        <r>  0.0002  0.0052  0.0013 </r>
        <r>  0.0009  0.0470  0.0024 </r>
        <r>  0.0024  0.0147  0.0011 </r>
        <r>  0.0016  0.0492  0.0020 </r>
        <r>  0.0046  0.0360  0.0000 </r>
        <r>  0.0002  0.0059  0.0000 </r>
        <r>  0.0010  0.0154  0.0000 </r>
        <r>  0.0034  0.0313  0.0000 </r>
        <r>  0.0000  0.0100  0.0000 </r>
        <r>  0.0002  0.0059  0.0000 </r>
        <r>  0.0003  0.0032  0.0000 </r>
        <r>  0.0000  0.0100  0.0000 </r>
        <r>  0.0003  0.0032  0.0000 </r>
        <r>  0.0002  0.0081  0.0000 </r>
        <r>  0.0002  0.0081  0.0000 </r>
        <r>  0.0034  0.0313  0.0000 </r>
        <r>  0.0010  0.0154  0.0000 </r>
        <r>  0.0046  0.0360  0.0000 </r>
       </set>
       <set comment="band 83">
        <r>  0.0004  0.0004  0.0000 </r>
        <r>  0.0010  0.0024  0.0000 </r>
        <r>  0.0010  0.0024  0.0000 </r>
        <r>  0.0004  0.0004  0.0000 </r>
        <r>  0.0002  0.0108  0.0008 </r>
        <r>  0.0014  0.0234  0.0006 </r>
        <r>  0.0025  0.0401  0.0014 </r>
        <r>  0.0037  0.0387  0.0030 </r>
        <r>  0.0025  0.0401  0.0014 </r>
        <r>  0.0002  0.0108  0.0008 </r>
        <r>  0.0014  0.0234  0.0006 </r>
        <r>  0.0037  0.0387  0.0030 </r>
        <r>  0.0000  0.0304  0.0000 </r>
        <r>  0.0005  0.0283  0.0000 </r>
        <r>  0.0017  0.0100  0.0000 </r>
        <r>  0.0001  0.0079  0.0000 </r>
        <r>  0.0026  0.0103  0.0000 </r>
        <r>  0.0005  0.0283  0.0000 </r>
        <r>  0.0015  0.0206  0.0000 </r>
        <r>  0.0026  0.0103  0.0000 </r>
        <r>  0.0015  0.0206  0.0000 </r>
        <r>  0.0010  0.0103  0.0000 </r>
        <r>  0.0010  0.0103  0.0000 </r>
        <r>  0.0001  0.0079  0.0000 </r>
        <r>  0.0017  0.0100  0.0000 </r>
        <r>  0.0000  0.0304  0.0000 </r>
       </set>
       <set comment="band 84">
        <r>  0.0009  0.0016  0.0000 </r>
        <r>  0.0002  0.0010  0.0000 </r>
        <r>  0.0002  0.0010  0.0000 </r>
        <r>  0.0010  0.0017  0.0000 </r>
        <r>  0.0021  0.0338  0.0031 </r>
        <r>  0.0007  0.0130  0.0015 </r>
        <r>  0.0027  0.0319  0.0035 </r>
        <r>  0.0004  0.0199  0.0040 </r>
        <r>  0.0026  0.0304  0.0034 </r>
        <r>  0.0021  0.0322  0.0030 </r>
        <r>  0.0007  0.0144  0.0016 </r>
        <r>  0.0003  0.0189  0.0040 </r>
        <r>  0.0003  0.0169  0.0000 </r>
        <r>  0.0000  0.0117  0.0000 </r>
        <r>  0.0002  0.0038  0.0000 </r>
        <r>  0.0030  0.0320  0.0000 </r>
        <r>  0.0014  0.0027  0.0000 </r>
        <r>  0.0000  0.0106  0.0000 </r>
        <r>  0.0016  0.0327  0.0000 </r>
        <r>  0.0014  0.0024  0.0000 </r>
        <r>  0.0015  0.0315  0.0000 </r>
        <r>  0.0006  0.0118  0.0000 </r>
        <r>  0.0006  0.0111  0.0000 </r>
        <r>  0.0031  0.0323  0.0000 </r>
        <r>  0.0002  0.0037  0.0000 </r>
        <r>  0.0003  0.0169  0.0000 </r>
       </set>
      </set>
     </set>
    </set>
   </array>
  </projected>
 </calculation>
 <structure name="finalpos" >
  <crystal>
   <varray name="basis" >
    <v>      -6.95314052       0.01984406      -0.16944893 </v>
    <v>       1.98702442       8.65658297      -0.51702452 </v>
    <v>      -0.61302836      -1.22808717     -10.72402513 </v>
   </varray>
   <i name="volume">    649.84209365 </i>
   <varray name="rec_basis" >
    <v>      -0.14383243       0.03327862       0.00441106 </v>
    <v>       0.00064771       0.11458442      -0.01315893 </v>
    <v>       0.00224145      -0.00605015      -0.09268385 </v>
   </varray>
  </crystal>
  <varray name="positions" >
   <v>       0.35720908       0.33194033       0.12420355 </v>
   <v>       0.36959113       0.83451831       0.63990634 </v>
   <v>       0.63040887       0.16548169       0.36009366 </v>
   <v>       0.64279092       0.66805967       0.87579645 </v>
   <v>       0.02884396       0.94681355       0.33516691 </v>
   <v>       0.12300534       0.46339569       0.80919568 </v>
   <v>       0.76344247       0.12274366       0.04537425 </v>
   <v>       0.52951109       0.24855070       0.75330302 </v>
   <v>       0.23655753       0.87725634       0.95462575 </v>
   <v>       0.97115604       0.05318645       0.66483309 </v>
   <v>       0.87699466       0.53660431       0.19080432 </v>
   <v>       0.47048891       0.75144930       0.24669698 </v>
   <v>       0.81483928       0.83333729       0.13158416 </v>
   <v>       0.67955815       0.37159433       0.95117122 </v>
   <v>       0.46308598       0.50963749       0.70008387 </v>
   <v>       0.27268798       0.04231449       0.52974404 </v>
   <v>       0.05323381       0.67323431       0.37455873 </v>
   <v>       0.32044185       0.62840567       0.04882878 </v>
   <v>       0.44246107       0.07593568       0.16979858 </v>
   <v>       0.94676619       0.32676569       0.62544127 </v>
   <v>       0.55753893       0.92406432       0.83020142 </v>
   <v>       0.95057222       0.27079577       0.22988109 </v>
   <v>       0.04942778       0.72920423       0.77011891 </v>
   <v>       0.72731202       0.95768551       0.47025596 </v>
   <v>       0.53691402       0.49036251       0.29991613 </v>
   <v>       0.18516072       0.16666271       0.86841584 </v>
  </varray>
 </structure>
</modeling>
