CIS                                     
           1
    -6.953191    0.019363   -0.169699
     1.987625    8.655258   -0.517384
    -0.613540   -1.227284  -10.722422
   Li   Sb   S 
   4   8  14
Direct configuration=     1
   0.35721016  0.33194238  0.12420746
   0.36975184  0.83456908  0.63985702
   0.63024816  0.16543092  0.36014298
   0.64278984  0.66805762  0.87579254
   0.02883219  0.94681864  0.33517764
   0.12304249  0.46339924  0.80921070
   0.76349195  0.12278245  0.04538733
   0.52953398  0.24856416  0.75329731
   0.23650805  0.87721755  0.95461267
   0.97116781  0.05318136  0.66482236
   0.87695751  0.53660076  0.19078930
   0.47046602  0.75143584  0.24670269
   0.81485521  0.83337835  0.13158153
   0.67956529  0.37158270  0.95116797
   0.46306964  0.50960846  0.70008329
   0.27269370  0.04228432  0.52969398
   0.05321916  0.67325770  0.37453900
   0.32043471  0.62841730  0.04883203
   0.44241120  0.07595713  0.16979295
   0.94678084  0.32674230  0.62546100
   0.55758880  0.92404287  0.83020705
   0.95051872  0.27078998  0.22988133
   0.04948128  0.72921002  0.77011867
   0.72730630  0.95771568  0.47030602
   0.53693036  0.49039154  0.29991671
   0.18514479  0.16662165  0.86841847
CIS                                     
           1
    -6.953171    0.019494   -0.169640
     1.987459    8.655822   -0.517304
    -0.613406   -1.227528  -10.723209
   Li   Sb   S 
   4   8  14
Direct configuration=     2
   0.35720991  0.33194183  0.12420669
   0.36972199  0.83455973  0.63986638
   0.63027801  0.16544027  0.36013362
   0.64279009  0.66805817  0.87579331
   0.02890258  0.94681675  0.33518601
   0.12304001  0.46340895  0.80920235
   0.76348074  0.12276070  0.04537823
   0.52952495  0.24852610  0.75327279
   0.23651926  0.87723930  0.95462177
   0.97109742  0.05318325  0.66481399
   0.87695999  0.53659105  0.19079765
   0.47047505  0.75147390  0.24672721
   0.81485157  0.83336976  0.13158121
   0.67956402  0.37158763  0.95116983
   0.46307353  0.50961650  0.70008391
   0.27269257  0.04229060  0.52970435
   0.05322165  0.67325192  0.37454300
   0.32043598  0.62841237  0.04883017
   0.44242119  0.07595290  0.16979413
   0.94677835  0.32674808  0.62545700
   0.55757881  0.92404710  0.83020587
   0.95053040  0.27079183  0.22988187
   0.04946960  0.72920817  0.77011813
   0.72730743  0.95770940  0.47029565
   0.53692647  0.49038350  0.29991609
   0.18514843  0.16663024  0.86841879
CIS                                     
           1
    -6.953175    0.019464   -0.169653
     1.987497    8.655695   -0.517322
    -0.613436   -1.227473  -10.723032
   Li   Sb   S 
   4   8  14
Direct configuration=     3
   0.35720997  0.33194196  0.12420686
   0.36972870  0.83456183  0.63986428
   0.63027130  0.16543817  0.36013572
   0.64279003  0.66805804  0.87579314
   0.02888675  0.94681717  0.33518413
   0.12304057  0.46340677  0.80920423
   0.76348326  0.12276559  0.04538028
   0.52952698  0.24853466  0.75327830
   0.23651674  0.87723441  0.95461972
   0.97111325  0.05318283  0.66481587
   0.87695943  0.53659323  0.19079577
   0.47047302  0.75146534  0.24672170
   0.81485239  0.83337169  0.13158128
   0.67956431  0.37158652  0.95116941
   0.46307265  0.50961470  0.70008377
   0.27269283  0.04228919  0.52970202
   0.05322109  0.67325322  0.37454210
   0.32043569  0.62841348  0.04883059
   0.44241894  0.07595385  0.16979386
   0.94677891  0.32674678  0.62545790
   0.55758106  0.92404615  0.83020614
   0.95052778  0.27079141  0.22988175
   0.04947222  0.72920859  0.77011825
   0.72730717  0.95771081  0.47029798
   0.53692735  0.49038530  0.29991623
   0.18514761  0.16662831  0.86841872
CIS                                     
           1
    -6.953179    0.019438   -0.169665
     1.987530    8.655581   -0.517338
    -0.613463   -1.227423  -10.722871
   Li   Sb   S 
   4   8  14
Direct configuration=     4
   0.35721002  0.33194207  0.12420702
   0.36973478  0.83456374  0.63986237
   0.63026522  0.16543626  0.36013763
   0.64278998  0.66805793  0.87579298
   0.02887242  0.94681756  0.33518242
   0.12304107  0.46340479  0.80920593
   0.76348554  0.12277002  0.04538213
   0.52952882  0.24854241  0.75328329
   0.23651446  0.87722998  0.95461787
   0.97112758  0.05318244  0.66481758
   0.87695893  0.53659521  0.19079407
   0.47047118  0.75145759  0.24671671
   0.81485313  0.83337344  0.13158135
   0.67956456  0.37158552  0.95116903
   0.46307186  0.50961306  0.70008364
   0.27269306  0.04228791  0.52969991
   0.05322058  0.67325440  0.37454128
   0.32043544  0.62841448  0.04883097
   0.44241691  0.07595471  0.16979362
   0.94677942  0.32674560  0.62545872
   0.55758309  0.92404529  0.83020638
   0.95052540  0.27079104  0.22988164
   0.04947460  0.72920896  0.77011836
   0.72730694  0.95771209  0.47030009
   0.53692814  0.49038694  0.29991636
   0.18514687  0.16662656  0.86841865
CIS                                     
           1
    -6.953185    0.019400   -0.169682
     1.987577    8.655419   -0.517361
    -0.613501   -1.227354  -10.722647
   Li   Sb   S 
   4   8  14
Direct configuration=     5
   0.35721009  0.33194222  0.12420724
   0.36974331  0.83456641  0.63985970
   0.63025669  0.16543359  0.36014030
   0.64278991  0.66805778  0.87579276
   0.02885230  0.94681810  0.33518003
   0.12304178  0.46340202  0.80920831
   0.76348875  0.12277623  0.04538473
   0.52953140  0.24855328  0.75329030
   0.23651125  0.87722377  0.95461527
   0.97114770  0.05318190  0.66481997
   0.87695822  0.53659798  0.19079169
   0.47046860  0.75144672  0.24670970
   0.81485417  0.83337590  0.13158144
   0.67956493  0.37158411  0.95116850
   0.46307075  0.50961076  0.70008346
   0.27269338  0.04228612  0.52969694
   0.05321987  0.67325605  0.37454014
   0.32043507  0.62841589  0.04883150
   0.44241405  0.07595592  0.16979328
   0.94678013  0.32674395  0.62545986
   0.55758595  0.92404408  0.83020672
   0.95052206  0.27079051  0.22988148
   0.04947794  0.72920949  0.77011852
   0.72730662  0.95771388  0.47030306
   0.53692925  0.49038924  0.29991654
   0.18514583  0.16662410  0.86841856
CIS                                     
           1
    -6.953054    0.019503   -0.169649
     1.987414    8.655816   -0.517300
    -0.613411   -1.227519  -10.723058
   Li   Sb   S 
   4   8  14
Direct configuration=     6
   0.35720984  0.33194181  0.12420661
   0.36971919  0.83455877  0.63986720
   0.63028081  0.16544123  0.36013280
   0.64279016  0.66805819  0.87579339
   0.02884439  0.94680866  0.33518018
   0.12303975  0.46341022  0.80920139
   0.76347954  0.12275824  0.04537716
   0.52953405  0.24853497  0.75327495
   0.23652046  0.87724176  0.95462284
   0.97115561  0.05319134  0.66481982
   0.87696025  0.53658978  0.19079861
   0.47046595  0.75146503  0.24672505
   0.81485130  0.83336870  0.13158131
   0.67956411  0.37158802  0.95116989
   0.46307412  0.50961742  0.70008335
   0.27269247  0.04229145  0.52970554
   0.05322232  0.67325119  0.37454385
   0.32043589  0.62841198  0.04883011
   0.44242221  0.07595195  0.16979437
   0.94677768  0.32674881  0.62545615
   0.55757779  0.92404805  0.83020563
   0.95053212  0.27079208  0.22988218
   0.04946788  0.72920792  0.77011782
   0.72730753  0.95770855  0.47029446
   0.53692588  0.49038258  0.29991665
   0.18514870  0.16663130  0.86841869
CIS                                     
           1
    -6.952979    0.019562   -0.169630
     1.987320    8.656043   -0.517265
    -0.613360   -1.227614  -10.723294
   Li   Sb   S 
   4   8  14
Direct configuration=     7
   0.35720970  0.33194158  0.12420624
   0.36970538  0.83455440  0.63987150
   0.63029462  0.16544560  0.36012850
   0.64279030  0.66805842  0.87579376
   0.02883986  0.94680326  0.33518027
   0.12303859  0.46341493  0.80919743
   0.76347426  0.12274793  0.04537282
   0.52953558  0.24852448  0.75326615
   0.23652574  0.87725207  0.95462718
   0.97116014  0.05319674  0.66481973
   0.87696141  0.53658507  0.19080257
   0.47046442  0.75147552  0.24673385
   0.81484965  0.83336458  0.13158123
   0.67956364  0.37159025  0.95117068
   0.46307605  0.50962123  0.70008329
   0.27269195  0.04229451  0.52971046
   0.05322372  0.67324841  0.37454598
   0.32043636  0.62840975  0.04882932
   0.44242689  0.07594967  0.16979499
   0.94677628  0.32675159  0.62545402
   0.55757311  0.92405033  0.83020501
   0.95053788  0.27079297  0.22988258
   0.04946212  0.72920703  0.77011742
   0.72730805  0.95770549  0.47028954
   0.53692395  0.49037877  0.29991671
   0.18515035  0.16663542  0.86841877
CIS                                     
           1
    -6.952902    0.019689   -0.169604
     1.987141    8.656307   -0.517181
    -0.613285   -1.227772  -10.723500
   Li   Sb   S 
   4   8  14
Direct configuration=     8
   0.35720948  0.33194118  0.12420550
   0.36967621  0.83454515  0.63988049
   0.63032379  0.16545485  0.36011951
   0.64279052  0.66805882  0.87579450
   0.02881342  0.94681538  0.33517098
   0.12302922  0.46340936  0.80919105
   0.76346267  0.12272512  0.04536297
   0.52952639  0.24852403  0.75326564
   0.23653733  0.87727488  0.95463703
   0.97118658  0.05318462  0.66482902
   0.87697078  0.53659064  0.19080895
   0.47047361  0.75147597  0.24673436
   0.81484654  0.83335724  0.13158171
   0.67956238  0.37159261  0.95117113
   0.46307930  0.50962652  0.70008326
   0.27269105  0.04229998  0.52971919
   0.05322618  0.67324372  0.37454967
   0.32043762  0.62840739  0.04882887
   0.44243485  0.07594565  0.16979603
   0.94677382  0.32675628  0.62545033
   0.55756515  0.92405435  0.83020397
   0.95054729  0.27079408  0.22988273
   0.04945271  0.72920592  0.77011727
   0.72730895  0.95770002  0.47028081
   0.53692070  0.49037348  0.29991674
   0.18515346  0.16664276  0.86841829
CIS                                     
           1
    -6.952927    0.019648   -0.169612
     1.987199    8.656223   -0.517208
    -0.613309   -1.227722  -10.723434
   Li   Sb   S 
   4   8  14
Direct configuration=     9
   0.35720955  0.33194131  0.12420574
   0.36968556  0.83454811  0.63987761
   0.63031444  0.16545189  0.36012239
   0.64279045  0.66805869  0.87579426
   0.02882189  0.94681150  0.33517396
   0.12303222  0.46341114  0.80919309
   0.76346638  0.12273243  0.04536613
   0.52952933  0.24852417  0.75326581
   0.23653362  0.87726757  0.95463387
   0.97117811  0.05318850  0.66482604
   0.87696778  0.53658886  0.19080691
   0.47047067  0.75147583  0.24673419
   0.81484754  0.83335959  0.13158155
   0.67956278  0.37159185  0.95117099
   0.46307826  0.50962483  0.70008327
   0.27269134  0.04229823  0.52971639
   0.05322540  0.67324522  0.37454848
   0.32043722  0.62840815  0.04882901
   0.44243230  0.07594694  0.16979570
   0.94677460  0.32675478  0.62545152
   0.55756770  0.92405306  0.83020430
   0.95054427  0.27079373  0.22988269
   0.04945573  0.72920627  0.77011731
   0.72730866  0.95770177  0.47028361
   0.53692174  0.49037517  0.29991673
   0.18515246  0.16664041  0.86841845
CIS                                     
           1
    -6.952925    0.019731   -0.169575
     1.987096    8.656364   -0.517150
    -0.613235   -1.227829  -10.723538
   Li   Sb   S 
   4   8  14
Direct configuration=    10
   0.35720940  0.33194106  0.12420517
   0.36966277  0.83454088  0.63988460
   0.63033723  0.16545912  0.36011540
   0.64279060  0.66805894  0.87579483
   0.02882495  0.94682530  0.33516748
   0.12302267  0.46340249  0.80918835
   0.76345275  0.12272533  0.04536918
   0.52951864  0.24852994  0.75327036
   0.23654725  0.87727467  0.95463082
   0.97117505  0.05317470  0.66483252
   0.87697733  0.53659751  0.19081165
   0.47048136  0.75147006  0.24672964
   0.81484517  0.83335385  0.13158210
   0.67956166  0.37159310  0.95117112
   0.46308070  0.50962856  0.70008326
   0.27269072  0.04230249  0.52972332
   0.05322744  0.67324179  0.37455132
   0.32043834  0.62840690  0.04882888
   0.44243850  0.07594368  0.16979642
   0.94677256  0.32675821  0.62544868
   0.55756150  0.92405632  0.83020358
   0.95055158  0.27079442  0.22988260
   0.04944842  0.72920558  0.77011740
   0.72730928  0.95769751  0.47027668
   0.53691930  0.49037144  0.29991674
   0.18515483  0.16664615  0.86841790
CIS                                     
           1
    -6.952925    0.019730   -0.169576
     1.987098    8.656363   -0.517151
    -0.613236   -1.227828  -10.723537
   Li   Sb   S 
   4   8  14
Direct configuration=    11
   0.35720940  0.33194106  0.12420518
   0.36966303  0.83454097  0.63988452
   0.63033697  0.16545903  0.36011548
   0.64279060  0.66805894  0.87579482
   0.02882491  0.94682514  0.33516756
   0.12302278  0.46340259  0.80918840
   0.76345290  0.12272541  0.04536914
   0.52951877  0.24852988  0.75327030
   0.23654710  0.87727459  0.95463086
   0.97117509  0.05317486  0.66483244
   0.87697722  0.53659741  0.19081160
   0.47048123  0.75147012  0.24672970
   0.81484519  0.83335391  0.13158210
   0.67956167  0.37159309  0.95117112
   0.46308067  0.50962852  0.70008326
   0.27269073  0.04230244  0.52972324
   0.05322742  0.67324183  0.37455129
   0.32043833  0.62840691  0.04882888
   0.44243843  0.07594372  0.16979641
   0.94677258  0.32675817  0.62544871
   0.55756157  0.92405628  0.83020359
   0.95055149  0.27079441  0.22988260
   0.04944851  0.72920559  0.77011740
   0.72730927  0.95769756  0.47027676
   0.53691933  0.49037148  0.29991674
   0.18515481  0.16664609  0.86841790
CIS                                     
           1
    -6.952962    0.019790   -0.169547
     1.987036    8.656482   -0.517123
    -0.613180   -1.227897  -10.723698
   Li   Sb   S 
   4   8  14
Direct configuration=    12
   0.35720929  0.33194085  0.12420467
   0.36964163  0.83453418  0.63989105
   0.63035837  0.16546582  0.36010895
   0.64279071  0.66805915  0.87579533
   0.02883378  0.94682698  0.33516453
   0.12302094  0.46340580  0.80919263
   0.76344070  0.12273431  0.04537716
   0.52950588  0.24854004  0.75327830
   0.23655930  0.87726569  0.95462284
   0.97116622  0.05317302  0.66483547
   0.87697906  0.53659420  0.19080737
   0.47049412  0.75145996  0.24672170
   0.81484322  0.83334877  0.13158269
   0.67956058  0.37159370  0.95117112
   0.46308264  0.50963151  0.70008331
   0.27269015  0.04230624  0.52972954
   0.05322938  0.67323921  0.37455377
   0.32043942  0.62840630  0.04882888
   0.44244387  0.07594075  0.16979705
   0.94677062  0.32676079  0.62544623
   0.55755613  0.92405925  0.83020295
   0.95055794  0.27079490  0.22988229
   0.04944206  0.72920510  0.77011771
   0.72730985  0.95769376  0.47027046
   0.53691736  0.49036849  0.29991669
   0.18515678  0.16665123  0.86841731
CIS                                     
           1
    -6.952963    0.019791   -0.169546
     1.987034    8.656486   -0.517122
    -0.613178   -1.227900  -10.723704
   Li   Sb   S 
   4   8  14
Direct configuration=    13
   0.35720928  0.33194085  0.12420466
   0.36964092  0.83453396  0.63989127
   0.63035908  0.16546604  0.36010873
   0.64279072  0.66805915  0.87579534
   0.02883407  0.94682704  0.33516443
   0.12302088  0.46340591  0.80919277
   0.76344029  0.12273460  0.04537743
   0.52950545  0.24854038  0.75327857
   0.23655971  0.87726540  0.95462257
   0.97116593  0.05317296  0.66483557
   0.87697912  0.53659409  0.19080723
   0.47049455  0.75145962  0.24672143
   0.81484315  0.83334860  0.13158271
   0.67956055  0.37159372  0.95117112
   0.46308271  0.50963161  0.70008331
   0.27269014  0.04230637  0.52972975
   0.05322945  0.67323912  0.37455385
   0.32043945  0.62840628  0.04882888
   0.44244405  0.07594065  0.16979707
   0.94677055  0.32676088  0.62544615
   0.55755595  0.92405935  0.83020293
   0.95055816  0.27079491  0.22988228
   0.04944184  0.72920509  0.77011772
   0.72730986  0.95769363  0.47027025
   0.53691729  0.49036839  0.29991669
   0.18515685  0.16665140  0.86841729
CIS                                     
           1
    -6.953065    0.019824   -0.169494
     1.987026    8.656553   -0.517101
    -0.613098   -1.227963  -10.723867
   Li   Sb   S 
   4   8  14
Direct configuration=    14
   0.35720918  0.33194063  0.12420413
   0.36961811  0.83452676  0.63989819
   0.63038189  0.16547324  0.36010181
   0.64279082  0.66805937  0.87579587
   0.02884754  0.94682193  0.33516311
   0.12301524  0.46340347  0.80919499
   0.76344323  0.12274185  0.04537676
   0.52950545  0.24854889  0.75328970
   0.23655677  0.87725815  0.95462324
   0.97115246  0.05317807  0.66483689
   0.87698476  0.53659653  0.19080501
   0.47049455  0.75145111  0.24671030
   0.81484129  0.83334337  0.13158337
   0.67955941  0.37159406  0.95117110
   0.46308443  0.50963444  0.70008346
   0.27268935  0.04231018  0.52973629
   0.05323146  0.67323679  0.37455622
   0.32044059  0.62840594  0.04882890
   0.44245123  0.07593812  0.16979778
   0.94676854  0.32676321  0.62544378
   0.55754877  0.92406188  0.83020222
   0.95056469  0.27079532  0.22988182
   0.04943531  0.72920468  0.77011818
   0.72731065  0.95768982  0.47026371
   0.53691557  0.49036556  0.29991654
   0.18515871  0.16665663  0.86841663
CIS                                     
           1
    -6.953128    0.019845   -0.169462
     1.987021    8.656595   -0.517088
    -0.613048   -1.228002  -10.723969
   Li   Sb   S 
   4   8  14
Direct configuration=    15
   0.35720912  0.33194049  0.12420381
   0.36960398  0.83452230  0.63990248
   0.63039602  0.16547770  0.36009752
   0.64279088  0.66805951  0.87579619
   0.02885588  0.94681877  0.33516230
   0.12301174  0.46340196  0.80919636
   0.76344505  0.12274634  0.04537635
   0.52950544  0.24855416  0.75329659
   0.23655495  0.87725366  0.95462365
   0.97114412  0.05318123  0.66483770
   0.87698826  0.53659804  0.19080364
   0.47049456  0.75144584  0.24670341
   0.81484014  0.83334012  0.13158378
   0.67955870  0.37159427  0.95117110
   0.46308550  0.50963619  0.70008355
   0.27268887  0.04231255  0.52974034
   0.05323272  0.67323534  0.37455768
   0.32044130  0.62840573  0.04882890
   0.44245568  0.07593656  0.16979822
   0.94676728  0.32676466  0.62544232
   0.55754432  0.92406344  0.83020178
   0.95056874  0.27079557  0.22988154
   0.04943126  0.72920443  0.77011846
   0.72731113  0.95768745  0.47025966
   0.53691450  0.49036381  0.29991645
   0.18515986  0.16665988  0.86841622
CIS                                     
           1
    -6.953100    0.019835   -0.169476
     1.987023    8.656576   -0.517094
    -0.613071   -1.227984  -10.723922
   Li   Sb   S 
   4   8  14
Direct configuration=    16
   0.35720915  0.33194055  0.12420396
   0.36961042  0.83452433  0.63990052
   0.63038958  0.16547567  0.36009948
   0.64279085  0.66805945  0.87579604
   0.02885208  0.94682021  0.33516267
   0.12301334  0.46340265  0.80919573
   0.76344422  0.12274429  0.04537653
   0.52950544  0.24855175  0.75329345
   0.23655578  0.87725571  0.95462347
   0.97114792  0.05317979  0.66483733
   0.87698666  0.53659735  0.19080427
   0.47049456  0.75144825  0.24670655
   0.81484067  0.83334160  0.13158359
   0.67955902  0.37159418  0.95117110
   0.46308501  0.50963539  0.70008351
   0.27268909  0.04231147  0.52973850
   0.05323215  0.67323600  0.37455701
   0.32044098  0.62840582  0.04882890
   0.44245365  0.07593727  0.16979802
   0.94676785  0.32676400  0.62544299
   0.55754635  0.92406273  0.83020198
   0.95056689  0.27079546  0.22988167
   0.04943311  0.72920454  0.77011833
   0.72731091  0.95768853  0.47026150
   0.53691499  0.49036461  0.29991649
   0.18515933  0.16665840  0.86841641
CIS                                     
           1
    -6.953141    0.019844   -0.169449
     1.987024    8.656583   -0.517025
    -0.613028   -1.228087  -10.724025
   Li   Sb   S 
   4   8  14
Direct configuration=    17
   0.35720908  0.33194033  0.12420355
   0.36959113  0.83451831  0.63990634
   0.63040887  0.16548169  0.36009366
   0.64279092  0.66805967  0.87579645
   0.02884396  0.94681355  0.33516691
   0.12300534  0.46339569  0.80919568
   0.76344247  0.12274366  0.04537425
   0.52951109  0.24855070  0.75330302
   0.23655753  0.87725634  0.95462575
   0.97115604  0.05318645  0.66483309
   0.87699466  0.53660431  0.19080432
   0.47048891  0.75144930  0.24669698
   0.81483928  0.83333729  0.13158416
   0.67955815  0.37159433  0.95117122
   0.46308598  0.50963749  0.70008387
   0.27268798  0.04231449  0.52974404
   0.05323381  0.67323431  0.37455873
   0.32044185  0.62840567  0.04882878
   0.44246107  0.07593568  0.16979858
   0.94676619  0.32676569  0.62544127
   0.55753893  0.92406432  0.83020142
   0.95057222  0.27079577  0.22988109
   0.04942778  0.72920423  0.77011891
   0.72731202  0.95768551  0.47025596
   0.53691402  0.49036251  0.29991613
   0.18516072  0.16666271  0.86841584
