  16  16   1   0
  0.1978881E+02  0.6204655E-09  0.6495613E-09  0.7856009E-09  0.1000000E-15
  1.000000000000000E-004
  CAR 
 CIS                                     
      6.68684892    -13.03228670  301      0.51024050      1.00000000
    -13.032  0.0000E+00  0.0000E+00
    -12.967  0.0000E+00  0.0000E+00
    -12.901  0.0000E+00  0.0000E+00
    -12.835  0.0000E+00  0.0000E+00
    -12.769  0.0000E+00  0.0000E+00
    -12.704  0.0000E+00  0.0000E+00
    -12.638  0.0000E+00  0.0000E+00
    -12.572  0.0000E+00  0.0000E+00
    -12.506  0.0000E+00  0.0000E+00
    -12.441  0.0000E+00  0.0000E+00
    -12.375  0.7827E-13  0.5145E-14
    -12.309  0.5417E-08  0.3561E-09
    -12.244  0.1337E-04  0.8790E-06
    -12.178  0.1353E-02  0.8984E-04
    -12.112  0.9514E-02  0.7152E-03
    -12.046  0.2299E-01  0.2226E-02
    -11.981  0.5589E-01  0.5900E-02
    -11.915  0.7997E-01  0.1116E-01
    -11.849  0.1120E+00  0.1852E-01
    -11.783  0.1352E+00  0.2740E-01
    -11.718  0.9755E-01  0.3382E-01
    -11.652  0.5586E-01  0.3749E-01
    -11.586  0.7350E-01  0.4232E-01
    -11.520  0.5096E-01  0.4567E-01
    -11.455  0.9934E-01  0.5220E-01
    -11.389  0.1176E+00  0.5993E-01
    -11.323  0.1309E+00  0.6853E-01
    -11.258  0.9150E-01  0.7455E-01
    -11.192  0.5688E-01  0.7828E-01
    -11.126  0.1840E+00  0.9038E-01
    -11.060  0.5462E+00  0.1263E+00
    -10.995  0.4169E+00  0.1537E+00
    -10.929  0.1119E+00  0.1610E+00
    -10.863  0.8621E-02  0.1616E+00
    -10.797  0.1013E-03  0.1616E+00
    -10.732  0.8183E-07  0.1616E+00
    -10.666  0.2844E-11  0.1616E+00
    -10.600  0.3791E-17  0.1616E+00
    -10.535  0.0000E+00  0.1616E+00
    -10.469  0.0000E+00  0.1616E+00
    -10.403  0.0000E+00  0.1616E+00
    -10.337  0.0000E+00  0.1616E+00
    -10.272  0.0000E+00  0.1616E+00
    -10.206  0.0000E+00  0.1616E+00
    -10.140  0.0000E+00  0.1616E+00
    -10.074  0.0000E+00  0.1616E+00
    -10.009  0.0000E+00  0.1616E+00
     -9.943  0.0000E+00  0.1616E+00
     -9.877  0.0000E+00  0.1616E+00
     -9.811  0.0000E+00  0.1616E+00
     -9.746  0.0000E+00  0.1616E+00
     -9.680  0.0000E+00  0.1616E+00
     -9.614  0.0000E+00  0.1616E+00
     -9.549  0.0000E+00  0.1616E+00
     -9.483  0.0000E+00  0.1616E+00
     -9.417  0.0000E+00  0.1616E+00
     -9.351  0.0000E+00  0.1616E+00
     -9.286  0.0000E+00  0.1616E+00
     -9.220  0.0000E+00  0.1616E+00
     -9.154  0.0000E+00  0.1616E+00
     -9.088  0.0000E+00  0.1616E+00
     -9.023  0.0000E+00  0.1616E+00
     -8.957  0.0000E+00  0.1616E+00
     -8.891  0.0000E+00  0.1616E+00
     -8.826  0.0000E+00  0.1616E+00
     -8.760  0.0000E+00  0.1616E+00
     -8.694  0.0000E+00  0.1616E+00
     -8.628  0.0000E+00  0.1616E+00
     -8.563  0.0000E+00  0.1616E+00
     -8.497  0.0000E+00  0.1616E+00
     -8.431  0.0000E+00  0.1616E+00
     -8.365  0.0000E+00  0.1616E+00
     -8.300  0.0000E+00  0.1616E+00
     -8.234  0.0000E+00  0.1616E+00
     -8.168  0.0000E+00  0.1616E+00
     -8.103  0.0000E+00  0.1616E+00
     -8.037  0.0000E+00  0.1616E+00
     -7.971  0.0000E+00  0.1616E+00
     -7.905  0.0000E+00  0.1616E+00
     -7.840  0.0000E+00  0.1616E+00
     -7.774  0.0000E+00  0.1616E+00
     -7.708  0.0000E+00  0.1616E+00
     -7.642  0.0000E+00  0.1616E+00
     -7.577  0.0000E+00  0.1616E+00
     -7.511  0.0000E+00  0.1616E+00
     -7.445  0.0000E+00  0.1616E+00
     -7.379  0.0000E+00  0.1616E+00
     -7.314  0.0000E+00  0.1616E+00
     -7.248  0.0000E+00  0.1616E+00
     -7.182  0.0000E+00  0.1616E+00
     -7.117  0.0000E+00  0.1616E+00
     -7.051  0.0000E+00  0.1616E+00
     -6.985  0.0000E+00  0.1616E+00
     -6.919  0.0000E+00  0.1616E+00
     -6.854  0.0000E+00  0.1616E+00
     -6.788  0.0000E+00  0.1616E+00
     -6.722  0.0000E+00  0.1616E+00
     -6.656  0.0000E+00  0.1616E+00
     -6.591  0.0000E+00  0.1616E+00
     -6.525  0.0000E+00  0.1616E+00
     -6.459  0.0000E+00  0.1616E+00
     -6.394  0.0000E+00  0.1616E+00
     -6.328  0.1693E-14  0.1616E+00
     -6.262  0.3095E-09  0.1616E+00
     -6.196  0.1976E-05  0.1616E+00
     -6.131  0.4863E-03  0.1616E+00
     -6.065  0.5842E-02  0.1620E+00
     -5.999  0.4995E-02  0.1624E+00
     -5.933  0.7006E-02  0.1628E+00
     -5.868  0.1748E-01  0.1640E+00
     -5.802  0.2904E-01  0.1659E+00
     -5.736  0.4209E-01  0.1686E+00
     -5.670  0.5450E-01  0.1722E+00
     -5.605  0.1312E-01  0.1731E+00
     -5.539  0.3643E-01  0.1755E+00
     -5.473  0.1101E+00  0.1827E+00
     -5.408  0.9310E-01  0.1888E+00
     -5.342  0.9624E-02  0.1895E+00
     -5.276  0.4780E-01  0.1926E+00
     -5.210  0.7248E-01  0.1974E+00
     -5.145  0.1336E-01  0.1983E+00
     -5.079  0.1413E-02  0.1984E+00
     -5.013  0.2220E-01  0.1998E+00
     -4.947  0.5432E-01  0.2034E+00
     -4.882  0.2388E-01  0.2050E+00
     -4.816  0.5680E-02  0.2053E+00
     -4.750  0.6603E-02  0.2058E+00
     -4.685  0.1844E-01  0.2070E+00
     -4.619  0.6813E-01  0.2114E+00
     -4.553  0.3003E-01  0.2134E+00
     -4.487  0.1637E-01  0.2145E+00
     -4.422  0.4211E-01  0.2173E+00
     -4.356  0.1124E+00  0.2247E+00
     -4.290  0.5360E-01  0.2282E+00
     -4.224  0.4038E-01  0.2308E+00
     -4.159  0.5684E-02  0.2312E+00
     -4.093  0.8635E-02  0.2318E+00
     -4.027  0.3714E-01  0.2342E+00
     -3.961  0.5098E-01  0.2376E+00
     -3.896  0.2784E-01  0.2394E+00
     -3.830  0.1117E-01  0.2401E+00
     -3.764  0.9295E-03  0.2402E+00
     -3.699  0.6611E-02  0.2406E+00
     -3.633  0.1388E-01  0.2415E+00
     -3.567  0.2068E-02  0.2417E+00
     -3.501  0.1618E-04  0.2417E+00
     -3.436  0.9153E-05  0.2417E+00
     -3.370  0.1102E-02  0.2417E+00
     -3.304  0.7012E-02  0.2422E+00
     -3.238  0.3173E-02  0.2424E+00
     -3.173  0.8752E-04  0.2424E+00
     -3.107  0.1054E-06  0.2424E+00
     -3.041  0.4661E-11  0.2424E+00
     -2.976  0.6644E-10  0.2424E+00
     -2.910  0.7286E-06  0.2424E+00
     -2.844  0.3622E-03  0.2424E+00
     -2.778  0.1402E-01  0.2434E+00
     -2.713  0.6934E-01  0.2479E+00
     -2.647  0.6087E-01  0.2519E+00
     -2.581  0.3615E-01  0.2543E+00
     -2.515  0.9850E-01  0.2608E+00
     -2.450  0.1437E+00  0.2702E+00
     -2.384  0.1325E+00  0.2789E+00
     -2.318  0.1893E+00  0.2914E+00
     -2.252  0.1313E+00  0.3000E+00
     -2.187  0.1302E+00  0.3086E+00
     -2.121  0.1060E+00  0.3155E+00
     -2.055  0.1140E+00  0.3230E+00
     -1.990  0.3206E-01  0.3251E+00
     -1.924  0.2685E-01  0.3269E+00
     -1.858  0.9499E-01  0.3331E+00
     -1.792  0.1801E+00  0.3450E+00
     -1.727  0.1820E+00  0.3569E+00
     -1.661  0.1261E+00  0.3652E+00
     -1.595  0.5239E-01  0.3687E+00
     -1.529  0.1251E+00  0.3769E+00
     -1.464  0.1452E+00  0.3864E+00
     -1.398  0.6799E-01  0.3909E+00
     -1.332  0.9437E-01  0.3971E+00
     -1.267  0.1611E+00  0.4077E+00
     -1.201  0.1394E+00  0.4169E+00
     -1.135  0.1156E+00  0.4245E+00
     -1.069  0.1329E+00  0.4332E+00
     -1.004  0.8037E-01  0.4385E+00
     -0.938  0.1596E+00  0.4490E+00
     -0.872  0.2221E+00  0.4636E+00
     -0.806  0.1977E+00  0.4766E+00
     -0.741  0.9760E-01  0.4830E+00
     -0.675  0.1510E+00  0.4929E+00
     -0.609  0.1696E+00  0.5040E+00
     -0.544  0.1585E+00  0.5145E+00
     -0.478  0.1463E+00  0.5241E+00
     -0.412  0.1182E+00  0.5319E+00
     -0.346  0.1624E+00  0.5425E+00
     -0.281  0.2152E+00  0.5567E+00
     -0.215  0.1280E+00  0.5651E+00
     -0.149  0.1626E+00  0.5758E+00
     -0.083  0.2332E+00  0.5911E+00
     -0.018  0.3043E+00  0.6111E+00
      0.048  0.3083E+00  0.6314E+00
      0.114  0.1677E+00  0.6424E+00
      0.180  0.3997E-01  0.6450E+00
      0.245  0.1662E-01  0.6461E+00
      0.311  0.5136E-02  0.6464E+00
      0.377  0.2339E-03  0.6465E+00
      0.442  0.5409E-06  0.6465E+00
      0.508  0.4729E-10  0.6465E+00
      0.574  0.1428E-15  0.6465E+00
      0.640  0.0000E+00  0.6465E+00
      0.705  0.0000E+00  0.6465E+00
      0.771  0.0000E+00  0.6465E+00
      0.837  0.0000E+00  0.6465E+00
      0.903  0.0000E+00  0.6465E+00
      0.968  0.0000E+00  0.6465E+00
      1.034  0.0000E+00  0.6465E+00
      1.100  0.0000E+00  0.6465E+00
      1.165  0.0000E+00  0.6465E+00
      1.231  0.0000E+00  0.6465E+00
      1.297  0.0000E+00  0.6465E+00
      1.363  0.0000E+00  0.6465E+00
      1.428  0.0000E+00  0.6465E+00
      1.494  0.0000E+00  0.6465E+00
      1.560  0.0000E+00  0.6465E+00
      1.626  0.0000E+00  0.6465E+00
      1.691  0.0000E+00  0.6465E+00
      1.757  0.1340E-15  0.6465E+00
      1.823  0.4491E-10  0.6465E+00
      1.889  0.5217E-06  0.6465E+00
      1.954  0.2278E-03  0.6465E+00
      2.020  0.4591E-02  0.6468E+00
      2.086  0.6019E-02  0.6472E+00
      2.151  0.5426E-03  0.6472E+00
      2.217  0.2411E-05  0.6472E+00
      2.283  0.4145E-09  0.6472E+00
      2.349  0.2210E-13  0.6472E+00
      2.414  0.2316E-08  0.6472E+00
      2.480  0.9638E-05  0.6472E+00
      2.546  0.1580E-02  0.6473E+00
      2.612  0.1400E-01  0.6482E+00
      2.677  0.2050E-01  0.6496E+00
      2.743  0.2393E-01  0.6512E+00
      2.809  0.1111E-01  0.6519E+00
      2.874  0.3218E-01  0.6540E+00
      2.940  0.1027E+00  0.6608E+00
      3.006  0.2171E+00  0.6750E+00
      3.072  0.1204E+00  0.6829E+00
      3.137  0.7040E-01  0.6876E+00
      3.203  0.5069E-01  0.6909E+00
      3.269  0.1508E-01  0.6919E+00
      3.335  0.1519E-01  0.6929E+00
      3.400  0.7946E-01  0.6981E+00
      3.466  0.8494E-01  0.7037E+00
      3.532  0.2801E-01  0.7055E+00
      3.598  0.3105E-01  0.7076E+00
      3.663  0.1174E+00  0.7153E+00
      3.729  0.1038E+00  0.7221E+00
      3.795  0.3482E-01  0.7244E+00
      3.860  0.1853E-01  0.7256E+00
      3.926  0.2387E-02  0.7258E+00
      3.992  0.2391E-02  0.7259E+00
      4.058  0.1417E-01  0.7269E+00
      4.123  0.6138E-02  0.7273E+00
      4.189  0.4931E-02  0.7276E+00
      4.255  0.1464E-01  0.7286E+00
      4.321  0.4110E-02  0.7288E+00
      4.386  0.1229E-01  0.7296E+00
      4.452  0.4040E-01  0.7323E+00
      4.518  0.8687E-01  0.7380E+00
      4.583  0.6516E-01  0.7423E+00
      4.649  0.1123E+00  0.7497E+00
      4.715  0.1269E+00  0.7580E+00
      4.781  0.1054E+00  0.7649E+00
      4.846  0.1185E+00  0.7727E+00
      4.912  0.1190E+00  0.7805E+00
      4.978  0.6185E-01  0.7846E+00
      5.044  0.8194E-01  0.7900E+00
      5.109  0.1151E+00  0.7976E+00
      5.175  0.1245E+00  0.8057E+00
      5.241  0.6057E-01  0.8097E+00
      5.307  0.1264E+00  0.8180E+00
      5.372  0.1416E+00  0.8273E+00
      5.438  0.9742E-01  0.8337E+00
      5.504  0.4308E-01  0.8366E+00
      5.569  0.6639E-01  0.8409E+00
      5.635  0.4336E-01  0.8438E+00
      5.701  0.2374E-01  0.8453E+00
      5.767  0.2827E-01  0.8472E+00
      5.832  0.1770E-01  0.8484E+00
      5.898  0.1782E-02  0.8485E+00
      5.964  0.1434E-04  0.8485E+00
      6.030  0.5499E-08  0.8485E+00
      6.095  0.7851E-13  0.8485E+00
      6.161  0.0000E+00  0.8485E+00
      6.227  0.0000E+00  0.8485E+00
      6.292  0.0000E+00  0.8485E+00
      6.358  0.0000E+00  0.8485E+00
      6.424  0.0000E+00  0.8485E+00
      6.490  0.0000E+00  0.8485E+00
      6.555  0.0000E+00  0.8485E+00
      6.621  0.0000E+00  0.8485E+00
      6.687  0.0000E+00  0.8485E+00
      6.68684892    -13.03228670  301      0.51024050      1.00000000
    -13.032  0.0000E+00  0.0000E+00  0.0000E+00
    -12.967  0.0000E+00  0.0000E+00  0.0000E+00
    -12.901  0.0000E+00  0.0000E+00  0.0000E+00
    -12.835  0.0000E+00  0.0000E+00  0.0000E+00
    -12.769  0.0000E+00  0.0000E+00  0.0000E+00
    -12.704  0.0000E+00  0.0000E+00  0.0000E+00
    -12.638  0.0000E+00  0.0000E+00  0.0000E+00
    -12.572  0.0000E+00  0.0000E+00  0.0000E+00
    -12.506  0.0000E+00  0.0000E+00  0.0000E+00
    -12.441  0.0000E+00  0.0000E+00  0.0000E+00
    -12.375  0.3178E-14  0.1717E-16  0.0000E+00
    -12.309  0.2200E-09  0.1188E-11  0.0000E+00
    -12.244  0.5427E-06  0.2950E-08  0.0000E+00
    -12.178  0.5479E-04  0.3490E-06  0.0000E+00
    -12.112  0.3656E-03  0.8397E-05  0.0000E+00
    -12.046  0.7354E-03  0.6233E-04  0.0000E+00
    -11.981  0.1491E-02  0.2439E-03  0.0000E+00
    -11.915  0.1732E-02  0.4907E-03  0.0000E+00
    -11.849  0.1489E-02  0.8725E-03  0.0000E+00
    -11.783  0.1155E-02  0.1191E-02  0.0000E+00
    -11.718  0.3838E-03  0.7942E-03  0.0000E+00
    -11.652  0.1667E-03  0.4591E-03  0.0000E+00
    -11.586  0.2328E-03  0.6710E-03  0.0000E+00
    -11.520  0.2064E-03  0.5238E-03  0.0000E+00
    -11.455  0.6710E-03  0.1143E-02  0.0000E+00
    -11.389  0.1647E-02  0.9824E-03  0.0000E+00
    -11.323  0.9605E-03  0.9599E-03  0.0000E+00
    -11.258  0.6833E-03  0.6213E-03  0.0000E+00
    -11.192  0.7230E-03  0.4560E-03  0.0000E+00
    -11.126  0.3749E-02  0.1641E-02  0.0000E+00
    -11.060  0.9632E-02  0.5038E-02  0.0000E+00
    -10.995  0.4415E-02  0.4347E-02  0.0000E+00
    -10.929  0.5933E-03  0.1225E-02  0.0000E+00
    -10.863  0.2106E-04  0.9375E-04  0.0000E+00
    -10.797  0.9483E-07  0.1087E-05  0.0000E+00
    -10.732  0.3273E-10  0.8657E-09  0.0000E+00
    -10.666  0.6607E-15  0.2984E-13  0.0000E+00
    -10.600  0.5602E-21  0.3956E-19  0.0000E+00
    -10.535  0.0000E+00  0.0000E+00  0.0000E+00
    -10.469  0.0000E+00  0.0000E+00  0.0000E+00
    -10.403  0.0000E+00  0.0000E+00  0.0000E+00
    -10.337  0.0000E+00  0.0000E+00  0.0000E+00
    -10.272  0.0000E+00  0.0000E+00  0.0000E+00
    -10.206  0.0000E+00  0.0000E+00  0.0000E+00
    -10.140  0.0000E+00  0.0000E+00  0.0000E+00
    -10.074  0.0000E+00  0.0000E+00  0.0000E+00
    -10.009  0.0000E+00  0.0000E+00  0.0000E+00
     -9.943  0.0000E+00  0.0000E+00  0.0000E+00
     -9.877  0.0000E+00  0.0000E+00  0.0000E+00
     -9.811  0.0000E+00  0.0000E+00  0.0000E+00
     -9.746  0.0000E+00  0.0000E+00  0.0000E+00
     -9.680  0.0000E+00  0.0000E+00  0.0000E+00
     -9.614  0.0000E+00  0.0000E+00  0.0000E+00
     -9.549  0.0000E+00  0.0000E+00  0.0000E+00
     -9.483  0.0000E+00  0.0000E+00  0.0000E+00
     -9.417  0.0000E+00  0.0000E+00  0.0000E+00
     -9.351  0.0000E+00  0.0000E+00  0.0000E+00
     -9.286  0.0000E+00  0.0000E+00  0.0000E+00
     -9.220  0.0000E+00  0.0000E+00  0.0000E+00
     -9.154  0.0000E+00  0.0000E+00  0.0000E+00
     -9.088  0.0000E+00  0.0000E+00  0.0000E+00
     -9.023  0.0000E+00  0.0000E+00  0.0000E+00
     -8.957  0.0000E+00  0.0000E+00  0.0000E+00
     -8.891  0.0000E+00  0.0000E+00  0.0000E+00
     -8.826  0.0000E+00  0.0000E+00  0.0000E+00
     -8.760  0.0000E+00  0.0000E+00  0.0000E+00
     -8.694  0.0000E+00  0.0000E+00  0.0000E+00
     -8.628  0.0000E+00  0.0000E+00  0.0000E+00
     -8.563  0.0000E+00  0.0000E+00  0.0000E+00
     -8.497  0.0000E+00  0.0000E+00  0.0000E+00
     -8.431  0.0000E+00  0.0000E+00  0.0000E+00
     -8.365  0.0000E+00  0.0000E+00  0.0000E+00
     -8.300  0.0000E+00  0.0000E+00  0.0000E+00
     -8.234  0.0000E+00  0.0000E+00  0.0000E+00
     -8.168  0.0000E+00  0.0000E+00  0.0000E+00
     -8.103  0.0000E+00  0.0000E+00  0.0000E+00
     -8.037  0.0000E+00  0.0000E+00  0.0000E+00
     -7.971  0.0000E+00  0.0000E+00  0.0000E+00
     -7.905  0.0000E+00  0.0000E+00  0.0000E+00
     -7.840  0.0000E+00  0.0000E+00  0.0000E+00
     -7.774  0.0000E+00  0.0000E+00  0.0000E+00
     -7.708  0.0000E+00  0.0000E+00  0.0000E+00
     -7.642  0.0000E+00  0.0000E+00  0.0000E+00
     -7.577  0.0000E+00  0.0000E+00  0.0000E+00
     -7.511  0.0000E+00  0.0000E+00  0.0000E+00
     -7.445  0.0000E+00  0.0000E+00  0.0000E+00
     -7.379  0.0000E+00  0.0000E+00  0.0000E+00
     -7.314  0.0000E+00  0.0000E+00  0.0000E+00
     -7.248  0.0000E+00  0.0000E+00  0.0000E+00
     -7.182  0.0000E+00  0.0000E+00  0.0000E+00
     -7.117  0.0000E+00  0.0000E+00  0.0000E+00
     -7.051  0.0000E+00  0.0000E+00  0.0000E+00
     -6.985  0.0000E+00  0.0000E+00  0.0000E+00
     -6.919  0.0000E+00  0.0000E+00  0.0000E+00
     -6.854  0.0000E+00  0.0000E+00  0.0000E+00
     -6.788  0.0000E+00  0.0000E+00  0.0000E+00
     -6.722  0.0000E+00  0.0000E+00  0.0000E+00
     -6.656  0.0000E+00  0.0000E+00  0.0000E+00
     -6.591  0.0000E+00  0.0000E+00  0.0000E+00
     -6.525  0.0000E+00  0.0000E+00  0.0000E+00
     -6.459  0.0000E+00  0.0000E+00  0.0000E+00
     -6.394  0.0000E+00  0.0000E+00  0.0000E+00
     -6.328  0.2142E-17  0.2534E-17  0.0000E+00
     -6.262  0.3915E-12  0.4631E-12  0.0000E+00
     -6.196  0.2500E-08  0.2957E-08  0.0000E+00
     -6.131  0.6151E-06  0.7275E-06  0.0000E+00
     -6.065  0.7389E-05  0.8741E-05  0.0000E+00
     -5.999  0.6091E-05  0.7767E-05  0.0000E+00
     -5.933  0.1265E-05  0.2047E-04  0.0000E+00
     -5.868  0.1132E-04  0.6388E-04  0.0000E+00
     -5.802  0.9516E-04  0.1635E-03  0.0000E+00
     -5.736  0.1328E-03  0.2051E-03  0.0000E+00
     -5.670  0.1025E-03  0.1910E-03  0.0000E+00
     -5.605  0.3693E-04  0.7147E-04  0.0000E+00
     -5.539  0.2118E-03  0.4202E-03  0.0000E+00
     -5.473  0.6884E-03  0.9914E-03  0.0000E+00
     -5.408  0.7573E-03  0.8407E-03  0.0000E+00
     -5.342  0.8380E-04  0.1054E-03  0.0000E+00
     -5.276  0.2812E-03  0.6655E-03  0.0000E+00
     -5.210  0.3775E-03  0.9571E-03  0.0000E+00
     -5.145  0.4324E-04  0.1588E-03  0.0000E+00
     -5.079  0.8210E-05  0.2409E-04  0.0000E+00
     -5.013  0.2429E-03  0.3193E-03  0.0000E+00
     -4.947  0.8209E-03  0.5468E-03  0.0000E+00
     -4.882  0.4279E-03  0.1727E-03  0.0000E+00
     -4.816  0.2460E-04  0.4616E-04  0.0000E+00
     -4.750  0.8178E-05  0.6072E-04  0.0000E+00
     -4.685  0.1246E-03  0.2431E-03  0.0000E+00
     -4.619  0.3720E-03  0.6846E-03  0.0000E+00
     -4.553  0.2220E-03  0.2635E-03  0.0000E+00
     -4.487  0.4465E-03  0.1659E-03  0.0000E+00
     -4.422  0.1739E-02  0.9136E-03  0.0000E+00
     -4.356  0.4869E-02  0.2276E-02  0.0000E+00
     -4.290  0.1506E-02  0.7749E-03  0.0000E+00
     -4.224  0.4671E-03  0.4756E-03  0.0000E+00
     -4.159  0.9844E-04  0.7806E-04  0.0000E+00
     -4.093  0.5930E-03  0.8925E-04  0.0000E+00
     -4.027  0.2800E-02  0.4365E-03  0.0000E+00
     -3.961  0.4926E-02  0.8458E-03  0.0000E+00
     -3.896  0.3371E-02  0.3690E-03  0.0000E+00
     -3.830  0.1724E-02  0.6477E-04  0.0000E+00
     -3.764  0.1429E-03  0.5991E-05  0.0000E+00
     -3.699  0.9510E-03  0.7103E-04  0.0000E+00
     -3.633  0.1997E-02  0.1492E-03  0.0000E+00
     -3.567  0.2975E-03  0.2223E-04  0.0000E+00
     -3.501  0.2327E-05  0.1738E-06  0.0000E+00
     -3.436  0.2711E-05  0.1290E-07  0.0000E+00
     -3.370  0.3265E-03  0.1547E-05  0.0000E+00
     -3.304  0.2077E-02  0.9845E-05  0.0000E+00
     -3.238  0.9401E-03  0.4455E-05  0.0000E+00
     -3.173  0.2593E-04  0.1229E-06  0.0000E+00
     -3.107  0.3122E-07  0.1480E-09  0.0000E+00
     -3.041  0.1381E-11  0.6556E-14  0.0000E+00
     -2.976  0.1744E-11  0.3613E-11  0.0000E+00
     -2.910  0.1834E-07  0.3996E-07  0.0000E+00
     -2.844  0.7862E-05  0.2043E-04  0.0000E+00
     -2.778  0.2478E-03  0.8238E-03  0.0000E+00
     -2.713  0.1393E-02  0.4076E-02  0.0000E+00
     -2.647  0.1310E-02  0.3485E-02  0.0000E+00
     -2.581  0.1262E-02  0.1582E-02  0.0000E+00
     -2.515  0.3853E-02  0.4242E-02  0.0000E+00
     -2.450  0.5668E-02  0.5035E-02  0.0000E+00
     -2.384  0.9815E-02  0.4540E-02  0.0000E+00
     -2.318  0.2326E-01  0.7371E-02  0.0000E+00
     -2.252  0.1268E-01  0.4508E-02  0.0000E+00
     -2.187  0.1235E-01  0.3205E-02  0.0000E+00
     -2.121  0.7163E-02  0.2586E-02  0.0000E+00
     -2.055  0.7917E-02  0.4822E-02  0.0000E+00
     -1.990  0.4084E-02  0.1378E-02  0.0000E+00
     -1.924  0.4909E-02  0.2358E-02  0.0000E+00
     -1.858  0.1594E-01  0.8157E-02  0.0000E+00
     -1.792  0.3248E-01  0.1261E-01  0.0000E+00
     -1.727  0.3475E-01  0.1254E-01  0.0000E+00
     -1.661  0.2581E-01  0.7518E-02  0.0000E+00
     -1.595  0.7984E-02  0.2668E-02  0.0000E+00
     -1.529  0.3301E-01  0.4948E-02  0.0000E+00
     -1.464  0.2968E-01  0.7154E-02  0.0000E+00
     -1.398  0.1050E-01  0.4494E-02  0.0000E+00
     -1.332  0.1388E-01  0.7582E-02  0.0000E+00
     -1.267  0.2687E-01  0.1082E-01  0.0000E+00
     -1.201  0.3384E-01  0.6711E-02  0.0000E+00
     -1.135  0.2527E-01  0.5986E-02  0.0000E+00
     -1.069  0.2988E-01  0.7879E-02  0.0000E+00
     -1.004  0.2313E-01  0.6740E-02  0.0000E+00
     -0.938  0.5807E-01  0.1264E-01  0.0000E+00
     -0.872  0.5818E-01  0.1518E-01  0.0000E+00
     -0.806  0.4452E-01  0.1607E-01  0.0000E+00
     -0.741  0.1340E-01  0.9769E-02  0.0000E+00
     -0.675  0.7225E-02  0.1767E-01  0.0000E+00
     -0.609  0.1738E-01  0.2144E-01  0.0000E+00
     -0.544  0.2104E-01  0.2245E-01  0.0000E+00
     -0.478  0.1930E-01  0.1821E-01  0.0000E+00
     -0.412  0.8151E-02  0.1412E-01  0.0000E+00
     -0.346  0.1028E-01  0.2103E-01  0.0000E+00
     -0.281  0.2328E-01  0.2417E-01  0.0000E+00
     -0.215  0.1924E-01  0.1370E-01  0.0000E+00
     -0.149  0.1535E-01  0.2401E-01  0.0000E+00
     -0.083  0.1671E-01  0.4530E-01  0.0000E+00
     -0.018  0.1199E-01  0.5353E-01  0.0000E+00
      0.048  0.6292E-02  0.3756E-01  0.0000E+00
      0.114  0.2952E-02  0.1696E-01  0.0000E+00
      0.180  0.4059E-03  0.3194E-02  0.0000E+00
      0.245  0.1934E-03  0.1028E-02  0.0000E+00
      0.311  0.1068E-03  0.2246E-03  0.0000E+00
      0.377  0.5233E-05  0.9466E-05  0.0000E+00
      0.442  0.1215E-07  0.2179E-07  0.0000E+00
      0.508  0.1062E-11  0.1905E-11  0.0000E+00
      0.574  0.3208E-17  0.5753E-17  0.0000E+00
      0.640  0.0000E+00  0.0000E+00  0.0000E+00
      0.705  0.0000E+00  0.0000E+00  0.0000E+00
      0.771  0.0000E+00  0.0000E+00  0.0000E+00
      0.837  0.0000E+00  0.0000E+00  0.0000E+00
      0.903  0.0000E+00  0.0000E+00  0.0000E+00
      0.968  0.0000E+00  0.0000E+00  0.0000E+00
      1.034  0.0000E+00  0.0000E+00  0.0000E+00
      1.100  0.0000E+00  0.0000E+00  0.0000E+00
      1.165  0.0000E+00  0.0000E+00  0.0000E+00
      1.231  0.0000E+00  0.0000E+00  0.0000E+00
      1.297  0.0000E+00  0.0000E+00  0.0000E+00
      1.363  0.0000E+00  0.0000E+00  0.0000E+00
      1.428  0.0000E+00  0.0000E+00  0.0000E+00
      1.494  0.0000E+00  0.0000E+00  0.0000E+00
      1.560  0.0000E+00  0.0000E+00  0.0000E+00
      1.626  0.0000E+00  0.0000E+00  0.0000E+00
      1.691  0.0000E+00  0.0000E+00  0.0000E+00
      1.757  0.1602E-15  0.1354E-17  0.0000E+00
      1.823  0.5370E-10  0.4540E-12  0.0000E+00
      1.889  0.6239E-06  0.5274E-08  0.0000E+00
      1.954  0.2724E-03  0.2303E-05  0.0000E+00
      2.020  0.5490E-02  0.4641E-04  0.0000E+00
      2.086  0.7198E-02  0.6085E-04  0.0000E+00
      2.151  0.6489E-03  0.5486E-05  0.0000E+00
      2.217  0.2883E-05  0.2437E-07  0.0000E+00
      2.283  0.4957E-09  0.4191E-11  0.0000E+00
      2.349  0.1330E-13  0.1540E-14  0.0000E+00
      2.414  0.1219E-08  0.1789E-09  0.0000E+00
      2.480  0.5073E-05  0.7444E-06  0.0000E+00
      2.546  0.8316E-03  0.1221E-03  0.0000E+00
      2.612  0.7262E-02  0.1080E-02  0.0000E+00
      2.677  0.9207E-02  0.1585E-02  0.0000E+00
      2.743  0.1017E-01  0.2017E-02  0.0000E+00
      2.809  0.4287E-02  0.1066E-02  0.0000E+00
      2.874  0.7116E-02  0.3806E-02  0.0000E+00
      2.940  0.1196E-01  0.1231E-01  0.0000E+00
      3.006  0.1417E-01  0.2227E-01  0.0000E+00
      3.072  0.8089E-02  0.1152E-01  0.0000E+00
      3.137  0.9048E-02  0.6827E-02  0.0000E+00
      3.203  0.7058E-02  0.5946E-02  0.0000E+00
      3.269  0.3473E-02  0.1550E-02  0.0000E+00
      3.335  0.2187E-02  0.1751E-02  0.0000E+00
      3.400  0.6579E-02  0.1114E-01  0.0000E+00
      3.466  0.8919E-02  0.1698E-01  0.0000E+00
      3.532  0.3213E-02  0.7974E-02  0.0000E+00
      3.598  0.2546E-02  0.6584E-02  0.0000E+00
      3.663  0.1547E-01  0.2150E-01  0.0000E+00
      3.729  0.2330E-01  0.1678E-01  0.0000E+00
      3.795  0.1136E-01  0.5037E-02  0.0000E+00
      3.860  0.9985E-02  0.2265E-02  0.0000E+00
      3.926  0.1726E-02  0.3470E-03  0.0000E+00
      3.992  0.7293E-03  0.2940E-03  0.0000E+00
      4.058  0.4249E-02  0.1738E-02  0.0000E+00
      4.123  0.1890E-02  0.7552E-03  0.0000E+00
      4.189  0.4109E-02  0.7400E-03  0.0000E+00
      4.255  0.1246E-01  0.2211E-02  0.0000E+00
      4.321  0.3437E-02  0.6490E-03  0.0000E+00
      4.386  0.9103E-02  0.2266E-02  0.0000E+00
      4.452  0.1569E-01  0.8122E-02  0.0000E+00
      4.518  0.3110E-01  0.1810E-01  0.0000E+00
      4.583  0.4316E-01  0.1156E-01  0.0000E+00
      4.649  0.1094E+00  0.2049E-01  0.0000E+00
      4.715  0.1397E+00  0.2727E-01  0.0000E+00
      4.781  0.9490E-01  0.1998E-01  0.0000E+00
      4.846  0.7861E-01  0.2274E-01  0.0000E+00
      4.912  0.5249E-01  0.2089E-01  0.0000E+00
      4.978  0.3872E-01  0.7484E-02  0.0000E+00
      5.044  0.4695E-01  0.1676E-01  0.0000E+00
      5.109  0.4109E-01  0.2307E-01  0.0000E+00
      5.175  0.4703E-01  0.2421E-01  0.0000E+00
      5.241  0.2745E-01  0.1298E-01  0.0000E+00
      5.307  0.6109E-01  0.2372E-01  0.0000E+00
      5.372  0.5532E-01  0.2561E-01  0.0000E+00
      5.438  0.4364E-01  0.1797E-01  0.0000E+00
      5.504  0.1364E-01  0.9374E-02  0.0000E+00
      5.569  0.3350E-01  0.1485E-01  0.0000E+00
      5.635  0.2210E-01  0.6634E-02  0.0000E+00
      5.701  0.7923E-02  0.4554E-02  0.0000E+00
      5.767  0.1603E-01  0.6431E-02  0.0000E+00
      5.832  0.1914E-01  0.2659E-02  0.0000E+00
      5.898  0.2442E-02  0.2598E-03  0.0000E+00
      5.964  0.2145E-04  0.2183E-05  0.0000E+00
      6.030  0.8419E-08  0.8486E-09  0.0000E+00
      6.095  0.1208E-12  0.1215E-13  0.0000E+00
      6.161  0.0000E+00  0.0000E+00  0.0000E+00
      6.227  0.0000E+00  0.0000E+00  0.0000E+00
      6.292  0.0000E+00  0.0000E+00  0.0000E+00
      6.358  0.0000E+00  0.0000E+00  0.0000E+00
      6.424  0.0000E+00  0.0000E+00  0.0000E+00
      6.490  0.0000E+00  0.0000E+00  0.0000E+00
      6.555  0.0000E+00  0.0000E+00  0.0000E+00
      6.621  0.0000E+00  0.0000E+00  0.0000E+00
      6.687  0.0000E+00  0.0000E+00  0.0000E+00
      6.68684892    -13.03228670  301      0.51024050      1.00000000
    -13.032  0.0000E+00  0.0000E+00  0.0000E+00
    -12.967  0.0000E+00  0.0000E+00  0.0000E+00
    -12.901  0.0000E+00  0.0000E+00  0.0000E+00
    -12.835  0.0000E+00  0.0000E+00  0.0000E+00
    -12.769  0.0000E+00  0.0000E+00  0.0000E+00
    -12.704  0.0000E+00  0.0000E+00  0.0000E+00
    -12.638  0.0000E+00  0.0000E+00  0.0000E+00
    -12.572  0.0000E+00  0.0000E+00  0.0000E+00
    -12.506  0.0000E+00  0.0000E+00  0.0000E+00
    -12.441  0.0000E+00  0.0000E+00  0.0000E+00
    -12.375  0.3178E-14  0.1717E-16  0.0000E+00
    -12.309  0.2200E-09  0.1188E-11  0.0000E+00
    -12.244  0.5427E-06  0.2950E-08  0.0000E+00
    -12.178  0.5479E-04  0.3490E-06  0.0000E+00
    -12.112  0.3656E-03  0.8397E-05  0.0000E+00
    -12.046  0.7356E-03  0.6221E-04  0.0000E+00
    -11.981  0.1503E-02  0.2373E-03  0.0000E+00
    -11.915  0.1775E-02  0.4662E-03  0.0000E+00
    -11.849  0.1530E-02  0.8325E-03  0.0000E+00
    -11.783  0.1169E-02  0.1151E-02  0.0000E+00
    -11.718  0.3360E-03  0.7951E-03  0.0000E+00
    -11.652  0.1357E-03  0.4664E-03  0.0000E+00
    -11.586  0.1993E-03  0.7008E-03  0.0000E+00
    -11.520  0.1825E-03  0.5648E-03  0.0000E+00
    -11.455  0.6303E-03  0.1265E-02  0.0000E+00
    -11.389  0.1667E-02  0.1043E-02  0.0000E+00
    -11.323  0.1021E-02  0.9284E-03  0.0000E+00
    -11.258  0.7299E-03  0.5840E-03  0.0000E+00
    -11.192  0.7801E-03  0.4350E-03  0.0000E+00
    -11.126  0.3809E-02  0.1478E-02  0.0000E+00
    -11.060  0.8700E-02  0.5228E-02  0.0000E+00
    -10.995  0.5040E-02  0.4311E-02  0.0000E+00
    -10.929  0.7307E-03  0.1184E-02  0.0000E+00
    -10.863  0.2141E-04  0.9309E-04  0.0000E+00
    -10.797  0.9297E-07  0.1086E-05  0.0000E+00
    -10.732  0.3255E-10  0.8657E-09  0.0000E+00
    -10.666  0.6602E-15  0.2984E-13  0.0000E+00
    -10.600  0.5602E-21  0.3956E-19  0.0000E+00
    -10.535  0.0000E+00  0.0000E+00  0.0000E+00
    -10.469  0.0000E+00  0.0000E+00  0.0000E+00
    -10.403  0.0000E+00  0.0000E+00  0.0000E+00
    -10.337  0.0000E+00  0.0000E+00  0.0000E+00
    -10.272  0.0000E+00  0.0000E+00  0.0000E+00
    -10.206  0.0000E+00  0.0000E+00  0.0000E+00
    -10.140  0.0000E+00  0.0000E+00  0.0000E+00
    -10.074  0.0000E+00  0.0000E+00  0.0000E+00
    -10.009  0.0000E+00  0.0000E+00  0.0000E+00
     -9.943  0.0000E+00  0.0000E+00  0.0000E+00
     -9.877  0.0000E+00  0.0000E+00  0.0000E+00
     -9.811  0.0000E+00  0.0000E+00  0.0000E+00
     -9.746  0.0000E+00  0.0000E+00  0.0000E+00
     -9.680  0.0000E+00  0.0000E+00  0.0000E+00
     -9.614  0.0000E+00  0.0000E+00  0.0000E+00
     -9.549  0.0000E+00  0.0000E+00  0.0000E+00
     -9.483  0.0000E+00  0.0000E+00  0.0000E+00
     -9.417  0.0000E+00  0.0000E+00  0.0000E+00
     -9.351  0.0000E+00  0.0000E+00  0.0000E+00
     -9.286  0.0000E+00  0.0000E+00  0.0000E+00
     -9.220  0.0000E+00  0.0000E+00  0.0000E+00
     -9.154  0.0000E+00  0.0000E+00  0.0000E+00
     -9.088  0.0000E+00  0.0000E+00  0.0000E+00
     -9.023  0.0000E+00  0.0000E+00  0.0000E+00
     -8.957  0.0000E+00  0.0000E+00  0.0000E+00
     -8.891  0.0000E+00  0.0000E+00  0.0000E+00
     -8.826  0.0000E+00  0.0000E+00  0.0000E+00
     -8.760  0.0000E+00  0.0000E+00  0.0000E+00
     -8.694  0.0000E+00  0.0000E+00  0.0000E+00
     -8.628  0.0000E+00  0.0000E+00  0.0000E+00
     -8.563  0.0000E+00  0.0000E+00  0.0000E+00
     -8.497  0.0000E+00  0.0000E+00  0.0000E+00
     -8.431  0.0000E+00  0.0000E+00  0.0000E+00
     -8.365  0.0000E+00  0.0000E+00  0.0000E+00
     -8.300  0.0000E+00  0.0000E+00  0.0000E+00
     -8.234  0.0000E+00  0.0000E+00  0.0000E+00
     -8.168  0.0000E+00  0.0000E+00  0.0000E+00
     -8.103  0.0000E+00  0.0000E+00  0.0000E+00
     -8.037  0.0000E+00  0.0000E+00  0.0000E+00
     -7.971  0.0000E+00  0.0000E+00  0.0000E+00
     -7.905  0.0000E+00  0.0000E+00  0.0000E+00
     -7.840  0.0000E+00  0.0000E+00  0.0000E+00
     -7.774  0.0000E+00  0.0000E+00  0.0000E+00
     -7.708  0.0000E+00  0.0000E+00  0.0000E+00
     -7.642  0.0000E+00  0.0000E+00  0.0000E+00
     -7.577  0.0000E+00  0.0000E+00  0.0000E+00
     -7.511  0.0000E+00  0.0000E+00  0.0000E+00
     -7.445  0.0000E+00  0.0000E+00  0.0000E+00
     -7.379  0.0000E+00  0.0000E+00  0.0000E+00
     -7.314  0.0000E+00  0.0000E+00  0.0000E+00
     -7.248  0.0000E+00  0.0000E+00  0.0000E+00
     -7.182  0.0000E+00  0.0000E+00  0.0000E+00