       N       E                     dE             d eps       ncg     rms          rms(c)
DAV:   1     0.282578668269E+03    0.28258E+03   -0.18033E+04   672   0.805E+02
DAV:   2    -0.303005482637E+02   -0.31288E+03   -0.30543E+03   896   0.177E+02
DAV:   3    -0.526267167946E+02   -0.22326E+02   -0.22255E+02   896   0.541E+01
DAV:   4    -0.530322607947E+02   -0.40554E+00   -0.40525E+00   826   0.851E+00
DAV:   5    -0.530449357929E+02   -0.12675E-01   -0.12673E-01   896   0.135E+00    0.135E+01
DAV:   6    -0.507832543573E+02    0.22617E+01   -0.31688E+00   812   0.559E+00    0.875E+00
DAV:   7    -0.503397653559E+02    0.44349E+00   -0.20826E+00   896   0.451E+00    0.266E+00
DAV:   8    -0.503279765894E+02    0.11789E-01   -0.16147E-01   826   0.151E+00    0.672E-01
DAV:   9    -0.503322955843E+02   -0.43190E-02   -0.12099E-02   896   0.483E-01    0.175E-01
DAV:  10    -0.503324671787E+02   -0.17159E-03   -0.31919E-04   854   0.728E-02    0.668E-02
DAV:  11    -0.503328635926E+02   -0.39641E-03   -0.50112E-04   882   0.903E-02    0.264E-02
DAV:  12    -0.503328708365E+02   -0.72439E-05   -0.11961E-05   630   0.145E-02
   1 F= -.50332871E+02 E0= -.50332871E+02  d E =-.503329E+02
       N       E                     dE             d eps       ncg     rms          rms(c)
DAV:   1    -0.562241059170E+02   -0.58912E+01   -0.33037E+01   742   0.196E+01    0.680E+00
DAV:   2    -0.548917805735E+02    0.13323E+01   -0.23927E+00   812   0.522E+00    0.274E+00
DAV:   3    -0.545879316809E+02    0.30385E+00   -0.13541E+00   784   0.348E+00    0.106E+00
DAV:   4    -0.545814383997E+02    0.64933E-02   -0.29078E-02   854   0.674E-01    0.819E-01
DAV:   5    -0.545757194173E+02    0.57190E-02   -0.14891E-02   854   0.426E-01    0.233E-01
DAV:   6    -0.545757237087E+02   -0.42913E-05   -0.90177E-04   868   0.124E-01
   2 F= -.54575724E+02 E0= -.54575724E+02  d E =-.424285E+01
       N       E                     dE             d eps       ncg     rms          rms(c)
DAV:   1    -0.619782856591E+02   -0.74026E+01   -0.84642E+01   784   0.299E+01    0.102E+01
DAV:   2    -0.584377372640E+02    0.35405E+01   -0.66945E+00   798   0.836E+00    0.403E+00
DAV:   3    -0.577100174884E+02    0.72772E+00   -0.33914E+00   826   0.534E+00    0.139E+00
DAV:   4    -0.576825782535E+02    0.27439E-01   -0.71634E-02   896   0.106E+00    0.983E-01
DAV:   5    -0.576701372557E+02    0.12441E-01   -0.36507E-02   840   0.632E-01    0.399E-01
DAV:   6    -0.576703911557E+02   -0.25390E-03   -0.30513E-03   826   0.216E-01    0.217E-01
DAV:   7    -0.576705119517E+02   -0.12080E-03   -0.85910E-04   840   0.112E-01    0.344E-02
DAV:   8    -0.576705110512E+02    0.90051E-06   -0.69746E-05   644   0.340E-02
   3 F= -.57670511E+02 E0= -.57670511E+02  d E =-.733764E+01
       N       E                     dE             d eps       ncg     rms          rms(c)
DAV:   1    -0.583925581675E+02   -0.72205E+00   -0.93391E+00   784   0.101E+01    0.343E+00
DAV:   2    -0.580049889032E+02    0.38757E+00   -0.73524E-01   826   0.271E+00    0.131E+00
DAV:   3    -0.579297151034E+02    0.75274E-01   -0.34748E-01   798   0.170E+00    0.531E-01
DAV:   4    -0.579267650835E+02    0.29500E-02   -0.73569E-03   896   0.340E-01    0.368E-01
DAV:   5    -0.579253715207E+02    0.13936E-02   -0.44558E-03   840   0.221E-01    0.136E-01
DAV:   6    -0.579253889051E+02   -0.17384E-04   -0.38718E-04   840   0.747E-02
   4 F= -.57925389E+02 E0= -.57925389E+02  d E =-.759252E+01
       N       E                     dE             d eps       ncg     rms          rms(c)
DAV:   1    -0.580226570697E+02   -0.97286E-01   -0.15787E+00   784   0.415E+00    0.142E+00
DAV:   2    -0.579567505664E+02    0.65907E-01   -0.12517E-01   826   0.111E+00    0.539E-01
DAV:   3    -0.579440969123E+02    0.12654E-01   -0.58373E-02   812   0.694E-01    0.229E-01
DAV:   4    -0.579435943020E+02    0.50261E-03   -0.12537E-03   896   0.140E-01    0.157E-01
DAV:   5    -0.579433423534E+02    0.25195E-03   -0.79527E-04   840   0.932E-02    0.561E-02
DAV:   6    -0.579433462433E+02   -0.38898E-05   -0.60663E-05   546   0.307E-02
   5 F= -.57943346E+02 E0= -.57943346E+02  d E =-.761048E+01
       N       E                     dE             d eps       ncg     rms          rms(c)
DAV:   1    -0.579456678956E+02   -0.23255E-02   -0.31770E-02   798   0.592E-01    0.200E-01
DAV:   2    -0.579443910263E+02    0.12769E-02   -0.24649E-03   826   0.156E-01    0.752E-02
DAV:   3    -0.579441595672E+02    0.23146E-03   -0.11330E-03   798   0.970E-02    0.346E-02
DAV:   4    -0.579441527798E+02    0.67874E-05   -0.21257E-05   462   0.195E-02
   6 F= -.57944153E+02 E0= -.57944153E+02  d E =-.761128E+01
       N       E                     dE             d eps       ncg     rms          rms(c)
DAV:   1    -0.580521715004E+02   -0.10801E+00   -0.15311E+00   672   0.433E+00    0.550E-01
DAV:   2    -0.580581133313E+02   -0.59418E-02   -0.84979E-02   896   0.989E-01    0.214E-01
DAV:   3    -0.580575168951E+02    0.59644E-03   -0.19240E-03   882   0.176E-01    0.156E-01
DAV:   4    -0.580572136057E+02    0.30329E-03   -0.93201E-04   882   0.104E-01    0.553E-02
DAV:   5    -0.580572169431E+02   -0.33374E-05   -0.15238E-04   518   0.445E-02
   7 F= -.58057217E+02 E0= -.58057217E+02  d E =-.113064E+00
       N       E                     dE             d eps       ncg     rms          rms(c)
DAV:   1    -0.582845118171E+02   -0.22730E+00   -0.13700E+01   672   0.130E+01    0.181E+00
DAV:   2    -0.583394825829E+02   -0.54971E-01   -0.76585E-01   896   0.298E+00    0.695E-01
DAV:   3    -0.583339536842E+02    0.55289E-02   -0.17028E-02   882   0.519E-01    0.500E-01
DAV:   4    -0.583310467339E+02    0.29070E-02   -0.87170E-03   896   0.313E-01    0.171E-01
DAV:   5    -0.583310655027E+02   -0.18769E-04   -0.15584E-03   896   0.134E-01    0.583E-02
DAV:   6    -0.583310651925E+02    0.31022E-06   -0.39698E-05   630   0.264E-02
   8 F= -.58331065E+02 E0= -.58331065E+02  d E =-.386912E+00
       N       E                     dE             d eps       ncg     rms          rms(c)
DAV:   1    -0.584137445046E+02   -0.82679E-01   -0.54328E+01   672   0.258E+01    0.421E+00
DAV:   2    -0.586524959497E+02   -0.23875E+00   -0.31639E+00   896   0.609E+00    0.168E+00
DAV:   3    -0.586287543228E+02    0.23742E-01   -0.66547E-02   882   0.101E+00    0.120E+00
DAV:   4    -0.586151946678E+02    0.13560E-01   -0.39857E-02   896   0.644E-01    0.390E-01
DAV:   5    -0.586151115758E+02    0.83092E-04   -0.64270E-03   882   0.269E-01    0.103E-01
DAV:   6    -0.586151138652E+02   -0.22894E-05   -0.15918E-04   644   0.522E-02
   9 F= -.58615114E+02 E0= -.58615114E+02  d E =-.670961E+00
       N       E                     dE             d eps       ncg     rms          rms(c)
DAV:   1    -0.586153543061E+02   -0.24273E-03   -0.68851E+00   672   0.918E+00    0.125E+00
DAV:   2    -0.586423676212E+02   -0.27013E-01   -0.38398E-01   882   0.211E+00    0.464E-01
DAV:   3    -0.586395174591E+02    0.28502E-02   -0.84107E-03   868   0.358E-01    0.333E-01
DAV:   4    -0.586381199953E+02    0.13975E-02   -0.43753E-03   896   0.220E-01    0.121E-01
DAV:   5    -0.586381346915E+02   -0.14696E-04   -0.76305E-04   896   0.935E-02
  10 F= -.58638135E+02 E0= -.58638135E+02  d E =-.693982E+00
       N       E                     dE             d eps       ncg     rms          rms(c)
DAV:   1    -0.586749979289E+02   -0.36878E-01   -0.98338E-01   672   0.345E+00    0.626E-01
DAV:   2    -0.586671944955E+02    0.78034E-02   -0.43177E-02   896   0.785E-01    0.294E-01
DAV:   3    -0.586635936376E+02    0.36009E-02   -0.75921E-03   882   0.293E-01    0.132E-01
DAV:   4    -0.586630971400E+02    0.49650E-03   -0.12353E-03   896   0.130E-01    0.639E-02
DAV:   5    -0.586630716341E+02    0.25506E-04   -0.14636E-04   546   0.474E-02
  11 F= -.58663072E+02 E0= -.58663072E+02  d E =-.249369E-01
       N       E                     dE             d eps       ncg     rms          rms(c)
DAV:   1    -0.587108052558E+02   -0.47708E-01   -0.25370E+00   672   0.553E+00    0.100E+00
DAV:   2    -0.586908953311E+02    0.19910E-01   -0.11162E-01   896   0.126E+00    0.476E-01
DAV:   3    -0.586817172094E+02    0.91781E-02   -0.19428E-02   896   0.468E-01    0.212E-01
DAV:   4    -0.586804465071E+02    0.12707E-02   -0.32013E-03   882   0.208E-01    0.999E-02
DAV:   5    -0.586803935460E+02    0.52961E-04   -0.44079E-04   868   0.757E-02
  12 F= -.58680394E+02 E0= -.58680394E+02  d E =-.422589E-01
       N       E                     dE             d eps       ncg     rms          rms(c)
DAV:   1    -0.587028049812E+02   -0.22358E-01   -0.79452E-01   672   0.313E+00    0.440E-01
DAV:   2    -0.587028656962E+02   -0.60715E-04   -0.40897E-02   896   0.733E-01    0.205E-01
DAV:   3    -0.587018480408E+02    0.10177E-02   -0.19026E-03   882   0.165E-01    0.126E-01
DAV:   4    -0.587014296416E+02    0.41840E-03   -0.78068E-04   868   0.108E-01    0.328E-02
DAV:   5    -0.587014375771E+02   -0.79355E-05   -0.12731E-04   546   0.423E-02
  13 F= -.58701438E+02 E0= -.58701438E+02  d E =-.210440E-01
       N       E                     dE             d eps       ncg     rms          rms(c)
DAV:   1    -0.587449701430E+02   -0.43541E-01   -0.61627E+00   672   0.872E+00    0.125E+00
DAV:   2    -0.587452937370E+02   -0.32359E-03   -0.31701E-01   896   0.204E+00    0.564E-01
DAV:   3    -0.587374233072E+02    0.78704E-02   -0.14567E-02   882   0.458E-01    0.351E-01
DAV:   4    -0.587341239781E+02    0.32993E-02   -0.60367E-03   868   0.302E-01    0.919E-02
DAV:   5    -0.587341819134E+02   -0.57935E-04   -0.11203E-03   868   0.117E-01    0.479E-02
DAV:   6    -0.587342038342E+02   -0.21921E-04   -0.35890E-05   560   0.238E-02
  14 F= -.58734204E+02 E0= -.58734204E+02  d E =-.538103E-01
       N       E                     dE             d eps       ncg     rms          rms(c)
DAV:   1    -0.587517316136E+02   -0.17550E-01   -0.25025E+01   672   0.175E+01    0.261E+00
DAV:   2    -0.587529123054E+02   -0.11807E-02   -0.12927E+00   896   0.411E+00    0.115E+00
DAV:   3    -0.587216775985E+02    0.31235E-01   -0.57883E-02   868   0.913E-01    0.743E-01
DAV:   4    -0.587078656575E+02    0.13812E-01   -0.25361E-02   896   0.620E-01    0.194E-01
DAV:   5    -0.587080951242E+02   -0.22947E-03   -0.46571E-03   882   0.240E-01    0.988E-02
DAV:   6    -0.587081762266E+02   -0.81102E-04   -0.15190E-04   616   0.495E-02
  15 F= -.58708176E+02 E0= -.58708176E+02  d E =-.277827E-01
       N       E                     dE             d eps       ncg     rms          rms(c)
DAV:   1    -0.587716800753E+02   -0.63585E-01   -0.12709E+01   672   0.125E+01    0.176E+00
DAV:   2    -0.587665444664E+02    0.51356E-02   -0.65214E-01   896   0.294E+00    0.894E-01
DAV:   3    -0.587485677955E+02    0.17977E-01   -0.33160E-02   854   0.685E-01    0.532E-01
DAV:   4    -0.587406229749E+02    0.79448E-02   -0.14018E-02   896   0.453E-01    0.138E-01
DAV:   5    -0.587406324721E+02   -0.94972E-05   -0.25954E-03   826   0.180E-01    0.727E-02
DAV:   6    -0.587406744967E+02   -0.42025E-04   -0.94114E-05   560   0.372E-02
  16 F= -.58740674E+02 E0= -.58740674E+02  d E =-.602810E-01
       N       E                     dE             d eps       ncg     rms          rms(c)
DAV:   1    -0.587582032269E+02   -0.17571E-01   -0.21545E+00   672   0.515E+00    0.675E-01
DAV:   2    -0.587645180410E+02   -0.63148E-02   -0.12452E-01   896   0.124E+00    0.282E-01
DAV:   3    -0.587629995500E+02    0.15185E-02   -0.28480E-03   882   0.215E-01    0.196E-01
DAV:   4    -0.587621331993E+02    0.86635E-03   -0.20045E-03   882   0.172E-01    0.397E-02
DAV:   5    -0.587621571607E+02   -0.23961E-04   -0.32279E-04   756   0.677E-02
  17 F= -.58762157E+02 E0= -.58762157E+02  d E =-.214827E-01
       N       E                     dE             d eps       ncg     rms          rms(c)
DAV:   1    -0.587652690743E+02   -0.31359E-02   -0.37449E-01   672   0.215E+00    0.287E-01
DAV:   2    -0.587664176196E+02   -0.11485E-02   -0.21923E-02   896   0.519E-01    0.113E-01
DAV:   3    -0.587661648352E+02    0.25278E-03   -0.49621E-04   882   0.900E-02    0.779E-02
DAV:   4    -0.587660250950E+02    0.13974E-03   -0.31276E-04   602   0.704E-02    0.155E-02
DAV:   5    -0.587660318584E+02   -0.67634E-05   -0.70543E-05   476   0.339E-02
  18 F= -.58766032E+02 E0= -.58766032E+02  d E =-.253574E-01
       N       E                     dE             d eps       ncg     rms          rms(c)
DAV:   1    -0.587605893607E+02    0.54357E-02   -0.14918E+00   672   0.429E+00    0.564E-01
DAV:   2    -0.587651148595E+02   -0.45255E-02   -0.86771E-02   896   0.103E+00    0.228E-01
DAV:   3    -0.587641028279E+02    0.10120E-02   -0.19706E-03   910   0.179E-01    0.159E-01
DAV:   4    -0.587635335393E+02    0.56929E-03   -0.13417E-03   882   0.141E-01    0.327E-02
DAV:   5    -0.587635490527E+02   -0.15513E-04   -0.20015E-04   574   0.554E-02
  19 F= -.58763549E+02 E0= -.58763549E+02  d E =-.228746E-01
       N       E                     dE             d eps       ncg     rms          rms(c)
DAV:   1    -0.587656160955E+02   -0.20826E-02   -0.60047E-01   672   0.273E+00    0.345E-01
DAV:   2    -0.587674144157E+02   -0.17983E-02   -0.34806E-02   896   0.656E-01    0.149E-01
DAV:   3    -0.587670035357E+02    0.41088E-03   -0.79157E-04   868   0.114E-01    0.104E-01
DAV:   4    -0.587667661406E+02    0.23740E-03   -0.53594E-04   868   0.895E-02    0.215E-02
DAV:   5    -0.587667723516E+02   -0.62110E-05   -0.82988E-05   504   0.354E-02
  20 F= -.58766772E+02 E0= -.58766772E+02  d E =-.260979E-01
       N       E                     dE             d eps       ncg     rms          rms(c)
DAV:   1    -0.587707782488E+02   -0.40121E-02   -0.59958E-01   672   0.270E+00    0.333E-01
DAV:   2    -0.587714341339E+02   -0.65589E-03   -0.32251E-02   896   0.630E-01    0.170E-01
DAV:   3    -0.587708187827E+02    0.61535E-03   -0.12368E-03   882   0.133E-01    0.107E-01
DAV:   4    -0.587705172842E+02    0.30150E-03   -0.46658E-04   896   0.819E-02    0.326E-02
DAV:   5    -0.587705006487E+02    0.16635E-04   -0.93043E-05   490   0.372E-02
  21 F= -.58770501E+02 E0= -.58770501E+02  d E =-.372830E-02
       N       E                     dE             d eps       ncg     rms          rms(c)
DAV:   1    -0.587706420990E+02   -0.12481E-03   -0.17723E-02   672   0.464E-01    0.595E-02
DAV:   2    -0.587706615171E+02   -0.19418E-04   -0.94856E-04   896   0.107E-01
  22 F= -.58770662E+02 E0= -.58770662E+02  d E =-.388917E-02
