 vasp.5.4.4.18Apr17-6-g9f103f2a35 (build Oct 27 2022 13:04:57) complex          
  
 executed on             LinuxIFC date 2024.06.29  06:14:00
 running on   14 total cores
 distrk:  each k-point on   14 cores,    1 groups
 distr:  one band on NCORES_PER_BAND=   1 cores,   14 groups


--------------------------------------------------------------------------------------------------------


 INCAR:
 POTCAR:    PAW_PBE Na 08Apr2002                  
 POTCAR:    PAW_PBE Ga 08Apr2002                  
 POTCAR:    PAW_PBE Se 06Sep2000                  

 ----------------------------------------------------------------------------- 
|                                                                             |
|           W    W    AA    RRRRR   N    N  II  N    N   GGGG   !!!           |
|           W    W   A  A   R    R  NN   N  II  NN   N  G    G  !!!           |
|           W    W  A    A  R    R  N N  N  II  N N  N  G       !!!           |
|           W WW W  AAAAAA  RRRRR   N  N N  II  N  N N  G  GGG   !            |
|           WW  WW  A    A  R   R   N   NN  II  N   NN  G    G                |
|           W    W  A    A  R    R  N    N  II  N    N   GGGG   !!!           |
|                                                                             |
|      For optimal performance we recommend to set                            |
|        NCORE= 4 - approx SQRT( number of cores)                             |
|      NCORE specifies how many cores store one orbital (NPAR=cpu/NCORE).     |
|      This setting can  greatly improve the performance of VASP for DFT.     |
|      The default,   NCORE=1            might be grossly inefficient         |
|      on modern multi-core architectures or massively parallel machines.     |
|      Do your own testing !!!!                                               |
|      Unfortunately you need to use the default for GW and RPA calculations. |
|      (for HF NCORE is supported but not extensively tested yet)             |
|                                                                             |
 ----------------------------------------------------------------------------- 

 POTCAR:    PAW_PBE Na 08Apr2002                  
   VRHFIN =Na: s1p0                                                             
   LEXCH  = PE                                                                  
   EATOM  =     5.1581 eV,    0.3791 Ry                                         
                                                                                
   TITEL  = PAW_PBE Na 08Apr2002                                                
   LULTRA =        F    use ultrasoft PP ?                                      
   IUNSCR =        1    unscreen: 0-lin 1-nonlin 2-no                           
   RPACOR =    1.800    partial core radius                                     
   POMASS =   22.990; ZVAL   =    1.000    mass and valenz                      
   RCORE  =    2.200    outmost cutoff radius                                   
   RWIGS  =    3.320; RWIGS  =    1.757    wigner-seitz radius (au A)           
   ENMAX  =  101.968; ENMIN  =   76.476 eV                                      
   ICORE  =        2    local potential                                         
   LCOR   =        T    correct aug charges                                     
   LPAW   =        T    paw PP                                                  
   EAUG   =  250.695                                                            
   DEXC   =    0.000                                                            
   RMAX   =    2.245    core radius for proj-oper                               
   RAUG   =    1.300    factor for augmentation sphere                          
   RDEP   =    2.259    radius for radial grids                                 
   RDEPT  =    2.115    core radius for aug-charge                              
                                                                                
   Atomic configuration                                                         
    6 entries                                                                   
     n  l   j            E        occ.                                          
     1  0  0.50     -1033.6933   2.0000                                         
     2  0  0.50       -56.7526   2.0000                                         
     2  1  1.50       -28.6721   6.0000                                         
     3  0  0.50        -2.7440   1.0000                                         
     3  1  0.50        -1.3606   0.0000                                         
     3  2  1.50        -1.3606   0.0000                                         
   Description                                                                  
     l       E           TYP  RCUT    TYP  RCUT                                 
     0     -2.7439560     23  2.200                                             
     0     27.2116520     23  2.200                                             
     1     -1.3605826     23  2.200                                             
     2     -1.3605826     23  2.200                                             
  local pseudopotential read in
  partial core-charges read in
  partial kinetic energy density read in
  atomic valenz-charges read in
  non local Contribution for L=           0  read in
    real space projection operators read in
  non local Contribution for L=           0  read in
    real space projection operators read in
  non local Contribution for L=           1  read in
    real space projection operators read in
    PAW grid and wavefunctions read in
 
   number of l-projection  operators is LMAX  =           3
   number of lm-projection operators is LMMAX =           5
 
 POTCAR:    PAW_PBE Ga 08Apr2002                  
   VRHFIN =Ga: s2p1                                                             
   LEXCH  = PE                                                                  
   EATOM  =    58.8688 eV,    4.3267 Ry                                         
                                                                                
   TITEL  = PAW_PBE Ga 08Apr2002                                                
   LULTRA =        F    use ultrasoft PP ?                                      
   IUNSCR =        1    unscreen: 0-lin 1-nonlin 2-no                           
   RPACOR =    2.170    partial core radius                                     
   POMASS =   69.723; ZVAL   =    3.000    mass and valenz                      
   RCORE  =    2.600    outmost cutoff radius                                   
   RWIGS  =    2.650; RWIGS  =    1.402    wigner-seitz radius (au A)           
   ENMAX  =  134.678; ENMIN  =  101.009 eV                                      
   ICORE  =        3    local potential                                         
   LCOR   =        T    correct aug charges                                     
   LPAW   =        T    paw PP                                                  
   EAUG   =  320.264                                                            
   DEXC   =    0.000                                                            
   RMAX   =    2.658    core radius for proj-oper                               
   RAUG   =    1.300    factor for augmentation sphere                          
   RDEP   =    2.684    radius for radial grids                                 
   RDEPT  =    2.308    core radius for aug-charge                              
                                                                                
   Atomic configuration                                                         
   10 entries                                                                   
     n  l   j            E        occ.                                          
     1  0  0.50    -10228.7830   2.0000                                         
     2  0  0.50     -1262.1604   2.0000                                         
     2  1  1.50     -1098.6333   6.0000                                         
     3  0  0.50      -148.1110   2.0000                                         
     3  1  1.50       -98.8436   6.0000                                         
     3  2  2.50       -19.1549  10.0000                                         
     4  0  0.50        -8.9483   2.0000                                         
     4  1  0.50        -2.5791   1.0000                                         
     4  2  1.50         5.4423   0.0000                                         
     4  3  2.50        -2.7416   0.0000                                         
   Description                                                                  
     l       E           TYP  RCUT    TYP  RCUT                                 
     0     -8.9483097     23  2.600                                             
     0     -5.8232215     23  2.600                                             
     1     -2.5790793     23  2.600                                             
     1      5.2230115     23  2.600                                             
     2      1.3605826     23  2.600                                             
     3     -1.3605826      7  2.600                                             
  local pseudopotential read in
  partial core-charges read in
  partial kinetic energy density read in
  atomic valenz-charges read in
  non local Contribution for L=           0  read in
    real space projection operators read in
  non local Contribution for L=           0  read in
    real space projection operators read in
  non local Contribution for L=           1  read in
    real space projection operators read in
  non local Contribution for L=           1  read in
    real space projection operators read in
  non local Contribution for L=           2  read in
    real space projection operators read in
    PAW grid and wavefunctions read in
 
   number of l-projection  operators is LMAX  =           5
   number of lm-projection operators is LMMAX =          13
 
 POTCAR:    PAW_PBE Se 06Sep2000                  
   VRHFIN =Se: s2p4                                                             
   LEXCH  = PE                                                                  
   EATOM  =   257.1286 eV,   18.8984 Ry                                         
                                                                                
   TITEL  = PAW_PBE Se 06Sep2000                                                
   LULTRA =        F    use ultrasoft PP ?                                      
   IUNSCR =        1    unscreen: 0-lin 1-nonlin 2-no                           
   RPACOR =    1.900    partial core radius                                     
   POMASS =   78.960; ZVAL   =    6.000    mass and valenz                      
   RCORE  =    2.100    outmost cutoff radius                                   
   RWIGS  =    2.200; RWIGS  =    1.164    wigner-seitz radius (au A)           
   ENMAX  =  211.555; ENMIN  =  158.666 eV                                      
   ICORE  =        3    local potential                                         
   LCOR   =        T    correct aug charges                                     
   LPAW   =        T    paw PP                                                  
   EAUG   =  446.842                                                            
   DEXC   =    0.000                                                            
   RMAX   =    2.147    core radius for proj-oper                               
   RAUG   =    1.300    factor for augmentation sphere                          
   RDEP   =    2.177    radius for radial grids                                 
   RDEPT  =    1.928    core radius for aug-charge                              
                                                                                
   Atomic configuration                                                         
   10 entries                                                                   
     n  l   j            E        occ.                                          
     1  0  0.50    -12503.4787   2.0000                                         
     2  0  0.50     -1606.9547   2.0000                                         
     2  1  1.50     -1413.3140   6.0000                                         
     3  0  0.50      -213.4885   2.0000                                         
     3  1  1.50      -152.9538   6.0000                                         
     3  2  2.50       -53.1221  10.0000                                         
     4  0  0.50       -17.2865   2.0000                                         
     4  1  0.50        -6.5110   4.0000                                         
     4  2  2.50        -6.8029   0.0000                                         
     4  3  2.50        -6.8029   0.0000                                         
   Description                                                                  
     l       E           TYP  RCUT    TYP  RCUT                                 
     0    -17.2865377     23  2.100                                             
     0    -15.3094411     23  2.100                                             
     1     -6.5110275     23  2.100                                             
     1     -0.0695192     23  2.100                                             
     2     -6.8029130     23  2.100                                             
     3     -1.3605826      7  2.100                                             
  local pseudopotential read in
  partial core-charges read in
  partial kinetic energy density read in
  atomic valenz-charges read in
  non local Contribution for L=           0  read in
    real space projection operators read in
  non local Contribution for L=           0  read in
    real space projection operators read in
  non local Contribution for L=           1  read in
    real space projection operators read in
  non local Contribution for L=           1  read in
    real space projection operators read in
  non local Contribution for L=           2  read in
    real space projection operators read in
    PAW grid and wavefunctions read in
 
   number of l-projection  operators is LMAX  =           5
   number of lm-projection operators is LMMAX =          13
 
 Optimization of the real space projectors (new method)

 maximal supplied QI-value         = 17.01
 optimisation between [QCUT,QGAM] = [  8.84, 17.69] = [ 21.90, 87.61] Ry 
 Optimized for a Real-space Cutoff    1.22 Angstroem

   l    n(q)    QCUT    max X(q) W(low)/X(q) W(high)/X(q)  e(spline) 
   0      6     8.844    45.123    0.62E-03    0.70E-03    0.80E-07
   0      6     8.844    12.364    0.51E-03    0.48E-03    0.55E-07
   1      6     8.844     8.302    0.36E-03    0.27E-03    0.23E-07
 Optimization of the real space projectors (new method)

 maximal supplied QI-value         = 14.36
 optimisation between [QCUT,QGAM] = [  8.76, 17.67] = [ 21.49, 87.39] Ry 
 Optimized for a Real-space Cutoff    1.42 Angstroem

   l    n(q)    QCUT    max X(q) W(low)/X(q) W(high)/X(q)  e(spline) 
   0      7     8.761    81.156    0.11E-03    0.37E-03    0.87E-07
   0      7     8.761    65.205    0.12E-03    0.37E-03    0.87E-07
   1      7     8.761    44.874    0.85E-03    0.88E-03    0.78E-07
   1      7     8.761    25.010    0.87E-03    0.93E-03    0.76E-07
   2      6     8.761     5.217    0.35E-03    0.49E-03    0.48E-07
 Optimization of the real space projectors (new method)

 maximal supplied QI-value         = 17.95
 optimisation between [QCUT,QGAM] = [  8.80, 17.59] = [ 21.67, 86.68] Ry 
 Optimized for a Real-space Cutoff    1.19 Angstroem

   l    n(q)    QCUT    max X(q) W(low)/X(q) W(high)/X(q)  e(spline) 
   0      6     8.797   133.320    0.14E-02    0.11E-02    0.95E-07
   0      6     8.797   111.601    0.15E-02    0.12E-02    0.10E-06
   1      6     8.797    47.222    0.19E-02    0.96E-03    0.11E-06
   1      6     8.797    33.775    0.19E-02    0.99E-03    0.11E-06
   2      5     8.797     3.720    0.16E-02    0.14E-02    0.40E-07
  PAW_PBE Na 08Apr2002                  :
 energy of atom  1       EATOM=   -5.1581
 kinetic energy error for atom=    0.0001 (will be added to EATOM!!)
  PAW_PBE Ga 08Apr2002                  :
 energy of atom  2       EATOM=  -58.8688
 kinetic energy error for atom=    0.0002 (will be added to EATOM!!)
  PAW_PBE Se 06Sep2000                  :
 energy of atom  3       EATOM= -257.1286
 kinetic energy error for atom=    0.0040 (will be added to EATOM!!)
 
 
 POSCAR: Na4 Ga4 Se8                             
  positions in direct lattice
  No initial velocities read in
 exchange correlation table for  LEXCH =        8
   RHO(1)=    0.500       N(1)  =     2000
   RHO(2)=  100.500       N(2)  =     4000
 


--------------------------------------------------------------------------------------------------------


 ion  position               nearest neighbor table
   1  0.118  0.917  0.378-  12 2.43   9 2.43  15 2.44  16 2.45   6 3.74   2 3.81   2 3.81   4 3.82
                             4 3.82
   2  0.618  0.083  0.622-  11 2.43  10 2.43  16 2.44  15 2.45   5 3.74   1 3.81   1 3.81   3 3.82
                             3 3.82
   3  0.618  0.583  0.878-  10 2.43  11 2.43  13 2.44  14 2.45   8 3.74   4 3.81   4 3.81   2 3.82
                             2 3.82
   4  0.118  0.417  0.122-   9 2.43  12 2.43  14 2.44  13 2.45   7 3.74   3 3.81   3 3.81   1 3.82
                             1 3.82
   5  0.621  0.574  0.374-  10 2.25  14 2.26  15 2.26   9 2.26   2 3.74
   6  0.121  0.426  0.626-   9 2.25  13 2.26  16 2.26  10 2.26   1 3.74
   7  0.121  0.926  0.874-  12 2.25  16 2.26  13 2.26  11 2.26   4 3.74
   8  0.621  0.074  0.126-  11 2.25  15 2.26  14 2.26  12 2.26   3 3.74
   9  0.985  0.564  0.386-   6 2.25   5 2.26   4 2.43   1 2.43
  10  0.485  0.436  0.614-   5 2.25   6 2.26   3 2.43   2 2.43
  11  0.485  0.936  0.886-   8 2.25   7 2.26   2 2.43   3 2.43
  12  0.985  0.064  0.114-   7 2.25   8 2.26   1 2.43   4 2.43
  13  0.010  0.595  0.861-   6 2.26   7 2.26   3 2.44   4 2.45
  14  0.510  0.405  0.139-   5 2.26   8 2.26   4 2.44   3 2.45
  15  0.510  0.905  0.361-   8 2.26   5 2.26   1 2.44   2 2.45
  16  0.010  0.095  0.639-   7 2.26   6 2.26   2 2.44   1 2.45
 
  LATTYP: Found a simple orthorhombic cell.
 ALAT       =     6.2046547700
 B/A-ratio  =     1.0468935019
 C/A-ratio  =     1.2661476506
  
  Lattice vectors:
  
 A1 = (   6.2046547700,   0.0000000000,   0.0000000000)
 A2 = (   0.0000000000,   6.4956127600,   0.0000000000)
 A3 = (   0.0000000000,   0.0000000000,   7.8560090600)


Analysis of symmetry for initial positions (statically):
=====================================================================
 Subroutine PRICEL returns:
 Original cell was already a primitive cell.
 

 Routine SETGRP: Setting up the symmetry group for a 
 simple orthorhombic supercell.


 Subroutine GETGRP returns: Found  4 space group operations
 (whereof  1 operations were pure point group operations)
 out of a pool of  8 trial point group operations.


The static configuration has the point symmetry C_1 .
 The point group associated with its full space group is C_2v.


Analysis of symmetry for dynamics (positions and initial velocities):
=====================================================================
 Subroutine PRICEL returns:
 Original cell was already a primitive cell.
 

 Routine SETGRP: Setting up the symmetry group for a 
 simple orthorhombic supercell.


 Subroutine GETGRP returns: Found  4 space group operations
 (whereof  1 operations were pure point group operations)
 out of a pool of  8 trial point group operations.


The dynamic configuration has the point symmetry C_1 .
 The point group associated with its full space group is C_2v.


 Subroutine INISYM returns: Found  4 space group operations
 (whereof  1 operations are pure point group operations),
 and found     1 'primitive' translations

 
 
 KPOINTS: pymatgen with grid density = 807 / numbe

Automatic generation of k-mesh.
Space group operators:
 irot       det(A)        alpha          n_x          n_y          n_z        tau_x        tau_y        tau_z
    1     1.000000     0.000000     1.000000     0.000000     0.000000     0.000000     0.000000     0.000000
    2    -1.000000   180.000000     0.000000     0.000000     1.000000     0.000000     0.500000     0.500000
    3    -1.000000   179.999999     0.000000     1.000000     0.000000     0.500000     0.500000     0.500000
    4     1.000000   180.000000     1.000000     0.000000     0.000000     0.500000     0.000000     0.000000
 
 Subroutine IBZKPT returns following result:
 ===========================================
 
 Found      8 irreducible k-points:
 
 Following reciprocal coordinates:
            Coordinates               Weight
  0.000000  0.000000  0.000000      1.000000
  0.333333  0.000000  0.000000      2.000000
  0.000000  0.333333  0.000000      2.000000
  0.333333  0.333333  0.000000      4.000000
  0.000000  0.000000  0.333333      2.000000
  0.333333  0.000000  0.333333      4.000000
  0.000000  0.333333  0.333333      4.000000
  0.333333  0.333333  0.333333      8.000000
 
 Following cartesian coordinates:
            Coordinates               Weight
  0.000000  0.000000  0.000000      1.000000
  0.053723  0.000000  0.000000      2.000000
  0.000000  0.051317  0.000000      2.000000
  0.053723  0.051317  0.000000      4.000000
  0.000000  0.000000  0.042430      2.000000
  0.053723  0.000000  0.042430      4.000000
  0.000000  0.051317  0.042430      4.000000
  0.053723  0.051317  0.042430      8.000000
 


--------------------------------------------------------------------------------------------------------




 Dimension of arrays:
   k-points           NKPTS =      8   k-points in BZ     NKDIM =      8   number of bands    NBANDS=     42
   number of dos      NEDOS =    301   number of ions     NIONS =     16
   non local maximal  LDIM  =      5   non local SUM 2l+1 LMDIM =     13
   total plane-waves  NPLWV =  28224
   max r-space proj   IRMAX =   1110   max aug-charges    IRDMAX=   3288
   dimension x,y,z NGX =    28 NGY =   28 NGZ =   36
   dimension x,y,z NGXF=    42 NGYF=   48 NGZF=   54
   support grid    NGXF=    42 NGYF=   48 NGZF=   54
   ions per type =               4   4   8
   NGX,Y,Z   is equivalent  to a cutoff of   7.50,  7.17,  7.62 a.u.
   NGXF,Y,Z  is equivalent  to a cutoff of  11.25, 12.28, 11.43 a.u.

 SYSTEM =  CIS                                     
 POSCAR =  Na4 Ga4 Se8                             

 Startparameter for this run:
   NWRITE =      2    write-flag & timer
   PREC   = medium    normal or accurate (medium, high low for compatibility)
   ISTART =      0    job   : 0-new  1-cont  2-samecut
   ICHARG =      2    charge: 1-file 2-atom 10-const
   ISPIN  =      1    spin polarized calculation?
   LNONCOLLINEAR =      F non collinear calculations
   LSORBIT =      F    spin-orbit coupling
   INIWAV =      1    electr: 0-lowe 1-rand  2-diag
   LASPH  =      T    aspherical Exc in radial PAW
   METAGGA=      F    non-selfconsistent MetaGGA calc.

 Electronic Relaxation 1
   ENCUT  =  300.0 eV  22.05 Ry    4.70 a.u.   8.76  9.17 11.09*2*pi/ulx,y,z
   ENINI  =  300.0     initial cutoff
   ENAUG  =  446.8 eV  augmentation charge cutoff
   NELM   =     60;   NELMIN=  2; NELMDL= -5     # of ELM steps 
   EDIFF  = 0.1E-03   stopping-criterion for ELM
   LREAL  =      T    real-space projection
   NLSPLINE    = F    spline interpolate recip. space projectors
   LCOMPAT=      F    compatible to vasp.4.4
   GGA_COMPAT  = T    GGA compatible to vasp.4.4-vasp.4.6
   LMAXPAW     = -100 max onsite density
   LMAXMIX     =    4 max onsite mixed and CHGCAR
   VOSKOWN=      0    Vosko Wilk Nusair interpolation
   ROPT   =   -0.00200  -0.00200  -0.00200
 Ionic relaxation
   EDIFFG = -.5E-01   stopping-criterion for IOM
   NSW    =     99    number of steps for IOM
   NBLOCK =      1;   KBLOCK =     99    inner block; outer block 
   IBRION =      2    ionic relax: 0-MD 1-quasi-New 2-CG
   NFREE  =      1    steps in history (QN), initial steepest desc. (CG)
   ISIF   =      3    stress and relaxation
   IWAVPR =     11    prediction:  0-non 1-charg 2-wave 3-comb
   ISYM   =      2    0-nonsym 1-usesym 2-fastsym
   LCORR  =      T    Harris-Foulkes like correction to forces

   POTIM  = 0.1000    time-step for ionic-motion
   TEIN   =    0.0    initial temperature
   TEBEG  =    0.0;   TEEND  =   0.0 temperature during run
   SMASS  =  -3.00    Nose mass-parameter (am)
   estimated Nose-frequenzy (Omega)   =  0.10E-29 period in steps =****** mass=  -0.880E-27a.u.
   SCALEE = 1.0000    scale energy and forces
   NPACO  =    256;   APACO  = 16.0  distance and # of slots for P.C.
   PSTRESS=    0.0 pullay stress

  Mass of Ions in am
   POMASS =  22.99 69.72 78.96
  Ionic Valenz
   ZVAL   =   1.00  3.00  6.00
  Atomic Wigner-Seitz radii
   RWIGS  =  -1.00 -1.00 -1.00
  virtual crystal weights 
   VCA    =   1.00  1.00  1.00
   NELECT =      64.0000    total number of electrons
   NUPDOWN=      -1.0000    fix difference up-down

 DOS related values:
   EMIN   =  10.00;   EMAX   =-10.00  energy-range for DOS
   EFERMI =   0.00
   ISMEAR =     0;   SIGMA  =   0.05  broadening in eV -4-tet -1-fermi 0-gaus

 Electronic relaxation 2 (details)
   IALGO  =     38    algorithm
   LDIAG  =      T    sub-space diagonalisation (order eigenvalues)
   LSUBROT=      F    optimize rotation matrix (better conditioning)
   TURBO    =      0    0=normal 1=particle mesh
   IRESTART =      0    0=no restart 2=restart with 2 vectors
   NREBOOT  =      0    no. of reboots
   NMIN     =      0    reboot dimension
   EREF     =   0.00    reference energy to select bands
   IMIX   =      4    mixing-type and parameters
     AMIX     =   0.40;   BMIX     =  1.00
     AMIX_MAG =   1.60;   BMIX_MAG =  1.00
     AMIN     =   0.10
     WC   =   100.;   INIMIX=   1;  MIXPRE=   1;  MAXMIX= -45

 Intra band minimization:
   WEIMIN = 0.0010     energy-eigenvalue tresh-hold
   EBREAK =  0.60E-06  absolut break condition
   DEPER  =   0.30     relativ break condition  

   TIME   =   0.40     timestep for ELM

  volume/ion in A,a.u.               =      19.79       133.54
  Fermi-wavevector in a.u.,A,eV,Ry     =   0.960775  1.815601 12.559376  0.923088
  Thomas-Fermi vector in A             =   2.090089
 
 Write flags
   LWAVE        =      F    write WAVECAR
   LDOWNSAMPLE  =      F    k-point downsampling of WAVECAR
   LCHARG       =      F    write CHGCAR
   LVTOT        =      F    write LOCPOT, total local potential
   LVHAR        =      F    write LOCPOT, Hartree potential only
   LELF         =      F    write electronic localiz. function (ELF)
   LORBIT       =     10    0 simple, 1 ext, 2 COOP (PROOUT), +10 PAW based schemes


 Dipole corrections
   LMONO  =      F    monopole corrections only (constant potential shift)
   LDIPOL =      F    correct potential (dipole corrections)
   IDIPOL =      0    1-x, 2-y, 3-z, 4-all directions 
   EPSILON=  1.0000000 bulk dielectric constant

 Exchange correlation treatment:
   GGA     =    --    GGA type
   LEXCH   =     8    internal setting for exchange type
   VOSKOWN=      0    Vosko Wilk Nusair interpolation
   LHFCALC =     F    Hartree Fock is set to
   LHFONE  =     F    Hartree Fock one center treatment
   AEXX    =    0.0000 exact exchange contribution

 Linear response parameters
   LEPSILON=     F    determine dielectric tensor
   LRPA    =     F    only Hartree local field effects (RPA)
   LNABLA  =     F    use nabla operator in PAW spheres
   LVEL    =     F    velocity operator in full k-point grid
   LINTERFAST=   F  fast interpolation
   KINTER  =     0    interpolate to denser k-point grid
   CSHIFT  =0.1000    complex shift for real part using Kramers Kronig
   OMEGAMAX=  -1.0    maximum frequency
   DEG_THRESHOLD= 0.2000000E-02 threshold for treating states as degnerate
   RTIME   =   -0.100 relaxation time in fs
  (WPLASMAI=    0.000 imaginary part of plasma frequency in eV, 0.658/RTIME)
   DFIELD  = 0.0000000 0.0000000 0.0000000 field for delta impulse in time
 
 Orbital magnetization related:
   ORBITALMAG=     F  switch on orbital magnetization
   LCHIMAG   =     F  perturbation theory with respect to B field
   DQ        =  0.001000  dq finite difference perturbation B field
   LLRAUG    =     F  two centre corrections for induced B field



--------------------------------------------------------------------------------------------------------


 conjugate gradient relaxation of ions
 charge density and potential will be updated during run
 non-spin polarized calculation
 Variant of blocked Davidson
 Davidson routine will perform the subspace rotation
 perform sub-space diagonalisation
    after iterative eigenvector-optimisation
 modified Broyden-mixing scheme, WC =      100.0
 initial mixing is a Kerker type mixing with AMIX =  0.4000 and BMIX =      1.0000
 Hartree-type preconditioning will be used
 using additional bands           10
 real space projection scheme for non local part
 use partial core corrections
 calculate Harris-corrections to forces 
   (improved forces if not selfconsistent)
 use gradient corrections 
 use of overlap-Matrix (Vanderbilt PP)
 Gauss-broadening in eV      SIGMA  =   0.05


--------------------------------------------------------------------------------------------------------


  energy-cutoff  :      300.00
  volume of cell :      316.62
      direct lattice vectors                 reciprocal lattice vectors
     6.204654770  0.000000000  0.000000000     0.161169322  0.000000000  0.000000000
     0.000000000  6.495612760  0.000000000     0.000000000  0.153950064  0.000000000
     0.000000000  0.000000000  7.856009060     0.000000000  0.000000000  0.127291096

  length of vectors
     6.204654770  6.495612760  7.856009060     0.161169322  0.153950064  0.127291096


 
 k-points in units of 2pi/SCALE and weight: pymatgen with grid density = 807 / numbe
   0.00000000  0.00000000  0.00000000       0.037
   0.05372311  0.00000000  0.00000000       0.074
   0.00000000  0.05131669  0.00000000       0.074
   0.05372311  0.05131669  0.00000000       0.148
   0.00000000  0.00000000  0.04243037       0.074
   0.05372311  0.00000000  0.04243037       0.148
   0.00000000  0.05131669  0.04243037       0.148
   0.05372311  0.05131669  0.04243037       0.296
 
 k-points in reciprocal lattice and weights: pymatgen with grid density = 807 / numbe
   0.00000000  0.00000000  0.00000000       0.037
   0.33333333  0.00000000  0.00000000       0.074
   0.00000000  0.33333333  0.00000000       0.074
   0.33333333  0.33333333  0.00000000       0.148
   0.00000000  0.00000000  0.33333333       0.074
   0.33333333  0.00000000  0.33333333       0.148
   0.00000000  0.33333333  0.33333333       0.148
   0.33333333  0.33333333  0.33333333       0.296
 
 position of ions in fractional coordinates (direct lattice) 
   0.11781030  0.91663944  0.37770555
   0.61781030  0.08336056  0.62229445
   0.61781030  0.58336056  0.87770555
   0.11781030  0.41663944  0.12229445
   0.62137382  0.57375842  0.37387979
   0.12137382  0.42624158  0.62612021
   0.12137382  0.92624158  0.87387979
   0.62137382  0.07375842  0.12612021
   0.98548412  0.56443509  0.38646431
   0.48548412  0.43556491  0.61353569
   0.48548412  0.93556491  0.88646431
   0.98548412  0.06443509  0.11353569
   0.01033277  0.59524702  0.86128656
   0.51033277  0.40475298  0.13871344
   0.51033277  0.90475298  0.36128656
   0.01033277  0.09524702  0.63871344
 
 position of ions in cartesian coordinates  (Angst):
   0.73097224  5.95413484  2.96725822
   3.83329962  0.54147792  4.88875084
   3.83329962  3.78928430  6.89526275
   0.73097224  2.70632846  0.96074631
   3.85541004  3.72691251  2.93720302
   0.75308265  2.76870025  4.91880604
   0.75308265  6.01650663  6.86520755
   3.85541004  0.47910613  0.99080151
   6.11458875  3.66635177  3.03606712
   3.01226136  2.82926099  4.81994194
   3.01226136  6.07706737  6.96407165
   6.11458875  0.41854539  0.89193741
   0.06411127  3.86649414  6.76627502
   3.16643866  2.62911862  1.08973404
   3.16643866  5.87692500  2.83827049
   0.06411127  0.61868776  5.01773857
 


--------------------------------------------------------------------------------------------------------


 k-point  1 :   0.0000 0.0000 0.0000  plane waves:    3729
 k-point  2 :   0.3333 0.0000 0.0000  plane waves:    3728
 k-point  3 :   0.0000 0.3333 0.0000  plane waves:    3742
 k-point  4 :   0.3333 0.3333 0.0000  plane waves:    3742
 k-point  5 :   0.0000 0.0000 0.3333  plane waves:    3756
 k-point  6 :   0.3333 0.0000 0.3333  plane waves:    3731
 k-point  7 :   0.0000 0.3333 0.3333  plane waves:    3733
 k-point  8 :   0.3333 0.3333 0.3333  plane waves:    3733

 maximum and minimum number of plane-waves per node :      3756     3728

 maximum number of plane-waves:      3756
 maximum index in each direction: 
   IXMAX=    8   IYMAX=    9   IZMAX=   11
   IXMIN=   -9   IYMIN=   -9   IZMIN=  -11


 serial   3D FFT for wavefunctions
 parallel 3D FFT for charge:
    minimum data exchange during FFTs selected (reduces bandwidth)


 total amount of memory used by VASP MPI-rank0    35112. kBytes
=======================================================================

   base      :      30000. kBytes
   nonlr-proj:       1415. kBytes
   fftplans  :        400. kBytes
   grid      :       1652. kBytes
   one-center:        129. kBytes
   wavefun   :       1516. kBytes
 
     INWAV:  cpu time    0.0000: real time    0.0000
 Broyden mixing: mesh for mixing (old mesh)
   NGX = 17   NGY = 19   NGZ = 23
  (NGX  = 42   NGY  = 48   NGZ  = 54)
  gives a total of   7429 points

 initial charge density was supplied:
 charge density of overlapping atoms calculated
 number of electron      64.0000000 magnetization 
 keeping initial charge density in first step


--------------------------------------------------------------------------------------------------------


 Maximum index for non-local projection operator         1011
 Maximum index for augmentation-charges          249 (set IRDMAX)


--------------------------------------------------------------------------------------------------------


 First call to EWALD:  gamma=   0.260
 Maximum number of real-space cells 3x 3x 2
 Maximum number of reciprocal cells 3x 3x 3

    FEWALD:  cpu time    0.0019: real time    0.0019


--------------------------------------- Iteration      1(   1)  ---------------------------------------


    POTLOK:  cpu time    0.0074: real time    0.0074
    SETDIJ:  cpu time    0.1623: real time    0.1623
     EDDAV:  cpu time    0.1693: real time    0.1695
       DOS:  cpu time    0.0004: real time    0.0004
    --------------------------------------------
      LOOP:  cpu time    0.3394: real time    0.3397

 eigenvalue-minimisations  :   672
 total energy-change (2. order) : 0.2825787E+03  (-0.1803260E+04)
 number of electron      64.0000000 magnetization 
 augmentation part       64.0000000 magnetization 

 Free energy of the ion-electron system (eV)
  ---------------------------------------------------
  alpha Z        PSCENC =       127.25051322
  Ewald energy   TEWEN  =     -2141.52124434
  -Hartree energ DENC   =      -288.19033652
  -exchange      EXHF   =         0.00000000
  -V(xc)+E(xc)   XCENC  =      -224.51896858
  PAW double counting   =      2090.17131262    -1735.16623812
  entropy T*S    EENTRO =        -0.01131004
  eigenvalues    EBANDS =       141.46180635
  atomic energy  EATOM  =      2313.10313368
  Solvation  Ediel_sol  =         0.00000000
  ---------------------------------------------------
  free energy    TOTEN  =       282.57866827 eV

  energy without entropy =      282.58997831  energy(sigma->0) =      282.58432329


--------------------------------------------------------------------------------------------------------




--------------------------------------- Iteration      1(   2)  ---------------------------------------


     EDDAV:  cpu time    0.2232: real time    0.2233
       DOS:  cpu time    0.0002: real time    0.0002
    --------------------------------------------
      LOOP:  cpu time    0.2234: real time    0.2235

 eigenvalue-minimisations  :   896
 total energy-change (2. order) :-0.3128792E+03  (-0.3054342E+03)
 number of electron      64.0000000 magnetization 
 augmentation part       64.0000000 magnetization 

 Free energy of the ion-electron system (eV)
  ---------------------------------------------------
  alpha Z        PSCENC =       127.25051322
  Ewald energy   TEWEN  =     -2141.52124434
  -Hartree energ DENC   =      -288.19033652
  -exchange      EXHF   =         0.00000000
  -V(xc)+E(xc)   XCENC  =      -224.51896858
  PAW double counting   =      2090.17131262    -1735.16623812
  entropy T*S    EENTRO =        -0.00000000
  eigenvalues    EBANDS =      -171.42872022
  atomic energy  EATOM  =      2313.10313368
  Solvation  Ediel_sol  =         0.00000000
  ---------------------------------------------------
  free energy    TOTEN  =       -30.30054826 eV

  energy without entropy =      -30.30054826  energy(sigma->0) =      -30.30054826


--------------------------------------------------------------------------------------------------------




--------------------------------------- Iteration      1(   3)  ---------------------------------------


     EDDAV:  cpu time    0.2983: real time    0.2984
       DOS:  cpu time    0.0002: real time    0.0002
    --------------------------------------------
      LOOP:  cpu time    0.2985: real time    0.2986

 eigenvalue-minimisations  :   896
 total energy-change (2. order) :-0.2232617E+02  (-0.2225535E+02)
 number of electron      64.0000000 magnetization 
 augmentation part       64.0000000 magnetization 

 Free energy of the ion-electron system (eV)
  ---------------------------------------------------
  alpha Z        PSCENC =       127.25051322
  Ewald energy   TEWEN  =     -2141.52124434
  -Hartree energ DENC   =      -288.19033652
  -exchange      EXHF   =         0.00000000
  -V(xc)+E(xc)   XCENC  =      -224.51896858
  PAW double counting   =      2090.17131262    -1735.16623812
  entropy T*S    EENTRO =        -0.00000000
  eigenvalues    EBANDS =      -193.75488875
  atomic energy  EATOM  =      2313.10313368
  Solvation  Ediel_sol  =         0.00000000
  ---------------------------------------------------
  free energy    TOTEN  =       -52.62671679 eV

  energy without entropy =      -52.62671679  energy(sigma->0) =      -52.62671679


--------------------------------------------------------------------------------------------------------




--------------------------------------- Iteration      1(   4)  ---------------------------------------


     EDDAV:  cpu time    0.2730: real time    0.2732
       DOS:  cpu time    0.0003: real time    0.0003
    --------------------------------------------
      LOOP:  cpu time    0.2733: real time    0.2735

 eigenvalue-minimisations  :   826
 total energy-change (2. order) :-0.4055440E+00  (-0.4052483E+00)
 number of electron      64.0000000 magnetization 
 augmentation part       64.0000000 magnetization 

 Free energy of the ion-electron system (eV)
  ---------------------------------------------------
  alpha Z        PSCENC =       127.25051322
  Ewald energy   TEWEN  =     -2141.52124434
  -Hartree energ DENC   =      -288.19033652
  -exchange      EXHF   =         0.00000000
  -V(xc)+E(xc)   XCENC  =      -224.51896858
  PAW double counting   =      2090.17131262    -1735.16623812
  entropy T*S    EENTRO =        -0.00000000
  eigenvalues    EBANDS =      -194.16043275
  atomic energy  EATOM  =      2313.10313368
  Solvation  Ediel_sol  =         0.00000000
  ---------------------------------------------------
  free energy    TOTEN  =       -53.03226079 eV

  energy without entropy =      -53.03226079  energy(sigma->0) =      -53.03226079


--------------------------------------------------------------------------------------------------------




--------------------------------------- Iteration      1(   5)  ---------------------------------------


     EDDAV:  cpu time    0.2267: real time    0.2269
       DOS:  cpu time    0.0002: real time    0.0002
    CHARGE:  cpu time    0.0108: real time    0.0108
    MIXING:  cpu time    0.0004: real time    0.0004
    --------------------------------------------
      LOOP:  cpu time    0.2381: real time    0.2383

 eigenvalue-minimisations  :   896
 total energy-change (2. order) :-0.1267500E-01  (-0.1267251E-01)
 number of electron      64.0000406 magnetization 
 augmentation part      -11.1667765 magnetization 

 Broyden mixing:
  rms(total) = 0.13516E+01    rms(broyden)= 0.13516E+01
  rms(prec ) = 0.16776E+01
  weight for this iteration     100.00

 Free energy of the ion-electron system (eV)
  ---------------------------------------------------
  alpha Z        PSCENC =       127.25051322
  Ewald energy   TEWEN  =     -2141.52124434
  -Hartree energ DENC   =      -288.19033652
  -exchange      EXHF   =         0.00000000
  -V(xc)+E(xc)   XCENC  =      -224.51896858
  PAW double counting   =      2090.17131262    -1735.16623812
  entropy T*S    EENTRO =        -0.00000000
  eigenvalues    EBANDS =      -194.17310775
  atomic energy  EATOM  =      2313.10313368
  Solvation  Ediel_sol  =         0.00000000
  ---------------------------------------------------
  free energy    TOTEN  =       -53.04493579 eV

  energy without entropy =      -53.04493579  energy(sigma->0) =      -53.04493579


--------------------------------------------------------------------------------------------------------




--------------------------------------- Iteration      1(   6)  ---------------------------------------


    POTLOK:  cpu time    0.0046: real time    0.0047
    SETDIJ:  cpu time    0.1617: real time    0.1617
     EDDAV:  cpu time    0.2148: real time    0.2148
       DOS:  cpu time    0.0003: real time    0.0003
    CHARGE:  cpu time    0.0112: real time    0.0112
    MIXING:  cpu time    0.0007: real time    0.0007
    --------------------------------------------
      LOOP:  cpu time    0.3934: real time    0.3935

 eigenvalue-minimisations  :   812
 total energy-change (2. order) : 0.2261681E+01  (-0.3168750E+00)
 number of electron      64.0000398 magnetization 
 augmentation part      -11.0257612 magnetization 

 Broyden mixing:
  rms(total) = 0.87463E+00    rms(broyden)= 0.87463E+00
  rms(prec ) = 0.98480E+00
  weight for this iteration     100.00

 eigenvalues of (default mixing * dielectric matrix)
  average eigenvalue GAMMA=   2.3004
  2.3004

 Free energy of the ion-electron system (eV)
  ---------------------------------------------------
  alpha Z        PSCENC =       127.25051322
  Ewald energy   TEWEN  =     -2141.52124434
  -Hartree energ DENC   =      -309.84735177
  -exchange      EXHF   =         0.00000000
  -V(xc)+E(xc)   XCENC  =      -221.72818993
  PAW double counting   =      3062.25764236    -2709.04527889
  entropy T*S    EENTRO =        -0.00000000
  eigenvalues    EBANDS =      -171.25247869
  atomic energy  EATOM  =      2313.10313368
  Solvation  Ediel_sol  =         0.00000000
  ---------------------------------------------------
  free energy    TOTEN  =       -50.78325436 eV

  energy without entropy =      -50.78325436  energy(sigma->0) =      -50.78325436


--------------------------------------------------------------------------------------------------------




--------------------------------------- Iteration      1(   7)  ---------------------------------------


    POTLOK:  cpu time    0.0075: real time    0.0077
    SETDIJ:  cpu time    0.1645: real time    0.1646
     EDDAV:  cpu time    0.2931: real time    0.2931
       DOS:  cpu time    0.0002: real time    0.0002
    CHARGE:  cpu time    0.0097: real time    0.0097
    MIXING:  cpu time    0.0005: real time    0.0005
    --------------------------------------------
      LOOP:  cpu time    0.4755: real time    0.4757

 eigenvalue-minimisations  :   896
 total energy-change (2. order) : 0.4434890E+00  (-0.2082641E+00)
 number of electron      64.0000391 magnetization 
 augmentation part      -10.8785577 magnetization 

 Broyden mixing:
  rms(total) = 0.26632E+00    rms(broyden)= 0.26631E+00
  rms(prec ) = 0.29185E+00
  weight for this iteration     100.00

 eigenvalues of (default mixing * dielectric matrix)
  average eigenvalue GAMMA=   1.8558
  1.6051  2.1064

 Free energy of the ion-electron system (eV)
  ---------------------------------------------------
  alpha Z        PSCENC =       127.25051322
  Ewald energy   TEWEN  =     -2141.52124434
  -Hartree energ DENC   =      -330.28729799
  -exchange      EXHF   =         0.00000000
  -V(xc)+E(xc)   XCENC  =      -218.67103755
  PAW double counting   =      4817.68779385    -4466.43406860
  entropy T*S    EENTRO =        -0.00000000
  eigenvalues    EBANDS =      -151.46755763
  atomic energy  EATOM  =      2313.10313368
  Solvation  Ediel_sol  =         0.00000000
  ---------------------------------------------------
  free energy    TOTEN  =       -50.33976536 eV

  energy without entropy =      -50.33976536  energy(sigma->0) =      -50.33976536


--------------------------------------------------------------------------------------------------------




--------------------------------------- Iteration      1(   8)  ---------------------------------------


    POTLOK:  cpu time    0.0057: real time    0.0057
    SETDIJ:  cpu time    0.1612: real time    0.1612
     EDDAV:  cpu time    0.1569: real time    0.1569
       DOS:  cpu time    0.0001: real time    0.0001
    CHARGE:  cpu time    0.0086: real time    0.0086
    MIXING:  cpu time    0.0003: real time    0.0003
    --------------------------------------------
      LOOP:  cpu time    0.3328: real time    0.3328

 eigenvalue-minimisations  :   826
 total energy-change (2. order) : 0.1178877E-01  (-0.1614744E-01)
 number of electron      64.0000392 magnetization 
 augmentation part      -10.8939251 magnetization 

 Broyden mixing:
  rms(total) = 0.67199E-01    rms(broyden)= 0.67199E-01
  rms(prec ) = 0.75453E-01
  weight for this iteration     100.00

 eigenvalues of (default mixing * dielectric matrix)
  average eigenvalue GAMMA=   1.9015
  2.5939  1.5553  1.5553

 Free energy of the ion-electron system (eV)
  ---------------------------------------------------
  alpha Z        PSCENC =       127.25051322
  Ewald energy   TEWEN  =     -2141.52124434
  -Hartree energ DENC   =      -329.49797199
  -exchange      EXHF   =         0.00000000
  -V(xc)+E(xc)   XCENC  =      -218.31394524
  PAW double counting   =      5300.05634732    -4949.04371836
  entropy T*S    EENTRO =        -0.00000000
  eigenvalues    EBANDS =      -152.36109089
  atomic energy  EATOM  =      2313.10313368
  Solvation  Ediel_sol  =         0.00000000
  ---------------------------------------------------
  free energy    TOTEN  =       -50.32797659 eV

  energy without entropy =      -50.32797659  energy(sigma->0) =      -50.32797659


--------------------------------------------------------------------------------------------------------




--------------------------------------- Iteration      1(   9)  ---------------------------------------


    POTLOK:  cpu time    0.0040: real time    0.0050
    SETDIJ:  cpu time    0.1609: real time    0.1609
     EDDAV:  cpu time    0.1883: real time    0.1913
       DOS:  cpu time    0.0001: real time    0.0001
    CHARGE:  cpu time    0.0093: real time    0.0093
    MIXING:  cpu time    0.0003: real time    0.0003
    --------------------------------------------
      LOOP:  cpu time    0.3629: real time    0.3671

 eigenvalue-minimisations  :   896
 total energy-change (2. order) :-0.4318995E-02  (-0.1209918E-02)
 number of electron      64.0000392 magnetization 
 augmentation part      -10.8993779 magnetization 

 Broyden mixing:
  rms(total) = 0.17502E-01    rms(broyden)= 0.17502E-01
  rms(prec ) = 0.18667E-01
  weight for this iteration     100.00

 eigenvalues of (default mixing * dielectric matrix)
  average eigenvalue GAMMA=   1.6813
  2.3609  1.1336  1.6153  1.6153

 Free energy of the ion-electron system (eV)
  ---------------------------------------------------
  alpha Z        PSCENC =       127.25051322
  Ewald energy   TEWEN  =     -2141.52124434
  -Hartree energ DENC   =      -330.67520208
  -exchange      EXHF   =         0.00000000
  -V(xc)+E(xc)   XCENC  =      -218.01364414
  PAW double counting   =      5468.89811272    -5118.02076735
  entropy T*S    EENTRO =        -0.00000000
  eigenvalues    EBANDS =      -151.35319730
  atomic energy  EATOM  =      2313.10313368
  Solvation  Ediel_sol  =         0.00000000
  ---------------------------------------------------
  free energy    TOTEN  =       -50.33229558 eV

  energy without entropy =      -50.33229558  energy(sigma->0) =      -50.33229558


--------------------------------------------------------------------------------------------------------




--------------------------------------- Iteration      1(  10)  ---------------------------------------


    POTLOK:  cpu time    0.0041: real time    0.0041
    SETDIJ:  cpu time    0.1619: real time    0.1620
     EDDAV:  cpu time    0.2033: real time    0.2033
       DOS:  cpu time    0.0002: real time    0.0002
    CHARGE:  cpu time    0.0097: real time    0.0097
    MIXING:  cpu time    0.0003: real time    0.0003
    --------------------------------------------
      LOOP:  cpu time    0.3795: real time    0.3796

 eigenvalue-minimisations  :   854
 total energy-change (2. order) :-0.1715944E-03  (-0.3191919E-04)
 number of electron      64.0000392 magnetization 
 augmentation part      -10.9001314 magnetization 

 Broyden mixing:
  rms(total) = 0.66791E-02    rms(broyden)= 0.66791E-02
  rms(prec ) = 0.87370E-02
  weight for this iteration     100.00

 eigenvalues of (default mixing * dielectric matrix)
  average eigenvalue GAMMA=   1.9349
  2.9597  2.6956  1.0105  1.5043  1.5043

 Free energy of the ion-electron system (eV)
  ---------------------------------------------------
  alpha Z        PSCENC =       127.25051322
  Ewald energy   TEWEN  =     -2141.52124434
  -Hartree energ DENC   =      -330.64578836
  -exchange      EXHF   =         0.00000000
  -V(xc)+E(xc)   XCENC  =      -218.03751003
  PAW double counting   =      5421.70342573    -5070.79030400
  entropy T*S    EENTRO =        -0.00000000
  eigenvalues    EBANDS =      -151.39469309
  atomic energy  EATOM  =      2313.10313368
  Solvation  Ediel_sol  =         0.00000000
  ---------------------------------------------------
  free energy    TOTEN  =       -50.33246718 eV

  energy without entropy =      -50.33246718  energy(sigma->0) =      -50.33246718


--------------------------------------------------------------------------------------------------------




--------------------------------------- Iteration      1(  11)  ---------------------------------------


    POTLOK:  cpu time    0.0044: real time    0.0045
    SETDIJ:  cpu time    0.1626: real time    0.1626
     EDDAV:  cpu time    0.3535: real time    0.3535
       DOS:  cpu time    0.0007: real time    0.0006
    CHARGE:  cpu time    0.0118: real time    0.0118
    MIXING:  cpu time    0.0006: real time    0.0006
    --------------------------------------------
      LOOP:  cpu time    0.5335: real time    0.5337

 eigenvalue-minimisations  :   882
 total energy-change (2. order) :-0.3964138E-03  (-0.5011154E-04)
 number of electron      64.0000392 magnetization 
 augmentation part      -10.8998164 magnetization 

 Broyden mixing:
  rms(total) = 0.26362E-02    rms(broyden)= 0.26362E-02
  rms(prec ) = 0.28832E-02
  weight for this iteration     100.00

 eigenvalues of (default mixing * dielectric matrix)
  average eigenvalue GAMMA=   1.7212
  2.8389  2.4702  1.5350  1.5350  1.0925  0.8554

 Free energy of the ion-electron system (eV)
  ---------------------------------------------------
  alpha Z        PSCENC =       127.25051322
  Ewald energy   TEWEN  =     -2141.52124434
  -Hartree energ DENC   =      -330.87441577
  -exchange      EXHF   =         0.00000000
  -V(xc)+E(xc)   XCENC  =      -218.00411024
  PAW double counting   =      5409.93953188    -5059.01853669
  entropy T*S    EENTRO =        -0.00000000
  eigenvalues    EBANDS =      -151.20773533
  atomic energy  EATOM  =      2313.10313368
  Solvation  Ediel_sol  =         0.00000000
  ---------------------------------------------------
  free energy    TOTEN  =       -50.33286359 eV

  energy without entropy =      -50.33286359  energy(sigma->0) =      -50.33286359


--------------------------------------------------------------------------------------------------------




--------------------------------------- Iteration      1(  12)  ---------------------------------------


    POTLOK:  cpu time    0.0070: real time    0.0072
    SETDIJ:  cpu time    0.1638: real time    0.1640
     EDDAV:  cpu time    0.2315: real time    0.2316
       DOS:  cpu time    0.0002: real time    0.0002
    --------------------------------------------
      LOOP:  cpu time    0.4026: real time    0.4031

 eigenvalue-minimisations  :   630
 total energy-change (2. order) :-0.7243922E-05  (-0.1196114E-05)
 number of electron      64.0000392 magnetization 
 augmentation part      -10.8998164 magnetization 

 Free energy of the ion-electron system (eV)
  ---------------------------------------------------
  alpha Z        PSCENC =       127.25051322
  Ewald energy   TEWEN  =     -2141.52124434
  -Hartree energ DENC   =      -330.88610002
  -exchange      EXHF   =         0.00000000
  -V(xc)+E(xc)   XCENC  =      -218.00096249
  PAW double counting   =      5417.56610874    -5066.65052032
  entropy T*S    EENTRO =        -0.00000000
  eigenvalues    EBANDS =      -151.19379931
  atomic energy  EATOM  =      2313.10313368
  Solvation  Ediel_sol  =         0.00000000
  ---------------------------------------------------
  free energy    TOTEN  =       -50.33287084 eV

  energy without entropy =      -50.33287084  energy(sigma->0) =      -50.33287084


--------------------------------------------------------------------------------------------------------




 average (electrostatic) potential at core
  the test charge radii are     1.1212  1.2767  1.0808
  (the norm of the test charge is              1.0000)
       1 -39.0081       2 -39.0081       3 -39.0081       4 -39.0081       5 -14.1146
       6 -14.1146       7 -14.1146       8 -14.1146       9 -54.2958      10 -54.2958
      11 -54.2958      12 -54.2958      13 -54.3081      14 -54.3081      15 -54.3081
      16 -54.3081
 
 
 
 E-fermi :   2.9406     XC(G=0):  -9.2804     alpha+bet : -9.8451


 k-point     1 :       0.0000    0.0000    0.0000
  band No.  band energies     occupation 
      1     -11.1731      2.00000
      2     -10.1869      2.00000
      3     -10.1727      2.00000
      4      -9.3708      2.00000
      5      -9.3588      2.00000
      6      -9.2146      2.00000
      7      -9.1739      2.00000
      8      -9.1233      2.00000
      9      -4.6213      2.00000
     10      -3.4878      2.00000
     11      -3.0191      2.00000
     12      -1.5624      2.00000
     13      -1.5394      2.00000
     14      -1.2978      2.00000
     15      -1.2488      2.00000
     16      -1.1642      2.00000
     17      -0.4842      2.00000
     18      -0.3970      2.00000
     19      -0.0832      2.00000
     20       0.4235      2.00000
     21       0.8796      2.00000
     22       0.9304      2.00000
     23       1.1299      2.00000
     24       1.1932      2.00000
     25       1.2592      2.00000
     26       1.3731      2.00000
     27       2.0570      2.00000
     28       2.1206      2.00000
     29       2.1281      2.00000
     30       2.5145      2.00000
     31       2.6689      2.00000
     32       2.7204      2.00000
     33       6.0248      0.00000
     34       6.3514      0.00000
     35       6.4220      0.00000
     36       7.0440      0.00000
     37       7.0770      0.00000
     38       7.1977      0.00000
     39       7.4673      0.00000
     40       8.3174      0.00000
     41       8.8959      0.00000
     42       9.1472      0.00000

 k-point     2 :       0.3333    0.0000    0.0000
  band No.  band energies     occupation 
      1     -10.9314      2.00000
      2     -10.4032      2.00000
      3      -9.9629      2.00000
      4      -9.4481      2.00000
      5      -9.4202      2.00000
      6      -9.3125      2.00000
      7      -9.2766      2.00000
      8      -9.2292      2.00000
      9      -4.4030      2.00000
     10      -3.6613      2.00000
     11      -2.9373      2.00000
     12      -2.3380      2.00000
     13      -1.1129      2.00000
     14      -1.0505      2.00000
     15      -1.0312      2.00000
     16      -0.4541      2.00000
     17      -0.3957      2.00000
     18      -0.2210      2.00000
     19       0.0580      2.00000
     20       0.1856      2.00000
     21       0.5501      2.00000
     22       0.9861      2.00000
     23       1.1609      2.00000
     24       1.2674      2.00000
     25       1.5872      2.00000
     26       1.6359      2.00000
     27       1.7573      2.00000
     28       1.9710      2.00000
     29       2.2587      2.00000
     30       2.3297      2.00000
     31       2.3412      2.00000
     32       2.5652      2.00000
     33       5.9109      0.00000
     34       6.2849      0.00000
     35       6.5196      0.00000
     36       6.6816      0.00000
     37       7.1167      0.00000
     38       7.6720      0.00000
     39       7.7939      0.00000
     40       8.0845      0.00000
     41       8.2600      0.00000
     42       8.4394      0.00000

 k-point     3 :       0.0000    0.3333    0.0000
  band No.  band energies     occupation 
      1     -10.9523      2.00000
      2     -10.4484      2.00000
      3      -9.9966      2.00000
      4      -9.6279      2.00000
      5      -9.3124      2.00000
      6      -9.2265      2.00000
      7      -9.2024      2.00000
      8      -9.1729      2.00000
      9      -4.2513      2.00000
     10      -3.6705      2.00000
     11      -2.6988      2.00000
     12      -2.2883      2.00000
     13      -1.4363      2.00000
     14      -1.3200      2.00000
     15      -1.1367      2.00000
     16      -0.9578      2.00000
     17      -0.1487      2.00000
     18      -0.1204      2.00000
     19       0.1096      2.00000
     20       0.5918      2.00000
     21       0.6237      2.00000
     22       0.8622      2.00000
     23       0.9068      2.00000
     24       1.1339      2.00000
     25       1.4864      2.00000
     26       1.6424      2.00000
     27       1.8114      2.00000
     28       2.0124      2.00000
     29       2.1541      2.00000
     30       2.2677      2.00000
     31       2.4019      2.00000
     32       2.5263      2.00000
     33       5.9922      0.00000
     34       6.1002      0.00000
     35       6.8326      0.00000
     36       6.9292      0.00000
     37       7.3387      0.00000
     38       7.4612      0.00000
     39       7.9695      0.00000
     40       8.0440      0.00000
     41       8.2234      0.00000
     42       8.3663      0.00000

 k-point     4 :       0.3333    0.3333    0.0000
  band No.  band energies     occupation 
      1     -10.7145      2.00000
      2     -10.2199      2.00000
      3     -10.2009      2.00000
      4      -9.7398      2.00000
      5      -9.3903      2.00000
      6      -9.3398      2.00000
      7      -9.2829      2.00000
      8      -9.2695      2.00000
      9      -4.0095      2.00000
     10      -3.3241      2.00000
     11      -3.3138      2.00000
     12      -2.8023      2.00000
     13      -0.9657      2.00000
     14      -0.9621      2.00000
     15      -0.7481      2.00000
     16      -0.4437      2.00000
     17      -0.4205      2.00000
     18       0.2127      2.00000
     19       0.3985      2.00000
     20       0.5869      2.00000
     21       0.6812      2.00000
     22       0.7087      2.00000
     23       1.1510      2.00000
     24       1.1585      2.00000
     25       1.4545      2.00000
     26       1.5296      2.00000
     27       1.7229      2.00000
     28       1.7632      2.00000
     29       2.0571      2.00000
     30       2.1912      2.00000
     31       2.2420      2.00000
     32       2.2938      2.00000
     33       5.9324      0.00000
     34       6.1627      0.00000
     35       6.2870      0.00000
     36       6.3644      0.00000
     37       7.2549      0.00000
     38       7.4769      0.00000
     39       7.5395      0.00000
     40       7.8747      0.00000
     41       8.1398      0.00000
     42       8.2848      0.00000

 k-point     5 :       0.0000    0.0000    0.3333
  band No.  band energies     occupation 
      1     -11.0334      2.00000
      2     -10.6594      2.00000
      3      -9.7253      2.00000
      4      -9.3732      2.00000
      5      -9.3459      2.00000
      6      -9.2714      2.00000
      7      -9.2440      2.00000
      8      -9.1518      2.00000
      9      -4.3822      2.00000
     10      -3.8765      2.00000
     11      -2.6495      2.00000
     12      -2.1403      2.00000
     13      -1.4618      2.00000
     14      -1.2675      2.00000
     15      -0.7784      2.00000
     16      -0.7175      2.00000
     17      -0.6739      2.00000
     18      -0.2003      2.00000
     19       0.0153      2.00000
     20       0.0804      2.00000
     21       0.7274      2.00000
     22       0.8919      2.00000
     23       1.1181      2.00000
     24       1.1809      2.00000
     25       1.4964      2.00000
     26       1.5504      2.00000
     27       1.7200      2.00000
     28       1.8886      2.00000
     29       1.9851      2.00000
     30       2.0006      2.00000
     31       2.5143      2.00000
     32       2.5331      2.00000
     33       6.4349      0.00000
     34       6.7080      0.00000
     35       6.7739      0.00000
     36       7.0459      0.00000
     37       7.6002      0.00000
     38       7.6828      0.00000
     39       7.8610      0.00000
     40       8.0067      0.00000
     41       8.4372      0.00000
     42       9.0673      0.00000

 k-point     6 :       0.3333    0.0000    0.3333
  band No.  band energies     occupation 
      1     -10.8161      2.00000
      2     -10.5515      2.00000
      3      -9.8851      2.00000
      4      -9.6372      2.00000
      5      -9.3742      2.00000
      6      -9.2866      2.00000
      7      -9.2471      2.00000
      8      -9.2128      2.00000
      9      -4.2489      2.00000
     10      -3.9158      2.00000
     11      -2.5934      2.00000
     12      -2.3111      2.00000
     13      -1.1877      2.00000
     14      -1.0592      2.00000
     15      -0.6698      2.00000
     16      -0.6678      2.00000
     17      -0.4156      2.00000
     18      -0.2531      2.00000
     19       0.3146      2.00000
     20       0.3394      2.00000
     21       0.5158      2.00000
     22       0.5232      2.00000
     23       1.0161      2.00000
     24       1.2494      2.00000
     25       1.3997      2.00000
     26       1.5620      2.00000
     27       1.8066      2.00000
     28       1.9310      2.00000
     29       1.9946      2.00000
     30       2.2355      2.00000
     31       2.2775      2.00000
     32       2.3747      2.00000
     33       6.2653      0.00000
     34       6.7554      0.00000
     35       6.8280      0.00000
     36       6.9039      0.00000
     37       7.5698      0.00000
     38       7.5855      0.00000
     39       8.1389      0.00000
     40       8.2190      0.00000
     41       8.3225      0.00000
     42       8.7086      0.00000

 k-point     7 :       0.0000    0.3333    0.3333
  band No.  band energies     occupation 
      1     -10.8396      2.00000
      2     -10.5856      2.00000
      3      -9.9294      2.00000
      4      -9.7308      2.00000
      5      -9.3119      2.00000
      6      -9.2306      2.00000
      7      -9.1805      2.00000
      8      -9.1603      2.00000
      9      -4.0977      2.00000
     10      -3.8286      2.00000
     11      -2.4252      2.00000
     12      -2.2183      2.00000
     13      -1.4923      2.00000
     14      -1.2464      2.00000
     15      -1.0682      2.00000
     16      -0.9269      2.00000
     17      -0.3525      2.00000
     18      -0.2295      2.00000
     19       0.1843      2.00000
     20       0.4869      2.00000
     21       0.5036      2.00000
     22       0.8497      2.00000
     23       1.0018      2.00000
     24       1.0257      2.00000
     25       1.3142      2.00000
     26       1.5866      2.00000
     27       1.8523      2.00000
     28       1.8959      2.00000
     29       1.9977      2.00000
     30       2.1966      2.00000
     31       2.4081      2.00000
     32       2.4574      2.00000
     33       6.1862      0.00000
     34       6.6356      0.00000
     35       6.8666      0.00000
     36       7.3229      0.00000
     37       7.5106      0.00000
     38       7.6780      0.00000
     39       7.7749      0.00000
     40       8.0435      0.00000
     41       8.3578      0.00000
     42       8.8463      0.00000

 k-point     8 :       0.3333    0.3333    0.3333
  band No.  band energies     occupation 
      1     -10.6188      2.00000
      2     -10.4064      2.00000
      3     -10.0104      2.00000
      4      -9.8147      2.00000
      5      -9.4382      2.00000
      6      -9.3798      2.00000
      7      -9.2785      2.00000
      8      -9.2588      2.00000
      9      -3.8616      2.00000
     10      -3.6123      2.00000
     11      -2.8694      2.00000
     12      -2.6690      2.00000
     13      -1.0395      2.00000
     14      -0.8870      2.00000
     15      -0.6733      2.00000
     16      -0.5015      2.00000
     17      -0.2756      2.00000
     18      -0.0729      2.00000
     19       0.2084      2.00000
     20       0.4523      2.00000
     21       0.5166      2.00000
     22       0.7438      2.00000
     23       0.9312      2.00000
     24       0.9997      2.00000
     25       1.2743      2.00000
     26       1.3855      2.00000
     27       1.7293      2.00000
     28       1.9038      2.00000
     29       2.1165      2.00000
     30       2.1635      2.00000
     31       2.2656      2.00000
     32       2.3445      2.00000
     33       6.0427      0.00000
     34       6.4401      0.00000
     35       6.6344      0.00000
     36       6.8349      0.00000
     37       7.4242      0.00000
     38       7.5072      0.00000
     39       7.7463      0.00000
     40       8.0181      0.00000
     41       8.4148      0.00000
     42       8.5797      0.00000


--------------------------------------------------------------------------------------------------------


 soft charge-density along one line, spin component           1
         0         1         2         3         4         5         6         7         8         9
 total charge-density along one line
 
 pseudopotential strength for first ion, spin component:           1
  1.449   6.418  -0.000  -0.000   0.000
  6.418  28.091  -0.001  -0.001   0.001
 -0.000  -0.001   5.878  -0.000   0.000
 -0.000  -0.001  -0.000   5.878   0.000
  0.000   0.001   0.000   0.000   5.878
 total augmentation occupancy for first ion, spin component:           1
  1.045   0.010  -0.011  -0.005   0.005
  0.010   0.000  -0.000  -0.000   0.000
 -0.011  -0.000   0.058   0.001   0.002
 -0.005  -0.000   0.001   0.064   0.000
  0.005   0.000   0.002   0.000   0.059


------------------------ aborting loop because EDIFF is reached ----------------------------------------


 


 total charge     
 
# of ion       s       p       d       tot
------------------------------------------
    1        0.124   0.115   0.000   0.239
    2        0.123   0.115   0.000   0.238
    3        0.123   0.115   0.000   0.238
    4        0.125   0.114   0.000   0.239
    5        1.088   1.477   0.298   2.863
    6        1.089   1.477   0.297   2.864
    7        1.090   1.475   0.298   2.864
    8        1.089   1.476   0.299   2.863
    9        1.449   2.605   0.027   4.080
   10        1.449   2.604   0.026   4.080
   11        1.450   2.606   0.026   4.082
   12        1.449   2.605   0.027   4.081
   13        1.450   2.599   0.027   4.076
   14        1.450   2.600   0.027   4.077
   15        1.450   2.597   0.027   4.073
   16        1.450   2.597   0.027   4.074
--------------------------------------------------
tot         16.450  27.178   1.404  45.031
 
    CHARGE:  cpu time    0.0108: real time    0.0108
    FORLOC:  cpu time    0.0007: real time    0.0007
    FORNL :  cpu time    0.0482: real time    0.0482
    STRESS:  cpu time    0.1465: real time    0.1465
    FORCOR:  cpu time    0.0047: real time    0.0047
    FORHAR:  cpu time    0.0015: real time    0.0015
    MIXING:  cpu time    0.0005: real time    0.0005
    OFIELD:  cpu time    0.0000: real time    0.0000

  FORCE on cell =-STRESS in cart. coord.  units (eV):
  Direction    XX          YY          ZZ          XY          YZ          ZX
  --------------------------------------------------------------------------------------
  Alpha Z   127.25051   127.25051   127.25051
  Ewald    -698.14614  -721.51928  -721.85889    -0.00000    -0.00000     0.00000
  Hartree   119.35087   112.45969    99.10442    -0.00000    -0.00000    -0.00000
  E(xc)    -244.59523  -244.69384  -245.19251     0.00000     0.00000     0.00000
  Local    -331.22922  -303.17150  -283.74204    -0.00000     0.00000     0.00000
  n-local   417.11090   416.93882   419.91406    -0.05757    -0.10229    -0.05540
  augment   -18.23545   -18.34679   -18.00839     0.00000     0.00000     0.00000
  Kinetic   682.00072   682.98327   680.18505    -0.47176     0.38015     0.23168
  Fock        0.00000     0.00000     0.00000     0.00000     0.00000     0.00000
  -------------------------------------------------------------------------------------
  Total      53.50697    51.90089    57.65221     0.00000     0.00000     0.00000
  in kB     270.75796   262.63079   291.73385     0.00000     0.00000     0.00000
  external pressure =      275.04 kB  Pullay stress =        0.00 kB


 VOLUME and BASIS-vectors are now :
 -----------------------------------------------------------------------------
  energy-cutoff  :      300.00
  volume of cell :      316.62
      direct lattice vectors                 reciprocal lattice vectors
     6.204654770  0.000000000  0.000000000     0.161169322  0.000000000  0.000000000
     0.000000000  6.495612760  0.000000000     0.000000000  0.153950064  0.000000000
     0.000000000  0.000000000  7.856009060     0.000000000  0.000000000  0.127291096

  length of vectors
     6.204654770  6.495612760  7.856009060     0.161169322  0.153950064  0.127291096


 FORCES acting on ions
    electron-ion (+dipol)            ewald-force                    non-local-force                 convergence-correction
 -----------------------------------------------------------------------------------------------
   -.454E-01 -.171E+01 -.529E+00   0.118E+00 0.147E+01 0.424E+00   -.197E+00 0.482E+00 0.282E+00   -.181E-04 0.716E-05 -.136E-04
   -.454E-01 0.171E+01 0.529E+00   0.118E+00 -.147E+01 -.424E+00   -.197E+00 -.482E+00 -.282E+00   -.181E-04 -.716E-05 0.136E-04
   -.454E-01 0.171E+01 -.529E+00   0.118E+00 -.147E+01 0.424E+00   -.197E+00 -.482E+00 0.282E+00   -.181E-04 -.716E-05 -.136E-04
   -.454E-01 -.171E+01 0.529E+00   0.118E+00 0.147E+01 -.424E+00   -.197E+00 0.482E+00 -.282E+00   -.181E-04 0.716E-05 0.136E-04
   -.516E+00 -.828E+00 0.978E+00   0.499E+00 0.750E+00 -.910E+00   0.160E-01 -.414E-01 -.622E-01   0.288E-04 0.501E-04 0.894E-04
   -.516E+00 0.828E+00 -.978E+00   0.499E+00 -.750E+00 0.910E+00   0.160E-01 0.414E-01 0.622E-01   0.288E-04 -.501E-04 -.894E-04
   -.516E+00 0.828E+00 0.978E+00   0.499E+00 -.750E+00 -.910E+00   0.160E-01 0.414E-01 -.622E-01   0.288E-04 -.501E-04 0.894E-04
   -.516E+00 -.828E+00 -.978E+00   0.499E+00 0.750E+00 0.910E+00   0.160E-01 -.414E-01 0.622E-01   0.288E-04 0.501E-04 -.894E-04
   -.175E+02 -.112E+02 0.262E+02   0.192E+02 0.121E+02 -.284E+02   -.146E+01 -.114E+01 0.188E+01   0.105E-02 0.235E-03 -.130E-02
   -.175E+02 0.112E+02 -.262E+02   0.192E+02 -.121E+02 0.284E+02   -.146E+01 0.114E+01 -.188E+01   0.105E-02 -.235E-03 0.130E-02
   -.175E+02 0.112E+02 0.262E+02   0.192E+02 -.121E+02 -.284E+02   -.146E+01 0.114E+01 0.188E+01   0.105E-02 -.235E-03 -.130E-02
   -.175E+02 -.112E+02 -.262E+02   0.192E+02 0.121E+02 0.284E+02   -.146E+01 -.114E+01 -.188E+01   0.105E-02 0.235E-03 0.130E-02
   0.181E+02 0.151E+02 -.260E+02   -.198E+02 -.163E+02 0.281E+02   0.149E+01 0.101E+01 -.179E+01   -.117E-02 -.856E-03 0.146E-02
   0.181E+02 -.151E+02 0.260E+02   -.198E+02 0.163E+02 -.281E+02   0.149E+01 -.101E+01 0.179E+01   -.117E-02 0.856E-03 -.146E-02
   0.181E+02 -.151E+02 -.260E+02   -.198E+02 0.163E+02 0.281E+02   0.149E+01 -.101E+01 -.179E+01   -.117E-02 0.856E-03 0.146E-02
   0.181E+02 0.151E+02 0.260E+02   -.198E+02 -.163E+02 -.281E+02   0.149E+01 0.101E+01 0.179E+01   -.117E-02 -.856E-03 -.146E-02
 -----------------------------------------------------------------------------------------------
   0.436E+00 0.363E-12 0.290E-04   0.107E-13 -.107E-13 0.711E-14   -.583E+00 0.000E+00 0.000E+00   -.427E-03 0.320E-13 -.237E-13
 
 
 POSITION                                       TOTAL-FORCE (eV/Angst)
 -----------------------------------------------------------------------------------
      0.73097      5.95413      2.96726        -0.114364      0.238698      0.176596
      3.83330      0.54148      4.88875        -0.114364     -0.238698     -0.176596
      3.83330      3.78928      6.89526        -0.114364     -0.238698      0.176596
      0.73097      2.70633      0.96075        -0.114364      0.238698     -0.176596
      3.85541      3.72691      2.93720         0.008021     -0.118900      0.005845
      0.75308      2.76870      4.91881         0.008021      0.118900     -0.005845
      0.75308      6.01651      6.86521         0.008021      0.118900      0.005845
      3.85541      0.47911      0.99080         0.008021     -0.118900     -0.005845
      6.11459      3.66635      3.03607         0.232364     -0.190950     -0.263675
      3.01226      2.82926      4.81994         0.232364      0.190950      0.263675
      3.01226      6.07707      6.96407         0.232364      0.190950     -0.263675
      6.11459      0.41855      0.89194         0.232364     -0.190950      0.263675
      0.06411      3.86649      6.76628        -0.126020     -0.177157      0.318306
      3.16644      2.62912      1.08973        -0.126020      0.177157     -0.318306
      3.16644      5.87693      2.83827        -0.126020      0.177157      0.318306
      0.06411      0.61869      5.01774        -0.126020     -0.177157     -0.318306
 -----------------------------------------------------------------------------------
    total drift:                               -0.147834      0.000000      0.000029


--------------------------------------------------------------------------------------------------------



  FREE ENERGIE OF THE ION-ELECTRON SYSTEM (eV)
  ---------------------------------------------------
  free  energy   TOTEN  =       -50.33287084 eV

  energy  without entropy=      -50.33287084  energy(sigma->0) =      -50.33287084
 


--------------------------------------------------------------------------------------------------------


    POTLOK:  cpu time    0.1685: real time    0.1685


--------------------------------------------------------------------------------------------------------




--------------------------------------------------------------------------------------------------------


    WAVPRE:  cpu time    0.0053: real time    0.0055
    FEWALD:  cpu time    0.0005: real time    0.0006
    GENKIN:  cpu time    0.0034: real time    0.0034
    ORTHCH:  cpu time    0.0208: real time    0.0208
     LOOP+:  cpu time    4.8307: real time    4.8373


--------------------------------------- Iteration      2(   1)  ---------------------------------------


    POTLOK:  cpu time    0.0052: real time    0.0053
    SETDIJ:  cpu time    0.1654: real time    0.1654
     EDDAV:  cpu time    0.2814: real time    0.2814
       DOS:  cpu time    0.0003: real time    0.0003
    CHARGE:  cpu time    0.0111: real time    0.0112
    MIXING:  cpu time    0.0004: real time    0.0004
    --------------------------------------------
      LOOP:  cpu time    0.4638: real time    0.4640

 eigenvalue-minimisations  :   742
 total energy-change (2. order) :-0.5891242E+01  (-0.3303666E+01)
 number of electron      64.0000269 magnetization 
 augmentation part      -11.1921104 magnetization 

 Broyden mixing:
  rms(total) = 0.68043E+00    rms(broyden)= 0.68036E+00
  rms(prec ) = 0.97412E+00
  weight for this iteration     100.00

 Free energy of the ion-electron system (eV)
  ---------------------------------------------------
  alpha Z        PSCENC =       115.51578343
  Ewald energy   TEWEN  =     -2074.45309210
  -Hartree energ DENC   =      -319.72310705
  -exchange      EXHF   =         0.00000000
  -V(xc)+E(xc)   XCENC  =      -220.40186510
  PAW double counting   =      5414.98588954    -5064.06933909
  entropy T*S    EENTRO =        -0.00000000
  eigenvalues    EBANDS =      -221.18150923
  atomic energy  EATOM  =      2313.10313368
  Solvation  Ediel_sol  =         0.00000000
  ---------------------------------------------------
  free energy    TOTEN  =       -56.22410592 eV

  energy without entropy =      -56.22410592  energy(sigma->0) =      -56.22410592


--------------------------------------------------------------------------------------------------------




--------------------------------------- Iteration      2(   2)  ---------------------------------------


    POTLOK:  cpu time    0.0056: real time    0.0058
    SETDIJ:  cpu time    0.1652: real time    0.1652
     EDDAV:  cpu time    0.2671: real time    0.2671
       DOS:  cpu time    0.0002: real time    0.0002
    CHARGE:  cpu time    0.0104: real time    0.0104
    MIXING:  cpu time    0.0003: real time    0.0003
    --------------------------------------------
      LOOP:  cpu time    0.4488: real time    0.4490

 eigenvalue-minimisations  :   812
 total energy-change (2. order) : 0.1332325E+01  (-0.2392723E+00)
 number of electron      64.0000263 magnetization 
 augmentation part      -11.0295106 magnetization 

 Broyden mixing:
  rms(total) = 0.27391E+00    rms(broyden)= 0.27391E+00
  rms(prec ) = 0.41258E+00
  weight for this iteration     100.00

 eigenvalues of (default mixing * dielectric matrix)
  average eigenvalue GAMMA=   1.5872
  1.5872

 Free energy of the ion-electron system (eV)
  ---------------------------------------------------
  alpha Z        PSCENC =       115.51578343
  Ewald energy   TEWEN  =     -2074.45309210
  -Hartree energ DENC   =      -339.10657694
  -exchange      EXHF   =         0.00000000
  -V(xc)+E(xc)   XCENC  =      -219.91203184
  PAW double counting   =      4944.56198684    -4593.50231164
  entropy T*S    EENTRO =        -0.00000000
  eigenvalues    EBANDS =      -201.09867200
  atomic energy  EATOM  =      2313.10313368
  Solvation  Ediel_sol  =         0.00000000
  ---------------------------------------------------
  free energy    TOTEN  =       -54.89178057 eV

  energy without entropy =      -54.89178057  energy(sigma->0) =      -54.89178057


[...]
     12      -3.8953      2.00000
     13      -2.7103      2.00000
     14      -2.6527      2.00000
     15      -2.4030      2.00000
     16      -2.3288      2.00000
     17      -1.8808      2.00000
     18      -1.6825      2.00000
     19      -1.5513      2.00000
     20      -1.2568      2.00000
     21      -1.1097      2.00000
     22      -0.9699      2.00000
     23      -0.9257      2.00000
     24      -0.8597      2.00000
     25      -0.6102      2.00000
     26      -0.5623      2.00000
     27      -0.3588      2.00000
     28      -0.1722      2.00000
     29      -0.1499      2.00000
     30      -0.1037      2.00000
     31      -0.0464      2.00000
     32       0.0660      2.00000
     33       2.6753      0.00000
     34       3.1183      0.00000
     35       3.4140      0.00000
     36       3.6784      0.00000
     37       4.2171      0.00000
     38       4.8354      0.00000
     39       5.0318      0.00000
     40       5.1191      0.00000
     41       5.3837      0.00000
     42       5.5399      0.00000

 k-point     4 :       0.3333    0.3333    0.0000
  band No.  band energies     occupation 
      1     -11.8759      2.00000
      2     -11.6109      2.00000
      3     -11.6067      2.00000
      4     -11.3345      2.00000
      5     -11.1085      2.00000
      6     -11.0899      2.00000
      7     -11.0865      2.00000
      8     -11.0462      2.00000
      9      -5.5561      2.00000
     10      -4.9967      2.00000
     11      -4.9511      2.00000
     12      -4.3793      2.00000
     13      -2.3554      2.00000
     14      -2.2573      2.00000
     15      -2.2155      2.00000
     16      -2.1009      2.00000
     17      -1.8287      2.00000
     18      -1.7074      2.00000
     19      -1.5256      2.00000
     20      -1.3568      2.00000
     21      -1.1626      2.00000
     22      -1.1097      2.00000
     23      -0.8620      2.00000
     24      -0.7752      2.00000
     25      -0.6694      2.00000
     26      -0.5522      2.00000
     27      -0.5357      2.00000
     28      -0.4247      2.00000
     29      -0.1019      2.00000
     30      -0.0956      2.00000
     31      -0.0019      2.00000
     32      -0.0002      2.00000
     33       2.9211      0.00000
     34       3.0096      0.00000
     35       3.1675      0.00000
     36       3.4644      0.00000
     37       4.4628      0.00000
     38       4.6151      0.00000
     39       4.7985      0.00000
     40       4.8640      0.00000
     41       5.2891      0.00000
     42       5.3952      0.00000

 k-point     5 :       0.0000    0.0000    0.3333
  band No.  band energies     occupation 
      1     -12.0667      2.00000
      2     -11.8774      2.00000
      3     -11.3524      2.00000
      4     -11.1476      2.00000
      5     -11.0993      2.00000
      6     -11.0888      2.00000
      7     -11.0210      2.00000
      8     -10.9717      2.00000
      9      -5.9152      2.00000
     10      -5.5041      2.00000
     11      -4.2640      2.00000
     12      -3.6799      2.00000
     13      -2.7460      2.00000
     14      -2.6806      2.00000
     15      -2.3691      2.00000
     16      -2.3152      2.00000
     17      -2.0931      2.00000
     18      -1.7929      2.00000
     19      -1.7443      2.00000
     20      -1.5844      2.00000
     21      -0.9930      2.00000
     22      -0.9622      2.00000
     23      -0.8390      2.00000
     24      -0.6431      2.00000
     25      -0.5313      2.00000
     26      -0.4704      2.00000
     27      -0.3349      2.00000
     28      -0.3031      2.00000
     29      -0.2497      2.00000
     30      -0.1669      2.00000
     31       0.0084      2.00000
     32       0.1004      2.00000
     33       2.5981      0.00000
     34       3.1154      0.00000
     35       3.7950      0.00000
     36       4.0362      0.00000
     37       4.5814      0.00000
     38       4.6612      0.00000
     39       4.7604      0.00000
     40       5.0481      0.00000
     41       5.3089      0.00000
     42       5.7593      0.00000

 k-point     6 :       0.3333    0.0000    0.3333
  band No.  band energies     occupation 
      1     -11.9512      2.00000
      2     -11.8243      2.00000
      3     -11.4071      2.00000
      4     -11.2772      2.00000
      5     -11.1106      2.00000
      6     -11.0954      2.00000
      7     -11.0247      2.00000
      8     -11.0046      2.00000
      9      -5.7284      2.00000
     10      -5.4657      2.00000
     11      -4.3761      2.00000
     12      -4.0619      2.00000
     13      -2.5249      2.00000
     14      -2.5187      2.00000
     15      -2.2503      2.00000
     16      -2.2324      2.00000
     17      -1.8429      2.00000
     18      -1.8040      2.00000
     19      -1.4650      2.00000
     20      -1.4572      2.00000
     21      -1.2772      2.00000
     22      -1.2215      2.00000
     23      -0.9306      2.00000
     24      -0.8225      2.00000
     25      -0.5831      2.00000
     26      -0.4686      2.00000
     27      -0.3314      2.00000
     28      -0.3063      2.00000
     29      -0.1908      2.00000
     30      -0.0274      2.00000
     31       0.0069      2.00000
     32       0.0694      2.00000
     33       2.9500      0.00000
     34       2.9817      0.00000
     35       3.4214      0.00000
     36       3.6881      0.00000
     37       4.6424      0.00000
     38       4.7182      0.00000
     39       5.0133      0.00000
     40       5.1718      0.00000
     41       5.4980      0.00000
     42       5.5435      0.00000

 k-point     7 :       0.0000    0.3333    0.3333
  band No.  band energies     occupation 
      1     -11.9577      2.00000
      2     -11.8339      2.00000
      3     -11.4130      2.00000
      4     -11.2916      2.00000
      5     -11.0827      2.00000
      6     -11.0643      2.00000
      7     -11.0450      2.00000
      8     -11.0024      2.00000
      9      -5.7065      2.00000
     10      -5.4648      2.00000
     11      -4.2803      2.00000
     12      -3.9840      2.00000
     13      -2.7259      2.00000
     14      -2.5641      2.00000
     15      -2.4633      2.00000
     16      -2.3492      2.00000
     17      -1.9024      2.00000
     18      -1.7587      2.00000
     19      -1.5034      2.00000
     20      -1.3172      2.00000
     21      -1.2021      2.00000
     22      -1.0629      2.00000
     23      -0.8715      2.00000
     24      -0.8059      2.00000
     25      -0.6887      2.00000
     26      -0.5033      2.00000
     27      -0.3674      2.00000
     28      -0.2199      2.00000
     29      -0.1408      2.00000
     30      -0.1284      2.00000
     31       0.0232      2.00000
     32       0.0602      2.00000
     33       2.8617      0.00000
     34       3.0723      0.00000
     35       3.6466      0.00000
     36       3.7109      0.00000
     37       4.5910      0.00000
     38       4.9167      0.00000
     39       5.0595      0.00000
     40       5.1255      0.00000
     41       5.2561      0.00000
     42       5.6187      0.00000

 k-point     8 :       0.3333    0.3333    0.3333
  band No.  band energies     occupation 
      1     -11.8353      2.00000
      2     -11.7327      2.00000
      3     -11.4854      2.00000
      4     -11.3752      2.00000
      5     -11.1278      2.00000
      6     -11.1002      2.00000
      7     -11.0612      2.00000
      8     -11.0452      2.00000
      9      -5.4771      2.00000
     10      -5.2659      2.00000
     11      -4.6385      2.00000
     12      -4.4046      2.00000
     13      -2.4614      2.00000
     14      -2.3526      2.00000
     15      -2.1606      2.00000
     16      -2.0846      2.00000
     17      -1.7993      2.00000
     18      -1.7218      2.00000
     19      -1.5518      2.00000
     20      -1.3312      2.00000
     21      -1.2630      2.00000
     22      -1.1214      2.00000
     23      -0.9589      2.00000
     24      -0.8952      2.00000
     25      -0.6963      2.00000
     26      -0.6650      2.00000
     27      -0.3528      2.00000
     28      -0.2880      2.00000
     29      -0.0802      2.00000
     30      -0.0583      2.00000
     31      -0.0241      2.00000
     32       0.0505      2.00000
     33       2.9610      0.00000
     34       2.9912      0.00000
     35       3.3754      0.00000
     36       3.6185      0.00000
     37       4.4881      0.00000
     38       4.6960      0.00000
     39       4.8451      0.00000
     40       5.1195      0.00000
     41       5.2922      0.00000
     42       5.3680      0.00000


--------------------------------------------------------------------------------------------------------


 soft charge-density along one line, spin component           1
         0         1         2         3         4         5         6         7         8         9
 total charge-density along one line
 
 pseudopotential strength for first ion, spin component:           1
  1.428   6.399  -0.001  -0.000   0.000
  6.399  28.245   0.001  -0.000   0.000
 -0.001   0.001   5.344   0.000   0.000
 -0.000  -0.000   0.000   5.344   0.000
  0.000   0.000   0.000   0.000   5.344
 total augmentation occupancy for first ion, spin component:           1
  0.491   0.002  -0.015  -0.002   0.005
  0.002   0.000  -0.000  -0.000   0.000
 -0.015  -0.000   0.018   0.001   0.002
 -0.002  -0.000   0.001   0.022  -0.000
  0.005   0.000   0.002  -0.000   0.019


------------------------ aborting loop because EDIFF is reached ----------------------------------------


 


 total charge     
 
# of ion       s       p       d       tot
------------------------------------------
    1        0.056   0.038   0.000   0.095
    2        0.057   0.038   0.000   0.094
    3        0.056   0.038   0.000   0.095
    4        0.057   0.038   0.000   0.095
    5        1.040   1.054   0.168   2.263
    6        1.041   1.054   0.168   2.263
    7        1.041   1.052   0.169   2.262
    8        1.041   1.053   0.169   2.263
    9        1.446   2.422   0.015   3.883
   10        1.446   2.421   0.015   3.882
   11        1.446   2.421   0.015   3.883
   12        1.446   2.422   0.015   3.883
   13        1.448   2.415   0.015   3.878
   14        1.448   2.415   0.015   3.878
   15        1.447   2.414   0.015   3.877
   16        1.448   2.414   0.015   3.877
--------------------------------------------------
tot         15.965  23.709   0.797  40.471
 
    CHARGE:  cpu time    0.0117: real time    0.0117
    FORLOC:  cpu time    0.0007: real time    0.0007
    FORNL :  cpu time    0.0468: real time    0.0468
    STRESS:  cpu time    0.1189: real time    0.1189
    FORCOR:  cpu time    0.0045: real time    0.0045
    FORHAR:  cpu time    0.0014: real time    0.0014
    MIXING:  cpu time    0.0003: real time    0.0003
    OFIELD:  cpu time    0.0000: real time    0.0000

  FORCE on cell =-STRESS in cart. coord.  units (eV):
  Direction    XX          YY          ZZ          XY          YZ          ZX
  --------------------------------------------------------------------------------------
  Alpha Z    89.08856    89.08856    89.08856
  Ewald    -615.45078  -642.30649  -593.92541     0.00000     0.00000    -0.00000
  Hartree   164.79364   158.80959   149.99176    -0.00000    -0.00000    -0.00000
  E(xc)    -231.43145  -231.46311  -231.87333    -0.00000    -0.00000    -0.00000
  Local    -408.15108  -379.65739  -403.64981     0.00000    -0.00000     0.00000
  n-local   376.56877   375.54142   380.22873    -0.11806    -0.14048    -0.09641
  augment   -21.02432   -21.39529   -20.06572     0.00000     0.00000    -0.00000
  Kinetic   645.09156   651.30650   629.92670    -0.45769    -0.10621    -0.07367
  Fock        0.00000     0.00000     0.00000     0.00000     0.00000     0.00000
  -------------------------------------------------------------------------------------
  Total      -0.51509    -0.07622    -0.27852     0.00000     0.00000     0.00000
  in kB      -1.82480    -0.27002    -0.98672     0.00000     0.00000     0.00000
  external pressure =       -1.03 kB  Pullay stress =        0.00 kB


 VOLUME and BASIS-vectors are now :
 -----------------------------------------------------------------------------
  energy-cutoff  :      300.00
  volume of cell :      452.25
      direct lattice vectors                 reciprocal lattice vectors
     6.900993737  0.000000000  0.000000000     0.144906667  0.000000000  0.000000000
     0.000000000  7.006143827  0.000000000     0.000000000  0.142731869  0.000000000
     0.000000000  0.000000000  9.353769145     0.000000000  0.000000000  0.106908775

  length of vectors
     6.900993737  7.006143827  9.353769145     0.144906667  0.142731869  0.106908775


 FORCES acting on ions
    electron-ion (+dipol)            ewald-force                    non-local-force                 convergence-correction
 -----------------------------------------------------------------------------------------------
   0.289E-01 -.260E+01 -.351E+00   0.115E+00 0.213E+01 0.286E+00   -.164E+00 0.471E+00 0.855E-01   0.463E-04 0.274E-03 0.842E-03
   0.289E-01 0.260E+01 0.351E+00   0.115E+00 -.213E+01 -.286E+00   -.164E+00 -.471E+00 -.855E-01   0.463E-04 -.274E-03 -.842E-03
   0.289E-01 0.260E+01 -.351E+00   0.115E+00 -.213E+01 0.286E+00   -.164E+00 -.471E+00 0.855E-01   0.463E-04 -.274E-03 0.842E-03
   0.289E-01 -.260E+01 0.351E+00   0.115E+00 0.213E+01 -.286E+00   -.164E+00 0.471E+00 -.855E-01   0.463E-04 0.274E-03 -.842E-03
   0.771E+00 0.205E+01 0.585E+00   -.725E+00 -.184E+01 -.577E+00   -.375E-01 -.181E+00 -.374E-01   -.611E-02 -.634E-03 -.338E-02
   0.771E+00 -.205E+01 -.585E+00   -.725E+00 0.184E+01 0.577E+00   -.375E-01 0.181E+00 0.374E-01   -.611E-02 0.634E-03 0.338E-02
   0.771E+00 -.205E+01 0.585E+00   -.725E+00 0.184E+01 -.577E+00   -.375E-01 0.181E+00 -.374E-01   -.611E-02 0.634E-03 -.338E-02
   0.771E+00 0.205E+01 -.585E+00   -.725E+00 -.184E+01 0.577E+00   -.375E-01 -.181E+00 0.374E-01   -.611E-02 -.634E-03 0.338E-02
   -.191E+02 -.732E+01 0.275E+02   0.205E+02 0.779E+01 -.296E+02   -.141E+01 -.485E+00 0.207E+01   0.173E-02 0.119E-01 0.617E-02
   -.191E+02 0.732E+01 -.275E+02   0.205E+02 -.779E+01 0.296E+02   -.141E+01 0.485E+00 -.207E+01   0.173E-02 -.119E-01 -.617E-02
   -.191E+02 0.732E+01 0.275E+02   0.205E+02 -.779E+01 -.296E+02   -.141E+01 0.485E+00 0.207E+01   0.173E-02 -.119E-01 0.617E-02
   -.191E+02 -.732E+01 -.275E+02   0.205E+02 0.779E+01 0.296E+02   -.141E+01 -.485E+00 -.207E+01   0.173E-02 0.119E-01 -.617E-02
   0.186E+02 0.180E+02 -.270E+02   -.199E+02 -.190E+02 0.289E+02   0.122E+01 0.101E+01 -.187E+01   0.118E-02 -.741E-02 0.386E-02
   0.186E+02 -.180E+02 0.270E+02   -.199E+02 0.190E+02 -.289E+02   0.122E+01 -.101E+01 0.187E+01   0.118E-02 0.741E-02 -.386E-02
   0.186E+02 -.180E+02 -.270E+02   -.199E+02 0.190E+02 0.289E+02   0.122E+01 -.101E+01 -.187E+01   0.118E-02 0.741E-02 0.386E-02
   0.186E+02 0.180E+02 0.270E+02   -.199E+02 -.190E+02 -.289E+02   0.122E+01 0.101E+01 0.187E+01   0.118E-02 -.741E-02 -.386E-02
 -----------------------------------------------------------------------------------------------
   0.154E+01 0.131E-11 0.179E-05   -.107E-13 0.355E-14 0.178E-13   -.159E+01 0.000E+00 0.000E+00   -.126E-01 -.520E-12 -.660E-12
 
 
 POSITION                                       TOTAL-FORCE (eV/Angst)
 -----------------------------------------------------------------------------------
      0.76724      6.46828      3.54732        -0.016523     -0.002819      0.020998
      4.21773      0.53787      5.80645        -0.016523      0.002819     -0.020998
      4.21773      4.04094      8.22420        -0.016523      0.002819      0.020998
      0.76724      2.96521      1.12957        -0.016523     -0.002819     -0.020998
      4.28378      3.91472      3.50013         0.006699      0.035402     -0.032573
      0.83328      3.09142      5.85364         0.006699     -0.035402      0.032573
      0.83328      6.59450      8.17702         0.006699     -0.035402     -0.032573
      4.28378      0.41165      1.17675         0.006699      0.035402      0.032573
      6.72760      3.75704      3.73794         0.010185     -0.004521     -0.025256
      3.27711      3.24911      5.61583         0.010185      0.004521      0.025256
      3.27711      6.75218      8.41483         0.010185      0.004521     -0.025256
      6.72760      0.25397      0.93894         0.010185     -0.004521      0.025256
      0.19461      4.22979      7.92058        -0.000361     -0.024626     -0.004136
      3.64511      2.77635      1.43319        -0.000361      0.024626      0.004136
      3.64511      6.27942      3.24369        -0.000361      0.024626     -0.004136
      0.19461      0.72672      6.11008        -0.000361     -0.024626      0.004136
 -----------------------------------------------------------------------------------
    total drift:                               -0.060317      0.000000      0.000002


--------------------------------------------------------------------------------------------------------



  FREE ENERGIE OF THE ION-ELECTRON SYSTEM (eV)
  ---------------------------------------------------
  free  energy   TOTEN  =       -58.77066152 eV

  energy  without entropy=      -58.77066152  energy(sigma->0) =      -58.77066152
 
 d Force = 0.1824423E-03[ 0.182E-03, 0.183E-03]  d Energy = 0.1608684E-03 0.216E-04
 d Force = 0.3858384E-01[ 0.388E-01, 0.384E-01]  d Ewald  =-0.1613695E+00 0.200E+00


--------------------------------------------------------------------------------------------------------


    POTLOK:  cpu time    0.1665: real time    0.1665


--------------------------------------------------------------------------------------------------------




--------------------------------------------------------------------------------------------------------


  
 reached required accuracy - stopping structural energy minimisation
     LOOP+:  cpu time    1.3925: real time    1.3935
    4ORBIT:  cpu time    0.0000: real time    0.0000
 


 total charge     
 
# of ion       s       p       d       tot
------------------------------------------
    1        0.056   0.038   0.000   0.095
    2        0.057   0.038   0.000   0.094
    3        0.056   0.038   0.000   0.095
    4        0.057   0.038   0.000   0.095
    5        1.040   1.054   0.168   2.263
    6        1.041   1.054   0.168   2.263
    7        1.041   1.052   0.169   2.262
    8        1.041   1.053   0.169   2.263
    9        1.446   2.422   0.015   3.883
   10        1.446   2.421   0.015   3.882
   11        1.446   2.421   0.015   3.883
   12        1.446   2.422   0.015   3.883
   13        1.448   2.415   0.015   3.878
   14        1.448   2.415   0.015   3.878
   15        1.447   2.414   0.015   3.877
   16        1.448   2.414   0.015   3.877
--------------------------------------------------
tot         15.965  23.709   0.797  40.471
 

 total amount of memory used by VASP MPI-rank0    35112. kBytes
=======================================================================

   base      :      30000. kBytes
   nonlr-proj:       1415. kBytes
   fftplans  :        400. kBytes
   grid      :       1652. kBytes
   one-center:        129. kBytes
   wavefun   :       1516. kBytes
 
  
  
 General timing and accounting informations for this job:
 ========================================================
  
                  Total CPU time used (sec):       59.381
                            User time (sec):       58.059
                          System time (sec):        1.323
                         Elapsed time (sec):       59.470
  
                   Maximum memory used (kb):       64108.
                   Average memory used (kb):           0.
  
                          Minor page faults:        80253
                          Major page faults:            0
                 Voluntary context switches:          298
