PROCAR new format
# of k-points:    8         # of bands:   42         # of ions:   16

 k-point     1 :    0.00000000 0.00000000 0.00000000     weight = 0.03703704

band     1 # energy  -12.13596235 # occ.  2.00000000
 
ion      s      p      d    tot
    1  0.000  0.000  0.000  0.000
    2  0.000  0.000  0.000  0.000
    3  0.000  0.000  0.000  0.000
    4  0.000  0.000  0.000  0.000
    5  0.033  0.000  0.000  0.033
    6  0.033  0.000  0.000  0.033
    7  0.033  0.000  0.000  0.033
    8  0.033  0.000  0.000  0.033
    9  0.076  0.000  0.000  0.077
   10  0.076  0.000  0.000  0.077
   11  0.076  0.000  0.000  0.077
   12  0.076  0.000  0.000  0.077
   13  0.073  0.000  0.000  0.073
   14  0.073  0.000  0.000  0.073
   15  0.073  0.000  0.000  0.073
   16  0.073  0.000  0.000  0.073
tot    0.729  0.003  0.001  0.733
 
band     2 # energy  -11.61935844 # occ.  2.00000000
 
ion      s      p      d    tot
    1  0.000  0.000  0.000  0.000
    2  0.000  0.000  0.000  0.000
    3  0.000  0.000  0.000  0.000
    4  0.000  0.000  0.000  0.000
    5  0.022  0.004  0.001  0.027
    6  0.022  0.004  0.001  0.027
    7  0.022  0.004  0.001  0.027
    8  0.022  0.004  0.001  0.027
    9  0.159  0.001  0.000  0.160
   10  0.159  0.001  0.000  0.160
   11  0.159  0.001  0.000  0.160
   12  0.159  0.001  0.000  0.160
   13  0.002  0.000  0.000  0.002
   14  0.002  0.000  0.000  0.002
   15  0.002  0.000  0.000  0.002
   16  0.002  0.000  0.000  0.002
tot    0.730  0.021  0.004  0.755
 
band     3 # energy  -11.61603083 # occ.  2.00000000
 
ion      s      p      d    tot
    1  0.000  0.000  0.000  0.000
    2  0.000  0.000  0.000  0.000
    3  0.000  0.000  0.000  0.000
    4  0.000  0.000  0.000  0.000
    5  0.021  0.004  0.001  0.026
    6  0.021  0.004  0.001  0.026
    7  0.021  0.004  0.001  0.026
    8  0.021  0.004  0.001  0.026
    9  0.001  0.000  0.000  0.001
   10  0.001  0.000  0.000  0.001
   11  0.001  0.000  0.000  0.001
   12  0.001  0.000  0.000  0.001
   13  0.160  0.001  0.000  0.161
   14  0.160  0.001  0.000  0.161
   15  0.160  0.001  0.000  0.161
   16  0.160  0.001  0.000  0.161
tot    0.729  0.021  0.004  0.753
 
band     4 # energy  -11.09169937 # occ.  2.00000000
 
ion      s      p      d    tot
    1  0.000  0.000  0.000  0.000
    2  0.000  0.000  0.000  0.000
    3  0.000  0.000  0.000  0.000
    4  0.000  0.000  0.000  0.000
    5  0.000  0.009  0.002  0.012
    6  0.000  0.009  0.002  0.012
    7  0.000  0.009  0.002  0.012
    8  0.000  0.009  0.002  0.012
    9  0.178  0.000  0.000  0.178
   10  0.178  0.000  0.000  0.178
   11  0.178  0.000  0.000  0.178
   12  0.178  0.000  0.000  0.178
   13  0.001  0.000  0.000  0.001
   14  0.001  0.000  0.000  0.001
   15  0.001  0.000  0.000  0.001
   16  0.001  0.000  0.000  0.001
tot    0.716  0.039  0.009  0.764
 
band     5 # energy  -11.08492886 # occ.  2.00000000
 
ion      s      p      d    tot
    1  0.000  0.000  0.000  0.000
    2  0.000  0.000  0.000  0.000
    3  0.000  0.000  0.000  0.000
    4  0.000  0.000  0.000  0.000
    5  0.000  0.010  0.002  0.012
    6  0.000  0.010  0.002  0.012
    7  0.000  0.010  0.002  0.012
    8  0.000  0.010  0.002  0.012
    9  0.082  0.000  0.000  0.083
   10  0.082  0.000  0.000  0.083
   11  0.082  0.000  0.000  0.083
   12  0.082  0.000  0.000  0.083
   13  0.097  0.000  0.000  0.097
   14  0.097  0.000  0.000  0.097
   15  0.097  0.000  0.000  0.097
   16  0.097  0.000  0.000  0.097
tot    0.718  0.043  0.008  0.768
 
band     6 # energy  -11.06278036 # occ.  2.00000000
 
ion      s      p      d    tot
    1  0.000  0.000  0.000  0.000
    2  0.000  0.000  0.000  0.000
    3  0.000  0.000  0.000  0.000
    4  0.000  0.000  0.000  0.000
    5  0.000  0.010  0.002  0.012
    6  0.000  0.010  0.002  0.012
    7  0.000  0.010  0.002  0.012
    8  0.000  0.010  0.002  0.012
    9  0.088  0.000  0.000  0.088
   10  0.088  0.000  0.000  0.088
   11  0.088  0.000  0.000  0.088
   12  0.088  0.000  0.000  0.088
   13  0.092  0.000  0.000  0.092
   14  0.092  0.000  0.000  0.092
   15  0.092  0.000  0.000  0.092
   16  0.092  0.000  0.000  0.092
tot    0.720  0.042  0.008  0.770
 
band     7 # energy  -11.05919008 # occ.  2.00000000
 
ion      s      p      d    tot
    1  0.000  0.000  0.000  0.000
    2  0.000  0.000  0.000  0.000
    3  0.000  0.000  0.000  0.000
    4  0.000  0.000  0.000  0.000
    5  0.000  0.009  0.002  0.011
    6  0.000  0.009  0.002  0.011
    7  0.000  0.009  0.002  0.011
    8  0.000  0.009  0.002  0.011
    9  0.002  0.000  0.000  0.002
   10  0.002  0.000  0.000  0.002
   11  0.002  0.000  0.000  0.002
   12  0.002  0.000  0.000  0.002
   13  0.177  0.000  0.000  0.178
   14  0.177  0.000  0.000  0.178
   15  0.177  0.000  0.000  0.178
   16  0.177  0.000  0.000  0.178
tot    0.720  0.037  0.009  0.765
 
band     8 # energy  -10.95187013 # occ.  2.00000000
 
ion      s      p      d    tot
    1  0.000  0.000  0.000  0.000
    2  0.000  0.000  0.000  0.000
    3  0.000  0.000  0.000  0.000
    4  0.000  0.000  0.000  0.000
    5  0.000  0.009  0.002  0.011
    6  0.000  0.009  0.002  0.011
    7  0.000  0.009  0.002  0.011
    8  0.000  0.009  0.002  0.011
    9  0.099  0.000  0.000  0.099
   10  0.099  0.000  0.000  0.099
   11  0.099  0.000  0.000  0.099
   12  0.099  0.000  0.000  0.099
   13  0.083  0.000  0.000  0.083
   14  0.083  0.000  0.000  0.083
   15  0.083  0.000  0.000  0.083
   16  0.083  0.000  0.000  0.083
tot    0.728  0.036  0.010  0.774
 
band     9 # energy   -6.06984604 # occ.  2.00000000
 
ion      s      p      d    tot
    1  0.000  0.000  0.000  0.000
    2  0.000  0.000  0.000  0.000
    3  0.000  0.000  0.000  0.000
    4  0.000  0.000  0.000  0.000
    5  0.136  0.000  0.000  0.136
    6  0.136  0.000  0.000  0.136
    7  0.136  0.000  0.000  0.136
    8  0.136  0.000  0.000  0.136
    9  0.000  0.025  0.001  0.026
   10  0.000  0.025  0.001  0.026
   11  0.000  0.025  0.001  0.026
   12  0.000  0.025  0.001  0.026
   13  0.000  0.025  0.001  0.026
   14  0.000  0.025  0.001  0.026
   15  0.000  0.025  0.001  0.026
   16  0.000  0.025  0.001  0.026
tot    0.542  0.201  0.007  0.750
 
band    10 # energy   -5.02288273 # occ.  2.00000000
 
ion      s      p      d    tot
    1  0.000  0.000  0.000  0.000
    2  0.000  0.000  0.000  0.000
    3  0.000  0.000  0.000  0.000
    4  0.000  0.000  0.000  0.000
    5  0.100  0.009  0.001  0.111
    6  0.100  0.009  0.001  0.111
    7  0.100  0.009  0.001  0.111
    8  0.100  0.009  0.001  0.111
    9  0.000  0.045  0.001  0.046
   10  0.000  0.045  0.001  0.046
   11  0.000  0.045  0.001  0.046
   12  0.000  0.045  0.001  0.046
   13  0.015  0.009  0.000  0.024
   14  0.015  0.009  0.000  0.024
   15  0.015  0.009  0.000  0.024
   16  0.015  0.009  0.000  0.024
tot    0.462  0.252  0.008  0.722
 
band    11 # energy   -4.80851757 # occ.  2.00000000
 
ion      s      p      d    tot
    1  0.000  0.000  0.000  0.000
    2  0.000  0.000  0.000  0.000
    3  0.000  0.000  0.000  0.000
    4  0.000  0.000  0.000  0.000
    5  0.104  0.009  0.001  0.115
    6  0.104  0.009  0.001  0.115
    7  0.104  0.009  0.001  0.115
    8  0.104  0.009  0.001  0.115
    9  0.017  0.007  0.000  0.024
   10  0.017  0.007  0.000  0.024
   11  0.017  0.007  0.000  0.024
   12  0.017  0.007  0.000  0.024
   13  0.000  0.046  0.001  0.048
   14  0.000  0.046  0.001  0.048
   15  0.000  0.046  0.001  0.048
   16  0.000  0.046  0.001  0.048
tot    0.484  0.252  0.010  0.746
 
band    12 # energy   -3.32411329 # occ.  2.00000000
 
ion      s      p      d    tot
    1  0.003  0.000  0.000  0.003
    2  0.003  0.000  0.000  0.003
    3  0.003  0.000  0.000  0.003
    4  0.003  0.000  0.000  0.003
    5  0.092  0.001  0.000  0.093
    6  0.092  0.001  0.000  0.093
    7  0.092  0.001  0.000  0.093
    8  0.092  0.001  0.000  0.093
    9  0.011  0.025  0.001  0.036
   10  0.011  0.025  0.001  0.036
   11  0.011  0.025  0.001  0.036
   12  0.011  0.025  0.001  0.036
   13  0.011  0.030  0.001  0.041
   14  0.011  0.030  0.001  0.041
   15  0.011  0.030  0.001  0.041
   16  0.011  0.030  0.001  0.041
tot    0.463  0.223  0.006  0.693
 
band    13 # energy   -2.77374662 # occ.  2.00000000
 
ion      s      p      d    tot
    1  0.000  0.001  0.000  0.001
    2  0.000  0.001  0.000  0.001
    3  0.000  0.001  0.000  0.001
    4  0.000  0.001  0.000  0.001
    5  0.000  0.049  0.001  0.050
    6  0.000  0.049  0.001  0.050
    7  0.000  0.049  0.001  0.050
    8  0.000  0.049  0.001  0.050
    9  0.000  0.050  0.000  0.050
   10  0.000  0.050  0.000  0.050
   11  0.000  0.050  0.000  0.050
   12  0.000  0.050  0.000  0.050
   13  0.000  0.038  0.000  0.038
   14  0.000  0.038  0.000  0.038
   15  0.000  0.038  0.000  0.038
   16  0.000  0.038  0.000  0.038
tot    0.005  0.549  0.005  0.559
 
band    14 # energy   -2.73641793 # occ.  2.00000000
 
ion      s      p      d    tot
    1  0.000  0.000  0.000  0.000
    2  0.000  0.000  0.000  0.000
    3  0.000  0.000  0.000  0.000
    4  0.000  0.000  0.000  0.000
    5  0.000  0.054  0.001  0.055
    6  0.000  0.054  0.001  0.055
    7  0.000  0.054  0.001  0.055
    8  0.000  0.054  0.001  0.055
    9  0.000  0.067  0.000  0.067
   10  0.000  0.067  0.000  0.067
   11  0.000  0.067  0.000  0.067
   12  0.000  0.067  0.000  0.067
   13  0.000  0.026  0.000  0.027
   14  0.000  0.026  0.000  0.027
   15  0.000  0.026  0.000  0.027
   16  0.000  0.026  0.000  0.027
tot    0.002  0.587  0.008  0.597
 
band    15 # energy   -2.55956981 # occ.  2.00000000
 
ion      s      p      d    tot
    1  0.000  0.000  0.000  0.001
    2  0.000  0.000  0.000  0.001
    3  0.000  0.000  0.000  0.001
    4  0.000  0.000  0.000  0.001
    5  0.001  0.046  0.001  0.048
    6  0.001  0.046  0.001  0.048
    7  0.001  0.046  0.001  0.048
    8  0.001  0.046  0.001  0.048
    9  0.000  0.024  0.000  0.024
   10  0.000  0.024  0.000  0.024
   11  0.000  0.024  0.000  0.024
   12  0.000  0.024  0.000  0.024
   13  0.001  0.065  0.000  0.067
   14  0.001  0.065  0.000  0.067
   15  0.001  0.065  0.000  0.067
   16  0.001  0.065  0.000  0.067
tot    0.010  0.541  0.006  0.558
 
band    16 # energy   -2.44451382 # occ.  2.00000000
 
ion      s      p      d    tot
    1  0.001  0.000  0.000  0.001
    2  0.001  0.000  0.000  0.001
    3  0.001  0.000  0.000  0.001
    4  0.001  0.000  0.000  0.001
    5  0.000  0.045  0.002  0.047
    6  0.000  0.045  0.002  0.047
    7  0.000  0.045  0.002  0.047
    8  0.000  0.045  0.002  0.047
    9  0.002  0.061  0.000  0.063
   10  0.002  0.061  0.000  0.063
   11  0.002  0.061  0.000  0.063
   12  0.002  0.061  0.000  0.063
   13  0.000  0.029  0.000  0.029
   14  0.000  0.029  0.000  0.029
   15  0.000  0.029  0.000  0.029
   16  0.000  0.029  0.000  0.029
tot    0.013  0.543  0.008  0.564
 
band    17 # energy   -1.99212132 # occ.  2.00000000
 
ion      s      p      d    tot
    1  0.004  0.000  0.000  0.004
    2  0.004  0.000  0.000  0.004
    3  0.004  0.000  0.000  0.004
    4  0.004  0.000  0.000  0.004
    5  0.006  0.026  0.002  0.034
    6  0.006  0.026  0.002  0.034
    7  0.006  0.026  0.002  0.034
    8  0.006  0.026  0.002  0.034
    9  0.000  0.060  0.000  0.061
   10  0.000  0.060  0.000  0.061
   11  0.000  0.060  0.000  0.061
   12  0.000  0.060  0.000  0.061
   13  0.003  0.029  0.000  0.032
   14  0.003  0.029  0.000  0.032
   15  0.003  0.029  0.000  0.032
   16  0.003  0.029  0.000  0.032
tot    0.053  0.459  0.010  0.522
 
band    18 # energy   -1.84754739 # occ.  2.00000000
 
ion      s      p      d    tot
    1  0.001  0.001  0.000  0.002
    2  0.001  0.001  0.000  0.002
    3  0.001  0.001  0.000  0.002
    4  0.001  0.001  0.000  0.002
    5  0.001  0.026  0.001  0.028
    6  0.001  0.026  0.001  0.028
    7  0.001  0.026  0.001  0.028
    8  0.001  0.026  0.001  0.028
    9  0.001  0.050  0.000  0.051
   10  0.001  0.050  0.000  0.051
   11  0.001  0.050  0.000  0.051
   12  0.001  0.050  0.000  0.051
   13  0.002  0.043  0.000  0.045
   14  0.002  0.043  0.000  0.045
   15  0.002  0.043  0.000  0.045
   16  0.002  0.043  0.000  0.045
tot    0.016  0.482  0.007  0.505
 
band    19 # energy   -1.82238991 # occ.  2.00000000
 
ion      s      p      d    tot
    1  0.000  0.001  0.000  0.001
    2  0.000  0.001  0.000  0.001
    3  0.000  0.001  0.000  0.001
    4  0.000  0.001  0.000  0.001
    5  0.001  0.044  0.004  0.050
    6  0.001  0.044  0.004  0.050
    7  0.001  0.044  0.004  0.050
    8  0.001  0.044  0.004  0.050
    9  0.001  0.014  0.000  0.015
   10  0.001  0.014  0.000  0.015
   11  0.001  0.014  0.000  0.015
   12  0.001  0.014  0.000  0.015
   13  0.000  0.087  0.000  0.087
   14  0.000  0.087  0.000  0.087
   15  0.000  0.087  0.000  0.087
   16  0.000  0.087  0.000  0.087
tot    0.009  0.583  0.020  0.612
 
band    20 # energy   -1.49224020 # occ.  2.00000000
 
ion      s      p      d    tot
    1  0.001  0.000  0.000  0.002
    2  0.001  0.000  0.000  0.002
    3  0.001  0.000  0.000  0.002
    4  0.001  0.000  0.000  0.002
    5  0.003  0.036  0.005  0.043
    6  0.003  0.036  0.005  0.043
    7  0.003  0.036  0.005  0.043
    8  0.003  0.036  0.005  0.043
    9  0.001  0.051  0.000  0.053
   10  0.001  0.051  0.000  0.053
   11  0.001  0.051  0.000  0.053
   12  0.001  0.051  0.000  0.053
   13  0.000  0.053  0.000  0.054
   14  0.000  0.053  0.000  0.054
   15  0.000  0.053  0.000  0.054
   16  0.000  0.053  0.000  0.054
tot    0.021  0.563  0.022  0.606
 
band    21 # energy   -0.87084225 # occ.  2.00000000
 
ion      s      p      d    tot
    1  0.001  0.001  0.000  0.002
    2  0.001  0.001  0.000  0.002
    3  0.001  0.001  0.000  0.002
    4  0.001  0.001  0.000  0.002
    5  0.001  0.005  0.004  0.010
    6  0.001  0.005  0.004  0.010
    7  0.001  0.005  0.004  0.010
    8  0.001  0.005  0.004  0.010
    9  0.000  0.074  0.000  0.075
   10  0.000  0.074  0.000  0.075
   11  0.000  0.074  0.000  0.075
   12  0.000  0.074  0.000  0.075
   13  0.001  0.036  0.000  0.036
   14  0.001  0.036  0.000  0.036
   15  0.001  0.036  0.000  0.036
   16  0.001  0.036  0.000  0.036
tot    0.013  0.463  0.019  0.494
 
band    22 # energy   -0.84417362 # occ.  2.00000000
 
ion      s      p      d    tot
    1  0.000  0.002  0.000  0.002
    2  0.000  0.002  0.000  0.002
    3  0.000  0.002  0.000  0.002
    4  0.000  0.002  0.000  0.002
    5  0.000  0.025  0.003  0.028
    6  0.000  0.025  0.003  0.028
    7  0.000  0.025  0.003  0.028
    8  0.000  0.025  0.003  0.028
    9  0.000  0.032  0.000  0.032
   10  0.000  0.032  0.000  0.032
   11  0.000  0.032  0.000  0.032
   12  0.000  0.032  0.000  0.032
   13  0.001  0.082  0.000  0.083
   14  0.001  0.082  0.000  0.083
   15  0.001  0.082  0.000  0.083
   16  0.001  0.082  0.000  0.083
tot    0.006  0.561  0.015  0.582
 
band    23 # energy   -0.83858378 # occ.  2.00000000
 
ion      s      p      d    tot
    1  0.000  0.001  0.000  0.002
    2  0.000  0.001  0.000  0.002
    3  0.000  0.001  0.000  0.002
    4  0.000  0.001  0.000  0.002
    5  0.000  0.015  0.004  0.019
    6  0.000  0.015  0.004  0.019
    7  0.000  0.015  0.004  0.019
    8  0.000  0.015  0.004  0.019
    9  0.000  0.067  0.000  0.068
   10  0.000  0.067  0.000  0.068
   11  0.000  0.067  0.000  0.068
   12  0.000  0.067  0.000  0.068
   13  0.001  0.046  0.000  0.047
   14  0.001  0.046  0.000  0.047
   15  0.001  0.046  0.000  0.047
   16  0.001  0.046  0.000  0.047
tot    0.005  0.519  0.017  0.541
 
band    24 # energy   -0.59803087 # occ.  2.00000000
 
ion      s      p      d    tot
    1  0.004  0.001  0.000  0.006
    2  0.004  0.001  0.000  0.006
    3  0.004  0.001  0.000  0.006
    4  0.004  0.001  0.000  0.006
    5  0.000  0.002  0.003  0.005
    6  0.000  0.002  0.003  0.005
    7  0.000  0.002  0.003  0.005
    8  0.000  0.002  0.003  0.005
    9  0.000  0.035  0.000  0.036
   10  0.000  0.035  0.000  0.036
   11  0.000  0.035  0.000  0.036
   12  0.000  0.035  0.000  0.036
   13  0.000  0.078  0.000  0.078
   14  0.000  0.078  0.000  0.078
   15  0.000  0.078  0.000  0.078
   16  0.000  0.078  0.000  0.078
tot    0.019  0.466  0.013  0.498
 
band    25 # energy   -0.59226271 # occ.  2.00000000
 
ion      s      p      d    tot
    1  0.000  0.002  0.000  0.002
    2  0.000  0.002  0.000  0.002
    3  0.000  0.002  0.000  0.002
    4  0.000  0.002  0.000  0.002
    5  0.000  0.019  0.003  0.022
    6  0.000  0.019  0.003  0.022
    7  0.000  0.019  0.003  0.022
    8  0.000  0.019  0.003  0.022
    9  0.000  0.041  0.000  0.042
   10  0.000  0.041  0.000  0.042
   11  0.000  0.041  0.000  0.042
   12  0.000  0.041  0.000  0.042
   13  0.000  0.075  0.000  0.076
   14  0.000  0.075  0.000  0.076
   15  0.000  0.075  0.000  0.076
   16  0.000  0.075  0.000  0.076
tot    0.003  0.551  0.014  0.568
 
band    26 # energy   -0.56582244 # occ.  2.00000000
 
ion      s      p      d    tot
    1  0.002  0.001  0.000  0.003
    2  0.002  0.001  0.000  0.003
    3  0.002  0.001  0.000  0.003
    4  0.002  0.001  0.000  0.003
    5  0.002  0.022  0.003  0.027
    6  0.002  0.022  0.003  0.027
    7  0.002  0.022  0.003  0.027
    8  0.002  0.022  0.003  0.027
    9  0.000  0.083  0.000  0.084
   10  0.000  0.083  0.000  0.084
   11  0.000  0.083  0.000  0.084
   12  0.000  0.083  0.000  0.084
   13  0.000  0.035  0.000  0.035
   14  0.000  0.035  0.000  0.035
   15  0.000  0.035  0.000  0.035
   16  0.000  0.035  0.000  0.035
tot    0.016  0.566  0.016  0.598
 
band    27 # energy   -0.34248712 # occ.  2.00000000
 
ion      s      p      d    tot
    1  0.000  0.002  0.000  0.002
    2  0.000  0.002  0.000  0.002
    3  0.000  0.002  0.000  0.002
    4  0.000  0.002  0.000  0.002
    5  0.002  0.002  0.005  0.009
    6  0.002  0.002  0.005  0.009
    7  0.002  0.002  0.005  0.009
    8  0.002  0.002  0.005  0.009
    9  0.000  0.055  0.000  0.055
   10  0.000  0.055  0.000  0.055
   11  0.000  0.055  0.000  0.055
   12  0.000  0.055  0.000  0.055
   13  0.000  0.068  0.000  0.069
   14  0.000  0.068  0.000  0.069
   15  0.000  0.068  0.000  0.069
   16  0.000  0.068  0.000  0.069
tot    0.011  0.507  0.019  0.537
 
band    28 # energy   -0.18561560 # occ.  2.00000000
 
ion      s      p      d    tot
    1  0.000  0.001  0.000  0.001
    2  0.000  0.001  0.000  0.001
    3  0.000  0.001  0.000  0.001
    4  0.000  0.001  0.000  0.001
    5  0.000  0.008  0.009  0.016
    6  0.000  0.008  0.009  0.016
    7  0.000  0.008  0.009  0.016
    8  0.000  0.008  0.009  0.016
    9  0.000  0.061  0.000  0.061
   10  0.000  0.061  0.000  0.061
   11  0.000  0.061  0.000  0.061
   12  0.000  0.061  0.000  0.061
   13  0.000  0.074  0.000  0.074
   14  0.000  0.074  0.000  0.074
   15  0.000  0.074  0.000  0.074
   16  0.000  0.074  0.000  0.074
tot    0.000  0.576  0.035  0.611
 
band    29 # energy   -0.16508550 # occ.  2.00000000
 
ion      s      p      d    tot
    1  0.001  0.002  0.000  0.003
    2  0.001  0.002  0.000  0.003
    3  0.001  0.002  0.000  0.003
    4  0.001  0.002  0.000  0.003
    5  0.000  0.002  0.002  0.004
    6  0.000  0.002  0.002  0.004
    7  0.000  0.002  0.002  0.004
    8  0.000  0.002  0.002  0.004
    9  0.000  0.034  0.000  0.034
   10  0.000  0.034  0.000  0.034
   11  0.000  0.034  0.000  0.034
   12  0.000  0.034  0.000  0.034
   13  0.000  0.090  0.000  0.090
   14  0.000  0.090  0.000  0.090
   15  0.000  0.090  0.000  0.090
   16  0.000  0.090  0.000  0.090
tot    0.007  0.513  0.008  0.528
 
band    30 # energy   -0.06395536 # occ.  2.00000000
 
ion      s      p      d    tot
    1  0.000  0.001  0.000  0.001
    2  0.000  0.001  0.000  0.001
    3  0.000  0.001  0.000  0.001
    4  0.000  0.001  0.000  0.001
    5  0.000  0.004  0.003  0.007
    6  0.000  0.004  0.003  0.007
    7  0.000  0.004  0.003  0.007
    8  0.000  0.004  0.003  0.007
    9  0.000  0.118  0.000  0.118
   10  0.000  0.118  0.000  0.118
   11  0.000  0.118  0.000  0.118
   12  0.000  0.118  0.000  0.118
   13  0.000  0.011  0.000  0.011
   14  0.000  0.011  0.000  0.011
   15  0.000  0.011  0.000  0.011
   16  0.000  0.011  0.000  0.011
tot    0.001  0.535  0.014  0.550
 
band    31 # energy    0.12587704 # occ.  2.00000000
 
ion      s      p      d    tot
    1  0.000  0.001  0.000  0.001
    2  0.000  0.001  0.000  0.001
    3  0.000  0.001  0.000  0.001
    4  0.000  0.001  0.000  0.001
    5  0.000  0.005  0.009  0.014
    6  0.000  0.005  0.009  0.014
    7  0.000  0.005  0.009  0.014
    8  0.000  0.005  0.009  0.014
    9  0.000  0.062  0.000  0.062
   10  0.000  0.062  0.000  0.062
   11  0.000  0.062  0.000  0.062
   12  0.000  0.062  0.000  0.062
   13  0.000  0.077  0.000  0.077
   14  0.000  0.077  0.000  0.077
   15  0.000  0.077  0.000  0.077
   16  0.000  0.077  0.000  0.077
tot    0.000  0.577  0.037  0.614
 
band    32 # energy    0.23873536 # occ.  2.00000000
 
ion      s      p      d    tot
    1  0.000  0.000  0.000  0.001
    2  0.000  0.000  0.000  0.001
    3  0.000  0.000  0.000  0.001
    4  0.000  0.000  0.000  0.001
    5  0.000  0.004  0.009  0.013
    6  0.000  0.004  0.009  0.013
    7  0.000  0.004  0.009  0.013
    8  0.000  0.004  0.009  0.013
    9  0.000  0.076  0.000  0.077
   10  0.000  0.076  0.000  0.077
   11  0.000  0.076  0.000  0.077
   12  0.000  0.076  0.000  0.077
   13  0.000  0.064  0.000  0.064
   14  0.000  0.064  0.000  0.064
   15  0.000  0.064  0.000  0.064
   16  0.000  0.064  0.000  0.064
tot    0.001  0.579  0.037  0.618
 
band    33 # energy    2.02682377 # occ.  0.00000000
 
ion      s      p      d    tot
    1  0.012  0.000  0.000  0.012
    2  0.012  0.000  0.000  0.012
    3  0.012  0.000  0.000  0.012
    4  0.012  0.000  0.000  0.012
    5  0.046  0.000  0.000  0.046
    6  0.046  0.000  0.000  0.046
    7  0.046  0.000  0.000  0.046
    8  0.046  0.000  0.000  0.046
    9  0.018  0.018  0.000  0.036
   10  0.018  0.018  0.000  0.036
   11  0.018  0.018  0.000  0.036
   12  0.018  0.018  0.000  0.036
   13  0.019  0.021  0.000  0.040
   14  0.019  0.021  0.000  0.040
   15  0.019  0.021  0.000  0.040
   16  0.019  0.021  0.000  0.040
tot    0.380  0.155  0.003  0.538
 
band    34 # energy    3.14657974 # occ.  0.00000000
 
ion      s      p      d    tot
    1  0.007  0.001  0.000  0.008
    2  0.007  0.001  0.000  0.008
    3  0.007  0.001  0.000  0.008
    4  0.007  0.001  0.000  0.008
    5  0.052  0.009  0.001  0.063
    6  0.052  0.009  0.001  0.063
    7  0.052  0.009  0.001  0.063
    8  0.052  0.009  0.001  0.063
    9  0.005  0.030  0.003  0.037
   10  0.005  0.030  0.003  0.037
   11  0.005  0.030  0.003  0.037
   12  0.005  0.030  0.003  0.037
   13  0.008  0.023  0.004  0.035
   14  0.008  0.023  0.004  0.035
   15  0.008  0.023  0.004  0.035
   16  0.008  0.023  0.004  0.035
tot    0.289  0.253  0.031  0.572
 
band    35 # energy    3.25007402 # occ.  0.00000000
 
ion      s      p      d    tot
    1  0.004  0.001  0.000  0.005
    2  0.004  0.001  0.000  0.005
    3  0.004  0.001  0.000  0.005
    4  0.004  0.001  0.000  0.005
    5  0.055  0.013  0.002  0.070
    6  0.055  0.013  0.002  0.070
    7  0.055  0.013  0.002  0.070
    8  0.055  0.013  0.002  0.070
    9  0.009  0.029  0.004  0.042
   10  0.009  0.029  0.004  0.042
   11  0.009  0.029  0.004  0.042
   12  0.009  0.029  0.004  0.042
   13  0.003  0.032  0.002  0.037
   14  0.003  0.032  0.002  0.037
   15  0.003  0.032  0.002  0.037
   16  0.003  0.032  0.002  0.037
tot    0.285  0.298  0.033  0.616
 
band    36 # energy    3.82313820 # occ.  0.00000000
 
ion      s      p      d    tot
    1  0.009  0.002  0.000  0.011
    2  0.009  0.002  0.000  0.011
    3  0.009  0.002  0.000  0.011
    4  0.009  0.002  0.000  0.011
    5  0.032  0.016  0.003  0.051
    6  0.032  0.016  0.003  0.051
    7  0.032  0.016  0.003  0.051
    8  0.032  0.016  0.003  0.051
    9  0.001  0.022  0.006  0.029
   10  0.001  0.022  0.006  0.029
   11  0.001  0.022  0.006  0.029
   12  0.001  0.022  0.006  0.029
   13  0.001  0.017  0.005  0.022
   14  0.001  0.017  0.005  0.022
   15  0.001  0.017  0.005  0.022
   16  0.001  0.017  0.005  0.022
tot    0.170  0.227  0.054  0.451
 
band    37 # energy    4.59136031 # occ.  0.00000000
 
ion      s      p      d    tot
    1  0.004  0.002  0.000  0.005
    2  0.004  0.002  0.000  0.005
    3  0.004  0.002  0.000  0.005
    4  0.004  0.002  0.000  0.005
    5  0.002  0.050  0.008  0.060
    6  0.002  0.050  0.008  0.060
    7  0.002  0.050  0.008  0.060
    8  0.002  0.050  0.008  0.060
    9  0.001  0.012  0.006  0.019
   10  0.001  0.012  0.006  0.019
   11  0.001  0.012  0.006  0.019
   12  0.001  0.012  0.006  0.019
   13  0.007  0.008  0.005  0.020
   14  0.007  0.008  0.005  0.020
   15  0.007  0.008  0.005  0.020
   16  0.007  0.008  0.005  0.020
tot    0.055  0.287  0.075  0.417
 
band    38 # energy    4.76329561 # occ.  0.00000000
 
ion      s      p      d    tot
    1  0.000  0.001  0.000  0.001
    2  0.000  0.001  0.000  0.001
    3  0.000  0.001  0.000  0.001
    4  0.000  0.001  0.000  0.001
    5  0.006  0.063  0.007  0.076
    6  0.006  0.063  0.007  0.076
    7  0.006  0.063  0.007  0.076
    8  0.006  0.063  0.007  0.076
    9  0.003  0.002  0.007  0.012
   10  0.003  0.002  0.007  0.012
   11  0.003  0.002  0.007  0.012
   12  0.003  0.002  0.007  0.012
   13  0.001  0.012  0.008  0.020
   14  0.001  0.012  0.008  0.020
   15  0.001  0.012  0.008  0.020
   16  0.001  0.012  0.008  0.020
tot    0.036  0.311  0.092  0.440
 
band    39 # energy    4.85892224 # occ.  0.00000000
 
ion      s      p      d    tot
    1  0.007  0.001  0.000  0.008
    2  0.007  0.001  0.000  0.008
    3  0.007  0.001  0.000  0.008
    4  0.007  0.001  0.000  0.008
    5  0.012  0.039  0.007  0.058
    6  0.012  0.039  0.007  0.058
    7  0.012  0.039  0.007  0.058
    8  0.012  0.039  0.007  0.058
    9  0.002  0.004  0.004  0.010
   10  0.002  0.004  0.004  0.010
   11  0.002  0.004  0.004  0.010
   12  0.002  0.004  0.004  0.010
   13  0.000  0.024  0.007  0.032
   14  0.000  0.024  0.007  0.032
   15  0.000  0.024  0.007  0.032
   16  0.000  0.024  0.007  0.032
tot    0.086  0.272  0.075  0.434
 
band    40 # energy    5.16867973 # occ.  0.00000000
 
ion      s      p      d    tot
    1  0.007  0.001  0.000  0.008
    2  0.007  0.001  0.000  0.008
    3  0.007  0.001  0.000  0.008
    4  0.007  0.001  0.000  0.008
    5  0.003  0.074  0.003  0.080
    6  0.003  0.074  0.003  0.080
    7  0.003  0.074  0.003  0.080
    8  0.003  0.074  0.003  0.080
    9  0.010  0.006  0.004  0.019
   10  0.010  0.006  0.004  0.019
   11  0.010  0.006  0.004  0.019
   12  0.010  0.006  0.004  0.019
   13  0.007  0.013  0.006  0.026
   14  0.007  0.013  0.006  0.026
   15  0.007  0.013  0.006  0.026
   16  0.007  0.013  0.006  0.026
tot    0.107  0.375  0.049  0.531
 
band    41 # energy    5.39571206 # occ.  0.00000000
 
ion      s      p      d    tot
    1  0.006  0.001  0.000  0.007
    2  0.006  0.001  0.000  0.007
    3  0.006  0.001  0.000  0.007
    4  0.006  0.001  0.000  0.007
    5  0.016  0.018  0.004  0.038
    6  0.016  0.018  0.004  0.038
    7  0.016  0.018  0.004  0.038
    8  0.016  0.018  0.004  0.038
    9  0.000  0.020  0.007  0.027
   10  0.000  0.020  0.007  0.027
   11  0.000  0.020  0.007  0.027
   12  0.000  0.020  0.007  0.027
   13  0.002  0.019  0.003  0.024
   14  0.002  0.019  0.003  0.024
   15  0.002  0.019  0.003  0.024
   16  0.002  0.019  0.003  0.024
tot    0.098  0.230  0.057  0.385
 
band    42 # energy    5.79052458 # occ.  0.00000000
 
ion      s      p      d    tot
    1  0.016  0.002  0.000  0.017
    2  0.016  0.002  0.000  0.017
    3  0.016  0.002  0.000  0.017
    4  0.016  0.002  0.000  0.017
    5  0.000  0.014  0.006  0.021
    6  0.000  0.014  0.006  0.021
    7  0.000  0.014  0.006  0.021
    8  0.000  0.014  0.006  0.021
    9  0.003  0.007  0.007  0.018
   10  0.003  0.007  0.007  0.018
   11  0.003  0.007  0.007  0.018
   12  0.003  0.007  0.007  0.018
   13  0.004  0.016  0.002  0.022
   14  0.004  0.016  0.002  0.022
   15  0.004  0.016  0.002  0.022
   16  0.004  0.016  0.002  0.022
tot    0.091  0.156  0.062  0.310
 

 k-point     2 :    0.33333333 0.00000000 0.00000000     weight = 0.07407407

band     1 # energy  -12.00325823 # occ.  2.00000000
 
ion      s      p      d    tot
    1  0.000  0.000  0.000  0.000
    2  0.000  0.000  0.000  0.000
    3  0.000  0.000  0.000  0.000
    4  0.000  0.000  0.000  0.000
    5  0.030  0.001  0.000  0.032
    6  0.030  0.001  0.000  0.032
    7  0.030  0.001  0.000  0.032
    8  0.030  0.001  0.000  0.032
    9  0.068  0.000  0.000  0.068
   10  0.068  0.000  0.000  0.068
   11  0.068  0.000  0.000  0.068
   12  0.068  0.000  0.000  0.068
   13  0.084  0.000  0.000  0.085
   14  0.084  0.000  0.000  0.085
   15  0.084  0.000  0.000  0.085
   16  0.084  0.000  0.000  0.085
tot    0.730  0.007  0.002  0.738
 
band     2 # energy  -11.73318457 # occ.  2.00000000
 
ion      s      p      d    tot
    1  0.000  0.000  0.000  0.000
    2  0.000  0.000  0.000  0.000
    3  0.000  0.000  0.000  0.000
    4  0.000  0.000  0.000  0.000
    5  0.025  0.003  0.001  0.028
    6  0.025  0.003  0.001  0.028
    7  0.025  0.003  0.001  0.028
    8  0.025  0.003  0.001  0.028
    9  0.031  0.001  0.000  0.032
   10  0.031  0.001  0.000  0.032
   11  0.031  0.001  0.000  0.032
   12  0.031  0.001  0.000  0.032
   13  0.126  0.001  0.000  0.127
   14  0.126  0.001  0.000  0.127
   15  0.126  0.001  0.000  0.127
   16  0.126  0.001  0.000  0.127
tot    0.731  0.016  0.003  0.750
 
band     3 # energy  -11.48701817 # occ.  2.00000000
 
ion      s      p      d    tot
    1  0.000  0.000  0.000  0.000
    2  0.000  0.000  0.000  0.000
    3  0.000  0.000  0.000  0.000
    4  0.000  0.000  0.000  0.000
    5  0.017  0.005  0.001  0.024
    6  0.017  0.005  0.001  0.024
    7  0.017  0.005  0.001  0.024
    8  0.017  0.005  0.001  0.024
    9  0.161  0.001  0.000  0.162