<?xml version="1.0" encoding="ISO-8859-1"?>
<modeling>
 <generator>
  <i name="program" type="string">vasp </i>
  <i name="version" type="string">5.4.4.18Apr17-6-g9f103f2a35  </i>
  <i name="subversion" type="string">(build Oct 27 2022 13:04:57) complex            parallel </i>
  <i name="platform" type="string">LinuxIFC </i>
  <i name="date" type="string">2024 06 29 </i>
  <i name="time" type="string">06:14:00 </i>
 </generator>
 <incar>
  <i type="string" name="SYSTEM"> CIS</i>
  <i type="int" name="ISTART">     0</i>
  <i type="string" name="PREC">medium</i>
  <i type="int" name="ICHARG">     2</i>
  <i type="int" name="IBRION">     2</i>
  <i name="EDIFF">      0.00010000</i>
  <i name="EDIFFG">     -0.05000000</i>
  <i type="int" name="NSW">    99</i>
  <i type="int" name="ISIF">     3</i>
  <i name="ENCUT">    300.00000000</i>
  <i name="POTIM">      0.10000000</i>
  <i type="string" name="LREAL"> Auto</i>
  <i type="int" name="ISMEAR">     0</i>
  <i name="SIGMA">      0.05000000</i>
  <i type="int" name="LMAXMIX">     4</i>
  <i type="logical" name="LWAVE"> F  </i>
  <i type="logical" name="LCHARG"> F  </i>
  <i type="int" name="LORBIT">    10</i>
  <i type="logical" name="LASPH"> T  </i>
  <v type="int" name="KPOINT_BSE">    -1     0     0     0</v>
  <i type="logical" name="LASPH"> T  </i>
 </incar>
 <structure name="primitive_cell" >
  <crystal>
   <varray name="basis" >
    <v>       6.20465477       0.00000000       0.00000000 </v>
    <v>       0.00000000       6.49561276       0.00000000 </v>
    <v>       0.00000000       0.00000000       7.85600906 </v>
   </varray>
   <i name="volume">    316.62100571 </i>
   <varray name="rec_basis" >
    <v>       0.16116932       0.00000000       0.00000000 </v>
    <v>       0.00000000       0.15395006       0.00000000 </v>
    <v>       0.00000000       0.00000000       0.12729110 </v>
   </varray>
  </crystal>
  <varray name="positions" >
   <v>       0.11781030      -0.08336056       0.37770555 </v>
   <v>      -0.01451588       0.06443509       0.11353569 </v>
   <v>      -0.01451588      -0.43556491       0.38646431 </v>
   <v>      -0.48966723      -0.09524702       0.36128656 </v>
   <v>       0.01033277       0.09524702      -0.36128656 </v>
   <v>       0.12137382       0.42624158      -0.37387979 </v>
   <v>      -0.37862618       0.07375842       0.12612021 </v>
   <v>      -0.37862618      -0.42624158       0.37387979 </v>
   <v>      -0.38218970       0.08336056      -0.37770555 </v>
   <v>       0.11781030       0.41663944       0.12229445 </v>
   <v>       0.12137382      -0.07375842      -0.12612021 </v>
   <v>       0.48548412       0.43556491      -0.38646431 </v>
   <v>       0.01033277      -0.40475298      -0.13871344 </v>
   <v>      -0.48966723       0.40475298       0.13871344 </v>
   <v>       0.48548412      -0.06443509      -0.11353569 </v>
   <v>      -0.38218970      -0.41663944      -0.12229445 </v>
  </varray>
 </structure>
 <varray name="primitive_index" >
  <v type="int" >        1 </v>
  <v type="int" >       12 </v>
  <v type="int" >        9 </v>
  <v type="int" >       15 </v>
  <v type="int" >       16 </v>
  <v type="int" >        6 </v>
  <v type="int" >        8 </v>
  <v type="int" >        5 </v>
  <v type="int" >        2 </v>
  <v type="int" >        4 </v>
  <v type="int" >        7 </v>
  <v type="int" >       10 </v>
  <v type="int" >       13 </v>
  <v type="int" >       14 </v>
  <v type="int" >       11 </v>
  <v type="int" >        3 </v>
 </varray>
 <kpoints>
  <generation param="Monkhorst-Pack">
   <v type="int" name="divisions">       3        3        3 </v>
   <v name="usershift">      0.00000000       0.00000000       0.00000000 </v>
   <v name="genvec1">      0.33333333       0.00000000       0.00000000 </v>
   <v name="genvec2">      0.00000000       0.33333333       0.00000000 </v>
   <v name="genvec3">      0.00000000       0.00000000       0.33333333 </v>
   <v name="shift">      0.00000000       0.00000000       0.00000000 </v>
  </generation>
  <varray name="kpointlist" >
   <v>       0.00000000       0.00000000       0.00000000 </v>
   <v>       0.33333333       0.00000000       0.00000000 </v>
   <v>       0.00000000       0.33333333       0.00000000 </v>
   <v>       0.33333333       0.33333333       0.00000000 </v>
   <v>       0.00000000       0.00000000       0.33333333 </v>
   <v>       0.33333333       0.00000000       0.33333333 </v>
   <v>       0.00000000       0.33333333       0.33333333 </v>
   <v>       0.33333333       0.33333333       0.33333333 </v>
  </varray>
  <varray name="weights" >
   <v>       0.03703704 </v>
   <v>       0.07407407 </v>
   <v>       0.07407407 </v>
   <v>       0.14814815 </v>
   <v>       0.07407407 </v>
   <v>       0.14814815 </v>
   <v>       0.14814815 </v>
   <v>       0.29629630 </v>
  </varray>
 </kpoints>
 <parameters>
  <separator name="general" >
   <i type="string" name="SYSTEM">CIS</i>
   <i type="logical" name="LCOMPAT"> F  </i>
  </separator>
  <separator name="electronic" >
   <i type="string" name="PREC">medium</i>
   <i name="ENMAX">    300.00000000</i>
   <i name="ENAUG">    446.84200000</i>
   <i name="EDIFF">      0.00010000</i>
   <i type="int" name="IALGO">    38</i>
   <i type="int" name="IWAVPR">    11</i>
   <i type="int" name="NBANDS">    42</i>
   <i name="NELECT">     64.00000000</i>
   <i type="int" name="TURBO">     0</i>
   <i type="int" name="IRESTART">     0</i>
   <i type="int" name="NREBOOT">     0</i>
   <i type="int" name="NMIN">     0</i>
   <i name="EREF">      0.00000000</i>
   <separator name="electronic smearing" >
    <i type="int" name="ISMEAR">     0</i>
    <i name="SIGMA">      0.05000000</i>
    <i name="KSPACING">      0.50000000</i>
    <i type="logical" name="KGAMMA"> T  </i>
   </separator>
   <separator name="electronic projectors" >
    <i type="logical" name="LREAL"> T  </i>
    <v name="ROPT">     -0.00200000     -0.00200000     -0.00200000</v>
    <i type="int" name="LMAXPAW">  -100</i>
    <i type="int" name="LMAXMIX">     4</i>
    <i type="logical" name="NLSPLINE"> F  </i>
   </separator>
   <separator name="electronic startup" >
    <i type="int" name="ISTART">     0</i>
    <i type="int" name="ICHARG">     2</i>
    <i type="int" name="INIWAV">     1</i>
   </separator>
   <separator name="electronic spin" >
    <i type="int" name="ISPIN">     1</i>
    <i type="logical" name="LNONCOLLINEAR"> F  </i>
    <v name="MAGMOM">      1.00000000      1.00000000      1.00000000      1.00000000      1.00000000      1.00000000      1.00000000      1.00000000      1.00000000      1.00000000      1.00000000      1.00000000      1.00000000      1.00000000      1.00000000      1.00000000</v>
    <i name="NUPDOWN">     -1.00000000</i>
    <i type="logical" name="LSORBIT"> F  </i>
    <v name="SAXIS">      0.00000000      0.00000000      1.00000000</v>
    <i type="logical" name="LSPIRAL"> F  </i>
    <v name="QSPIRAL">      0.00000000      0.00000000      0.00000000</v>
    <i type="logical" name="LZEROZ"> F  </i>
   </separator>
   <separator name="electronic exchange-correlation" >
    <i type="logical" name="LASPH"> T  </i>
    <i type="logical" name="LMETAGGA"> F  </i>
   </separator>
   <separator name="electronic convergence" >
    <i type="int" name="NELM">    60</i>
    <i type="int" name="NELMDL">    -5</i>
    <i type="int" name="NELMIN">     2</i>
    <i name="ENINI">    300.00000000</i>
    <separator name="electronic convergence detail" >
     <i type="logical" name="LDIAG"> T  </i>
     <i type="logical" name="LSUBROT"> F  </i>
     <i name="WEIMIN">      0.00100000</i>
     <i name="EBREAK">      0.00000060</i>
     <i name="DEPER">      0.30000000</i>
     <i type="int" name="NRMM">     4</i>
     <i name="TIME">      0.40000000</i>
    </separator>
   </separator>
   <separator name="electronic mixer" >
    <i name="AMIX">      0.40000000</i>
    <i name="BMIX">      1.00000000</i>
    <i name="AMIN">      0.10000000</i>
    <i name="AMIX_MAG">      1.60000000</i>
    <i name="BMIX_MAG">      1.00000000</i>
    <separator name="electronic mixer details" >
     <i type="int" name="IMIX">     4</i>
     <i type="logical" name="MIXFIRST"> F  </i>
     <i type="int" name="MAXMIX">   -45</i>
     <i name="WC">    100.00000000</i>
     <i type="int" name="INIMIX">     1</i>
     <i type="int" name="MIXPRE">     1</i>
     <i type="int" name="MREMOVE">     5</i>
    </separator>
   </separator>
   <separator name="electronic dipolcorrection" >
    <i type="logical" name="LDIPOL"> F  </i>
    <i type="logical" name="LMONO"> F  </i>
    <i type="int" name="IDIPOL">     0</i>
    <i name="EPSILON">      1.00000000</i>
    <v name="DIPOL">   -100.00000000   -100.00000000   -100.00000000</v>
    <i name="EFIELD">      0.00000000</i>
   </separator>
  </separator>
  <separator name="grids" >
   <i type="int" name="NGX">    28</i>
   <i type="int" name="NGY">    28</i>
   <i type="int" name="NGZ">    36</i>
   <i type="int" name="NGXF">    42</i>
   <i type="int" name="NGYF">    48</i>
   <i type="int" name="NGZF">    54</i>
   <i type="logical" name="ADDGRID"> F  </i>
  </separator>
  <separator name="ionic" >
   <i type="int" name="NSW">    99</i>
   <i type="int" name="IBRION">     2</i>
   <i type="int" name="MDALGO">     0</i>
   <i type="int" name="ISIF">     3</i>
   <i name="PSTRESS">      0.00000000</i>
   <i name="EDIFFG">     -0.05000000</i>
   <i type="int" name="NFREE">     1</i>
   <i name="POTIM">      0.10000000</i>
   <i name="SMASS">     -3.00000000</i>
   <i name="SCALEE">      1.00000000</i>
  </separator>
  <separator name="ionic md" >
   <i name="TEBEG">      0.00010000</i>
   <i name="TEEND">      0.00010000</i>
   <i type="int" name="NBLOCK">     1</i>
   <i type="int" name="KBLOCK">    99</i>
   <i type="int" name="NPACO">   256</i>
   <i name="APACO">     16.00000000</i>
  </separator>
  <separator name="symmetry" >
   <i type="int" name="ISYM">     2</i>
   <i name="SYMPREC">      0.00001000</i>
  </separator>
  <separator name="dos" >
   <i type="int" name="LORBIT">    10</i>
   <v name="RWIGS">     -1.00000000     -1.00000000     -1.00000000</v>
   <i type="int" name="NEDOS">   301</i>
   <i name="EMIN">     10.00000000</i>
   <i name="EMAX">    -10.00000000</i>
   <i name="EFERMI">      0.00000000</i>
  </separator>
  <separator name="writing" >
   <i type="int" name="NWRITE">     2</i>
   <i type="logical" name="LWAVE"> F  </i>
   <i type="logical" name="LDOWNSAMPLE"> F  </i>
   <i type="logical" name="LCHARG"> F  </i>
   <i type="logical" name="LPARD"> F  </i>
   <i type="logical" name="LVTOT"> F  </i>
   <i type="logical" name="LVHAR"> F  </i>
   <i type="logical" name="LELF"> F  </i>
   <i type="logical" name="LOPTICS"> F  </i>
   <v name="STM">      0.00000000      0.00000000      0.00000000      0.00000000      0.00000000      0.00000000      0.00000000</v>
  </separator>
  <separator name="performance" >
   <i type="int" name="NPAR">    14</i>
   <i type="int" name="NSIM">     4</i>
   <i type="int" name="NBLK">    -1</i>
   <i type="logical" name="LPLANE"> T  </i>
   <i type="logical" name="LSCALAPACK"> T  </i>
   <i type="logical" name="LSCAAWARE"> F  </i>
   <i type="logical" name="LSCALU"> F  </i>
   <i type="logical" name="LASYNC"> F  </i>
   <i type="logical" name="LORBITALREAL"> F  </i>
  </separator>
  <separator name="miscellaneous" >
   <i type="int" name="IDIOT">     3</i>
   <i type="int" name="ISPECIAL">     0</i>
   <i type="logical" name="LMUSIC"> F  </i>
   <v name="POMASS">     22.99000000     69.72300000     78.96000000</v>
   <v name="DARWINR">      0.00000000      0.00000000      0.00000000</v>
   <v name="DARWINV">      1.00000000      1.00000000      1.00000000</v>
   <i type="logical" name="LCORR"> T  </i>
  </separator>
  <i type="logical" name="GGA_COMPAT"> T  </i>
  <i type="logical" name="LBERRY"> F  </i>
  <i type="int" name="ICORELEVEL">     0</i>
  <i type="logical" name="LDAU"> F  </i>
  <i type="int" name="I_CONSTRAINED_M">     0</i>
  <separator name="electronic exchange-correlation" >
   <i type="string" name="GGA">--</i>
   <i type="int" name="VOSKOWN">     0</i>
   <i type="logical" name="LHFCALC"> F  </i>
   <i type="string" name="PRECFOCK"></i>
   <i type="logical" name="LSYMGRAD"> F  </i>
   <i type="logical" name="LHFONE"> F  </i>
   <i type="logical" name="LRHFCALC"> F  </i>
   <i type="logical" name="LTHOMAS"> F  </i>
   <i type="logical" name="LMODELHF"> F  </i>
   <i name="ENCUT4O">     -1.00000000</i>
   <i type="int" name="EXXOEP">     0</i>
   <i type="int" name="FOURORBIT">     0</i>
   <i name="AEXX">      0.00000000</i>
   <i name="HFALPHA">      0.00000000</i>
   <i name="MCALPHA">      0.00000000</i>
   <i name="ALDAX">      1.00000000</i>
   <i name="AGGAX">      1.00000000</i>
   <i name="ALDAC">      1.00000000</i>
   <i name="AGGAC">      1.00000000</i>
   <i type="int" name="NKREDX">     1</i>
   <i type="int" name="NKREDY">     1</i>
   <i type="int" name="NKREDZ">     1</i>
   <i type="logical" name="SHIFTRED"> F  </i>
   <i type="logical" name="ODDONLY"> F  </i>
   <i type="logical" name="EVENONLY"> F  </i>
   <i type="int" name="LMAXFOCK">     0</i>
   <i type="int" name="NMAXFOCKAE">     0</i>
   <i type="logical" name="LFOCKAEDFT"> F  </i>
   <i name="HFSCREEN">      0.00000000</i>
   <i name="HFSCREENC">      0.00000000</i>
   <i type="int" name="NBANDSGWLOW">     0</i>
  </separator>
  <separator name="vdW DFT" >
   <i type="logical" name="LUSE_VDW"> F  </i>
   <i name="Zab_VDW">     -0.84910000</i>
   <i name="PARAM1">      0.12340000</i>
   <i name="PARAM2">      1.00000000</i>
   <i name="PARAM3">      0.00000000</i>
  </separator>
  <separator name="model GW" >
   <i type="int" name="MODEL_GW">     0</i>
   <i name="MODEL_EPS0">     11.87328771</i>
   <i name="MODEL_ALPHA">      1.00000000</i>
  </separator>
  <separator name="linear response parameters" >
   <i type="logical" name="LEPSILON"> F  </i>
   <i type="logical" name="LRPA"> F  </i>
   <i type="logical" name="LNABLA"> F  </i>
   <i type="logical" name="LVEL"> F  </i>
   <i type="int" name="KINTER">     0</i>
   <i name="CSHIFT">      0.10000000</i>
   <i name="OMEGAMAX">     -1.00000000</i>
   <i name="DEG_THRESHOLD">      0.00200000</i>
   <i name="RTIME">     -0.10000000</i>
   <i name="WPLASMAI">      0.00000000</i>
   <v name="DFIELD">      0.00000000      0.00000000      0.00000000</v>
   <v name="WPLASMA">      0.00000000      0.00000000      0.00000000      0.00000000      0.00000000      0.00000000      0.00000000      0.00000000      0.00000000</v>
  </separator>
  <separator name="orbital magnetization" >
   <i type="logical" name="NUCIND"> F  </i>
   <v name="MAGPOS">      0.00000000      0.00000000      0.00000000</v>
   <i type="logical" name="LNICSALL"> T  </i>
   <i type="logical" name="ORBITALMAG"> F  </i>
   <i type="logical" name="LMAGBLOCH"> F  </i>
   <i type="logical" name="LCHIMAG"> F  </i>
   <i type="logical" name="LGAUGE"> T  </i>
   <i type="int" name="MAGATOM">     0</i>
   <v name="MAGDIPOL">      0.00000000      0.00000000      0.00000000</v>
   <v name="AVECCONST">      0.00000000      0.00000000      0.00000000</v>
  </separator>
  <separator name="response functions" >
   <i type="logical" name="LADDER"> F  </i>
   <i type="logical" name="LRPAFORCE"> F  </i>
   <i type="logical" name="LFXC"> F  </i>
   <i type="logical" name="LHARTREE"> T  </i>
   <i type="int" name="IBSE">     0</i>
   <v type="int" name="KPOINT">    -1     0     0     0</v>
   <i type="logical" name="LTCTE"> F  </i>
   <i type="logical" name="LTETE"> F  </i>
   <i type="logical" name="LTRIPLET"> F  </i>
   <i type="logical" name="LFXCEPS"> F  </i>
   <i type="logical" name="LFXHEG"> F  </i>
   <i type="int" name="NATURALO">     2</i>
   <i type="logical" name="L2ORDER"> F  </i>
   <i type="logical" name="LMP2LT"> F  </i>
   <i type="logical" name="LUSEW"> F  </i>
   <i name="ENCUTGW">     -2.00000000</i>
   <i name="ENCUTGWSOFT">     -2.00000000</i>
   <i name="ENCUTLF">     -1.00000000</i>
   <i type="int" name="LMAXMP2">    -1</i>
   <i name="SCISSOR">      0.00000000</i>
   <i type="int" name="NOMEGA">     0</i>
   <i type="int" name="NOMEGAR">     0</i>
   <i type="int" name="NBANDSGW">    -1</i>
   <i type="int" name="NBANDSO">    -1</i>
   <i type="int" name="NBANDSV">    -1</i>
   <i type="int" name="NELM">     1</i>
   <i type="int" name="NELMHF">     1</i>
   <i type="int" name="DIM">     3</i>
   <i type="int" name="ANTIRES">     0</i>
   <i name="OMEGAMAX">    -30.00000000</i>
   <i name="OMEGAMIN">    -30.00000000</i>
   <i name="OMEGATL">   -200.00000000</i>
   <i type="int" name="OMEGAGRID">   140</i>
   <i name="CSHIFT">     -0.10000000</i>
   <i type="logical" name="SELFENERGY"> F  </i>
   <i type="logical" name="LSPECTRAL"> F  </i>
   <i type="logical" name="LSPECTRALGW"> F  </i>
   <i type="logical" name="LSINGLES"> F  </i>
   <i type="logical" name="LFERMIGW"> F  </i>
   <i type="logical" name="ODDONLYGW"> F  </i>
   <i type="logical" name="EVENONLYGW"> F  </i>
   <i type="int" name="NKREDLFX">     1</i>
   <i type="int" name="NKREDLFY">     1</i>
   <i type="int" name="NKREDLFZ">     1</i>
   <i type="int" name="MAXMEM">  2800</i>
   <i type="int" name="TELESCOPE">     0</i>
   <i type="int" name="TAUPAR">     1</i>
   <i type="int" name="OMEGAPAR">    -1</i>
   <i name="LAMBDA">      1.00000000</i>
  </separator>
  <separator name="External order field" >
   <i name="OFIELD_KAPPA">      0.00000000</i>
   <v name="OFIELD_K">      0.00000000      0.00000000      0.00000000</v>
   <i name="OFIELD_Q6_NEAR">      0.00000000</i>
   <i name="OFIELD_Q6_FAR">      0.00000000</i>
   <i name="OFIELD_A">      0.00000000</i>
  </separator>
 </parameters>
 <atominfo>
  <atoms>      16 </atoms>
  <types>       3 </types>
  <array name="atoms" >
   <dimension dim="1">ion</dimension>
   <field type="string">element</field>
   <field type="int">atomtype</field>
   <set>
    <rc><c>Na</c><c>   1</c></rc>
    <rc><c>Na</c><c>   1</c></rc>
    <rc><c>Na</c><c>   1</c></rc>
    <rc><c>Na</c><c>   1</c></rc>
    <rc><c>Ga</c><c>   2</c></rc>
    <rc><c>Ga</c><c>   2</c></rc>
    <rc><c>Ga</c><c>   2</c></rc>
    <rc><c>Ga</c><c>   2</c></rc>
    <rc><c>Se</c><c>   3</c></rc>
    <rc><c>Se</c><c>   3</c></rc>
    <rc><c>Se</c><c>   3</c></rc>
    <rc><c>Se</c><c>   3</c></rc>
    <rc><c>Se</c><c>   3</c></rc>
    <rc><c>Se</c><c>   3</c></rc>
    <rc><c>Se</c><c>   3</c></rc>
    <rc><c>Se</c><c>   3</c></rc>
   </set>
  </array>
  <array name="atomtypes" >
   <dimension dim="1">type</dimension>
   <field type="int">atomspertype</field>
   <field type="string">element</field>
   <field>mass</field>
   <field>valence</field>
   <field type="string">pseudopotential</field>
   <set>
    <rc><c>   4</c><c>Na</c><c>     22.99000000</c><c>      1.00000000</c><c>  PAW_PBE Na 08Apr2002                  </c></rc>
    <rc><c>   4</c><c>Ga</c><c>     69.72300000</c><c>      3.00000000</c><c>  PAW_PBE Ga 08Apr2002                  </c></rc>
    <rc><c>   8</c><c>Se</c><c>     78.96000000</c><c>      6.00000000</c><c>  PAW_PBE Se 06Sep2000                  </c></rc>
   </set>
  </array>
 </atominfo>
 <structure name="initialpos" >
  <crystal>
   <varray name="basis" >
    <v>       6.20465477       0.00000000       0.00000000 </v>
    <v>       0.00000000       6.49561276       0.00000000 </v>
    <v>       0.00000000       0.00000000       7.85600906 </v>
   </varray>
   <i name="volume">    316.62100571 </i>
   <varray name="rec_basis" >
    <v>       0.16116932       0.00000000       0.00000000 </v>
    <v>       0.00000000       0.15395006       0.00000000 </v>
    <v>       0.00000000       0.00000000       0.12729110 </v>
   </varray>
  </crystal>
  <varray name="positions" >
   <v>       0.11781030       0.91663944       0.37770555 </v>
   <v>       0.61781030       0.08336056       0.62229445 </v>
   <v>       0.61781030       0.58336056       0.87770555 </v>
   <v>       0.11781030       0.41663944       0.12229445 </v>
   <v>       0.62137382       0.57375842       0.37387979 </v>
   <v>       0.12137382       0.42624158       0.62612021 </v>
   <v>       0.12137382       0.92624158       0.87387979 </v>
   <v>       0.62137382       0.07375842       0.12612021 </v>
   <v>       0.98548412       0.56443509       0.38646431 </v>
   <v>       0.48548412       0.43556491       0.61353569 </v>
   <v>       0.48548412       0.93556491       0.88646431 </v>
   <v>       0.98548412       0.06443509       0.11353569 </v>
   <v>       0.01033277       0.59524702       0.86128656 </v>
   <v>       0.51033277       0.40475298       0.13871344 </v>
   <v>       0.51033277       0.90475298       0.36128656 </v>
   <v>       0.01033277       0.09524702       0.63871344 </v>
  </varray>
 </structure>
 <calculation>
  <scstep>
   <time name="dav">    0.17    0.17</time>
   <time name="total">    0.34    0.34</time>
   <energy>
    <i name="alphaZ">    127.25051322 </i>
    <i name="ewald">  -2141.52124434 </i>
    <i name="hartreedc">   -288.19033652 </i>
    <i name="XCdc">   -224.51896858 </i>
    <i name="pawpsdc">   2090.17131262 </i>
    <i name="pawaedc">  -1735.16623812 </i>
    <i name="eentropy">     -0.01131004 </i>
    <i name="bandstr">    141.46180635 </i>
    <i name="atom">   2313.10313368 </i>
    <i name="e_fr_energy">    282.57866827 </i>
    <i name="e_wo_entrp">    282.58997831 </i>
    <i name="e_0_energy">    282.58432329 </i>
   </energy>
  </scstep>
  <scstep>
   <time name="dav">    0.22    0.22</time>
   <time name="total">    0.22    0.22</time>
   <energy>
    <i name="e_fr_energy">    -30.30054826 </i>
    <i name="e_wo_entrp">    -30.30054826 </i>
    <i name="e_0_energy">    -30.30054826 </i>
   </energy>
  </scstep>
  <scstep>
   <time name="dav">    0.30    0.30</time>
   <time name="total">    0.30    0.30</time>
   <energy>
    <i name="e_fr_energy">    -52.62671679 </i>
    <i name="e_wo_entrp">    -52.62671679 </i>
    <i name="e_0_energy">    -52.62671679 </i>
   </energy>
  </scstep>
  <scstep>
   <time name="dav">    0.27    0.27</time>
   <time name="total">    0.27    0.27</time>
   <energy>
    <i name="e_fr_energy">    -53.03226079 </i>
    <i name="e_wo_entrp">    -53.03226079 </i>
    <i name="e_0_energy">    -53.03226079 </i>
   </energy>
  </scstep>
  <scstep>
   <time name="dav">    0.23    0.23</time>
   <time name="total">    0.24    0.24</time>
   <energy>
    <i name="e_fr_energy">    -53.04493579 </i>
    <i name="e_wo_entrp">    -53.04493579 </i>
    <i name="e_0_energy">    -53.04493579 </i>
   </energy>
  </scstep>
  <scstep>
   <time name="dav">    0.21    0.21</time>
   <time name="total">    0.39    0.39</time>
   <energy>
    <i name="e_fr_energy">    -50.78325436 </i>
    <i name="e_wo_entrp">    -50.78325436 </i>
    <i name="e_0_energy">    -50.78325436 </i>
   </energy>
  </scstep>
  <scstep>
   <time name="dav">    0.29    0.29</time>
   <time name="total">    0.48    0.48</time>
   <energy>
    <i name="e_fr_energy">    -50.33976536 </i>
    <i name="e_wo_entrp">    -50.33976536 </i>
    <i name="e_0_energy">    -50.33976536 </i>
   </energy>
  </scstep>
  <scstep>
   <time name="dav">    0.16    0.16</time>
   <time name="total">    0.33    0.33</time>
   <energy>
    <i name="e_fr_energy">    -50.32797659 </i>
    <i name="e_wo_entrp">    -50.32797659 </i>
    <i name="e_0_energy">    -50.32797659 </i>
   </energy>
  </scstep>
  <scstep>
   <time name="dav">    0.19    0.19</time>
   <time name="total">    0.36    0.37</time>
   <energy>
    <i name="e_fr_energy">    -50.33229558 </i>
    <i name="e_wo_entrp">    -50.33229558 </i>
    <i name="e_0_energy">    -50.33229558 </i>
   </energy>
  </scstep>
  <scstep>
   <time name="dav">    0.20    0.20</time>
   <time name="total">    0.38    0.38</time>
   <energy>
    <i name="e_fr_energy">    -50.33246718 </i>
    <i name="e_wo_entrp">    -50.33246718 </i>
    <i name="e_0_energy">    -50.33246718 </i>
   </energy>
  </scstep>
  <scstep>
   <time name="dav">    0.35    0.35</time>
   <time name="total">    0.53    0.53</time>
   <energy>
    <i name="e_fr_energy">    -50.33286359 </i>
    <i name="e_wo_entrp">    -50.33286359 </i>
    <i name="e_0_energy">    -50.33286359 </i>
   </energy>
  </scstep>
  <scstep>
   <time name="dav">    0.23    0.23</time>
   <time name="total">    0.40    0.40</time>
   <energy>
    <i name="alphaZ">    127.25051322 </i>
    <i name="ewald">  -2141.52124434 </i>
    <i name="hartreedc">   -330.88610002 </i>
    <i name="XCdc">   -218.00096249 </i>
    <i name="pawpsdc">   5417.56610874 </i>
    <i name="pawaedc">  -5066.65052032 </i>
    <i name="eentropy">     -0.00000000 </i>
    <i name="bandstr">   -151.19379931 </i>
    <i name="atom">   2313.10313368 </i>
    <i name="e_fr_energy">    -50.33287084 </i>
    <i name="e_wo_entrp">    -50.33287084 </i>
    <i name="e_0_energy">    -50.33287084 </i>
   </energy>
  </scstep>
  <structure>
   <crystal>
    <varray name="basis" >
     <v>       6.20465477       0.00000000       0.00000000 </v>
     <v>       0.00000000       6.49561276       0.00000000 </v>
     <v>       0.00000000       0.00000000       7.85600906 </v>
    </varray>
    <i name="volume">    316.62100571 </i>
    <varray name="rec_basis" >
     <v>       0.16116932       0.00000000       0.00000000 </v>
     <v>       0.00000000       0.15395006       0.00000000 </v>
     <v>       0.00000000       0.00000000       0.12729110 </v>
    </varray>
   </crystal>
   <varray name="positions" >
    <v>       0.11781030       0.91663944       0.37770555 </v>
    <v>       0.61781030       0.08336056       0.62229445 </v>
    <v>       0.61781030       0.58336056       0.87770555 </v>
    <v>       0.11781030       0.41663944       0.12229445 </v>
    <v>       0.62137382       0.57375842       0.37387979 </v>
    <v>       0.12137382       0.42624158       0.62612021 </v>
    <v>       0.12137382       0.92624158       0.87387979 </v>
    <v>       0.62137382       0.07375842       0.12612021 </v>
    <v>       0.98548412       0.56443509       0.38646431 </v>
    <v>       0.48548412       0.43556491       0.61353569 </v>
    <v>       0.48548412       0.93556491       0.88646431 </v>
    <v>       0.98548412       0.06443509       0.11353569 </v>
    <v>       0.01033277       0.59524702       0.86128656 </v>
    <v>       0.51033277       0.40475298       0.13871344 </v>
    <v>       0.51033277       0.90475298       0.36128656 </v>
    <v>       0.01033277       0.09524702       0.63871344 </v>
   </varray>
  </structure>
  <varray name="forces" >
   <v>      -0.11436420       0.23869773       0.17659631 </v>
   <v>      -0.11436420      -0.23869773      -0.17659631 </v>
   <v>      -0.11436420      -0.23869773       0.17659631 </v>
   <v>      -0.11436420       0.23869773      -0.17659631 </v>
   <v>       0.00802072      -0.11889957       0.00584508 </v>
   <v>       0.00802072       0.11889957      -0.00584508 </v>
   <v>       0.00802072       0.11889957       0.00584508 </v>
   <v>       0.00802072      -0.11889957      -0.00584508 </v>
   <v>       0.23236388      -0.19095041      -0.26367461 </v>
   <v>       0.23236388       0.19095041       0.26367461 </v>
   <v>       0.23236388       0.19095041      -0.26367461 </v>
   <v>       0.23236388      -0.19095041       0.26367461 </v>
   <v>      -0.12602040      -0.17715663       0.31830593 </v>
   <v>      -0.12602040       0.17715663      -0.31830593 </v>
   <v>      -0.12602040       0.17715663       0.31830593 </v>
   <v>      -0.12602040      -0.17715663      -0.31830593 </v>
  </varray>
  <varray name="stress" >
   <v>     270.75796404       0.00000000       0.00000000 </v>
   <v>       0.00000000     262.63078954       0.00000000 </v>
   <v>       0.00000000       0.00000000     291.73384841 </v>
  </varray>
  <energy>
   <i name="e_fr_energy">    -50.33287084 </i>
   <i name="e_wo_entrp">    -50.33287084 </i>
   <i name="e_0_energy">     -0.00000000 </i>
  </energy>
  <time name="totalsc">    4.83    4.84</time>
 </calculation>
 <calculation>
  <scstep>
   <time name="dav">    0.28    0.28</time>
   <time name="total">    0.46    0.46</time>
   <energy>
    <i name="alphaZ">    115.51578343 </i>
    <i name="ewald">  -2074.45309210 </i>
    <i name="hartreedc">   -319.72310705 </i>
    <i name="XCdc">   -220.40186510 </i>
    <i name="pawpsdc">   5414.98588954 </i>
    <i name="pawaedc">  -5064.06933909 </i>
    <i name="eentropy">     -0.00000000 </i>
    <i name="bandstr">   -221.18150923 </i>
    <i name="atom">   2313.10313368 </i>
    <i name="e_fr_energy">    -56.22410592 </i>
    <i name="e_wo_entrp">    -56.22410592 </i>
    <i name="e_0_energy">    -56.22410592 </i>
   </energy>
  </scstep>
  <scstep>
   <time name="dav">    0.27    0.27</time>
   <time name="total">    0.45    0.45</time>
   <energy>
    <i name="e_fr_energy">    -54.89178057 </i>
    <i name="e_wo_entrp">    -54.89178057 </i>
    <i name="e_0_energy">    -54.89178057 </i>
   </energy>
  </scstep>
  <scstep>
   <time name="dav">    0.25    0.25</time>
   <time name="total">    0.42    0.43</time>
   <energy>
    <i name="e_fr_energy">    -54.58793168 </i>
    <i name="e_wo_entrp">    -54.58793168 </i>
    <i name="e_0_energy">    -54.58793168 </i>
   </energy>
  </scstep>
  <scstep>
   <time name="dav">    0.21    0.21</time>
   <time name="total">    0.39    0.39</time>
   <energy>
    <i name="e_fr_energy">    -54.58143840 </i>
    <i name="e_wo_entrp">    -54.58143840 </i>
    <i name="e_0_energy">    -54.58143840 </i>
   </energy>
  </scstep>
  <scstep>
   <time name="dav">    0.16    0.16</time>
   <time name="total">    0.34    0.34</time>
   <energy>
    <i name="e_fr_energy">    -54.57571942 </i>
    <i name="e_wo_entrp">    -54.57571942 </i>
    <i name="e_0_energy">    -54.57571942 </i>
   </energy>
  </scstep>
  <scstep>
   <time name="dav">    0.18    0.18</time>
   <time name="total">    0.35    0.35</time>
   <energy>
    <i name="alphaZ">    115.51578343 </i>
    <i name="ewald">  -2074.45309210 </i>
    <i name="hartreedc">   -354.24000980 </i>
    <i name="XCdc">   -219.89494989 </i>
    <i name="pawpsdc">   4749.78899687 </i>
    <i name="pawaedc">  -4398.11944661 </i>
    <i name="eentropy">     -0.00000000 </i>
    <i name="bandstr">   -186.27613928 </i>
    <i name="atom">   2313.10313368 </i>
    <i name="e_fr_energy">    -54.57572371 </i>
    <i name="e_wo_entrp">    -54.57572371 </i>
    <i name="e_0_energy">    -54.57572371 </i>
   </energy>
  </scstep>
  <structure>
   <crystal>
    <varray name="basis" >
     <v>       6.40485714       0.00000000       0.00000000 </v>
     <v>       0.00000000       6.69891217       0.00000000 </v>
     <v>       0.00000000       0.00000000       8.12913261 </v>
    </varray>
    <i name="volume">    348.78511211 </i>
    <varray name="rec_basis" >
     <v>       0.15613151       0.00000000       0.00000000 </v>
     <v>       0.00000000       0.14927797       0.00000000 </v>
     <v>       0.00000000       0.00000000       0.12301435 </v>
    </varray>
   </crystal>
   <varray name="positions" >
    <v>       0.11763246       0.91699400       0.37792244 </v>
    <v>       0.61763246       0.08300600       0.62207756 </v>
    <v>       0.61763246       0.58300600       0.87792244 </v>
    <v>       0.11763246       0.41699400       0.12207756 </v>
    <v>       0.62138629       0.57358181       0.37388697 </v>
    <v>       0.12138629       0.42641819       0.62611303 </v>
    <v>       0.12138629       0.92641819       0.87388697 </v>
    <v>       0.62138629       0.07358181       0.12611303 </v>
    <v>       0.98584546       0.56415145       0.38614047 </v>
    <v>       0.48584546       0.43584855       0.61385953 </v>
    <v>       0.48584546       0.93584855       0.88614047 </v>
    <v>       0.98584546       0.06415145       0.11385953 </v>
    <v>       0.01013680       0.59498387       0.86167749 </v>
    <v>       0.51013680       0.40501613       0.13832251 </v>
    <v>       0.51013680       0.90501613       0.36167749 </v>
    <v>       0.01013680       0.09498387       0.63832251 </v>
   </varray>
  </structure>
  <varray name="forces" >
   <v>      -0.08055992       0.15404465       0.10798853 </v>
   <v>      -0.08055992      -0.15404465      -0.10798853 </v>
   <v>      -0.08055992      -0.15404465       0.10798853 </v>
   <v>      -0.08055992       0.15404465      -0.10798853 </v>
   <v>       0.02548191      -0.10222625      -0.03432394 </v>
   <v>       0.02548191       0.10222625       0.03432394 </v>
   <v>       0.02548191       0.10222625      -0.03432394 </v>
   <v>       0.02548191      -0.10222625       0.03432394 </v>
   <v>      -0.09515884      -0.29353209       0.17682366 </v>
   <v>      -0.09515884       0.29353209      -0.17682366 </v>
   <v>      -0.09515884       0.29353209       0.17682366 </v>
   <v>      -0.09515884      -0.29353209      -0.17682366 </v>
   <v>       0.15023684       0.07135704      -0.18254670 </v>
   <v>       0.15023684      -0.07135704       0.18254670 </v>
   <v>       0.15023684      -0.07135704      -0.18254670 </v>
   <v>       0.15023684       0.07135704       0.18254670 </v>
  </varray>
  <varray name="stress" >
   <v>     152.67196015       0.00000000       0.00000000 </v>
   <v>       0.00000000     147.16635545       0.00000000 </v>
   <v>       0.00000000       0.00000000     167.57485203 </v>
  </varray>
  <energy>
   <i name="e_fr_energy">    -54.57572371 </i>
   <i name="e_wo_entrp">    -54.57572371 </i>
   <i name="e_0_energy">     -0.00000000 </i>
  </energy>
  <time name="totalsc">    2.92    2.93</time>
 </calculation>
 <calculation>
  <scstep>
   <time name="dav">    0.18    0.18</time>
   <time name="total">    0.36    0.36</time>
   <energy>
    <i name="alphaZ">     99.14241947 </i>
    <i name="ewald">  -1972.76209963 </i>
    <i name="hartreedc">   -335.69314669 </i>
    <i name="XCdc">   -223.71015702 </i>
    <i name="pawpsdc">   4769.33089659 </i>
    <i name="pawaedc">  -4417.64291283 </i>
    <i name="eentropy">     -0.00000000 </i>
    <i name="bandstr">   -293.74641924 </i>
    <i name="atom">   2313.10313368 </i>
    <i name="e_fr_energy">    -61.97828566 </i>
    <i name="e_wo_entrp">    -61.97828566 </i>
    <i name="e_0_energy">    -61.97828566 </i>
   </energy>
  </scstep>
  <scstep>
   <time name="dav">    0.14    0.14</time>
   <time name="total">    0.31    0.31</time>
   <energy>
    <i name="e_fr_energy">    -58.43773726 </i>
    <i name="e_wo_entrp">    -58.43773726 </i>
    <i name="e_0_energy">    -58.43773726 </i>
   </energy>
  </scstep>
  <scstep>
   <time name="dav">    0.17    0.17</time>
   <time name="total">    0.34    0.34</time>
   <energy>
    <i name="e_fr_energy">    -57.71001749 </i>
    <i name="e_wo_entrp">    -57.71001749 </i>
    <i name="e_0_energy">    -57.71001749 </i>
   </energy>
  </scstep>
  <scstep>
   <time name="dav">    0.16    0.16</time>
   <time name="total">    0.33    0.33</time>
   <energy>
    <i name="e_fr_energy">    -57.68257825 </i>
    <i name="e_wo_entrp">    -57.68257825 </i>
    <i name="e_0_energy">    -57.68257825 </i>
   </energy>
  </scstep>
  <scstep>
   <time name="dav">    0.19    0.19</time>
   <time name="total">    0.37    0.37</time>
   <energy>
    <i name="e_fr_energy">    -57.67013726 </i>
    <i name="e_wo_entrp">    -57.67013726 </i>
    <i name="e_0_energy">    -57.67013726 </i>
   </energy>
  </scstep>
  <scstep>
   <time name="dav">    0.21    0.21</time>
   <time name="total">    0.39    0.39</time>
   <energy>
    <i name="e_fr_energy">    -57.67039116 </i>
    <i name="e_wo_entrp">    -57.67039116 </i>
    <i name="e_0_energy">    -57.67039116 </i>
   </energy>
  </scstep>
  <scstep>
   <time name="dav">    0.22    0.22</time>
   <time name="total">    0.40    0.40</time>
   <energy>
    <i name="e_fr_energy">    -57.67051195 </i>
    <i name="e_wo_entrp">    -57.67051195 </i>
    <i name="e_0_energy">    -57.67051195 </i>
   </energy>
  </scstep>
  <scstep>
   <time name="dav">    0.16    0.16</time>
   <time name="total">    0.33    0.33</time>
   <energy>
    <i name="alphaZ">     99.14241947 </i>
    <i name="ewald">  -1972.76209963 </i>
    <i name="hartreedc">   -392.80612867 </i>
    <i name="XCdc">   -222.80263134 </i>
    <i name="pawpsdc">   4012.92135171 </i>
    <i name="pawaedc">  -3660.30421777 </i>
    <i name="eentropy">     -0.00000000 </i>
    <i name="bandstr">   -234.16233851 </i>
    <i name="atom">   2313.10313368 </i>
    <i name="e_fr_energy">    -57.67051105 </i>
    <i name="e_wo_entrp">    -57.67051105 </i>
    <i name="e_0_energy">    -57.67051105 </i>
   </energy>
  </scstep>
  <structure>
   <crystal>
    <varray name="basis" >
     <v>       6.73462541       0.00000000       0.00000000 </v>
     <v>       0.00000000       7.03378180       0.00000000 </v>
     <v>       0.00000000       0.00000000       8.57901480 </v>
    </varray>
    <i name="volume">    406.38695006 </i>
    <varray name="rec_basis" >
     <v>       0.14848636       0.00000000       0.00000000 </v>
     <v>       0.00000000       0.14217103       0.00000000 </v>
     <v>       0.00000000       0.00000000       0.11656350 </v>
    </varray>
   </crystal>
   <varray name="positions" >
    <v>       0.11734868       0.91756030       0.37826769 </v>
    <v>       0.61734868       0.08243970       0.62173231 </v>
    <v>       0.61734868       0.58243970       0.87826769 </v>
    <v>       0.11734868       0.41756030       0.12173231 </v>
    <v>       0.62140619       0.57329972       0.37389840 </v>
    <v>       0.12140619       0.42670028       0.62610160 </v>
    <v>       0.12140619       0.92670028       0.87389840 </v>
    <v>       0.62140619       0.07329972       0.12610160 </v>
    <v>       0.98642204       0.56369843       0.38562498 </v>
    <v>       0.48642204       0.43630157       0.61437502 </v>
    <v>       0.48642204       0.93630157       0.88562498 </v>
    <v>       0.98642204       0.06369843       0.11437502 </v>
    <v>       0.00982410       0.59456358       0.86229980 </v>
    <v>       0.50982410       0.40543642       0.13770020 </v>
    <v>       0.50982410       0.90543642       0.36229980 </v>
    <v>       0.00982410       0.09456358       0.63770020 </v>
   </varray>
  </structure>
  <varray name="forces" >
   <v>      -0.05095728       0.04969897       0.03554874 </v>
   <v>      -0.05095728      -0.04969897      -0.03554874 </v>
   <v>      -0.05095728      -0.04969897       0.03554874 </v>
   <v>      -0.05095728       0.04969897      -0.03554874 </v>
   <v>      -0.02066239      -0.09778531      -0.00248138 </v>
   <v>      -0.02066239       0.09778531       0.00248138 </v>
   <v>      -0.02066239       0.09778531      -0.00248138 </v>
   <v>      -0.02066239      -0.09778531       0.00248138 </v>
   <v>      -0.35920861      -0.36678449       0.69710430 </v>
   <v>      -0.35920861       0.36678449      -0.69710430 </v>
   <v>      -0.35920861       0.36678449       0.69710430 </v>
   <v>      -0.35920861      -0.36678449      -0.69710430 </v>
   <v>       0.43082829       0.36215450      -0.65987571 </v>
   <v>       0.43082829      -0.36215450       0.65987571 </v>
   <v>       0.43082829      -0.36215450      -0.65987571 </v>
   <v>       0.43082829       0.36215450       0.65987571 </v>
  </varray>
  <varray name="stress" >
   <v>      32.79436986       0.00000000       0.00000000 </v>
   <v>       0.00000000      30.67979748       0.00000000 </v>
   <v>       0.00000000       0.00000000      38.56688952 </v>
  </varray>
  <energy>
   <i name="e_fr_energy">    -57.67051105 </i>
   <i name="e_wo_entrp">    -57.67051105 </i>
   <i name="e_0_energy">     -0.00000000 </i>
  </energy>
  <time name="totalsc">    3.37    3.38</time>
 </calculation>
 <calculation>
  <scstep>
   <time name="dav">    0.17    0.17</time>
   <time name="total">    0.35    0.35</time>
   <energy>
    <i name="alphaZ">     94.39481206 </i>
    <i name="ewald">  -1941.17572810 </i>
    <i name="hartreedc">   -386.14953772 </i>
    <i name="XCdc">   -224.02069020 </i>
    <i name="pawpsdc">   4012.01220305 </i>
    <i name="pawaedc">  -3659.39826185 </i>
    <i name="eentropy">     -0.00000000 </i>
    <i name="bandstr">   -267.15848909 </i>
    <i name="atom">   2313.10313368 </i>
    <i name="e_fr_energy">    -58.39255817 </i>
    <i name="e_wo_entrp">    -58.39255817 </i>
    <i name="e_0_energy">    -58.39255817 </i>
   </energy>
  </scstep>
  <scstep>
   <time name="dav">    0.28    0.28</time>
   <time name="total">    0.46    0.46</time>
   <energy>
    <i name="e_fr_energy">    -58.00498890 </i>
    <i name="e_wo_entrp">    -58.00498890 </i>
    <i name="e_0_energy">    -58.00498890 </i>
   </energy>
  </scstep>
  <scstep>
   <time name="dav">    0.23    0.23</time>
   <time name="total">    0.41    0.41</time>
   <energy>
    <i name="e_fr_energy">    -57.92971510 </i>
    <i name="e_wo_entrp">    -57.92971510 </i>
    <i name="e_0_energy">    -57.92971510 </i>
   </energy>
  </scstep>
  <scstep>
   <time name="dav">    0.16    0.16</time>
   <time name="total">    0.34    0.34</time>
   <energy>
    <i name="e_fr_energy">    -57.92676508 </i>
    <i name="e_wo_entrp">    -57.92676508 </i>
    <i name="e_0_energy">    -57.92676508 </i>
   </energy>
  </scstep>
  <scstep>
   <time name="dav">    0.20    0.20</time>
   <time name="total">    0.37    0.37</time>
   <energy>
    <i name="e_fr_energy">    -57.92537152 </i>
    <i name="e_wo_entrp">    -57.92537152 </i>
    <i name="e_0_energy">    -57.92537152 </i>
   </energy>
  </scstep>
  <scstep>
   <time name="dav">    0.15    0.15</time>
   <time name="total">    0.32    0.32</time>
   <energy>
    <i name="alphaZ">     94.39481206 </i>
    <i name="ewald">  -1941.17572810 </i>
    <i name="hartreedc">   -405.46504971 </i>
    <i name="XCdc">   -223.70371939 </i>
    <i name="pawpsdc">   3819.26246397 </i>
    <i name="pawaedc">  -3466.41483160 </i>
    <i name="eentropy">     -0.00000000 </i>
    <i name="bandstr">   -247.92646983 </i>
    <i name="atom">   2313.10313368 </i>
    <i name="e_fr_energy">    -57.92538891 </i>
    <i name="e_wo_entrp">    -57.92538891 </i>
    <i name="e_0_energy">    -57.92538891 </i>
   </energy>
  </scstep>
  <structure>
   <crystal>
    <varray name="basis" >
     <v>       6.84411424       0.00000000       0.00000000 </v>
     <v>       0.00000000       7.14496438       0.00000000 </v>
     <v>       0.00000000       0.00000000       8.72838355 </v>
    </varray>
    <i name="volume">    426.82626930 </i>
    <varray name="rec_basis" >
     <v>       0.14611095       0.00000000       0.00000000 </v>
     <v>       0.00000000       0.13995871       0.00000000 </v>
     <v>       0.00000000       0.00000000       0.11456875 </v>
    </varray>
   </crystal>
   <varray name="positions" >
    <v>       0.11725907       0.91773937       0.37837631 </v>
    <v>       0.61725907       0.08226063       0.62162369 </v>
    <v>       0.61725907       0.58226063       0.87837631 </v>
    <v>       0.11725907       0.41773937       0.12162369 </v>
    <v>       0.62141248       0.57321053       0.37390199 </v>
    <v>       0.12141248       0.42678947       0.62609801 </v>
    <v>       0.12141248       0.92678947       0.87390199 </v>
    <v>       0.62141248       0.07321053       0.12609801 </v>
    <v>       0.98660410       0.56355518       0.38546280 </v>
    <v>       0.48660410       0.43644482       0.61453720 </v>
    <v>       0.48660410       0.93644482       0.88546280 </v>
    <v>       0.98660410       0.06355518       0.11453720 </v>
    <v>       0.00972536       0.59443068       0.86249558 </v>
    <v>       0.50972536       0.40556932       0.13750442 </v>
    <v>       0.50972536       0.90556932       0.36249558 </v>
    <v>       0.00972536       0.09443068       0.63750442 </v>
   </varray>
  </structure>
  <varray name="forces" >
   <v>      -0.06332761       0.03022271       0.03458152 </v>
   <v>      -0.06332761      -0.03022271      -0.03458152 </v>
   <v>      -0.06332761      -0.03022271       0.03458152 </v>
   <v>      -0.06332761       0.03022271      -0.03458152 </v>
   <v>      -0.00514687      -0.07920068       0.03321537 </v>
   <v>      -0.00514687       0.07920068      -0.03321537 </v>
   <v>      -0.00514687       0.07920068       0.03321537 </v>
   <v>      -0.00514687      -0.07920068      -0.03321537 </v>
   <v>      -0.45060531      -0.43832046       0.74435036 </v>
   <v>      -0.45060531       0.43832046      -0.74435036 </v>
   <v>      -0.45060531       0.43832046       0.74435036 </v>
   <v>      -0.45060531      -0.43832046      -0.74435036 </v>
   <v>       0.51907978       0.38860128      -0.74319280 </v>
   <v>       0.51907978      -0.38860128       0.74319280 </v>
   <v>       0.51907978      -0.38860128      -0.74319280 </v>
   <v>       0.51907978       0.38860128       0.74319280 </v>
  </varray>
  <varray name="stress" >
   <v>       9.69052157       0.00000000       0.00000000 </v>
   <v>       0.00000000       7.17483617       0.00000000 </v>
   <v>       0.00000000       0.00000000      11.84535764 </v>
  </varray>
  <energy>
   <i name="e_fr_energy">    -57.92538891 </i>
   <i name="e_wo_entrp">    -57.92538891 </i>
   <i name="e_0_energy">     -0.00000000 </i>
  </energy>
  <time name="totalsc">    2.76    2.76</time>
 </calculation>
 <calculation>
  <scstep>
   <time name="dav">    0.26    0.26</time>
   <time name="total">    0.44    0.44</time>
   <energy>
    <i name="alphaZ">     92.52296256 </i>
    <i name="ewald">  -1928.42808685 </i>
    <i name="hartreedc">   -402.70105547 </i>
    <i name="XCdc">   -224.20155842 </i>
    <i name="pawpsdc">   3829.45834871 </i>
    <i name="pawaedc">  -3476.60302591 </i>
    <i name="eentropy">     -0.00000000 </i>
    <i name="bandstr">   -261.17337537 </i>
    <i name="atom">   2313.10313368 </i>
    <i name="e_fr_energy">    -58.02265707 </i>
    <i name="e_wo_entrp">    -58.02265707 </i>
    <i name="e_0_energy">    -58.02265707 </i>
   </energy>
  </scstep>
  <scstep>
   <time name="dav">    0.27    0.27</time>
   <time name="total">    0.45    0.45</time>
   <energy>
    <i name="e_fr_energy">    -57.95675057 </i>
    <i name="e_wo_entrp">    -57.95675057 </i>
    <i name="e_0_energy">    -57.95675057 </i>
   </energy>
  </scstep>
  <scstep>
   <time name="dav">    0.28    0.28</time>
   <time name="total">    0.47    0.47</time>
   <energy>
    <i name="e_fr_energy">    -57.94409691 </i>
    <i name="e_wo_entrp">    -57.94409691 </i>
    <i name="e_0_energy">    -57.94409691 </i>
   </energy>
  </scstep>
  <scstep>
   <time name="dav">    0.28    0.28</time>
   <time name="total">    0.45    0.45</time>
   <energy>
    <i name="e_fr_energy">    -57.94359430 </i>
    <i name="e_wo_entrp">    -57.94359430 </i>
    <i name="e_0_energy">    -57.94359430 </i>
   </energy>
  </scstep>
  <scstep>
   <time name="dav">    0.27    0.27</time>
   <time name="total">    0.45    0.45</time>
   <energy>
    <i name="e_fr_energy">    -57.94334235 </i>
    <i name="e_wo_entrp">    -57.94334235 </i>
    <i name="e_0_energy">    -57.94334235 </i>
   </energy>
  </scstep>
  <scstep>
   <time name="dav">    0.22    0.22</time>
   <time name="total">    0.39    0.39</time>
   <energy>
    <i name="alphaZ">     92.52296256 </i>
    <i name="ewald">  -1928.42808685 </i>
    <i name="hartreedc">   -410.75674246 </i>
    <i name="XCdc">   -224.06627710 </i>
    <i name="pawpsdc">   3757.05736058 </i>
    <i name="pawaedc">  -3404.11502603 </i>
    <i name="eentropy">     -0.00000000 </i>
    <i name="bandstr">   -253.26067063 </i>
    <i name="atom">   2313.10313368 </i>
    <i name="e_fr_energy">    -57.94334624 </i>
    <i name="e_wo_entrp">    -57.94334624 </i>
    <i name="e_0_energy">    -57.94334624 </i>
   </energy>
  </scstep>
  <structure>
   <crystal>
    <varray name="basis" >
     <v>       6.88932201       0.00000000       0.00000000 </v>
     <v>       0.00000000       7.19087149       0.00000000 </v>
     <v>       0.00000000       0.00000000       8.79005768 </v>
    </varray>
    <i name="volume">    435.46147203 </i>
    <varray name="rec_basis" >
     <v>       0.14515216       0.00000000       0.00000000 </v>
     <v>       0.00000000       0.13906520       0.00000000 </v>
     <v>       0.00000000       0.00000000       0.11376490 </v>
    </varray>
   </crystal>
   <varray name="positions" >
    <v>       0.11722267       0.91781215       0.37842039 </v>
    <v>       0.61722267       0.08218785       0.62157961 </v>
    <v>       0.61722267       0.58218785       0.87842039 </v>
    <v>       0.11722267       0.41781215       0.12157961 </v>
    <v>       0.62141503       0.57317427       0.37390345 </v>
    <v>       0.12141503       0.42682573       0.62609655 </v>
    <v>       0.12141503       0.92682573       0.87390345 </v>
    <v>       0.62141503       0.07317427       0.12609655 </v>
    <v>       0.98667807       0.56349696       0.38539698 </v>
    <v>       0.48667807       0.43650304       0.61460302 </v>
    <v>       0.48667807       0.93650304       0.88539698 </v>
    <v>       0.98667807       0.06349696       0.11460302 </v>
    <v>       0.00968524       0.59437666       0.86257503 </v>
    <v>       0.50968524       0.40562334       0.13742497 </v>
    <v>       0.50968524       0.90562334       0.36257503 </v>
    <v>       0.00968524       0.09437666       0.63742497 </v>
   </varray>
  </structure>
  <varray name="forces" >
   <v>      -0.04596039       0.01637706       0.03783267 </v>
   <v>      -0.04596039      -0.01637706      -0.03783267 </v>
   <v>      -0.04596039      -0.01637706       0.03783267 </v>
   <v>      -0.04596039       0.01637706      -0.03783267 </v>
   <v>       0.03459917      -0.02738238       0.03032456 </v>
   <v>       0.03459917       0.02738238      -0.03032456 </v>
   <v>       0.03459917       0.02738238       0.03032456 </v>
   <v>       0.03459917      -0.02738238      -0.03032456 </v>
   <v>      -0.53497808      -0.41891847       0.79669835 </v>
   <v>      -0.53497808       0.41891847      -0.79669835 </v>
   <v>      -0.53497808       0.41891847       0.79669835 </v>
   <v>      -0.53497808      -0.41891847      -0.79669835 </v>
   <v>       0.54633930       0.37116118      -0.75188319 </v>
   <v>       0.54633930      -0.37116118       0.75188319 </v>
   <v>       0.54633930      -0.37116118      -0.75188319 </v>
   <v>       0.54633930       0.37116118       0.75188319 </v>
  </varray>
  <varray name="stress" >
   <v>      -1.45134173       0.00000000       0.00000000 </v>
   <v>       0.00000000      -1.79338132       0.00000000 </v>
   <v>       0.00000000       0.00000000       1.48951779 </v>
  </varray>
  <energy>
   <i name="e_fr_energy">    -57.94334624 </i>
   <i name="e_wo_entrp">    -57.94334624 </i>
   <i name="e_0_energy">     -0.00000000 </i>
  </energy>
  <time name="totalsc">    3.20    3.20</time>
 </calculation>
 <calculation>
  <scstep>
   <time name="dav">    0.26    0.26</time>
   <time name="total">    0.44    0.44</time>
   <energy>
    <i name="alphaZ">     92.78054103 </i>
    <i name="ewald">  -1930.19254738 </i>
    <i name="hartreedc">   -411.18709170 </i>
    <i name="XCdc">   -223.99672578 </i>
    <i name="pawpsdc">   3761.15145363 </i>
    <i name="pawaedc">  -3408.20636032 </i>
    <i name="eentropy">     -0.00000000 </i>
    <i name="bandstr">   -251.39807107 </i>
    <i name="atom">   2313.10313368 </i>
    <i name="e_fr_energy">    -57.94566790 </i>
    <i name="e_wo_entrp">    -57.94566790 </i>
    <i name="e_0_energy">    -57.94566790 </i>
   </energy>
  </scstep>
  <scstep>
   <time name="dav">    0.21    0.21</time>
   <time name="total">    0.39    0.39</time>
   <energy>
    <i name="e_fr_energy">    -57.94439103 </i>
    <i name="e_wo_entrp">    -57.94439103 </i>
    <i name="e_0_energy">    -57.94439103 </i>
   </energy>
  </scstep>
  <scstep>
   <time name="dav">    0.18    0.18</time>
   <time name="total">    0.36    0.36</time>
   <energy>
    <i name="e_fr_energy">    -57.94415957 </i>
    <i name="e_wo_entrp">    -57.94415957 </i>
    <i name="e_0_energy">    -57.94415957 </i>
   </energy>
  </scstep>
  <scstep>
   <time name="dav">    0.15    0.15</time>
   <time name="total">    0.32    0.32</time>
   <energy>
    <i name="alphaZ">     92.78054103 </i>
    <i name="ewald">  -1930.19254738 </i>
    <i name="hartreedc">   -410.12053106 </i>
    <i name="XCdc">   -224.01638620 </i>
    <i name="pawpsdc">   3772.74394477 </i>
    <i name="pawaedc">  -3419.80795381 </i>
    <i name="eentropy">     -0.00000000 </i>
    <i name="bandstr">   -252.43435382 </i>
    <i name="atom">   2313.10313368 </i>
    <i name="e_fr_energy">    -57.94415278 </i>
    <i name="e_wo_entrp">    -57.94415278 </i>
    <i name="e_0_energy">    -57.94415278 </i>
   </energy>
  </scstep>
  <structure>
   <crystal>
    <varray name="basis" >
     <v>       6.88302906       0.00000000       0.00000000 </v>
     <v>       0.00000000       7.18448119       0.00000000 </v>
     <v>       0.00000000       0.00000000       8.78147260 </v>
    </varray>
    <i name="volume">    434.25253856 </i>
    <varray name="rec_basis" >
     <v>       0.14528487       0.00000000       0.00000000 </v>
     <v>       0.00000000       0.13918890       0.00000000 </v>
     <v>       0.00000000       0.00000000       0.11387612 </v>
    </varray>
   </crystal>
   <varray name="positions" >
    <v>       0.11722770       0.91780209       0.37841430 </v>
    <v>       0.61722770       0.08219791       0.62158570 </v>
    <v>       0.61722770       0.58219791       0.87841430 </v>
    <v>       0.11722770       0.41780209       0.12158570 </v>
    <v>       0.62141468       0.57317929       0.37390325 </v>
    <v>       0.12141468       0.42682071       0.62609675 </v>
    <v>       0.12141468       0.92682071       0.87390325 </v>
    <v>       0.62141468       0.07317929       0.12609675 </v>
    <v>       0.98666784       0.56350501       0.38540608 </v>
    <v>       0.48666784       0.43649499       0.61459392 </v>
    <v>       0.48666784       0.93649499       0.88540608 </v>
    <v>       0.98666784       0.06350501       0.11459392 </v>
    <v>       0.00969079       0.59438413       0.86256405 </v>
    <v>       0.50969079       0.40561587       0.13743595 </v>
    <v>       0.50969079       0.90561587       0.36256405 </v>
    <v>       0.00969079       0.09438413       0.63743595 </v>
   </varray>
  </structure>
  <varray name="forces" >
   <v>      -0.05247639       0.01722262       0.03380997 </v>
   <v>      -0.05247639      -0.01722262      -0.03380997 </v>
   <v>      -0.05247639      -0.01722262       0.03380997 </v>
   <v>      -0.05247639       0.01722262      -0.03380997 </v>
   <v>       0.03083769      -0.02529476       0.04543209 </v>
   <v>       0.03083769       0.02529476      -0.04543209 </v>
   <v>       0.03083769       0.02529476       0.04543209 </v>
   <v>       0.03083769      -0.02529476      -0.04543209 </v>
   <v>      -0.49966083      -0.43712025       0.79707464 </v>
   <v>      -0.49966083       0.43712025      -0.79707464 </v>
   <v>      -0.49966083       0.43712025       0.79707464 </v>
   <v>      -0.49966083      -0.43712025      -0.79707464 </v>
   <v>       0.52129953       0.39448035      -0.73957281 </v>
   <v>       0.52129953      -0.39448035       0.73957281 </v>
   <v>       0.52129953      -0.39448035      -0.73957281 </v>
   <v>       0.52129953       0.39448035       0.73957281 </v>
  </varray>
  <varray name="stress" >
   <v>       0.11206255       0.00000000       0.00000000 </v>
   <v>       0.00000000      -0.54347938       0.00000000 </v>
   <v>       0.00000000       0.00000000       2.86638843 </v>
  </varray>
  <energy>
   <i name="e_fr_energy">    -57.94415278 </i>
   <i name="e_wo_entrp">    -57.94415278 </i>
   <i name="e_0_energy">     -0.00000000 </i>
  </energy>
  <time name="totalsc">    2.04    2.04</time>
 </calculation>
 <calculation>
  <scstep>
   <time name="dav">    0.15    0.15</time>
   <time name="total">    0.33    0.33</time>
   <energy>
    <i name="alphaZ">     92.52727207 </i>
    <i name="ewald">  -1925.01381905 </i>
    <i name="hartreedc">   -412.70884490 </i>
    <i name="XCdc">   -223.99322651 </i>
    <i name="pawpsdc">   3770.51341539 </i>
    <i name="pawaedc">  -3417.58169479 </i>
    <i name="eentropy">     -0.00000000 </i>
    <i name="bandstr">   -254.89840739 </i>
    <i name="atom">   2313.10313368 </i>
    <i name="e_fr_energy">    -58.05217150 </i>
    <i name="e_wo_entrp">    -58.05217150 </i>
    <i name="e_0_energy">    -58.05217150 </i>
   </energy>
  </scstep>
  <scstep>
   <time name="dav">    0.17    0.17</time>
   <time name="total">    0.35    0.35</time>
   <energy>
    <i name="e_fr_energy">    -58.05811333 </i>
    <i name="e_wo_entrp">    -58.05811333 </i>
    <i name="e_0_energy">    -58.05811333 </i>
   </energy>
  </scstep>
  <scstep>
   <time name="dav">    0.17    0.17</time>
   <time name="total">    0.34    0.35</time>
   <energy>
    <i name="e_fr_energy">    -58.05751690 </i>
    <i name="e_wo_entrp">    -58.05751690 </i>
    <i name="e_0_energy">    -58.05751690 </i>
   </energy>
  </scstep>
  <scstep>
   <time name="dav">    0.16    0.16</time>
   <time name="total">    0.34    0.34</time>
   <energy>
    <i name="e_fr_energy">    -58.05721361 </i>
    <i name="e_wo_entrp">    -58.05721361 </i>
    <i name="e_0_energy">    -58.05721361 </i>
   </energy>
  </scstep>
  <scstep>
   <time name="dav">    0.17    0.17</time>
   <time name="total">    0.33    0.33</time>
   <energy>
    <i name="alphaZ">     92.52727207 </i>
    <i name="ewald">  -1925.01381905 </i>
    <i name="hartreedc">   -414.10452963 </i>
    <i name="XCdc">   -223.98385708 </i>
    <i name="pawpsdc">   3783.39111614 </i>
    <i name="pawaedc">  -3430.47479205 </i>
    <i name="eentropy">     -0.00000000 </i>
    <i name="bandstr">   -253.50174103 </i>
    <i name="atom">   2313.10313368 </i>
    <i name="e_fr_energy">    -58.05721694 </i>
    <i name="e_wo_entrp">    -58.05721694 </i>
    <i name="e_0_energy">    -58.05721694 </i>
   </energy>
  </scstep>
  <structure>
   <crystal>
    <varray name="basis" >
     <v>       6.88806431       0.00000000       0.00000000 </v>
     <v>       0.00000000       7.18844754       0.00000000 </v>
     <v>       0.00000000       0.00000000       8.79421760 </v>
    </varray>
    <i name="volume">    435.44119015 </i>
    <varray name="rec_basis" >
     <v>       0.14517867       0.00000000       0.00000000 </v>
     <v>       0.00000000       0.13911210       0.00000000 </v>
     <v>       0.00000000       0.00000000       0.11371108 </v>
    </varray>
   </crystal>
   <varray name="positions" >
    <v>       0.11711550       0.91784326       0.37847343 </v>
    <v>       0.61711550       0.08215674       0.62152657 </v>
    <v>       0.61711550       0.58215674       0.87847343 </v>
    <v>       0.11711550       0.41784326       0.12152657 </v>
    <v>       0.62147880       0.57312560       0.37397715 </v>
    <v>       0.12147880       0.42687440       0.62602285 </v>
    <v>       0.12147880       0.92687440       0.87397715 </v>
    <v>       0.62147880       0.07312560       0.12602285 </v>
    <v>       0.98563995       0.56263195       0.38669388 </v>
    <v>       0.48563995       0.43736805       0.61330612 </v>
    <v>       0.48563995       0.93736805       0.88669388 </v>
    <v>       0.98563995       0.06263195       0.11330612 </v>
    <v>       0.01076675       0.59516177       0.86137092 </v>
    <v>       0.51076675       0.40483823       0.13862908 </v>
    <v>       0.51076675       0.90483823       0.36137092 </v>
    <v>       0.01076675       0.09516177       0.63862908 </v>
   </varray>
  </structure>
  <varray name="forces" >
   <v>      -0.05603524       0.02171027       0.03024317 </v>
   <v>      -0.05603524      -0.02171027      -0.03024317 </v>
   <v>      -0.05603524      -0.02171027       0.03024317 </v>
   <v>      -0.05603524       0.02171027      -0.03024317 </v>
   <v>       0.02402577      -0.03610215       0.02730071 </v>
   <v>       0.02402577       0.03610215      -0.02730071 </v>
   <v>       0.02402577       0.03610215       0.02730071 </v>
   <v>       0.02402577      -0.03610215      -0.02730071 </v>
   <v>      -0.46315696      -0.39912097       0.73014197 </v>
   <v>      -0.46315696       0.39912097      -0.73014197 </v>
   <v>      -0.46315696       0.39912097       0.73014197 </v>
   <v>      -0.46315696      -0.39912097      -0.73014197 </v>
   <v>       0.49516643       0.36712275      -0.69561913 </v>
   <v>       0.49516643      -0.36712275       0.69561913 </v>
   <v>       0.49516643      -0.36712275      -0.69561913 </v>
   <v>       0.49516643       0.36712275       0.69561913 </v>
  </varray>
  <varray name="stress" >
   <v>      -0.45507290       0.00000000       0.00000000 </v>
   <v>       0.00000000      -1.24917256       0.00000000 </v>
   <v>       0.00000000       0.00000000       3.28006813 </v>
  </varray>
  <energy>
   <i name="e_fr_energy">    -58.05721694 </i>
   <i name="e_wo_entrp">    -58.05721694 </i>
   <i name="e_0_energy">     -0.00000000 </i>
  </energy>
  <time name="totalsc">    2.20    2.21</time>
 </calculation>
 <calculation>
  <scstep>
   <time name="dav">    0.18    0.18</time>
   <time name="total">    0.36    0.36</time>
   <energy>
    <i name="alphaZ">     91.77322159 </i>
    <i name="ewald">  -1909.02256795 </i>
    <i name="hartreedc">   -422.37078050 </i>
    <i name="XCdc">   -223.93281872 </i>
    <i name="pawpsdc">   3784.59028418 </i>
    <i name="pawaedc">  -3431.67396221 </i>
    <i name="eentropy">     -0.00000000 </i>
    <i name="bandstr">   -260.75102189 </i>
    <i name="atom">   2313.10313368 </i>
    <i name="e_fr_energy">    -58.28451182 </i>
    <i name="e_wo_entrp">    -58.28451182 </i>
    <i name="e_0_energy">    -58.28451182 </i>
   </energy>
  </scstep>
  <scstep>
   <time name="dav">    0.21    0.21</time>
   <time name="total">    0.39    0.39</time>
   <energy>
    <i name="e_fr_energy">    -58.33948258 </i>
    <i name="e_wo_entrp">    -58.33948258 </i>
    <i name="e_0_energy">    -58.33948258 </i>
   </energy>
  </scstep>
  <scstep>
   <time name="dav">    0.27    0.27</time>
   <time name="total">    0.45    0.45</time>
   <energy>
    <i name="e_fr_energy">    -58.33395368 </i>
    <i name="e_wo_entrp">    -58.33395368 </i>
    <i name="e_0_energy">    -58.33395368 </i>
   </energy>
  </scstep>
  <scstep>
   <time name="dav">    0.25    0.26</time>
   <time name="total">    0.43    0.44</time>
   <energy>
    <i name="e_fr_energy">    -58.33104673 </i>
    <i name="e_wo_entrp">    -58.33104673 </i>
    <i name="e_0_energy">    -58.33104673 </i>
   </energy>
  </scstep>
  <scstep>
   <time name="dav">    0.21    0.21</time>
   <time name="total">    0.39    0.39</time>
   <energy>
    <i name="e_fr_energy">    -58.33106550 </i>
    <i name="e_wo_entrp">    -58.33106550 </i>
    <i name="e_0_energy">    -58.33106550 </i>
   </energy>
  </scstep>
  <scstep>
   <time name="dav">    0.22    0.22</time>
   <time name="total">    0.39    0.39</time>
   <energy>
    <i name="alphaZ">     91.77322159 </i>
    <i name="ewald">  -1909.02256795 </i>
    <i name="hartreedc">   -426.69269796 </i>
    <i name="XCdc">   -223.88883014 </i>
    <i name="pawpsdc">   3833.85539285 </i>
    <i name="pawaedc">  -3480.98833942 </i>
    <i name="eentropy">     -0.00000000 </i>
    <i name="bandstr">   -256.47037783 </i>
    <i name="atom">   2313.10313368 </i>
    <i name="e_fr_energy">    -58.33106519 </i>
    <i name="e_wo_entrp">    -58.33106519 </i>
    <i name="e_0_energy">    -58.33106519 </i>
   </energy>
  </scstep>
  <structure>
   <crystal>
    <varray name="basis" >
     <v>       6.90317005       0.00000000       0.00000000 </v>
     <v>       0.00000000       7.20034659       0.00000000 </v>
     <v>       0.00000000       0.00000000       8.83245260 </v>
    </varray>
    <i name="volume">    439.01897279 </i>
    <varray name="rec_basis" >
     <v>       0.14486098       0.00000000       0.00000000 </v>
     <v>       0.00000000       0.13888220       0.00000000 </v>
     <v>       0.00000000       0.00000000       0.11321884 </v>
    </varray>
   </crystal>
   <varray name="positions" >
    <v>       0.11677915       0.91796673       0.37865056 </v>
    <v>       0.61677915       0.08203327       0.62134944 </v>
    <v>       0.61677915       0.58203327       0.87865056 </v>
    <v>       0.11677915       0.41796673       0.12134944 </v>
    <v>       0.62167103       0.57296464       0.37419854 </v>
    <v>       0.12167103       0.42703536       0.62580146 </v>
    <v>       0.12167103       0.92703536       0.87419854 </v>
    <v>       0.62167103       0.07296464       0.12580146 </v>
    <v>       0.98255855       0.56001422       0.39055167 </v>
    <v>       0.48255855       0.43998578       0.60944833 </v>
    <v>       0.48255855       0.93998578       0.89055167 </v>
    <v>       0.98255855       0.06001422       0.10944833 </v>
    <v>       0.01399229       0.59749343       0.85779672 </v>
    <v>       0.51399229       0.40250657       0.14220328 </v>
    <v>       0.51399229       0.90250657       0.35779672 </v>
    <v>       0.01399229       0.09749343       0.64220328 </v>
   </varray>
  </structure>
  <varray name="forces" >
   <v>      -0.04106508       0.02942333       0.02256102 </v>
   <v>      -0.04106508      -0.02942333      -0.02256102 </v>
   <v>      -0.04106508      -0.02942333       0.02256102 </v>
   <v>      -0.04106508       0.02942333      -0.02256102 </v>
   <v>       0.02051557      -0.07877072      -0.01478174 </v>
   <v>       0.02051557       0.07877072       0.01478174 </v>
   <v>       0.02051557       0.07877072      -0.01478174 </v>
   <v>       0.02051557      -0.07877072       0.01478174 </v>
   <v>      -0.34247363      -0.32039841       0.46852595 </v>
   <v>      -0.34247363       0.32039841      -0.46852595 </v>
   <v>      -0.34247363       0.32039841       0.46852595 </v>
   <v>      -0.34247363      -0.32039841      -0.46852595 </v>
   <v>       0.36302314       0.25168940      -0.47539843 </v>
   <v>       0.36302314      -0.25168940       0.47539843 </v>
   <v>       0.36302314      -0.25168940      -0.47539843 </v>
   <v>       0.36302314       0.25168940       0.47539843 </v>
  </varray>
  <varray name="stress" >
   <v>      -1.04547773       0.00000000       0.00000000 </v>
   <v>       0.00000000      -2.14162886       0.00000000 </v>
   <v>       0.00000000       0.00000000       3.65911117 </v>
  </varray>
  <energy>
   <i name="e_fr_energy">    -58.33106519 </i>
   <i name="e_wo_entrp">    -58.33106519 </i>
   <i name="e_0_energy">     -0.00000000 </i>
  </energy>
  <time name="totalsc">    2.95    2.96</time>
 </calculation>
 <calculation>
  <scstep>
   <time name="dav">    0.23    0.23</time>
   <time name="total">    0.42    0.42</time>
   <energy>
    <i name="alphaZ">     90.29060125 </i>
    <i name="ewald">  -1875.15845296 </i>
    <i name="hartreedc">   -444.76051782 </i>
    <i name="XCdc">   -223.81739238 </i>
    <i name="pawpsdc">   3836.63737197 </i>
    <i name="pawaedc">  -3483.77028614 </i>
    <i name="eentropy">     -0.00000000 </i>
    <i name="bandstr">   -270.93820211 </i>
    <i name="atom">   2313.10313368 </i>
    <i name="e_fr_energy">    -58.41374450 </i>
    <i name="e_wo_entrp">    -58.41374450 </i>
    <i name="e_0_energy">    -58.41374450 </i>
   </energy>
  </scstep>
  <scstep>
   <time name="dav">    0.30    0.30</time>
   <time name="total">    0.48    0.48</time>
   <energy>
    <i name="e_fr_energy">    -58.65249595 </i>
    <i name="e_wo_entrp">    -58.65249595 </i>
    <i name="e_0_energy">    -58.65249595 </i>
   </energy>
  </scstep>
  <scstep>
   <time name="dav">    0.27    0.27</time>
   <time name="total">    0.45    0.45</time>
   <energy>
    <i name="e_fr_energy">    -58.62875432 </i>
    <i name="e_wo_entrp">    -58.62875432 </i>
    <i name="e_0_energy">    -58.62875432 </i>
   </energy>
  </scstep>
  <scstep>
   <time name="dav">    0.23    0.23</time>
   <time name="total">    0.41    0.41</time>
   <energy>
    <i name="e_fr_energy">    -58.61519467 </i>
    <i name="e_wo_entrp">    -58.61519467 </i>
    <i name="e_0_energy">    -58.61519467 </i>
   </energy>
  </scstep>
  <scstep>
   <time name="dav">    0.21    0.21</time>
   <time name="total">    0.39    0.39</time>
   <energy>
    <i name="e_fr_energy">    -58.61511158 </i>
    <i name="e_wo_entrp">    -58.61511158 </i>
    <i name="e_0_energy">    -58.61511158 </i>
   </energy>
  </scstep>
  <scstep>
   <time name="dav">    0.16    0.16</time>
   <time name="total">    0.33    0.33</time>
   <energy>
    <i name="alphaZ">     90.29060125 </i>
    <i name="ewald">  -1875.15845296 </i>
    <i name="hartreedc">   -453.79494039 </i>
    <i name="XCdc">   -223.69567234 </i>
    <i name="pawpsdc">   3938.70105737 </i>
    <i name="pawaedc">  -3585.94056047 </i>
    <i name="eentropy">     -0.00000000 </i>
    <i name="bandstr">   -262.12028000 </i>
    <i name="atom">   2313.10313368 </i>
    <i name="e_fr_energy">    -58.61511387 </i>
    <i name="e_wo_entrp">    -58.61511387 </i>
    <i name="e_0_energy">    -58.61511387 </i>
   </energy>
  </scstep>
  <structure>
   <crystal>
    <varray name="basis" >
     <v>       6.93338154       0.00000000       0.00000000 </v>
     <v>       0.00000000       7.22414469       0.00000000 </v>
     <v>       0.00000000       0.00000000       8.90892261 </v>
    </varray>
    <i name="volume">    446.22790095 </i>
    <varray name="rec_basis" >
     <v>       0.14422977       0.00000000       0.00000000 </v>
     <v>       0.00000000       0.13842469       0.00000000 </v>
     <v>       0.00000000       0.00000000       0.11224702 </v>
    </varray>
   </crystal>
   <varray name="positions" >
    <v>       0.11610791       0.91821324       0.37900330 </v>
    <v>       0.61610791       0.08178676       0.62099670 </v>
    <v>       0.61610791       0.58178676       0.87900330 </v>
    <v>       0.11610791       0.41821324       0.12099670 </v>
    <v>       0.62205464       0.57264325       0.37463940 </v>
    <v>       0.12205464       0.42735675       0.62536060 </v>
    <v>       0.12205464       0.92735675       0.87463940 </v>
    <v>       0.62205464       0.07264325       0.12536060 </v>
    <v>       0.97640922       0.55478741       0.39823386 </v>
    <v>       0.47640922       0.44521259       0.60176614 </v>
    <v>       0.47640922       0.94521259       0.89823386 </v>
    <v>       0.97640922       0.05478741       0.10176614 </v>
    <v>       0.02042924       0.60214903       0.85067927 </v>
    <v>       0.52042924       0.39785097       0.14932073 </v>
    <v>       0.52042924       0.89785097       0.35067927 </v>
    <v>       0.02042924       0.10214903       0.64932073 </v>
   </varray>
  </structure>
  <varray name="forces" >
   <v>      -0.05367207       0.03067540      -0.00482577 </v>
   <v>      -0.05367207      -0.03067540       0.00482577 </v>
   <v>      -0.05367207      -0.03067540      -0.00482577 </v>
   <v>      -0.05367207       0.03067540       0.00482577 </v>
   <v>       0.05076780      -0.12334911      -0.08425802 </v>
   <v>       0.05076780       0.12334911       0.08425802 </v>
   <v>       0.05076780       0.12334911      -0.08425802 </v>
   <v>       0.05076780      -0.12334911       0.08425802 </v>
   <v>      -0.16051076      -0.13392890      -0.05089283 </v>
   <v>      -0.16051076       0.13392890       0.05089283 </v>
   <v>      -0.16051076       0.13392890      -0.05089283 </v>
   <v>      -0.16051076      -0.13392890       0.05089283 </v>
   <v>       0.16341502       0.11037238      -0.09771833 </v>
   <v>       0.16341502      -0.11037238       0.09771833 </v>
   <v>       0.16341502      -0.11037238      -0.09771833 </v>
   <v>       0.16341502       0.11037238       0.09771833 </v>
  </varray>
  <varray name="stress" >
   <v>       0.34065906       0.00000000       0.00000000 </v>
   <v>       0.00000000      -3.08129570       0.00000000 </v>
   <v>       0.00000000       0.00000000       7.65834654 </v>
  </varray>
  <energy>
   <i name="e_fr_energy">    -58.61511387 </i>
   <i name="e_wo_entrp">    -58.61511387 </i>
   <i name="e_0_energy">     -0.00000000 </i>
  </energy>
  <time name="totalsc">    3.01    3.01</time>
 </calculation>
 <calculation>
  <scstep>
   <time name="dav">    0.15    0.15</time>
   <time name="total">    0.33    0.33</time>
   <energy>
    <i name="alphaZ">     89.77537256 </i>
    <i name="ewald">  -1862.69973183 </i>
    <i name="hartreedc">   -460.65199334 </i>
    <i name="XCdc">   -223.66463004 </i>
    <i name="pawpsdc">   3944.10688741 </i>
    <i name="pawaedc">  -3591.34617831 </i>
    <i name="eentropy">     -0.00000000 </i>
    <i name="bandstr">   -267.23821444 </i>
    <i name="atom">   2313.10313368 </i>
    <i name="e_fr_energy">    -58.61535431 </i>
    <i name="e_wo_entrp">    -58.61535431 </i>
    <i name="e_0_energy">    -58.61535431 </i>
   </energy>
  </scstep>
  <scstep>
   <time name="dav">    0.24    0.24</time>
   <time name="total">    0.42    0.42</time>
   <energy>
    <i name="e_fr_energy">    -58.64236762 </i>
    <i name="e_wo_entrp">    -58.64236762 </i>
    <i name="e_0_energy">    -58.64236762 </i>
   </energy>
  </scstep>
  <scstep>
   <time name="dav">    0.24    0.24</time>
   <time name="total">    0.42    0.42</time>
   <energy>
    <i name="e_fr_energy">    -58.63951746 </i>
    <i name="e_wo_entrp">    -58.63951746 </i>
    <i name="e_0_energy">    -58.63951746 </i>
   </energy>
  </scstep>
  <scstep>
   <time name="dav">    0.20    0.20</time>
   <time name="total">    0.37    0.37</time>
   <energy>
    <i name="e_fr_energy">    -58.63812000 </i>
    <i name="e_wo_entrp">    -58.63812000 </i>
    <i name="e_0_energy">    -58.63812000 </i>
   </energy>
  </scstep>
  <scstep>
   <time name="dav">    0.23    0.23</time>
   <time name="total">    0.40    0.40</time>
   <energy>
    <i name="alphaZ">     89.77537256 </i>
    <i name="ewald">  -1862.69973183 </i>
    <i name="hartreedc">   -463.87977949 </i>
    <i name="XCdc">   -223.62408567 </i>
    <i name="pawpsdc">   3979.94602131 </i>
    <i name="pawaedc">  -3627.22478856 </i>
    <i name="eentropy">     -0.00000000 </i>
    <i name="bandstr">   -264.03427669 </i>
    <i name="atom">   2313.10313368 </i>
    <i name="e_fr_energy">    -58.63813469 </i>
    <i name="e_wo_entrp">    -58.63813469 </i>
    <i name="e_0_energy">    -58.63813469 </i>
   </energy>
  </scstep>
  <structure>
   <crystal>
    <varray name="basis" >
     <v>       6.94404266       0.00000000       0.00000000 </v>
     <v>       0.00000000       7.23254264       0.00000000 </v>
     <v>       0.00000000       0.00000000       8.93590757 </v>
    </varray>
    <i name="volume">    448.78884181 </i>
    <varray name="rec_basis" >
     <v>       0.14400833       0.00000000       0.00000000 </v>
     <v>       0.00000000       0.13826396       0.00000000 </v>
     <v>       0.00000000       0.00000000       0.11190805 </v>
    </varray>
   </crystal>
   <varray name="positions" >
    <v>       0.11587208       0.91829995       0.37912670 </v>
    <v>       0.61587208       0.08170005       0.62087330 </v>
    <v>       0.61587208       0.58170005       0.87912670 </v>
    <v>       0.11587208       0.41829995       0.12087330 </v>
    <v>       0.62218942       0.57253021       0.37479364 </v>
    <v>       0.12218942       0.42746979       0.62520636 </v>
    <v>       0.12218942       0.92746979       0.87479364 </v>
    <v>       0.62218942       0.07253021       0.12520636 </v>
    <v>       0.97424868       0.55294903       0.40092151 </v>
    <v>       0.47424868       0.44705097       0.59907849 </v>
    <v>       0.47424868       0.94705097       0.90092151 </v>
    <v>       0.97424868       0.05294903       0.09907849 </v>
    <v>       0.02269083       0.60378651       0.84818920 </v>
    <v>       0.52269083       0.39621349       0.15181080 </v>
    <v>       0.52269083       0.89621349       0.34818920 </v>
    <v>       0.02269083       0.10378651       0.65181080 </v>
   </varray>
  </structure>
  <varray name="forces" >
   <v>      -0.05026962       0.03105256      -0.00598968 </v>
   <v>      -0.05026962      -0.03105256       0.00598968 </v>
   <v>      -0.05026962      -0.03105256      -0.00598968 </v>
   <v>      -0.05026962       0.03105256       0.00598968 </v>
   <v>       0.05835192      -0.14373493      -0.07730970 </v>
   <v>       0.05835192       0.14373493       0.07730970 </v>
   <v>       0.05835192       0.14373493      -0.07730970 </v>
   <v>       0.05835192      -0.14373493       0.07730970 </v>
   <v>      -0.04778869      -0.07837367      -0.13916873 </v>
   <v>      -0.04778869       0.07837367       0.13916873 </v>
   <v>      -0.04778869       0.07837367      -0.13916873 </v>
   <v>      -0.04778869      -0.07837367       0.13916873 </v>
   <v>       0.03970638      -0.03281843       0.04179165 </v>
   <v>       0.03970638       0.03281843      -0.04179165 </v>
   <v>       0.03970638       0.03281843       0.04179165 </v>
   <v>       0.03970638      -0.03281843      -0.04179165 </v>
  </varray>
  <varray name="stress" >
   <v>      -0.51693235       0.00000000       0.00000000 </v>
   <v>       0.00000000      -3.19960768       0.00000000 </v>
   <v>       0.00000000       0.00000000       8.84813214 </v>
  </varray>
  <energy>
   <i name="e_fr_energy">    -58.63813469 </i>
   <i name="e_wo_entrp">    -58.63813469 </i>
   <i name="e_0_energy">     -0.00000000 </i>
  </energy>
  <time name="totalsc">    2.47    2.47</time>
 </calculation>
 <calculation>
  <scstep>
   <time name="dav">    0.18    0.18</time>
   <time name="total">    0.36    0.36</time>
   <energy>
    <i name="alphaZ">     89.32692014 </i>
    <i name="ewald">  -1858.67434330 </i>
    <i name="hartreedc">   -463.95983607 </i>
    <i name="XCdc">   -223.72957292 </i>
    <i name="pawpsdc">   3982.85136563 </i>
    <i name="pawaedc">  -3630.12983513 </i>
    <i name="eentropy">     -0.00000000 </i>
    <i name="bandstr">   -267.46282997 </i>
    <i name="atom">   2313.10313368 </i>
    <i name="e_fr_energy">    -58.67499793 </i>
    <i name="e_wo_entrp">    -58.67499793 </i>
    <i name="e_0_energy">    -58.67499793 </i>
   </energy>
  </scstep>
  <scstep>
   <time name="dav">    0.22    0.22</time>
   <time name="total">    0.39    0.39</time>
   <energy>
    <i name="e_fr_energy">    -58.66719450 </i>
    <i name="e_wo_entrp">    -58.66719450 </i>
    <i name="e_0_energy">    -58.66719450 </i>
   </energy>
  </scstep>
  <scstep>
   <time name="dav">    0.21    0.21</time>
   <time name="total">    0.39    0.39</time>
   <energy>
    <i name="e_fr_energy">    -58.66359364 </i>
    <i name="e_wo_entrp">    -58.66359364 </i>
    <i name="e_0_energy">    -58.66359364 </i>
   </energy>
  </scstep>
  <scstep>
   <time name="dav">    0.19    0.19</time>
   <time name="total">    0.37    0.37</time>
   <energy>
    <i name="e_fr_energy">    -58.66309714 </i>
    <i name="e_wo_entrp">    -58.66309714 </i>
    <i name="e_0_energy">    -58.66309714 </i>
   </energy>
  </scstep>
  <scstep>
   <time name="dav">    0.11    0.11</time>
   <time name="total">    0.28    0.28</time>
   <energy>
    <i name="alphaZ">     89.32692014 </i>
    <i name="ewald">  -1858.67434330 </i>
    <i name="hartreedc">   -466.21886461 </i>
    <i name="XCdc">   -223.69691640 </i>
    <i name="pawpsdc">   3972.07006860 </i>
[...]
        <r>  0.0003  0.0438  0.0002 </r>
       </set>
       <set comment="band 17">
        <r>  0.0010  0.0010  0.0000 </r>
        <r>  0.0068  0.0010  0.0000 </r>
        <r>  0.0018  0.0002  0.0000 </r>
        <r>  0.0005  0.0008  0.0000 </r>
        <r>  0.0029  0.0042  0.0029 </r>
        <r>  0.0015  0.0381  0.0020 </r>
        <r>  0.0029  0.0291  0.0021 </r>
        <r>  0.0011  0.0218  0.0011 </r>
        <r>  0.0038  0.0493  0.0002 </r>
        <r>  0.0009  0.0418  0.0002 </r>
        <r>  0.0002  0.0618  0.0001 </r>
        <r>  0.0013  0.0265  0.0002 </r>
        <r>  0.0033  0.0257  0.0003 </r>
        <r>  0.0007  0.0189  0.0001 </r>
        <r>  0.0005  0.0426  0.0002 </r>
        <r>  0.0013  0.1028  0.0002 </r>
       </set>
       <set comment="band 18">
        <r>  0.0035  0.0006  0.0000 </r>
        <r>  0.0011  0.0001  0.0000 </r>
        <r>  0.0060  0.0007  0.0000 </r>
        <r>  0.0008  0.0007  0.0000 </r>
        <r>  0.0010  0.0306  0.0027 </r>
        <r>  0.0008  0.0283  0.0027 </r>
        <r>  0.0027  0.0306  0.0026 </r>
        <r>  0.0008  0.0142  0.0030 </r>
        <r>  0.0005  0.0693  0.0002 </r>
        <r>  0.0011  0.0223  0.0003 </r>
        <r>  0.0021  0.0189  0.0003 </r>
        <r>  0.0015  0.0582  0.0001 </r>
        <r>  0.0016  0.1386  0.0002 </r>
        <r>  0.0005  0.0294  0.0002 </r>
        <r>  0.0001  0.0319  0.0002 </r>
        <r>  0.0032  0.0132  0.0003 </r>
       </set>
       <set comment="band 19">
        <r>  0.0037  0.0003  0.0000 </r>
        <r>  0.0035  0.0006  0.0000 </r>
        <r>  0.0028  0.0007  0.0000 </r>
        <r>  0.0033  0.0004  0.0000 </r>
        <r>  0.0015  0.0347  0.0017 </r>
        <r>  0.0058  0.0118  0.0042 </r>
        <r>  0.0027  0.0199  0.0039 </r>
        <r>  0.0026  0.0179  0.0031 </r>
        <r>  0.0018  0.0258  0.0002 </r>
        <r>  0.0022  0.0798  0.0002 </r>
        <r>  0.0023  0.0269  0.0003 </r>
        <r>  0.0007  0.0797  0.0002 </r>
        <r>  0.0017  0.0111  0.0002 </r>
        <r>  0.0008  0.0444  0.0001 </r>
        <r>  0.0020  0.0363  0.0002 </r>
        <r>  0.0007  0.0852  0.0002 </r>
       </set>
       <set comment="band 20">
        <r>  0.0002  0.0010  0.0000 </r>
        <r>  0.0003  0.0013  0.0000 </r>
        <r>  0.0000  0.0010  0.0000 </r>
        <r>  0.0020  0.0006  0.0000 </r>
        <r>  0.0003  0.0332  0.0036 </r>
        <r>  0.0009  0.0178  0.0035 </r>
        <r>  0.0010  0.0441  0.0042 </r>
        <r>  0.0013  0.0330  0.0017 </r>
        <r>  0.0004  0.0665  0.0002 </r>
        <r>  0.0008  0.0444  0.0003 </r>
        <r>  0.0006  0.0297  0.0003 </r>
        <r>  0.0008  0.0634  0.0005 </r>
        <r>  0.0002  0.0402  0.0004 </r>
        <r>  0.0010  0.0585  0.0003 </r>
        <r>  0.0015  0.0809  0.0003 </r>
        <r>  0.0000  0.0391  0.0003 </r>
       </set>
       <set comment="band 21">
        <r>  0.0023  0.0002  0.0000 </r>
        <r>  0.0016  0.0011  0.0000 </r>
        <r>  0.0023  0.0012  0.0000 </r>
        <r>  0.0017  0.0005  0.0000 </r>
        <r>  0.0036  0.0266  0.0025 </r>
        <r>  0.0034  0.0315  0.0033 </r>
        <r>  0.0031  0.0137  0.0024 </r>
        <r>  0.0027  0.0334  0.0035 </r>
        <r>  0.0008  0.0229  0.0006 </r>
        <r>  0.0010  0.0732  0.0004 </r>
        <r>  0.0025  0.1122  0.0003 </r>
        <r>  0.0024  0.0094  0.0005 </r>
        <r>  0.0007  0.0514  0.0002 </r>
        <r>  0.0008  0.0577  0.0004 </r>
        <r>  0.0003  0.0492  0.0003 </r>
        <r>  0.0001  0.0401  0.0002 </r>
       </set>
       <set comment="band 22">
        <r>  0.0026  0.0005  0.0000 </r>
        <r>  0.0013  0.0006  0.0000 </r>
        <r>  0.0009  0.0006  0.0000 </r>
        <r>  0.0022  0.0007  0.0000 </r>
        <r>  0.0027  0.0387  0.0043 </r>
        <r>  0.0021  0.0294  0.0035 </r>
        <r>  0.0002  0.0246  0.0018 </r>
        <r>  0.0041  0.0323  0.0037 </r>
        <r>  0.0003  0.0460  0.0005 </r>
        <r>  0.0000  0.0523  0.0002 </r>
        <r>  0.0006  0.0251  0.0002 </r>
        <r>  0.0003  0.0413  0.0003 </r>
        <r>  0.0004  0.0062  0.0002 </r>
        <r>  0.0028  0.1346  0.0007 </r>
        <r>  0.0008  0.0775  0.0005 </r>
        <r>  0.0008  0.0524  0.0004 </r>
       </set>
       <set comment="band 23">
        <r>  0.0059  0.0007  0.0000 </r>
        <r>  0.0047  0.0006  0.0000 </r>
        <r>  0.0005  0.0005  0.0000 </r>
        <r>  0.0012  0.0003  0.0000 </r>
        <r>  0.0002  0.0125  0.0030 </r>
        <r>  0.0004  0.0049  0.0018 </r>
        <r>  0.0009  0.0218  0.0037 </r>
        <r>  0.0009  0.0526  0.0071 </r>
        <r>  0.0002  0.0625  0.0001 </r>
        <r>  0.0001  0.0349  0.0001 </r>
        <r>  0.0002  0.0908  0.0007 </r>
        <r>  0.0010  0.1362  0.0006 </r>
        <r>  0.0001  0.0249  0.0001 </r>
        <r>  0.0004  0.0312  0.0003 </r>
        <r>  0.0006  0.0502  0.0003 </r>
        <r>  0.0001  0.0140  0.0002 </r>
       </set>
       <set comment="band 24">
        <r>  0.0001  0.0005  0.0000 </r>
        <r>  0.0009  0.0001  0.0000 </r>
        <r>  0.0053  0.0003  0.0000 </r>
        <r>  0.0039  0.0017  0.0000 </r>
        <r>  0.0005  0.0315  0.0040 </r>
        <r>  0.0003  0.0441  0.0039 </r>
        <r>  0.0006  0.0162  0.0026 </r>
        <r>  0.0008  0.0129  0.0029 </r>
        <r>  0.0007  0.1283  0.0006 </r>
        <r>  0.0005  0.0817  0.0006 </r>
        <r>  0.0000  0.0509  0.0002 </r>
        <r>  0.0004  0.0694  0.0003 </r>
        <r>  0.0006  0.0396  0.0005 </r>
        <r>  0.0003  0.0290  0.0001 </r>
        <r>  0.0002  0.0309  0.0002 </r>
        <r>  0.0000  0.0233  0.0002 </r>
       </set>
       <set comment="band 25">
        <r>  0.0001  0.0011  0.0000 </r>
        <r>  0.0018  0.0010  0.0000 </r>
        <r>  0.0003  0.0017  0.0000 </r>
        <r>  0.0009  0.0009  0.0000 </r>
        <r>  0.0014  0.0139  0.0052 </r>
        <r>  0.0003  0.0182  0.0045 </r>
        <r>  0.0006  0.0109  0.0045 </r>
        <r>  0.0001  0.0139  0.0038 </r>
        <r>  0.0005  0.0211  0.0003 </r>
        <r>  0.0006  0.0672  0.0002 </r>
        <r>  0.0016  0.0800  0.0002 </r>
        <r>  0.0003  0.0316  0.0002 </r>
        <r>  0.0009  0.0825  0.0002 </r>
        <r>  0.0005  0.0549  0.0003 </r>
        <r>  0.0010  0.0440  0.0002 </r>
        <r>  0.0007  0.0775  0.0002 </r>
       </set>
       <set comment="band 26">
        <r>  0.0006  0.0010  0.0000 </r>
        <r>  0.0000  0.0005  0.0000 </r>
        <r>  0.0027  0.0007  0.0000 </r>
        <r>  0.0009  0.0017  0.0000 </r>
        <r>  0.0005  0.0152  0.0036 </r>
        <r>  0.0010  0.0208  0.0056 </r>
        <r>  0.0008  0.0240  0.0050 </r>
        <r>  0.0010  0.0030  0.0029 </r>
        <r>  0.0008  0.0517  0.0002 </r>
        <r>  0.0010  0.0217  0.0003 </r>
        <r>  0.0000  0.0293  0.0002 </r>
        <r>  0.0005  0.0315  0.0001 </r>
        <r>  0.0010  0.1320  0.0004 </r>
        <r>  0.0014  0.0539  0.0002 </r>
        <r>  0.0001  0.0475  0.0002 </r>
        <r>  0.0017  0.0906  0.0005 </r>
       </set>
       <set comment="band 27">
        <r>  0.0002  0.0017  0.0000 </r>
        <r>  0.0025  0.0009  0.0000 </r>
        <r>  0.0002  0.0011  0.0000 </r>
        <r>  0.0023  0.0006  0.0000 </r>
        <r>  0.0006  0.0094  0.0087 </r>
        <r>  0.0000  0.0036  0.0026 </r>
        <r>  0.0001  0.0140  0.0042 </r>
        <r>  0.0010  0.0086  0.0039 </r>
        <r>  0.0003  0.0466  0.0001 </r>
        <r>  0.0006  0.0676  0.0002 </r>
        <r>  0.0002  0.0260  0.0001 </r>
        <r>  0.0014  0.0453  0.0002 </r>
        <r>  0.0001  0.0248  0.0002 </r>
        <r>  0.0003  0.1235  0.0001 </r>
        <r>  0.0004  0.0866  0.0004 </r>
        <r>  0.0009  0.0682  0.0001 </r>
       </set>
       <set comment="band 28">
        <r>  0.0023  0.0003  0.0000 </r>
        <r>  0.0001  0.0023  0.0000 </r>
        <r>  0.0003  0.0008  0.0000 </r>
        <r>  0.0005  0.0014  0.0000 </r>
        <r>  0.0001  0.0079  0.0036 </r>
        <r>  0.0000  0.0060  0.0056 </r>
        <r>  0.0001  0.0034  0.0036 </r>
        <r>  0.0001  0.0092  0.0052 </r>
        <r>  0.0005  0.0436  0.0001 </r>
        <r>  0.0002  0.0412  0.0001 </r>
        <r>  0.0004  0.0440  0.0002 </r>
        <r>  0.0001  0.0293  0.0001 </r>
        <r>  0.0001  0.0978  0.0001 </r>
        <r>  0.0000  0.0198  0.0002 </r>
        <r>  0.0004  0.1247  0.0001 </r>
        <r>  0.0004  0.1018  0.0001 </r>
       </set>
       <set comment="band 29">
        <r>  0.0004  0.0027  0.0000 </r>
        <r>  0.0002  0.0006  0.0000 </r>
        <r>  0.0003  0.0010  0.0000 </r>
        <r>  0.0010  0.0017  0.0000 </r>
        <r>  0.0002  0.0024  0.0034 </r>
        <r>  0.0000  0.0033  0.0020 </r>
        <r>  0.0015  0.0080  0.0076 </r>
        <r>  0.0002  0.0020  0.0033 </r>
        <r>  0.0000  0.1748  0.0001 </r>
        <r>  0.0002  0.0173  0.0000 </r>
        <r>  0.0003  0.0585  0.0001 </r>
        <r>  0.0000  0.1154  0.0001 </r>
        <r>  0.0005  0.0386  0.0001 </r>
        <r>  0.0002  0.0424  0.0002 </r>
        <r>  0.0000  0.0143  0.0001 </r>
        <r>  0.0003  0.0512  0.0004 </r>
       </set>
       <set comment="band 30">
        <r>  0.0004  0.0024  0.0000 </r>
        <r>  0.0005  0.0014  0.0000 </r>
        <r>  0.0001  0.0011  0.0000 </r>
        <r>  0.0009  0.0013  0.0000 </r>
        <r>  0.0002  0.0025  0.0034 </r>
        <r>  0.0002  0.0021  0.0033 </r>
        <r>  0.0004  0.0010  0.0029 </r>
        <r>  0.0001  0.0020  0.0029 </r>
        <r>  0.0001  0.0544  0.0001 </r>
        <r>  0.0002  0.0623  0.0001 </r>
        <r>  0.0002  0.0716  0.0001 </r>
        <r>  0.0000  0.0844  0.0001 </r>
        <r>  0.0001  0.0323  0.0001 </r>
        <r>  0.0002  0.0502  0.0001 </r>
        <r>  0.0003  0.1270  0.0001 </r>
        <r>  0.0001  0.0305  0.0001 </r>
       </set>
       <set comment="band 31">
        <r>  0.0002  0.0011  0.0000 </r>
        <r>  0.0000  0.0019  0.0000 </r>
        <r>  0.0004  0.0017  0.0000 </r>
        <r>  0.0001  0.0013  0.0000 </r>
        <r>  0.0005  0.0034  0.0014 </r>
        <r>  0.0003  0.0060  0.0067 </r>
        <r>  0.0000  0.0004  0.0031 </r>
        <r>  0.0008  0.0043  0.0062 </r>
        <r>  0.0002  0.0606  0.0001 </r>
        <r>  0.0000  0.1237  0.0001 </r>
        <r>  0.0001  0.0944  0.0000 </r>
        <r>  0.0001  0.0530  0.0000 </r>
        <r>  0.0003  0.0466  0.0001 </r>
        <r>  0.0003  0.0636  0.0002 </r>
        <r>  0.0000  0.0390  0.0002 </r>
        <r>  0.0002  0.0412  0.0000 </r>
       </set>
       <set comment="band 32">
        <r>  0.0003  0.0006  0.0000 </r>
        <r>  0.0005  0.0015  0.0000 </r>
        <r>  0.0004  0.0024  0.0000 </r>
        <r>  0.0000  0.0012  0.0000 </r>
        <r>  0.0001  0.0018  0.0033 </r>
        <r>  0.0004  0.0024  0.0020 </r>
        <r>  0.0002  0.0020  0.0030 </r>
        <r>  0.0001  0.0011  0.0025 </r>
        <r>  0.0002  0.0087  0.0000 </r>
        <r>  0.0001  0.0845  0.0001 </r>
        <r>  0.0002  0.0798  0.0000 </r>
        <r>  0.0000  0.0579  0.0000 </r>
        <r>  0.0002  0.1089  0.0001 </r>
        <r>  0.0001  0.0812  0.0000 </r>
        <r>  0.0002  0.0171  0.0001 </r>
        <r>  0.0000  0.0888  0.0001 </r>
       </set>
       <set comment="band 33">
        <r>  0.0002  0.0008  0.0000 </r>
        <r>  0.0001  0.0013  0.0000 </r>
        <r>  0.0002  0.0011  0.0000 </r>
        <r>  0.0003  0.0012  0.0000 </r>
        <r>  0.0971  0.0047  0.0025 </r>
        <r>  0.0915  0.0131  0.0033 </r>
        <r>  0.0558  0.0045  0.0020 </r>
        <r>  0.0053  0.0139  0.0043 </r>
        <r>  0.0132  0.0386  0.0047 </r>
        <r>  0.0100  0.0391  0.0044 </r>
        <r>  0.0040  0.0164  0.0014 </r>
        <r>  0.0032  0.0226  0.0024 </r>
        <r>  0.0075  0.0329  0.0030 </r>
        <r>  0.0027  0.0316  0.0030 </r>
        <r>  0.0034  0.0235  0.0024 </r>
        <r>  0.0056  0.0372  0.0039 </r>
       </set>
       <set comment="band 34">
        <r>  0.0003  0.0010  0.0000 </r>
        <r>  0.0001  0.0020  0.0000 </r>
        <r>  0.0002  0.0011  0.0000 </r>
        <r>  0.0003  0.0012  0.0000 </r>
        <r>  0.0635  0.0096  0.0035 </r>
        <r>  0.0057  0.0073  0.0031 </r>
        <r>  0.0259  0.0185  0.0051 </r>
        <r>  0.1509  0.0027  0.0019 </r>
        <r>  0.0010  0.0126  0.0017 </r>
        <r>  0.0015  0.0174  0.0031 </r>
        <r>  0.0122  0.0414  0.0054 </r>
        <r>  0.0111  0.0325  0.0035 </r>
        <r>  0.0014  0.0129  0.0018 </r>
        <r>  0.0128  0.0370  0.0043 </r>
        <r>  0.0077  0.0572  0.0052 </r>
        <r>  0.0028  0.0155  0.0011 </r>
       </set>
       <set comment="band 35">
        <r>  0.0007  0.0012  0.0000 </r>
        <r>  0.0004  0.0007  0.0000 </r>
        <r>  0.0003  0.0010  0.0000 </r>
        <r>  0.0000  0.0006  0.0000 </r>
        <r>  0.0063  0.0205  0.0055 </r>
        <r>  0.0837  0.0095  0.0046 </r>
        <r>  0.1288  0.0106  0.0029 </r>
        <r>  0.0128  0.0184  0.0059 </r>
        <r>  0.0022  0.0311  0.0049 </r>
        <r>  0.0095  0.0220  0.0036 </r>
        <r>  0.0048  0.0343  0.0042 </r>
        <r>  0.0050  0.0191  0.0061 </r>
        <r>  0.0005  0.0607  0.0051 </r>
        <r>  0.0015  0.0099  0.0013 </r>
        <r>  0.0048  0.0098  0.0017 </r>
        <r>  0.0087  0.0397  0.0054 </r>
       </set>
       <set comment="band 36">
        <r>  0.0007  0.0022  0.0000 </r>
        <r>  0.0010  0.0008  0.0000 </r>
        <r>  0.0001  0.0007  0.0000 </r>
        <r>  0.0006  0.0027  0.0000 </r>
        <r>  0.0603  0.0071  0.0040 </r>
        <r>  0.0649  0.0184  0.0048 </r>
        <r>  0.0335  0.0122  0.0061 </r>
        <r>  0.0673  0.0066  0.0026 </r>
        <r>  0.0074  0.0228  0.0054 </r>
        <r>  0.0001  0.0358  0.0042 </r>
        <r>  0.0013  0.0163  0.0034 </r>
        <r>  0.0034  0.0360  0.0045 </r>
        <r>  0.0116  0.0154  0.0043 </r>
        <r>  0.0007  0.0337  0.0041 </r>
        <r>  0.0051  0.0248  0.0038 </r>
        <r>  0.0016  0.0384  0.0034 </r>
       </set>
       <set comment="band 37">
        <r>  0.0046  0.0022  0.0000 </r>
        <r>  0.0065  0.0039  0.0000 </r>
        <r>  0.0117  0.0035  0.0000 </r>
        <r>  0.0016  0.0010  0.0000 </r>
        <r>  0.0062  0.0302  0.0032 </r>
        <r>  0.0029  0.0445  0.0042 </r>
        <r>  0.0010  0.0613  0.0064 </r>
        <r>  0.0018  0.0436  0.0019 </r>
        <r>  0.0004  0.0156  0.0032 </r>
        <r>  0.0208  0.0064  0.0031 </r>
        <r>  0.0066  0.0033  0.0068 </r>
        <r>  0.0058  0.0095  0.0043 </r>
        <r>  0.0100  0.0021  0.0063 </r>
        <r>  0.0001  0.0065  0.0041 </r>
        <r>  0.0037  0.0087  0.0030 </r>
        <r>  0.0134  0.0066  0.0051 </r>
       </set>
       <set comment="band 38">
        <r>  0.0132  0.0033  0.0000 </r>
        <r>  0.0004  0.0005  0.0000 </r>
        <r>  0.0071  0.0015  0.0000 </r>
        <r>  0.0030  0.0014  0.0000 </r>
        <r>  0.0071  0.0611  0.0052 </r>
        <r>  0.0005  0.0440  0.0067 </r>
        <r>  0.0019  0.0670  0.0040 </r>
        <r>  0.0001  0.0359  0.0052 </r>
        <r>  0.0108  0.0052  0.0042 </r>
        <r>  0.0000  0.0063  0.0072 </r>
        <r>  0.0056  0.0087  0.0047 </r>
        <r>  0.0089  0.0025  0.0054 </r>
        <r>  0.0041  0.0065  0.0048 </r>
        <r>  0.0084  0.0204  0.0042 </r>
        <r>  0.0056  0.0049  0.0058 </r>
        <r>  0.0081  0.0013  0.0071 </r>
       </set>
       <set comment="band 39">
        <r>  0.0023  0.0033  0.0000 </r>
        <r>  0.0043  0.0023  0.0000 </r>
        <r>  0.0033  0.0007  0.0000 </r>
        <r>  0.0023  0.0039  0.0000 </r>
        <r>  0.0017  0.0621  0.0126 </r>
        <r>  0.0021  0.0569  0.0027 </r>
        <r>  0.0020  0.0284  0.0010 </r>
        <r>  0.0054  0.0570  0.0101 </r>
        <r>  0.0093  0.0083  0.0050 </r>
        <r>  0.0040  0.0039  0.0092 </r>
        <r>  0.0003  0.0091  0.0065 </r>
        <r>  0.0039  0.0046  0.0030 </r>
        <r>  0.0025  0.0073  0.0027 </r>
        <r>  0.0052  0.0084  0.0084 </r>
        <r>  0.0136  0.0146  0.0074 </r>
        <r>  0.0025  0.0062  0.0050 </r>
       </set>
       <set comment="band 40">
        <r>  0.0035  0.0020  0.0000 </r>
        <r>  0.0038  0.0045  0.0000 </r>
        <r>  0.0033  0.0013  0.0000 </r>
        <r>  0.0127  0.0027  0.0000 </r>
        <r>  0.0057  0.0173  0.0034 </r>
        <r>  0.0054  0.0028  0.0045 </r>
        <r>  0.0010  0.0321  0.0086 </r>
        <r>  0.0012  0.0952  0.0077 </r>
        <r>  0.0003  0.0126  0.0037 </r>
        <r>  0.0006  0.0026  0.0015 </r>
        <r>  0.0029  0.0260  0.0078 </r>
        <r>  0.0048  0.0124  0.0079 </r>
        <r>  0.0038  0.0201  0.0029 </r>
        <r>  0.0159  0.0039  0.0063 </r>
        <r>  0.0053  0.0222  0.0066 </r>
        <r>  0.0028  0.0010  0.0039 </r>
       </set>
       <set comment="band 41">
        <r>  0.0011  0.0016  0.0000 </r>
        <r>  0.0045  0.0028  0.0000 </r>
        <r>  0.0015  0.0065  0.0000 </r>
        <r>  0.0063  0.0018  0.0000 </r>
        <r>  0.0145  0.0439  0.0077 </r>
        <r>  0.0010  0.0381  0.0082 </r>
        <r>  0.0005  0.0214  0.0071 </r>
        <r>  0.0034  0.0349  0.0076 </r>
        <r>  0.0050  0.0119  0.0058 </r>
        <r>  0.0003  0.0240  0.0044 </r>
        <r>  0.0063  0.0164  0.0039 </r>
        <r>  0.0082  0.0215  0.0033 </r>
        <r>  0.0011  0.0105  0.0065 </r>
        <r>  0.0059  0.0098  0.0086 </r>
        <r>  0.0020  0.0081  0.0058 </r>
        <r>  0.0016  0.0074  0.0048 </r>
       </set>
       <set comment="band 42">
        <r>  0.0025  0.0018  0.0000 </r>
        <r>  0.0081  0.0011  0.0000 </r>
        <r>  0.0006  0.0048  0.0000 </r>
        <r>  0.0088  0.0034  0.0000 </r>
        <r>  0.0005  0.0867  0.0048 </r>
        <r>  0.0017  0.0575  0.0089 </r>
        <r>  0.0044  0.0239  0.0042 </r>
        <r>  0.0037  0.0150  0.0036 </r>
        <r>  0.0032  0.0195  0.0093 </r>
        <r>  0.0051  0.0272  0.0038 </r>
        <r>  0.0074  0.0011  0.0024 </r>
        <r>  0.0006  0.0123  0.0034 </r>
        <r>  0.0085  0.0032  0.0066 </r>
        <r>  0.0040  0.0130  0.0066 </r>
        <r>  0.0078  0.0057  0.0052 </r>
        <r>  0.0022  0.0135  0.0042 </r>
       </set>
      </set>
     </set>
    </set>
   </array>
  </projected>
 </calculation>
 <structure name="finalpos" >
  <crystal>
   <varray name="basis" >
    <v>       6.90099374       0.00000000       0.00000000 </v>
    <v>       0.00000000       7.00614383       0.00000000 </v>
    <v>       0.00000000       0.00000000       9.35376914 </v>
   </varray>
   <i name="volume">    452.24870185 </i>
   <varray name="rec_basis" >
    <v>       0.14490667       0.00000000       0.00000000 </v>
    <v>       0.00000000       0.14273187       0.00000000 </v>
    <v>       0.00000000       0.00000000       0.10690877 </v>
   </varray>
  </crystal>
  <varray name="positions" >
   <v>       0.11117780       0.92322952       0.37923955 </v>
   <v>       0.61117780       0.07677048       0.62076045 </v>
   <v>       0.61117780       0.57677048       0.87923955 </v>
   <v>       0.11117780       0.42322952       0.12076045 </v>
   <v>       0.62074801       0.55875524       0.37419477 </v>
   <v>       0.12074801       0.44124476       0.62580523 </v>
   <v>       0.12074801       0.94124476       0.87419477 </v>
   <v>       0.62074801       0.05875524       0.12580523 </v>
   <v>       0.97487462       0.53624892       0.39961898 </v>
   <v>       0.47487462       0.46375108       0.60038102 </v>
   <v>       0.47487462       0.96375108       0.89961898 </v>
   <v>       0.97487462       0.03624892       0.10038102 </v>
   <v>       0.02820058       0.60372605       0.84677927 </v>
   <v>       0.52820058       0.39627395       0.15322073 </v>
   <v>       0.52820058       0.89627395       0.34677927 </v>
   <v>       0.02820058       0.10372605       0.65322073 </v>
  </varray>
 </structure>
</modeling>
