CIS                                     
           1
     6.204655    0.000000    0.000000
     0.000000    6.495613    0.000000
     0.000000    0.000000    7.856009
   Na   Ga   Se
   4   4   8
Direct configuration=     1
   0.11781030  0.91663944  0.37770555
   0.61781030  0.08336056  0.62229445
   0.61781030  0.58336056  0.87770555
   0.11781030  0.41663944  0.12229445
   0.62137382  0.57375842  0.37387979
   0.12137382  0.42624158  0.62612021
   0.12137382  0.92624158  0.87387979
   0.62137382  0.07375842  0.12612021
   0.98548412  0.56443509  0.38646431
   0.48548412  0.43556491  0.61353569
   0.48548412  0.93556491  0.88646431
   0.98548412  0.06443509  0.11353569
   0.01033277  0.59524702  0.86128656
   0.51033277  0.40475298  0.13871344
   0.51033277  0.90475298  0.36128656
   0.01033277  0.09524702  0.63871344
CIS                                     
           1
     6.404857    0.000000    0.000000
     0.000000    6.698912    0.000000
     0.000000    0.000000    8.129133
   Na   Ga   Se
   4   4   8
Direct configuration=     2
   0.11763246  0.91699400  0.37792244
   0.61763246  0.08300600  0.62207756
   0.61763246  0.58300600  0.87792244
   0.11763246  0.41699400  0.12207756
   0.62138629  0.57358181  0.37388697
   0.12138629  0.42641819  0.62611303
   0.12138629  0.92641819  0.87388697
   0.62138629  0.07358181  0.12611303
   0.98584546  0.56415145  0.38614047
   0.48584546  0.43584855  0.61385953
   0.48584546  0.93584855  0.88614047
   0.98584546  0.06415145  0.11385953
   0.01013680  0.59498387  0.86167749
   0.51013680  0.40501613  0.13832251
   0.51013680  0.90501613  0.36167749
   0.01013680  0.09498387  0.63832251
CIS                                     
           1
     6.734625    0.000000    0.000000
     0.000000    7.033782    0.000000
     0.000000    0.000000    8.579015
   Na   Ga   Se
   4   4   8
Direct configuration=     3
   0.11734868  0.91756030  0.37826769
   0.61734868  0.08243970  0.62173231
   0.61734868  0.58243970  0.87826769
   0.11734868  0.41756030  0.12173231
   0.62140619  0.57329972  0.37389840
   0.12140619  0.42670028  0.62610160
   0.12140619  0.92670028  0.87389840
   0.62140619  0.07329972  0.12610160
   0.98642204  0.56369843  0.38562498
   0.48642204  0.43630157  0.61437502
   0.48642204  0.93630157  0.88562498
   0.98642204  0.06369843  0.11437502
   0.00982410  0.59456358  0.86229980
   0.50982410  0.40543642  0.13770020
   0.50982410  0.90543642  0.36229980
   0.00982410  0.09456358  0.63770020
CIS                                     
           1
     6.844114    0.000000    0.000000
     0.000000    7.144964    0.000000
     0.000000    0.000000    8.728384
   Na   Ga   Se
   4   4   8
Direct configuration=     4
   0.11725907  0.91773937  0.37837631
   0.61725907  0.08226063  0.62162369
   0.61725907  0.58226063  0.87837631
   0.11725907  0.41773937  0.12162369
   0.62141248  0.57321053  0.37390199
   0.12141248  0.42678947  0.62609801
   0.12141248  0.92678947  0.87390199
   0.62141248  0.07321053  0.12609801
   0.98660410  0.56355518  0.38546280
   0.48660410  0.43644482  0.61453720
   0.48660410  0.93644482  0.88546280
   0.98660410  0.06355518  0.11453720
   0.00972536  0.59443068  0.86249558
   0.50972536  0.40556932  0.13750442
   0.50972536  0.90556932  0.36249558
   0.00972536  0.09443068  0.63750442
CIS                                     
           1
     6.889322    0.000000    0.000000
     0.000000    7.190871    0.000000
     0.000000    0.000000    8.790058
   Na   Ga   Se
   4   4   8
Direct configuration=     5
   0.11722267  0.91781215  0.37842039
   0.61722267  0.08218785  0.62157961
   0.61722267  0.58218785  0.87842039
   0.11722267  0.41781215  0.12157961
   0.62141503  0.57317427  0.37390345
   0.12141503  0.42682573  0.62609655
   0.12141503  0.92682573  0.87390345
   0.62141503  0.07317427  0.12609655
   0.98667807  0.56349696  0.38539698
   0.48667807  0.43650304  0.61460302
   0.48667807  0.93650304  0.88539698
   0.98667807  0.06349696  0.11460302
   0.00968524  0.59437666  0.86257503
   0.50968524  0.40562334  0.13742497
   0.50968524  0.90562334  0.36257503
   0.00968524  0.09437666  0.63742497
CIS                                     
           1
     6.883029    0.000000    0.000000
     0.000000    7.184481    0.000000
     0.000000    0.000000    8.781473
   Na   Ga   Se
   4   4   8
Direct configuration=     6
   0.11722770  0.91780209  0.37841430
   0.61722770  0.08219791  0.62158570
   0.61722770  0.58219791  0.87841430
   0.11722770  0.41780209  0.12158570
   0.62141468  0.57317929  0.37390325
   0.12141468  0.42682071  0.62609675
   0.12141468  0.92682071  0.87390325
   0.62141468  0.07317929  0.12609675
   0.98666784  0.56350501  0.38540608
   0.48666784  0.43649499  0.61459392
   0.48666784  0.93649499  0.88540608
   0.98666784  0.06350501  0.11459392
   0.00969079  0.59438413  0.86256405
   0.50969079  0.40561587  0.13743595
   0.50969079  0.90561587  0.36256405
   0.00969079  0.09438413  0.63743595
CIS                                     
           1
     6.888064    0.000000    0.000000
     0.000000    7.188448    0.000000
     0.000000    0.000000    8.794218
   Na   Ga   Se
   4   4   8
Direct configuration=     7
   0.11711550  0.91784326  0.37847343
   0.61711550  0.08215674  0.62152657
   0.61711550  0.58215674  0.87847343
   0.11711550  0.41784326  0.12152657
   0.62147880  0.57312560  0.37397715
   0.12147880  0.42687440  0.62602285
   0.12147880  0.92687440  0.87397715
   0.62147880  0.07312560  0.12602285
   0.98563995  0.56263195  0.38669388
   0.48563995  0.43736805  0.61330612
   0.48563995  0.93736805  0.88669388
   0.98563995  0.06263195  0.11330612
   0.01076675  0.59516177  0.86137092
   0.51076675  0.40483823  0.13862908
   0.51076675  0.90483823  0.36137092
   0.01076675  0.09516177  0.63862908
CIS                                     
           1
     6.903170    0.000000    0.000000
     0.000000    7.200347    0.000000
     0.000000    0.000000    8.832453
   Na   Ga   Se
   4   4   8
Direct configuration=     8
   0.11677915  0.91796673  0.37865056
   0.61677915  0.08203327  0.62134944
   0.61677915  0.58203327  0.87865056
   0.11677915  0.41796673  0.12134944
   0.62167103  0.57296464  0.37419854
   0.12167103  0.42703536  0.62580146
   0.12167103  0.92703536  0.87419854
   0.62167103  0.07296464  0.12580146
   0.98255855  0.56001422  0.39055167
   0.48255855  0.43998578  0.60944833
   0.48255855  0.93998578  0.89055167
   0.98255855  0.06001422  0.10944833
   0.01399229  0.59749343  0.85779672
   0.51399229  0.40250657  0.14220328
   0.51399229  0.90250657  0.35779672
   0.01399229  0.09749343  0.64220328
CIS                                     
           1
     6.933382    0.000000    0.000000
     0.000000    7.224145    0.000000
     0.000000    0.000000    8.908923
   Na   Ga   Se
   4   4   8
Direct configuration=     9
   0.11610791  0.91821324  0.37900330
   0.61610791  0.08178676  0.62099670
   0.61610791  0.58178676  0.87900330
   0.11610791  0.41821324  0.12099670
   0.62205464  0.57264325  0.37463940
   0.12205464  0.42735675  0.62536060
   0.12205464  0.92735675  0.87463940
   0.62205464  0.07264325  0.12536060
   0.97640922  0.55478741  0.39823386
   0.47640922  0.44521259  0.60176614
   0.47640922  0.94521259  0.89823386
   0.97640922  0.05478741  0.10176614
   0.02042924  0.60214903  0.85067927
   0.52042924  0.39785097  0.14932073
   0.52042924  0.89785097  0.35067927
   0.02042924  0.10214903  0.64932073
CIS                                     
           1
     6.944043    0.000000    0.000000
     0.000000    7.232543    0.000000
     0.000000    0.000000    8.935908
   Na   Ga   Se
   4   4   8
Direct configuration=    10
   0.11587208  0.91829995  0.37912670
   0.61587208  0.08170005  0.62087330
   0.61587208  0.58170005  0.87912670
   0.11587208  0.41829995  0.12087330
   0.62218942  0.57253021  0.37479364
   0.12218942  0.42746979  0.62520636
   0.12218942  0.92746979  0.87479364
   0.62218942  0.07253021  0.12520636
   0.97424868  0.55294903  0.40092151
   0.47424868  0.44705097  0.59907849
   0.47424868  0.94705097  0.90092151
   0.97424868  0.05294903  0.09907849
   0.02269083  0.60378651  0.84818920
   0.52269083  0.39621349  0.15181080
   0.52269083  0.89621349  0.34818920
   0.02269083  0.10378651  0.65181080
CIS                                     
           1
     6.942846    0.000000    0.000000
     0.000000    7.215253    0.000000
     0.000000    0.000000    9.003842
   Na   Ga   Se
   4   4   8
Direct configuration=    11
   0.11550234  0.91851089  0.37911524
   0.61550234  0.08148911  0.62088476
   0.61550234  0.58148911  0.87911524
   0.11550234  0.41851089  0.12088476
   0.62259678  0.57159910  0.37442020
   0.12259678  0.42840090  0.62557980
   0.12259678  0.92840090  0.87442020
   0.62259678  0.07159910  0.12557980
   0.97359318  0.55216227  0.40062709
   0.47359318  0.44783773  0.59937291
   0.47359318  0.94783773  0.90062709
   0.97359318  0.05216227  0.09937291
   0.02330870  0.60383515  0.84801378
   0.52330870  0.39616485  0.15198622
   0.52330870  0.89616485  0.34801378
   0.02330870  0.10383515  0.65198622
CIS                                     
           1
     6.940911    0.000000    0.000000
     0.000000    7.187311    0.000000
     0.000000    0.000000    9.113628
   Na   Ga   Se
   4   4   8
Direct configuration=    12
   0.11490473  0.91885260  0.37909686
   0.61490473  0.08114740  0.62090314
   0.61490473  0.58114740  0.87909686
   0.11490473  0.41885260  0.12090314
   0.62325521  0.57009077  0.37382126
   0.12325521  0.42990923  0.62617874
   0.12325521  0.92990923  0.87382126
   0.62325521  0.07009077  0.12617874
   0.97253367  0.55088777  0.40015487
   0.47253367  0.44911223  0.59984513
   0.47253367  0.94911223  0.90015487
   0.97253367  0.05088777  0.09984513
   0.02430739  0.60391395  0.84773242
   0.52430739  0.39608605  0.15226758
   0.52430739  0.89608605  0.34773242
   0.02430739  0.10391395  0.65226758
CIS                                     
           1
     6.941326    0.000000    0.000000
     0.000000    7.156587    0.000000
     0.000000    0.000000    9.137459
   Na   Ga   Se
   4   4   8
Direct configuration=    13
   0.11444173  0.91926043  0.37908129
   0.61444173  0.08073957  0.62091871
   0.61444173  0.58073957  0.87908129
   0.11444173  0.41926043  0.12091871
   0.62307090  0.56849347  0.37365346
   0.12307090  0.43150653  0.62634654
   0.12307090  0.93150653  0.87365346
   0.62307090  0.06849347  0.12634654
   0.97261591  0.54937159  0.40008154
   0.47261591  0.45062841  0.59991846
   0.47261591  0.95062841  0.90008154
   0.97261591  0.04937159  0.09991846
   0.02487247  0.60369224  0.84742103
   0.52487247  0.39630776  0.15257897
   0.52487247  0.89630776  0.34742103
   0.02487247  0.10369224  0.65257897
CIS                                     
           1
     6.942477    0.000000    0.000000
     0.000000    7.071170    0.000000
     0.000000    0.000000    9.203713
   Na   Ga   Se
   4   4   8
Direct configuration=    14
   0.11315456  0.92039915  0.37903811
   0.61315456  0.07960085  0.62096189
   0.61315456  0.57960085  0.87903811
   0.11315456  0.42039915  0.12096189
   0.62255849  0.56403361  0.37318815
   0.12255849  0.43596639  0.62681185
   0.12255849  0.93596639  0.87318815
   0.62255849  0.06403361  0.12681185
   0.97284454  0.54513821  0.39987820
   0.47284454  0.45486179  0.60012180
   0.47284454  0.95486179  0.89987820
   0.97284454  0.04513821  0.10012180
   0.02644342  0.60307320  0.84655757
   0.52644342  0.39692680  0.15344243
   0.52644342  0.89692680  0.34655757
   0.02644342  0.10307320  0.65344243
CIS                                     
           1
     6.944781    0.000000    0.000000
     0.000000    6.900335    0.000000
     0.000000    0.000000    9.336223
   Na   Ga   Se
   4   4   8
Direct configuration=    15
   0.11058067  0.92270411  0.37895237
   0.61058067  0.07729589  0.62104763
   0.61058067  0.57729589  0.87895237
   0.11058067  0.42270411  0.12104763
   0.62153384  0.55500613  0.37226423
   0.12153384  0.44499387  0.62773577
   0.12153384  0.94499387  0.87226423
   0.62153384  0.05500613  0.12773577
   0.97330171  0.53656918  0.39947445
   0.47330171  0.46343082  0.60052555
   0.47330171  0.96343082  0.89947445
   0.97330171  0.03656918  0.10052555
   0.02958480  0.60182016  0.84484308
   0.52958480  0.39817984  0.15515692
   0.52958480  0.89817984  0.34484308
   0.02958480  0.10182016  0.65515692
CIS                                     
           1
     6.943135    0.000000    0.000000
     0.000000    7.022403    0.000000
     0.000000    0.000000    9.241540
   Na   Ga   Se
   4   4   8
Direct configuration=    16
   0.11241921  0.92101635  0.37901277
   0.61241921  0.07898365  0.62098723
   0.61241921  0.57898365  0.87901277
   0.11241921  0.42101635  0.12098723
   0.62226575  0.56161631  0.37291504
   0.12226575  0.43838369  0.62708496
   0.12226575  0.93838369  0.87291504
   0.62226575  0.06161631  0.12708496
   0.97297515  0.54284367  0.39975885
   0.47297515  0.45715633  0.60024115
   0.47297515  0.95715633  0.89975885
   0.97297515  0.04284367  0.10024115
   0.02734091  0.60273767  0.84605076
   0.52734091  0.39726233  0.15394924
   0.52734091  0.89726233  0.34605076
   0.02734091  0.10273767  0.65394924
CIS                                     
           1
     6.926820    0.000000    0.000000
     0.000000    7.008501    0.000000
     0.000000    0.000000    9.289187
   Na   Ga   Se
   4   4   8
Direct configuration=    17
   0.11195774  0.92197637  0.37905567
   0.61195774  0.07802363  0.62094433
   0.61195774  0.57802363  0.87905567
   0.11195774  0.42197637  0.12094433
   0.62172997  0.56009853  0.37388241
   0.12172997  0.43990147  0.62611759
   0.12172997  0.93990147  0.87388241
   0.62172997  0.06009853  0.12611759
   0.97368721  0.53993502  0.40002182
   0.47368721  0.46006498  0.59997818
   0.47368721  0.96006498  0.90002182
   0.97368721  0.03993502  0.09997818
   0.02762609  0.60321472  0.84658190
   0.52762609  0.39678528  0.15341810
   0.52762609  0.89678528  0.34658190
   0.02762609  0.10321472  0.65341810
CIS                                     
           1
     6.920033    0.000000    0.000000
     0.000000    7.002718    0.000000
     0.000000    0.000000    9.309009
   Na   Ga   Se
   4   4   8
Direct configuration=    18
   0.11176531  0.92237655  0.37907342
   0.61176531  0.07762345  0.62092658
   0.61176531  0.57762345  0.87907342
   0.11176531  0.42237655  0.12092658
   0.62150654  0.55946585  0.37428280
   0.12150654  0.44053415  0.62571720
   0.12150654  0.94053415  0.87428280
   0.62150654  0.05946585  0.12571720
   0.97398414  0.53872256  0.40013066
   0.47398414  0.46127744  0.59986934
   0.47398414  0.96127744  0.90013066
   0.97398414  0.03872256  0.09986934
   0.02774501  0.60341358  0.84680173
   0.52774501  0.39658642  0.15319827
   0.52774501  0.89658642  0.34680173
   0.02774501  0.10341358  0.65319827
CIS                                     
           1
     6.906458    0.000000    0.000000
     0.000000    6.991151    0.000000
     0.000000    0.000000    9.348654
   Na   Ga   Se
   4   4   8
Direct configuration=    19
   0.11138008  0.92317757  0.37910886
   0.61138008  0.07682243  0.62089114
   0.61138008  0.57682243  0.87910886
   0.11138008  0.42317757  0.12089114
   0.62105927  0.55819944  0.37508186
   0.12105927  0.44180056  0.62491814
   0.12105927  0.94180056  0.87508186
   0.62105927  0.05819944  0.12491814
   0.97457858  0.53629564  0.40034788
   0.47457858  0.46370436  0.59965212
   0.47457858  0.96370436  0.90034788
   0.97457858  0.03629564  0.09965212
   0.02798309  0.60381162  0.84724045
   0.52798309  0.39618838  0.15275955
   0.52798309  0.89618838  0.34724045
   0.02798309  0.10381162  0.65275955
CIS                                     
           1
     6.915079    0.000000    0.000000
     0.000000    6.998497    0.000000
     0.000000    0.000000    9.323478
   Na   Ga   Se
   4   4   8
Direct configuration=    20
   0.11162519  0.92266806  0.37908645
   0.61162519  0.07733194  0.62091355
   0.61162519  0.57733194  0.87908645
   0.11162519  0.42266806  0.12091355
   0.62134386  0.55900498  0.37457658
   0.12134386  0.44099502  0.62542342
   0.12134386  0.94099502  0.87457658
   0.62134386  0.05900498  0.12542342
   0.97420035  0.53783936  0.40021053
   0.47420035  0.46216064  0.59978947
   0.47420035  0.96216064  0.90021053
   0.97420035  0.03783936  0.09978947
   0.02783161  0.60355843  0.84696303
   0.52783161  0.39644157  0.15303697
   0.52783161  0.89644157  0.34696303
   0.02783161  0.10355843  0.65303697
CIS                                     
           1
     6.903050    0.000000    0.000000
     0.000000    7.005027    0.000000
     0.000000    0.000000    9.349347
   Na   Ga   Se
   4   4   8
Direct configuration=    21
   0.11124321  0.92314762  0.37921726
   0.61124321  0.07685238  0.62078274
   0.61124321  0.57685238  0.87921726
   0.11124321  0.42314762  0.12078274
   0.62083513  0.55879167  0.37425038
   0.12083513  0.44120833  0.62574962
   0.12083513  0.94120833  0.87425038
   0.62083513  0.05879167  0.12574962
   0.97477603  0.53648093  0.39970514
   0.47477603  0.46351907  0.60029486
   0.47477603  0.96351907  0.89970514
   0.97477603  0.03648093  0.10029486
   0.02814664  0.60370160  0.84680603
   0.52814664  0.39629840  0.15319397
   0.52814664  0.89629840  0.34680603
   0.02814664  0.10370160  0.65319397
CIS                                     
           1
     6.900994    0.000000    0.000000
     0.000000    7.006144    0.000000
     0.000000    0.000000    9.353769
   Na   Ga   Se
   4   4   8
Direct configuration=    22
   0.11117780  0.92322952  0.37923955
   0.61117780  0.07677048  0.62076045
   0.61117780  0.57677048  0.87923955
   0.11117780  0.42322952  0.12076045
   0.62074801  0.55875524  0.37419477
   0.12074801  0.44124476  0.62580523
   0.12074801  0.94124476  0.87419477
   0.62074801  0.05875524  0.12580523
   0.97487462  0.53624892  0.39961898
   0.47487462  0.46375108  0.60038102
   0.47487462  0.96375108  0.89961898
   0.97487462  0.03624892  0.10038102
   0.02820058  0.60372605  0.84677927
   0.52820058  0.39627395  0.15322073
   0.52820058  0.89627395  0.34677927
   0.02820058  0.10372605  0.65322073
