  16  16   1   0
  0.3327462E+02  0.6579862E-09  0.6549772E-09  0.1245574E-08  0.1000000E-15
  1.000000000000000E-004
  CAR 
 CIS                                     
     11.79107169    -10.60729121  301      3.80698858      1.00000000
    -10.607  0.0000E+00  0.0000E+00
    -10.533  0.0000E+00  0.0000E+00
    -10.458  0.0000E+00  0.0000E+00
    -10.383  0.0000E+00  0.0000E+00
    -10.309  0.0000E+00  0.0000E+00
    -10.234  0.0000E+00  0.0000E+00
    -10.159  0.0000E+00  0.0000E+00
    -10.085  0.0000E+00  0.0000E+00
    -10.010  0.0000E+00  0.0000E+00
     -9.935  0.0000E+00  0.0000E+00
     -9.861  0.2403E-15  0.1794E-16
     -9.786  0.3889E-09  0.2904E-10
     -9.711  0.8254E-05  0.6163E-06
     -9.637  0.2683E-02  0.2009E-03
     -9.562  0.2073E-01  0.1748E-02
     -9.487  0.8779E-02  0.2404E-02
     -9.413  0.4050E-01  0.5428E-02
     -9.338  0.5960E-01  0.9878E-02
     -9.263  0.6722E-01  0.1490E-01
     -9.189  0.7863E-01  0.2077E-01
     -9.114  0.9062E-01  0.2753E-01
     -9.039  0.7700E-01  0.3328E-01
     -8.965  0.1754E-01  0.3459E-01
     -8.890  0.2161E-01  0.3621E-01
     -8.815  0.3949E-01  0.3915E-01
     -8.741  0.9688E-01  0.4639E-01
     -8.666  0.4625E-01  0.4984E-01
     -8.591  0.4432E-01  0.5315E-01
     -8.517  0.9638E-02  0.5387E-01
     -8.442  0.2613E-02  0.5406E-01
     -8.367  0.4782E-01  0.5763E-01
     -8.293  0.9912E-01  0.6503E-01
     -8.218  0.3115E-01  0.6736E-01
     -8.143  0.3624E-01  0.7007E-01
     -8.069  0.5674E-01  0.7430E-01
     -7.994  0.1287E+00  0.8391E-01
     -7.919  0.2454E+00  0.1022E+00
     -7.845  0.2849E+00  0.1235E+00
     -7.770  0.2575E+00  0.1427E+00
     -7.696  0.1773E+00  0.1560E+00
     -7.621  0.7366E-01  0.1615E+00
     -7.546  0.2076E-02  0.1616E+00
     -7.472  0.1567E-05  0.1616E+00
     -7.397  0.2106E-10  0.1616E+00
     -7.322  0.3338E-17  0.1616E+00
     -7.248  0.0000E+00  0.1616E+00
     -7.173  0.0000E+00  0.1616E+00
     -7.098  0.0000E+00  0.1616E+00
     -7.024  0.0000E+00  0.1616E+00
     -6.949  0.0000E+00  0.1616E+00
     -6.874  0.0000E+00  0.1616E+00
     -6.800  0.0000E+00  0.1616E+00
     -6.725  0.0000E+00  0.1616E+00
     -6.650  0.0000E+00  0.1616E+00
     -6.576  0.0000E+00  0.1616E+00
     -6.501  0.0000E+00  0.1616E+00
     -6.426  0.0000E+00  0.1616E+00
     -6.352  0.0000E+00  0.1616E+00
     -6.277  0.0000E+00  0.1616E+00
     -6.202  0.0000E+00  0.1616E+00
     -6.128  0.0000E+00  0.1616E+00
     -6.053  0.0000E+00  0.1616E+00
     -5.978  0.0000E+00  0.1616E+00
     -5.904  0.0000E+00  0.1616E+00
     -5.829  0.0000E+00  0.1616E+00
     -5.754  0.0000E+00  0.1616E+00
     -5.680  0.0000E+00  0.1616E+00
     -5.605  0.2812E-12  0.1616E+00
     -5.530  0.7652E-07  0.1616E+00
     -5.456  0.2861E-03  0.1616E+00
     -5.381  0.1867E-01  0.1630E+00
     -5.306  0.3808E-01  0.1659E+00
     -5.232  0.3271E-02  0.1661E+00
     -5.157  0.1562E-01  0.1673E+00
     -5.082  0.4905E-01  0.1709E+00
     -5.008  0.4689E-01  0.1744E+00
     -4.933  0.1420E-01  0.1755E+00
     -4.858  0.3685E-01  0.1783E+00
     -4.784  0.4350E-01  0.1815E+00
     -4.709  0.7924E-02  0.1821E+00
     -4.634  0.2781E-01  0.1842E+00
     -4.560  0.6590E-01  0.1891E+00
     -4.485  0.5837E-01  0.1935E+00
     -4.410  0.3864E-01  0.1963E+00
     -4.336  0.6139E-01  0.2009E+00
     -4.261  0.1475E-01  0.2020E+00
     -4.186  0.1812E-01  0.2034E+00
     -4.112  0.6462E-01  0.2082E+00
     -4.037  0.4276E-01  0.2114E+00
     -3.962  0.4562E-01  0.2148E+00
     -3.888  0.6433E-01  0.2196E+00
     -3.813  0.3547E-01  0.2222E+00
     -3.738  0.4137E-01  0.2253E+00
     -3.664  0.2367E-01  0.2271E+00
     -3.589  0.2156E-01  0.2287E+00
     -3.514  0.2223E-01  0.2304E+00
     -3.440  0.6662E-01  0.2353E+00
     -3.365  0.2994E-01  0.2376E+00
     -3.290  0.8932E-02  0.2383E+00
     -3.216  0.2134E-01  0.2398E+00
     -3.141  0.4453E-02  0.2402E+00
     -3.067  0.3139E-03  0.2402E+00
     -2.992  0.1203E-01  0.2411E+00
     -2.917  0.1685E-01  0.2424E+00
     -2.843  0.8958E-03  0.2424E+00
     -2.768  0.9722E-06  0.2424E+00
     -2.693  0.1528E-10  0.2424E+00
     -2.619  0.3338E-17  0.2424E+00
     -2.544  0.0000E+00  0.2424E+00
     -2.469  0.0000E+00  0.2424E+00
     -2.395  0.0000E+00  0.2424E+00
     -2.320  0.0000E+00  0.2424E+00
     -2.245  0.0000E+00  0.2424E+00
     -2.171  0.0000E+00  0.2424E+00
     -2.096  0.0000E+00  0.2424E+00
     -2.021  0.0000E+00  0.2424E+00
     -1.947  0.0000E+00  0.2424E+00
     -1.872  0.0000E+00  0.2424E+00
     -1.797  0.0000E+00  0.2424E+00
     -1.723  0.0000E+00  0.2424E+00
     -1.648  0.0000E+00  0.2424E+00
     -1.573  0.0000E+00  0.2424E+00
     -1.499  0.0000E+00  0.2424E+00
     -1.424  0.0000E+00  0.2424E+00
     -1.349  0.0000E+00  0.2424E+00
     -1.275  0.6676E-17  0.2424E+00
     -1.200  0.2762E-10  0.2424E+00
     -1.125  0.1447E-05  0.2424E+00
     -1.051  0.1109E-02  0.2425E+00
     -0.976  0.1908E-01  0.2439E+00
     -0.901  0.4140E-01  0.2470E+00
     -0.827  0.8629E-01  0.2535E+00
     -0.752  0.6277E-01  0.2582E+00
     -0.677  0.6066E-01  0.2627E+00
     -0.603  0.1438E+00  0.2734E+00
     -0.528  0.8947E-01  0.2801E+00
     -0.453  0.6208E-01  0.2847E+00
     -0.379  0.7535E-02  0.2853E+00
     -0.304  0.4141E-01  0.2884E+00
     -0.229  0.5456E-01  0.2925E+00
     -0.155  0.4618E-01  0.2959E+00
     -0.080  0.2841E-01  0.2980E+00
     -0.005  0.7684E-01  0.3038E+00
      0.069  0.1100E+00  0.3120E+00
      0.144  0.1089E+00  0.3201E+00
      0.219  0.7086E-01  0.3254E+00
      0.293  0.1255E+00  0.3348E+00
      0.368  0.1312E+00  0.3446E+00
      0.443  0.8955E-01  0.3513E+00
      0.517  0.1244E+00  0.3605E+00
      0.592  0.8684E-01  0.3670E+00
      0.667  0.9127E-01  0.3738E+00
      0.741  0.7215E-01  0.3792E+00
      0.816  0.1190E+00  0.3881E+00
      0.891  0.1361E+00  0.3983E+00
      0.965  0.9607E-01  0.4054E+00
      1.040  0.9255E-01  0.4124E+00
      1.115  0.8581E-01  0.4188E+00
      1.189  0.4979E-01  0.4225E+00
      1.264  0.8524E-01  0.4288E+00
      1.339  0.9590E-01  0.4360E+00
      1.413  0.1099E+00  0.4442E+00
      1.488  0.9957E-01  0.4516E+00
      1.562  0.9219E-01  0.4585E+00
      1.637  0.1296E+00  0.4682E+00
      1.712  0.1393E+00  0.4786E+00
      1.786  0.6651E-01  0.4836E+00
      1.861  0.7092E-01  0.4889E+00
      1.936  0.1387E+00  0.4992E+00
      2.010  0.1989E+00  0.5141E+00
      2.085  0.1704E+00  0.5268E+00
      2.160  0.1358E+00  0.5369E+00
      2.234  0.1041E+00  0.5447E+00
      2.309  0.1528E+00  0.5561E+00
      2.384  0.2223E+00  0.5727E+00
      2.458  0.1224E+00  0.5819E+00
      2.533  0.1645E+00  0.5941E+00
      2.608  0.1397E+00  0.6046E+00
      2.682  0.2147E+00  0.6206E+00
      2.757  0.2102E+00  0.6363E+00
      2.832  0.1522E+00  0.6477E+00
      2.906  0.8897E-01  0.6543E+00
      2.981  0.6785E-01  0.6594E+00
      3.056  0.1454E+00  0.6702E+00
      3.130  0.1915E+00  0.6845E+00
      3.205  0.6738E-01  0.6895E+00
      3.280  0.6800E-01  0.6946E+00
      3.354  0.7113E-01  0.6999E+00
      3.429  0.1010E+00  0.7075E+00
      3.504  0.1746E+00  0.7205E+00
      3.578  0.6590E-01  0.7254E+00
      3.653  0.2390E-01  0.7272E+00
      3.728  0.7004E-03  0.7273E+00
      3.802  0.4756E-06  0.7273E+00
      3.877  0.4993E-11  0.7273E+00
      3.952  0.0000E+00  0.7273E+00
      4.026  0.0000E+00  0.7273E+00
      4.101  0.0000E+00  0.7273E+00
      4.176  0.0000E+00  0.7273E+00
      4.250  0.0000E+00  0.7273E+00
      4.325  0.0000E+00  0.7273E+00
      4.400  0.0000E+00  0.7273E+00
      4.474  0.0000E+00  0.7273E+00
      4.549  0.0000E+00  0.7273E+00
      4.624  0.0000E+00  0.7273E+00
      4.698  0.0000E+00  0.7273E+00
      4.773  0.0000E+00  0.7273E+00
      4.848  0.0000E+00  0.7273E+00
      4.922  0.0000E+00  0.7273E+00
      4.997  0.0000E+00  0.7273E+00
      5.072  0.0000E+00  0.7273E+00
      5.146  0.0000E+00  0.7273E+00
      5.221  0.0000E+00  0.7273E+00
      5.296  0.0000E+00  0.7273E+00
      5.370  0.1274E-12  0.7273E+00
      5.445  0.4045E-07  0.7273E+00
      5.520  0.1848E-03  0.7273E+00
      5.594  0.1539E-01  0.7284E+00
      5.669  0.4763E-01  0.7320E+00
      5.744  0.4486E-01  0.7353E+00
      5.818  0.5046E-01  0.7391E+00
      5.893  0.1236E+00  0.7483E+00
      5.967  0.9235E-01  0.7552E+00
      6.042  0.1498E+00  0.7664E+00
      6.117  0.7552E-01  0.7721E+00
      6.191  0.5404E-01  0.7761E+00
      6.266  0.7797E-01  0.7819E+00
      6.341  0.1454E+00  0.7928E+00
      6.415  0.9757E-01  0.8001E+00
      6.490  0.6525E-01  0.8049E+00
      6.565  0.3596E-01  0.8076E+00
      6.639  0.4359E-01  0.8109E+00
      6.714  0.8781E-01  0.8174E+00
      6.789  0.8626E-01  0.8239E+00
      6.863  0.8810E-01  0.8304E+00
      6.938  0.1114E+00  0.8388E+00
      7.013  0.9151E-01  0.8456E+00
      7.087  0.1247E+00  0.8549E+00
      7.162  0.1730E+00  0.8678E+00
      7.237  0.1346E+00  0.8779E+00
      7.311  0.3585E-01  0.8805E+00
      7.386  0.5741E-01  0.8848E+00
      7.461  0.1110E+00  0.8931E+00
      7.535  0.9616E-01  0.9003E+00
      7.610  0.8089E-01  0.9063E+00
      7.685  0.8416E-01  0.9126E+00
      7.759  0.3650E-01  0.9153E+00
      7.834  0.6436E-02  0.9158E+00
      7.909  0.6512E-04  0.9158E+00
      7.983  0.3118E-02  0.9161E+00
      8.058  0.2108E-01  0.9176E+00
      8.133  0.1250E-01  0.9186E+00
      8.207  0.2228E-01  0.9202E+00
      8.282  0.5703E-01  0.9245E+00
      8.357  0.9781E-01  0.9318E+00
      8.431  0.1044E+00  0.9396E+00
      8.506  0.4192E-01  0.9427E+00
      8.581  0.2139E-01  0.9443E+00
      8.655  0.8370E-01  0.9506E+00
      8.730  0.3607E-01  0.9533E+00
      8.805  0.6309E-01  0.9580E+00
      8.879  0.7881E-01  0.9638E+00
      8.954  0.9049E-01  0.9706E+00
      9.029  0.4908E-01  0.9743E+00
      9.103  0.4636E-01  0.9777E+00
      9.178  0.4702E-01  0.9812E+00
      9.253  0.3044E-01  0.9835E+00
      9.327  0.6526E-01  0.9884E+00
      9.402  0.6430E-01  0.9932E+00
      9.477  0.1079E+00  0.1001E+01
      9.551  0.1274E+00  0.1011E+01
      9.626  0.6972E-01  0.1016E+01
      9.701  0.1413E+00  0.1027E+01
      9.775  0.1096E+00  0.1035E+01
      9.850  0.8486E-01  0.1041E+01
      9.925  0.1174E+00  0.1050E+01
      9.999  0.1569E+00  0.1062E+01
     10.074  0.1454E+00  0.1072E+01
     10.149  0.1526E+00  0.1084E+01
     10.223  0.8374E-01  0.1090E+01
     10.298  0.9663E-01  0.1097E+01
     10.373  0.8148E-01  0.1103E+01
     10.447  0.1031E+00  0.1111E+01
     10.522  0.8041E-01  0.1117E+01
     10.596  0.5633E-01  0.1121E+01
     10.671  0.1587E-01  0.1122E+01
     10.746  0.4097E-01  0.1125E+01
     10.820  0.7257E-01  0.1131E+01
     10.895  0.5976E-02  0.1131E+01
     10.970  0.1314E-04  0.1131E+01
     11.044  0.5056E-09  0.1131E+01
     11.119  0.2804E-15  0.1131E+01
     11.194  0.0000E+00  0.1131E+01
     11.268  0.0000E+00  0.1131E+01
     11.343  0.0000E+00  0.1131E+01
     11.418  0.0000E+00  0.1131E+01
     11.492  0.0000E+00  0.1131E+01
     11.567  0.0000E+00  0.1131E+01
     11.642  0.0000E+00  0.1131E+01
     11.716  0.0000E+00  0.1131E+01
     11.791  0.0000E+00  0.1131E+01
     11.79107169    -10.60729121  301      3.80698858      1.00000000
    -10.607  0.0000E+00  0.0000E+00  0.0000E+00
    -10.533  0.0000E+00  0.0000E+00  0.0000E+00
    -10.458  0.0000E+00  0.0000E+00  0.0000E+00
    -10.383  0.0000E+00  0.0000E+00  0.0000E+00
    -10.309  0.0000E+00  0.0000E+00  0.0000E+00
    -10.234  0.0000E+00  0.0000E+00  0.0000E+00
    -10.159  0.0000E+00  0.0000E+00  0.0000E+00
    -10.085  0.0000E+00  0.0000E+00  0.0000E+00
    -10.010  0.0000E+00  0.0000E+00  0.0000E+00
     -9.935  0.0000E+00  0.0000E+00  0.0000E+00
     -9.861  0.1059E-16  0.2336E-18  0.0000E+00
     -9.786  0.1713E-10  0.3780E-12  0.0000E+00
     -9.711  0.3636E-06  0.8023E-08  0.0000E+00
     -9.637  0.1182E-03  0.2607E-05  0.0000E+00
     -9.562  0.9128E-03  0.2016E-04  0.0000E+00
     -9.487  0.3448E-03  0.1999E-04  0.0000E+00
     -9.413  0.1034E-02  0.2508E-03  0.0000E+00
     -9.338  0.1511E-02  0.3229E-03  0.0000E+00
     -9.263  0.1618E-02  0.4591E-03  0.0000E+00
     -9.189  0.1570E-02  0.6871E-03  0.0000E+00
     -9.114  0.1301E-02  0.8168E-03  0.0000E+00
     -9.039  0.1094E-02  0.1004E-02  0.0000E+00
     -8.965  0.2120E-03  0.2285E-03  0.0000E+00
     -8.890  0.3176E-03  0.2225E-03  0.0000E+00
     -8.815  0.7023E-03  0.3163E-03  0.0000E+00
     -8.741  0.8867E-03  0.1079E-02  0.0000E+00
     -8.666  0.4973E-03  0.3643E-03  0.0000E+00
     -8.591  0.3857E-03  0.3688E-03  0.0000E+00
     -8.517  0.8393E-04  0.8139E-04  0.0000E+00
     -8.442  0.3352E-04  0.2063E-04  0.0000E+00
     -8.367  0.4482E-03  0.4722E-03  0.0000E+00
     -8.293  0.5084E-03  0.1197E-02  0.0000E+00
     -8.218  0.1198E-03  0.3660E-03  0.0000E+00
     -8.143  0.3539E-03  0.1762E-03  0.0000E+00
     -8.069  0.5639E-03  0.3383E-03  0.0000E+00
     -7.994  0.1954E-02  0.1262E-02  0.0000E+00
     -7.919  0.4172E-02  0.2532E-02  0.0000E+00
     -7.845  0.4125E-02  0.3738E-02  0.0000E+00
     -7.770  0.2471E-02  0.3499E-02  0.0000E+00
     -7.696  0.1527E-02  0.1728E-02  0.0000E+00
     -7.621  0.7860E-03  0.7052E-03  0.0000E+00
     -7.546  0.3010E-04  0.1666E-04  0.0000E+00
     -7.472  0.2983E-07  0.8848E-08  0.0000E+00
     -7.397  0.4694E-12  0.8099E-13  0.0000E+00
     -7.322  0.8537E-19  0.6613E-20  0.0000E+00
     -7.248  0.0000E+00  0.0000E+00  0.0000E+00
     -7.173  0.0000E+00  0.0000E+00  0.0000E+00
     -7.098  0.0000E+00  0.0000E+00  0.0000E+00
     -7.024  0.0000E+00  0.0000E+00  0.0000E+00
     -6.949  0.0000E+00  0.0000E+00  0.0000E+00
     -6.874  0.0000E+00  0.0000E+00  0.0000E+00
     -6.800  0.0000E+00  0.0000E+00  0.0000E+00
     -6.725  0.0000E+00  0.0000E+00  0.0000E+00
     -6.650  0.0000E+00  0.0000E+00  0.0000E+00
     -6.576  0.0000E+00  0.0000E+00  0.0000E+00
     -6.501  0.0000E+00  0.0000E+00  0.0000E+00
     -6.426  0.0000E+00  0.0000E+00  0.0000E+00
     -6.352  0.0000E+00  0.0000E+00  0.0000E+00
     -6.277  0.0000E+00  0.0000E+00  0.0000E+00
     -6.202  0.0000E+00  0.0000E+00  0.0000E+00
     -6.128  0.0000E+00  0.0000E+00  0.0000E+00
     -6.053  0.0000E+00  0.0000E+00  0.0000E+00
     -5.978  0.0000E+00  0.0000E+00  0.0000E+00
     -5.904  0.0000E+00  0.0000E+00  0.0000E+00
     -5.829  0.0000E+00  0.0000E+00  0.0000E+00
     -5.754  0.0000E+00  0.0000E+00  0.0000E+00
     -5.680  0.0000E+00  0.0000E+00  0.0000E+00
     -5.605  0.3986E-15  0.4001E-15  0.0000E+00
     -5.530  0.1074E-09  0.1089E-09  0.0000E+00
     -5.456  0.3978E-06  0.4071E-06  0.0000E+00
     -5.381  0.2573E-04  0.2656E-04  0.0000E+00
     -5.306  0.5212E-04  0.5418E-04  0.0000E+00
     -5.232  0.4305E-05  0.4686E-05  0.0000E+00
     -5.157  0.9822E-05  0.2482E-04  0.0000E+00
     -5.082  0.3364E-04  0.1092E-03  0.0000E+00
     -5.008  0.3883E-04  0.2297E-03  0.0000E+00
     -4.933  0.2186E-04  0.4916E-04  0.0000E+00
     -4.858  0.1020E-03  0.3785E-04  0.0000E+00
     -4.784  0.1305E-03  0.5639E-04  0.0000E+00
     -4.709  0.1492E-04  0.9006E-05  0.0000E+00
     -4.634  0.3729E-04  0.5515E-04  0.0000E+00
     -4.560  0.2514E-03  0.3112E-03  0.0000E+00
     -4.485  0.2532E-03  0.2744E-03  0.0000E+00
     -4.410  0.1912E-03  0.1343E-03  0.0000E+00
     -4.336  0.2591E-03  0.7929E-04  0.0000E+00
     -4.261  0.4985E-04  0.2034E-04  0.0000E+00
     -4.186  0.4562E-03  0.7752E-04  0.0000E+00
     -4.112  0.1616E-02  0.2897E-03  0.0000E+00
     -4.037  0.2608E-03  0.4132E-03  0.0000E+00
     -3.962  0.4495E-03  0.4811E-03  0.0000E+00
     -3.888  0.8931E-03  0.4539E-03  0.0000E+00
     -3.813  0.1766E-03  0.8242E-04  0.0000E+00
     -3.738  0.2312E-03  0.2040E-03  0.0000E+00
     -3.664  0.3681E-03  0.1050E-03  0.0000E+00
     -3.589  0.1004E-02  0.4003E-04  0.0000E+00
     -3.514  0.7267E-03  0.1046E-03  0.0000E+00
     -3.440  0.2123E-02  0.3479E-03  0.0000E+00
     -3.365  0.1086E-02  0.1810E-03  0.0000E+00
     -3.290  0.2495E-03  0.4848E-04  0.0000E+00
     -3.216  0.3690E-03  0.9226E-04  0.0000E+00
     -3.141  0.7689E-04  0.1924E-04  0.0000E+00
     -3.067  0.2416E-04  0.1205E-05  0.0000E+00
     -2.992  0.9858E-03  0.4568E-04  0.0000E+00
     -2.917  0.1381E-02  0.6400E-04  0.0000E+00
     -2.843  0.7342E-04  0.3402E-05  0.0000E+00
     -2.768  0.7969E-07  0.3692E-08  0.0000E+00
     -2.693  0.1252E-11  0.5803E-13  0.0000E+00
     -2.619  0.2736E-18  0.1268E-19  0.0000E+00
     -2.544  0.0000E+00  0.0000E+00  0.0000E+00
     -2.469  0.0000E+00  0.0000E+00  0.0000E+00
     -2.395  0.0000E+00  0.0000E+00  0.0000E+00
     -2.320  0.0000E+00  0.0000E+00  0.0000E+00
     -2.245  0.0000E+00  0.0000E+00  0.0000E+00
     -2.171  0.0000E+00  0.0000E+00  0.0000E+00
     -2.096  0.0000E+00  0.0000E+00  0.0000E+00
     -2.021  0.0000E+00  0.0000E+00  0.0000E+00
     -1.947  0.0000E+00  0.0000E+00  0.0000E+00
     -1.872  0.0000E+00  0.0000E+00  0.0000E+00
     -1.797  0.0000E+00  0.0000E+00  0.0000E+00
     -1.723  0.0000E+00  0.0000E+00  0.0000E+00
     -1.648  0.0000E+00  0.0000E+00  0.0000E+00
     -1.573  0.0000E+00  0.0000E+00  0.0000E+00
     -1.499  0.0000E+00  0.0000E+00  0.0000E+00
     -1.424  0.0000E+00  0.0000E+00  0.0000E+00
     -1.349  0.0000E+00  0.0000E+00  0.0000E+00
     -1.275  0.1420E-19  0.3383E-18  0.0000E+00
     -1.200  0.5876E-13  0.1399E-11  0.0000E+00
     -1.125  0.3078E-08  0.7332E-07  0.0000E+00
     -1.051  0.2356E-05  0.5621E-04  0.0000E+00
     -0.976  0.3826E-04  0.9705E-03  0.0000E+00
     -0.901  0.5343E-04  0.1984E-02  0.0000E+00
     -0.827  0.2782E-03  0.3526E-02  0.0000E+00
     -0.752  0.4080E-03  0.2985E-02  0.0000E+00
     -0.677  0.5622E-03  0.2499E-02  0.0000E+00
     -0.603  0.2126E-02  0.5987E-02  0.0000E+00
     -0.528  0.2801E-02  0.4501E-02  0.0000E+00
     -0.453  0.4057E-02  0.3461E-02  0.0000E+00
     -0.379  0.6044E-03  0.4279E-03  0.0000E+00
     -0.304  0.3158E-02  0.2243E-02  0.0000E+00
     -0.229  0.4181E-02  0.1444E-02  0.0000E+00
     -0.155  0.5262E-02  0.5015E-03  0.0000E+00
     -0.080  0.2119E-02  0.4461E-03  0.0000E+00
     -0.005  0.5570E-02  0.1777E-02  0.0000E+00
      0.069  0.8989E-02  0.4551E-02  0.0000E+00
      0.144  0.6866E-02  0.4757E-02  0.0000E+00
      0.219  0.3168E-02  0.2422E-02  0.0000E+00
      0.293  0.1287E-01  0.4720E-02  0.0000E+00
      0.368  0.7016E-02  0.4392E-02  0.0000E+00
      0.443  0.5225E-02  0.3364E-02  0.0000E+00
      0.517  0.1590E-01  0.5070E-02  0.0000E+00
      0.592  0.1233E-01  0.3127E-02  0.0000E+00
      0.667  0.7091E-02  0.1952E-02  0.0000E+00
      0.741  0.8374E-02  0.1904E-02  0.0000E+00
      0.816  0.1448E-01  0.3946E-02  0.0000E+00
      0.891  0.1846E-01  0.5007E-02  0.0000E+00
      0.965  0.1459E-01  0.3239E-02  0.0000E+00
      1.040  0.2169E-01  0.3644E-02  0.0000E+00
      1.115  0.1558E-01  0.3728E-02  0.0000E+00
      1.189  0.6974E-02  0.2102E-02  0.0000E+00
      1.264  0.2212E-01  0.3439E-02  0.0000E+00
      1.339  0.2265E-01  0.4052E-02  0.0000E+00
      1.413  0.3072E-01  0.4349E-02  0.0000E+00
      1.488  0.2351E-01  0.3983E-02  0.0000E+00
      1.562  0.2080E-01  0.4373E-02  0.0000E+00
      1.637  0.2711E-01  0.6653E-02  0.0000E+00
      1.712  0.3628E-01  0.6012E-02  0.0000E+00
      1.786  0.1097E-01  0.3373E-02  0.0000E+00
      1.861  0.1560E-01  0.4995E-02  0.0000E+00
      1.936  0.2185E-01  0.1357E-01  0.0000E+00
      2.010  0.2857E-01  0.3100E-01  0.0000E+00
      2.085  0.1420E-01  0.2538E-01  0.0000E+00
      2.160  0.8953E-02  0.1740E-01  0.0000E+00
      2.234  0.6893E-02  0.2064E-01  0.0000E+00
      2.309  0.2170E-01  0.2319E-01  0.0000E+00
      2.384  0.1983E-01  0.2580E-01  0.0000E+00
      2.458  0.8928E-02  0.2011E-01  0.0000E+00
      2.533  0.1006E-01  0.3027E-01  0.0000E+00
      2.608  0.6481E-02  0.2302E-01  0.0000E+00
      2.682  0.1312E-01  0.2326E-01  0.0000E+00
      2.757  0.8286E-02  0.2104E-01  0.0000E+00
      2.832  0.3707E-02  0.1539E-01  0.0000E+00
      2.906  0.5907E-02  0.9846E-02  0.0000E+00
      2.981  0.5980E-02  0.6439E-02  0.0000E+00
      3.056  0.7723E-02  0.9003E-02  0.0000E+00
      3.130  0.6257E-02  0.1122E-01  0.0000E+00
      3.205  0.1540E-02  0.3394E-02  0.0000E+00
      3.280  0.1826E-02  0.4007E-02  0.0000E+00
      3.354  0.2342E-02  0.4040E-02  0.0000E+00
      3.429  0.2393E-02  0.3961E-02  0.0000E+00
      3.504  0.4448E-02  0.5606E-02  0.0000E+00
      3.578  0.2273E-02  0.2197E-02  0.0000E+00
      3.653  0.8557E-03  0.7600E-03  0.0000E+00
      3.728  0.3109E-04  0.1942E-04  0.0000E+00
      3.802  0.2339E-07  0.1217E-07  0.0000E+00
      3.877  0.2540E-12  0.1240E-12  0.0000E+00
      3.952  0.0000E+00  0.0000E+00  0.0000E+00
      4.026  0.0000E+00  0.0000E+00  0.0000E+00
      4.101  0.0000E+00  0.0000E+00  0.0000E+00
      4.176  0.0000E+00  0.0000E+00  0.0000E+00
      4.250  0.0000E+00  0.0000E+00  0.0000E+00
      4.325  0.0000E+00  0.0000E+00  0.0000E+00
      4.400  0.0000E+00  0.0000E+00  0.0000E+00
      4.474  0.0000E+00  0.0000E+00  0.0000E+00
      4.549  0.0000E+00  0.0000E+00  0.0000E+00
      4.624  0.0000E+00  0.0000E+00  0.0000E+00
      4.698  0.0000E+00  0.0000E+00  0.0000E+00
      4.773  0.0000E+00  0.0000E+00  0.0000E+00
      4.848  0.0000E+00  0.0000E+00  0.0000E+00
      4.922  0.0000E+00  0.0000E+00  0.0000E+00
      4.997  0.0000E+00  0.0000E+00  0.0000E+00
      5.072  0.0000E+00  0.0000E+00  0.0000E+00
      5.146  0.0000E+00  0.0000E+00  0.0000E+00
      5.221  0.0000E+00  0.0000E+00  0.0000E+00
      5.296  0.0000E+00  0.0000E+00  0.0000E+00
      5.370  0.7711E-14  0.8920E-14  0.0000E+00
      5.445  0.2323E-08  0.2736E-08  0.0000E+00
      5.520  0.9826E-05  0.1190E-04  0.0000E+00
      5.594  0.7425E-03  0.9360E-03  0.0000E+00
      5.669  0.1948E-02  0.3061E-02  0.0000E+00
      5.744  0.8756E-03  0.4108E-02  0.0000E+00
      5.818  0.1790E-02  0.2313E-02  0.0000E+00
      5.893  0.6079E-02  0.4296E-02  0.0000E+00
      5.967  0.7399E-02  0.3561E-02  0.0000E+00
      6.042  0.1535E-01  0.7195E-02  0.0000E+00
      6.117  0.4342E-02  0.3432E-02  0.0000E+00
      6.191  0.8167E-02  0.2313E-02  0.0000E+00
      6.266  0.9991E-02  0.3474E-02  0.0000E+00
      6.341  0.1693E-01  0.6720E-02  0.0000E+00
      6.415  0.1282E-01  0.5301E-02  0.0000E+00
      6.490  0.7650E-02  0.4743E-02  0.0000E+00
      6.565  0.5253E-02  0.2789E-02  0.0000E+00
      6.639  0.2548E-02  0.5639E-02  0.0000E+00
      6.714  0.7805E-02  0.1282E-01  0.0000E+00
      6.789  0.1088E-01  0.1117E-01  0.0000E+00
      6.863  0.3678E-02  0.1068E-01  0.0000E+00
      6.938  0.8159E-02  0.1268E-01  0.0000E+00
      7.013  0.9745E-02  0.8249E-02  0.0000E+00
      7.087  0.1547E-01  0.1170E-01  0.0000E+00
      7.162  0.1137E-01  0.1627E-01  0.0000E+00
      7.237  0.7806E-02  0.1314E-01  0.0000E+00
      7.311  0.2366E-02  0.3613E-02  0.0000E+00
      7.386  0.7798E-02  0.7610E-02  0.0000E+00
      7.461  0.3436E-01  0.1812E-01  0.0000E+00
      7.535  0.3160E-01  0.1619E-01  0.0000E+00
      7.610  0.4950E-01  0.1081E-01  0.0000E+00
      7.685  0.5737E-01  0.2190E-01  0.0000E+00
      7.759  0.2645E-01  0.7666E-02  0.0000E+00
      7.834  0.4194E-02  0.8322E-03  0.0000E+00
      7.909  0.3483E-04  0.8800E-05  0.0000E+00
      7.983  0.1151E-04  0.5726E-03  0.0000E+00
      8.058  0.8750E-04  0.3863E-02  0.0000E+00
      8.133  0.1108E-02  0.1426E-02  0.0000E+00
      8.207  0.3444E-02  0.1149E-02  0.0000E+00
      8.282  0.3420E-02  0.2205E-02  0.0000E+00
      8.357  0.1009E-01  0.3769E-02  0.0000E+00
      8.431  0.2297E-01  0.4691E-02  0.0000E+00
      8.506  0.7615E-02  0.2084E-02  0.0000E+00
      8.581  0.7531E-02  0.1674E-02  0.0000E+00
      8.655  0.2554E-01  0.6751E-02  0.0000E+00
      8.730  0.2218E-01  0.2257E-02  0.0000E+00
      8.805  0.3368E-01  0.3288E-02  0.0000E+00
      8.879  0.2019E-01  0.5391E-02  0.0000E+00
      8.954  0.6014E-01  0.5588E-02  0.0000E+00
      9.029  0.2128E-01  0.2298E-02  0.0000E+00
      9.103  0.1488E-01  0.3281E-02  0.0000E+00
      9.178  0.2339E-01  0.3453E-02  0.0000E+00
      9.253  0.5929E-01  0.2713E-02  0.0000E+00
      9.327  0.1029E+00  0.1222E-01  0.0000E+00
      9.402  0.1058E+00  0.1024E-01  0.0000E+00
      9.477  0.1037E+00  0.3404E-01  0.0000E+00
      9.551  0.3076E-01  0.4248E-01  0.0000E+00
      9.626  0.8941E-01  0.1638E-01  0.0000E+00
      9.701  0.2036E+00  0.6565E-01  0.0000E+00
      9.775  0.1071E+00  0.6514E-01  0.0000E+00
      9.850  0.7900E-01  0.2647E-01  0.0000E+00
      9.925  0.1720E+00  0.5624E-01  0.0000E+00
      9.999  0.2583E+00  0.7383E-01  0.0000E+00
     10.074  0.2203E+00  0.8359E-01  0.0000E+00
     10.149  0.2120E+00  0.9729E-01  0.0000E+00
     10.223  0.1478E+00  0.4748E-01  0.0000E+00
     10.298  0.2149E+00  0.5798E-01  0.0000E+00
     10.373  0.1323E+00  0.6448E-01  0.0000E+00
     10.447  0.1226E+00  0.9612E-01  0.0000E+00
     10.522  0.7661E-01  0.6004E-01  0.0000E+00
     10.596  0.7824E-01  0.4319E-01  0.0000E+00
     10.671  0.2513E-01  0.1286E-01  0.0000E+00
     10.746  0.1858E-01  0.4543E-01  0.0000E+00
     10.820  0.3076E-01  0.7790E-01  0.0000E+00
     10.895  0.2282E-02  0.6098E-02  0.0000E+00
     10.970  0.4362E-05  0.1248E-04  0.0000E+00
     11.044  0.1483E-09  0.4460E-09  0.0000E+00
     11.119  0.7621E-16  0.2335E-15  0.0000E+00
     11.194  0.0000E+00  0.0000E+00  0.0000E+00
     11.268  0.0000E+00  0.0000E+00  0.0000E+00
     11.343  0.0000E+00  0.0000E+00  0.0000E+00
     11.418  0.0000E+00  0.0000E+00  0.0000E+00
     11.492  0.0000E+00  0.0000E+00  0.0000E+00
     11.567  0.0000E+00  0.0000E+00  0.0000E+00
     11.642  0.0000E+00  0.0000E+00  0.0000E+00
     11.716  0.0000E+00  0.0000E+00  0.0000E+00
     11.791  0.0000E+00  0.0000E+00  0.0000E+00
     11.79107169    -10.60729121  301      3.80698858      1.00000000
    -10.607  0.0000E+00  0.0000E+00  0.0000E+00
    -10.533  0.0000E+00  0.0000E+00  0.0000E+00
    -10.458  0.0000E+00  0.0000E+00  0.0000E+00
    -10.383  0.0000E+00  0.0000E+00  0.0000E+00
    -10.309  0.0000E+00  0.0000E+00  0.0000E+00
    -10.234  0.0000E+00  0.0000E+00  0.0000E+00
    -10.159  0.0000E+00  0.0000E+00  0.0000E+00
    -10.085  0.0000E+00  0.0000E+00  0.0000E+00
    -10.010  0.0000E+00  0.0000E+00  0.0000E+00
     -9.935  0.0000E+00  0.0000E+00  0.0000E+00
     -9.861  0.1059E-16  0.2336E-18  0.0000E+00
     -9.786  0.1713E-10  0.3780E-12  0.0000E+00
     -9.711  0.3636E-06  0.8023E-08  0.0000E+00
     -9.637  0.1182E-03  0.2607E-05  0.0000E+00
     -9.562  0.9128E-03  0.2016E-04  0.0000E+00
     -9.487  0.3448E-03  0.1999E-04  0.0000E+00
     -9.413  0.1034E-02  0.2508E-03  0.0000E+00
     -9.338  0.1511E-02  0.3229E-03  0.0000E+00
     -9.263  0.1618E-02  0.4591E-03  0.0000E+00
     -9.189  0.1570E-02  0.6871E-03  0.0000E+00
     -9.114  0.1301E-02  0.8168E-03  0.0000E+00
     -9.039  0.1094E-02  0.1004E-02  0.0000E+00
     -8.965  0.2120E-03  0.2285E-03  0.0000E+00
     -8.890  0.3176E-03  0.2225E-03  0.0000E+00
     -8.815  0.7023E-03  0.3163E-03  0.0000E+00
     -8.741  0.8867E-03  0.1079E-02  0.0000E+00
     -8.666  0.4973E-03  0.3643E-03  0.0000E+00
     -8.591  0.3857E-03  0.3688E-03  0.0000E+00
     -8.517  0.8393E-04  0.8139E-04  0.0000E+00
     -8.442  0.3352E-04  0.2063E-04  0.0000E+00
     -8.367  0.4482E-03  0.4722E-03  0.0000E+00
     -8.293  0.5084E-03  0.1197E-02  0.0000E+00
     -8.218  0.1198E-03  0.3660E-03  0.0000E+00
     -8.143  0.3539E-03  0.1762E-03  0.0000E+00
     -8.069  0.5639E-03  0.3383E-03  0.0000E+00
     -7.994  0.1954E-02  0.1262E-02  0.0000E+00
     -7.919  0.4172E-02  0.2532E-02  0.0000E+00
     -7.845  0.4125E-02  0.3738E-02  0.0000E+00
     -7.770  0.2471E-02  0.3499E-02  0.0000E+00
     -7.696  0.1527E-02  0.1728E-02  0.0000E+00
     -7.621  0.7860E-03  0.7052E-03  0.0000E+00
     -7.546  0.3010E-04  0.1666E-04  0.0000E+00
     -7.472  0.2983E-07  0.8848E-08  0.0000E+00
     -7.397  0.4694E-12  0.8099E-13  0.0000E+00
     -7.322  0.8537E-19  0.6613E-20  0.0000E+00
     -7.248  0.0000E+00  0.0000E+00  0.0000E+00
     -7.173  0.0000E+00  0.0000E+00  0.0000E+00
     -7.098  0.0000E+00  0.0000E+00  0.0000E+00
     -7.024  0.0000E+00  0.0000E+00  0.0000E+00
     -6.949  0.0000E+00  0.0000E+00  0.0000E+00
     -6.874  0.0000E+00  0.0000E+00  0.0000E+00
     -6.800  0.0000E+00  0.0000E+00  0.0000E+00
     -6.725  0.0000E+00  0.0000E+00  0.0000E+00
     -6.650  0.0000E+00  0.0000E+00  0.0000E+00
     -6.576  0.0000E+00  0.0000E+00  0.0000E+00
     -6.501  0.0000E+00  0.0000E+00  0.0000E+00
     -6.426  0.0000E+00  0.0000E+00  0.0000E+00
     -6.352  0.0000E+00  0.0000E+00  0.0000E+00
     -6.277  0.0000E+00  0.0000E+00  0.0000E+00
     -6.202  0.0000E+00  0.0000E+00  0.0000E+00
     -6.128  0.0000E+00  0.0000E+00  0.0000E+00
     -6.053  0.0000E+00  0.0000E+00  0.0000E+00
     -5.978  0.0000E+00  0.0000E+00  0.0000E+00
     -5.904  0.0000E+00  0.0000E+00  0.0000E+00
     -5.829  0.0000E+00  0.0000E+00  0.0000E+00
     -5.754  0.0000E+00  0.0000E+00  0.0000E+00
     -5.680  0.0000E+00  0.0000E+00  0.0000E+00
     -5.605  0.3986E-15  0.4001E-15  0.0000E+00
     -5.530  0.1074E-09  0.1089E-09  0.0000E+00
     -5.456  0.3978E-06  0.4071E-06  0.0000E+00
     -5.381  0.2573E-04  0.2656E-04  0.0000E+00
     -5.306  0.5212E-04  0.5418E-04  0.0000E+00
     -5.232  0.4305E-05  0.4686E-05  0.0000E+00
     -5.157  0.9822E-05  0.2482E-04  0.0000E+00
     -5.082  0.3364E-04  0.1092E-03  0.0000E+00
     -5.008  0.3883E-04  0.2297E-03  0.0000E+00
     -4.933  0.2186E-04  0.4916E-04  0.0000E+00
     -4.858  0.1020E-03  0.3785E-04  0.0000E+00
     -4.784  0.1305E-03  0.5639E-04  0.0000E+00
     -4.709  0.1492E-04  0.9006E-05  0.0000E+00
     -4.634  0.3729E-04  0.5515E-04  0.0000E+00
     -4.560  0.2514E-03  0.3112E-03  0.0000E+00
     -4.485  0.2532E-03  0.2744E-03  0.0000E+00
     -4.410  0.1912E-03  0.1343E-03  0.0000E+00
     -4.336  0.2591E-03  0.7929E-04  0.0000E+00
     -4.261  0.4985E-04  0.2034E-04  0.0000E+00
     -4.186  0.4562E-03  0.7752E-04  0.0000E+00
     -4.112  0.1616E-02  0.2897E-03  0.0000E+00
     -4.037  0.2608E-03  0.4132E-03  0.0000E+00
     -3.962  0.4495E-03  0.4811E-03  0.0000E+00