 vasp.5.4.4.18Apr17-6-g9f103f2a35 (build Oct 27 2022 13:04:57) complex          
  
 executed on             LinuxIFC date 2024.06.29  02:49:13
 running on   14 total cores
 distrk:  each k-point on   14 cores,    1 groups
 distr:  one band on NCORES_PER_BAND=   1 cores,   14 groups


--------------------------------------------------------------------------------------------------------


 INCAR:
 POTCAR:    PAW_PBE Na 08Apr2002                  
 POTCAR:    PAW_PBE Sb 06Sep2000                  
 POTCAR:    PAW_PBE S 06Sep2000                   

 ----------------------------------------------------------------------------- 
|                                                                             |
|           W    W    AA    RRRRR   N    N  II  N    N   GGGG   !!!           |
|           W    W   A  A   R    R  NN   N  II  NN   N  G    G  !!!           |
|           W    W  A    A  R    R  N N  N  II  N N  N  G       !!!           |
|           W WW W  AAAAAA  RRRRR   N  N N  II  N  N N  G  GGG   !            |
|           WW  WW  A    A  R   R   N   NN  II  N   NN  G    G                |
|           W    W  A    A  R    R  N    N  II  N    N   GGGG   !!!           |
|                                                                             |
|      For optimal performance we recommend to set                            |
|        NCORE= 4 - approx SQRT( number of cores)                             |
|      NCORE specifies how many cores store one orbital (NPAR=cpu/NCORE).     |
|      This setting can  greatly improve the performance of VASP for DFT.     |
|      The default,   NCORE=1            might be grossly inefficient         |
|      on modern multi-core architectures or massively parallel machines.     |
|      Do your own testing !!!!                                               |
|      Unfortunately you need to use the default for GW and RPA calculations. |
|      (for HF NCORE is supported but not extensively tested yet)             |
|                                                                             |
 ----------------------------------------------------------------------------- 

 POTCAR:    PAW_PBE Na 08Apr2002                  
   VRHFIN =Na: s1p0                                                             
   LEXCH  = PE                                                                  
   EATOM  =     5.1581 eV,    0.3791 Ry                                         
                                                                                
   TITEL  = PAW_PBE Na 08Apr2002                                                
   LULTRA =        F    use ultrasoft PP ?                                      
   IUNSCR =        1    unscreen: 0-lin 1-nonlin 2-no                           
   RPACOR =    1.800    partial core radius                                     
   POMASS =   22.990; ZVAL   =    1.000    mass and valenz                      
   RCORE  =    2.200    outmost cutoff radius                                   
   RWIGS  =    3.320; RWIGS  =    1.757    wigner-seitz radius (au A)           
   ENMAX  =  101.968; ENMIN  =   76.476 eV                                      
   ICORE  =        2    local potential                                         
   LCOR   =        T    correct aug charges                                     
   LPAW   =        T    paw PP                                                  
   EAUG   =  250.695                                                            
   DEXC   =    0.000                                                            
   RMAX   =    2.245    core radius for proj-oper                               
   RAUG   =    1.300    factor for augmentation sphere                          
   RDEP   =    2.259    radius for radial grids                                 
   RDEPT  =    2.115    core radius for aug-charge                              
                                                                                
   Atomic configuration                                                         
    6 entries                                                                   
     n  l   j            E        occ.                                          
     1  0  0.50     -1033.6933   2.0000                                         
     2  0  0.50       -56.7526   2.0000                                         
     2  1  1.50       -28.6721   6.0000                                         
     3  0  0.50        -2.7440   1.0000                                         
     3  1  0.50        -1.3606   0.0000                                         
     3  2  1.50        -1.3606   0.0000                                         
   Description                                                                  
     l       E           TYP  RCUT    TYP  RCUT                                 
     0     -2.7439560     23  2.200                                             
     0     27.2116520     23  2.200                                             
     1     -1.3605826     23  2.200                                             
     2     -1.3605826     23  2.200                                             
  local pseudopotential read in
  partial core-charges read in
  partial kinetic energy density read in
  atomic valenz-charges read in
  non local Contribution for L=           0  read in
    real space projection operators read in
  non local Contribution for L=           0  read in
    real space projection operators read in
  non local Contribution for L=           1  read in
    real space projection operators read in
    PAW grid and wavefunctions read in
 
   number of l-projection  operators is LMAX  =           3
   number of lm-projection operators is LMMAX =           5
 
 POTCAR:    PAW_PBE Sb 06Sep2000                  
   VRHFIN =Sb: s2p3                                                             
   LEXCH  = PE                                                                  
   EATOM  =   149.9515 eV,   11.0211 Ry                                         
                                                                                
   TITEL  = PAW_PBE Sb 06Sep2000                                                
   LULTRA =        F    use ultrasoft PP ?                                      
   IUNSCR =        1    unscreen: 0-lin 1-nonlin 2-no                           
   RPACOR =    2.200    partial core radius                                     
   POMASS =  121.750; ZVAL   =    5.000    mass and valenz                      
   RCORE  =    2.300    outmost cutoff radius                                   
   RWIGS  =    2.980; RWIGS  =    1.577    wigner-seitz radius (au A)           
   ENMAX  =  172.069; ENMIN  =  129.052 eV                                      
   ICORE  =        3    local potential                                         
   LCOR   =        T    correct aug charges                                     
   LPAW   =        T    paw PP                                                  
   EAUG   =  380.513                                                            
   DEXC   =    0.000                                                            
   RMAX   =    2.346    core radius for proj-oper                               
   RAUG   =    1.300    factor for augmentation sphere                          
   RDEP   =    2.360    radius for radial grids                                 
   RDEPT  =    2.192    core radius for aug-charge                              
                                                                                
   Atomic configuration                                                         
   13 entries                                                                   
     n  l   j            E        occ.                                          
     1  0  0.50    -30298.2797   2.0000                                         
     2  0  0.50     -4610.2252   2.0000                                         
     2  1  1.50     -4138.3407   6.0000                                         
     3  0  0.50      -903.8815   2.0000                                         
     3  1  1.50      -750.1337   6.0000                                         
     3  2  2.50      -515.7092  10.0000                                         
     4  0  0.50      -148.8034   2.0000                                         
     4  1  1.50      -101.7581   6.0000                                         
     4  2  2.50       -33.5048  10.0000                                         
     5  0  0.50       -12.8298   2.0000                                         
     5  1  0.50        -4.8276   3.0000                                         
     5  2  1.50        -4.0817   0.0000                                         
     4  3  2.50        -4.0817   0.0000                                         
   Description                                                                  
     l       E           TYP  RCUT    TYP  RCUT                                 
     0    -12.8297861     23  2.300                                             
     0     13.6058260     23  2.300                                             
     1     -4.8275512     23  2.300                                             
     1     -0.7245443     23  2.300                                             
     2     -4.0817478     23  2.300                                             
     3     -1.3605826     23  2.300                                             
  local pseudopotential read in
  partial core-charges read in
  partial kinetic energy density read in
  atomic valenz-charges read in
  non local Contribution for L=           0  read in
    real space projection operators read in
  non local Contribution for L=           0  read in
    real space projection operators read in
  non local Contribution for L=           1  read in
    real space projection operators read in
  non local Contribution for L=           1  read in
    real space projection operators read in
  non local Contribution for L=           2  read in
    real space projection operators read in
    PAW grid and wavefunctions read in
 
   number of l-projection  operators is LMAX  =           5
   number of lm-projection operators is LMMAX =          13
 
 POTCAR:    PAW_PBE S 06Sep2000                   
   VRHFIN =S : s2p4                                                             
   LEXCH  = PE                                                                  
   EATOM  =   276.8230 eV,   20.3459 Ry                                         
                                                                                
   TITEL  = PAW_PBE S 06Sep2000                                                 
   LULTRA =        F    use ultrasoft PP ?                                      
   IUNSCR =        1    unscreen: 0-lin 1-nonlin 2-no                           
   RPACOR =    1.500    partial core radius                                     
   POMASS =   32.066; ZVAL   =    6.000    mass and valenz                      
   RCORE  =    1.900    outmost cutoff radius                                   
   RWIGS  =    2.200; RWIGS  =    1.164    wigner-seitz radius (au A)           
   ENMAX  =  258.689; ENMIN  =  194.016 eV                                      
   ICORE  =        2    local potential                                         
   LCOR   =        T    correct aug charges                                     
   LPAW   =        T    paw PP                                                  
   EAUG   =  335.092                                                            
   DEXC   =    0.000                                                            
   RMAX   =    1.942    core radius for proj-oper                               
   RAUG   =    1.300    factor for augmentation sphere                          
   RDEP   =    1.954    radius for radial grids                                 
   RDEPT  =    1.744    core radius for aug-charge                              
                                                                                
   Atomic configuration                                                         
    6 entries                                                                   
     n  l   j            E        occ.                                          
     1  0  0.50     -2405.8406   2.0000                                         
     2  0  0.50      -211.7007   2.0000                                         
     2  1  1.50      -156.4958   6.0000                                         
     3  0  0.50       -17.2562   2.0000                                         
     3  1  0.50        -7.0085   4.0000                                         
     3  2  1.50        -6.8029   0.0000                                         
   Description                                                                  
     l       E           TYP  RCUT    TYP  RCUT                                 
     0    -17.2561641     23  1.900                                             
     0    -15.8743224     23  1.900                                             
     1     -7.0085400     23  1.900                                             
     1     -2.7779785     23  1.900                                             
     2     -6.8029130     23  1.900                                             
  local pseudopotential read in
  partial core-charges read in
  partial kinetic energy density read in
  atomic valenz-charges read in
  non local Contribution for L=           0  read in
    real space projection operators read in
  non local Contribution for L=           0  read in
    real space projection operators read in
  non local Contribution for L=           1  read in
    real space projection operators read in
  non local Contribution for L=           1  read in
    real space projection operators read in
    PAW grid and wavefunctions read in
 
   number of l-projection  operators is LMAX  =           4
   number of lm-projection operators is LMMAX =           8
 
 Optimization of the real space projectors (new method)

 maximal supplied QI-value         = 17.01
 optimisation between [QCUT,QGAM] = [  8.84, 17.69] = [ 21.90, 87.61] Ry 
 Optimized for a Real-space Cutoff    1.22 Angstroem

   l    n(q)    QCUT    max X(q) W(low)/X(q) W(high)/X(q)  e(spline) 
   0      6     8.844    45.123    0.62E-03    0.70E-03    0.80E-07
   0      6     8.844    12.364    0.51E-03    0.48E-03    0.55E-07
   1      6     8.844     8.302    0.36E-03    0.27E-03    0.23E-07
 Optimization of the real space projectors (new method)

 maximal supplied QI-value         = 16.25
 optimisation between [QCUT,QGAM] = [  8.78, 17.71] = [ 21.57, 87.87] Ry 
 Optimized for a Real-space Cutoff    1.26 Angstroem

   l    n(q)    QCUT    max X(q) W(low)/X(q) W(high)/X(q)  e(spline) 
   0      7     8.776    19.000    0.12E-02    0.42E-03    0.95E-07
   0      7     8.776     9.057    0.14E-02    0.54E-03    0.11E-06
   1      6     8.776   125.345    0.45E-03    0.22E-02    0.77E-07
   1      6     8.776    79.963    0.45E-03    0.21E-02    0.76E-07
   2      6     8.776     6.963    0.11E-02    0.51E-03    0.39E-07
 Optimization of the real space projectors (new method)

 maximal supplied QI-value         = 19.84
 optimisation between [QCUT,QGAM] = [  8.73, 17.66] = [ 21.34, 87.33] Ry 
 Optimized for a Real-space Cutoff    1.22 Angstroem

   l    n(q)    QCUT    max X(q) W(low)/X(q) W(high)/X(q)  e(spline) 
   0      6     8.731   187.594    0.15E-02    0.56E-03    0.90E-07
   0      6     8.731   164.243    0.15E-02    0.56E-03    0.89E-07
   1      6     8.731    67.533    0.37E-03    0.20E-02    0.11E-06
   1      6     8.731    50.729    0.36E-03    0.19E-02    0.10E-06
  PAW_PBE Na 08Apr2002                  :
 energy of atom  1       EATOM=   -5.1581
 kinetic energy error for atom=    0.0001 (will be added to EATOM!!)
  PAW_PBE Sb 06Sep2000                  :
 energy of atom  2       EATOM= -149.9515
 kinetic energy error for atom=    0.0018 (will be added to EATOM!!)
  PAW_PBE S 06Sep2000                   :
 energy of atom  3       EATOM= -276.8230
 kinetic energy error for atom=    0.0077 (will be added to EATOM!!)
 
 
 POSCAR: Na4 Sb4 S8                              
  positions in direct lattice
  No initial velocities read in
 exchange correlation table for  LEXCH =        8
   RHO(1)=    0.500       N(1)  =     2000
   RHO(2)=  100.500       N(2)  =     4000
 


--------------------------------------------------------------------------------------------------------


 ion  position               nearest neighbor table
   1  0.517  0.738  0.881-  15 3.27  10 3.32  12 3.33  12 3.33  15 3.36  16 3.41
   2  0.483  0.262  0.119-  16 3.27   9 3.32  11 3.33  11 3.33  16 3.36  15 3.41
   3  0.984  0.737  0.619-  13 3.27  12 3.32  10 3.32  10 3.33  13 3.36  14 3.41
   4  0.016  0.263  0.381-  14 3.27  11 3.32   9 3.32   9 3.33  14 3.36  13 3.41
   5  0.037  0.796  0.121-  11 2.58  16 2.58  14 2.90  12 2.93
   6  0.963  0.204  0.879-  12 2.58  15 2.58  13 2.90  11 2.93
   7  0.463  0.795  0.379-   9 2.58  14 2.58  16 2.90  10 2.93
   8  0.537  0.205  0.621-  10 2.58  13 2.58  15 2.90   9 2.93
   9  0.517  0.186  0.384-   7 2.58   8 2.93   2 3.32   4 3.32   4 3.33
  10  0.483  0.814  0.616-   8 2.58   7 2.93   1 3.32   3 3.32   3 3.33
  11  0.983  0.186  0.115-   5 2.58   6 2.93   4 3.32   2 3.33   2 3.33
  12  0.017  0.814  0.885-   6 2.58   5 2.93   3 3.32   1 3.33   1 3.33
  13  0.932  0.230  0.645-   8 2.58   6 2.90   3 3.27   3 3.36   4 3.41
  14  0.068  0.770  0.355-   7 2.58   5 2.90   4 3.27   4 3.36   3 3.41
  15  0.568  0.231  0.855-   6 2.58   8 2.90   1 3.27   1 3.36   2 3.41
  16  0.432  0.769  0.145-   5 2.58   7 2.90   2 3.27   2 3.36   1 3.41
 
  LATTYP: Found a triclinic cell.
 ALAT       =     6.5798618772
 B/A-ratio  =     2.2511181413
 C/A-ratio  =     0.9954268990
 COS(alpha) =     0.0001051169
 COS(beta)  =     0.0013766762
 COS(gamma) =     0.5517367503
  
  Lattice vectors:
  
 A1 = (   6.4569994200,   0.7907541400,  -0.9881541900)
 A2 = (   6.3097297400,  -0.2637628100, -13.3983006200)
 A3 = (  -0.8651498400,   6.4702543800,  -0.5355658400)


Analysis of symmetry for initial positions (statically):
=====================================================================
 Subroutine PRICEL returns:
 Original cell was already a primitive cell.
 

 Routine SETGRP: Setting up the symmetry group for a 
 triclinic supercell.


 Subroutine GETGRP returns: Found  2 space group operations
 (whereof  2 operations were pure point group operations)
 out of a pool of  2 trial point group operations.


The static configuration has the point symmetry S_2 .


Analysis of symmetry for dynamics (positions and initial velocities):
=====================================================================
 Subroutine PRICEL returns:
 Original cell was already a primitive cell.
 

 Routine SETGRP: Setting up the symmetry group for a 
 triclinic supercell.


 Subroutine GETGRP returns: Found  2 space group operations
 (whereof  2 operations were pure point group operations)
 out of a pool of  2 trial point group operations.


The dynamic configuration has the point symmetry S_2 .


 Subroutine INISYM returns: Found  2 space group operations
 (whereof  2 operations are pure point group operations),
 and found     1 'primitive' translations

 
 
 KPOINTS: pymatgen with grid density = 807 / numbe

Automatic generation of k-mesh.
Space group operators:
 irot       det(A)        alpha          n_x          n_y          n_z        tau_x        tau_y        tau_z
    1     1.000000     0.000000     1.000000     0.000000     0.000000     0.000000     0.000000     0.000000
    2    -1.000000     0.000000     1.000000     0.000000     0.000000     0.000000     0.000000     0.000000
 
 Subroutine IBZKPT returns following result:
 ===========================================
 
 Found      9 irreducible k-points:
 
 Following reciprocal coordinates:
            Coordinates               Weight
  0.000000  0.000000  0.250000      2.000000
  0.333333 -0.000000  0.250000      2.000000
 -0.333333 -0.000000  0.250000      2.000000
 -0.000000  0.333333  0.250000      2.000000
  0.333333  0.333333  0.250000      2.000000
 -0.333333  0.333333  0.250000      2.000000
 -0.000000 -0.333333  0.250000      2.000000
  0.333333 -0.333333  0.250000      2.000000
 -0.333333 -0.333333  0.250000      2.000000
 
 Following cartesian coordinates:
            Coordinates               Weight
  0.002803  0.002025  0.019939      2.000000
  0.053431  0.008698  0.018772      2.000000
 -0.047824 -0.004648  0.021107      2.000000
 -0.003993  0.052287  0.015749      2.000000
  0.046634  0.058960  0.014581      2.000000
 -0.054621  0.045615  0.016917      2.000000
  0.009600 -0.048237  0.024130      2.000000
  0.060228 -0.041564  0.022962      2.000000
 -0.041028 -0.054910  0.025297      2.000000
 


--------------------------------------------------------------------------------------------------------




 Dimension of arrays:
   k-points           NKPTS =      9   k-points in BZ     NKDIM =      9   number of bands    NBANDS=     56
   number of dos      NEDOS =    301   number of ions     NIONS =     16
   non local maximal  LDIM  =      5   non local SUM 2l+1 LMDIM =     13
   total plane-waves  NPLWV =  42336
   max r-space proj   IRMAX =    713   max aug-charges    IRDMAX=   2038
   dimension x,y,z NGX =    28 NGY =   28 NGZ =   54
   dimension x,y,z NGXF=    42 NGYF=   42 NGZF=   80
   support grid    NGXF=    42 NGYF=   42 NGZF=   80
   ions per type =               4   4   8
   NGX,Y,Z   is equivalent  to a cutoff of   7.07,  7.11,  7.21 a.u.
   NGXF,Y,Z  is equivalent  to a cutoff of  10.61, 10.66, 10.68 a.u.

 SYSTEM =  CIS                                     
 POSCAR =  Na4 Sb4 S8                              

 Startparameter for this run:
   NWRITE =      2    write-flag & timer
   PREC   = medium    normal or accurate (medium, high low for compatibility)
   ISTART =      0    job   : 0-new  1-cont  2-samecut
   ICHARG =      2    charge: 1-file 2-atom 10-const
   ISPIN  =      1    spin polarized calculation?
   LNONCOLLINEAR =      F non collinear calculations
   LSORBIT =      F    spin-orbit coupling
   INIWAV =      1    electr: 0-lowe 1-rand  2-diag
   LASPH  =      T    aspherical Exc in radial PAW
   METAGGA=      F    non-selfconsistent MetaGGA calc.

 Electronic Relaxation 1
   ENCUT  =  300.0 eV  22.05 Ry    4.70 a.u.   9.29  9.25 17.59*2*pi/ulx,y,z
   ENINI  =  300.0     initial cutoff
   ENAUG  =  380.5 eV  augmentation charge cutoff
   NELM   =     60;   NELMIN=  2; NELMDL= -5     # of ELM steps 
   EDIFF  = 0.1E-03   stopping-criterion for ELM
   LREAL  =      T    real-space projection
   NLSPLINE    = F    spline interpolate recip. space projectors
   LCOMPAT=      F    compatible to vasp.4.4
   GGA_COMPAT  = T    GGA compatible to vasp.4.4-vasp.4.6
   LMAXPAW     = -100 max onsite density
   LMAXMIX     =    4 max onsite mixed and CHGCAR
   VOSKOWN=      0    Vosko Wilk Nusair interpolation
   ROPT   =   -0.00200  -0.00200  -0.00200
 Ionic relaxation
   EDIFFG = -.5E-01   stopping-criterion for IOM
   NSW    =     99    number of steps for IOM
   NBLOCK =      1;   KBLOCK =     99    inner block; outer block 
   IBRION =      2    ionic relax: 0-MD 1-quasi-New 2-CG
   NFREE  =      1    steps in history (QN), initial steepest desc. (CG)
   ISIF   =      3    stress and relaxation
   IWAVPR =     11    prediction:  0-non 1-charg 2-wave 3-comb
   ISYM   =      2    0-nonsym 1-usesym 2-fastsym
   LCORR  =      T    Harris-Foulkes like correction to forces

   POTIM  = 0.1000    time-step for ionic-motion
   TEIN   =    0.0    initial temperature
   TEBEG  =    0.0;   TEEND  =   0.0 temperature during run
   SMASS  =  -3.00    Nose mass-parameter (am)
   estimated Nose-frequenzy (Omega)   =  0.10E-29 period in steps =****** mass=  -0.989E-27a.u.
   SCALEE = 1.0000    scale energy and forces
   NPACO  =    256;   APACO  = 16.0  distance and # of slots for P.C.
   PSTRESS=    0.0 pullay stress

  Mass of Ions in am
   POMASS =  22.99121.75 32.07
  Ionic Valenz
   ZVAL   =   1.00  5.00  6.00
  Atomic Wigner-Seitz radii
   RWIGS  =  -1.00 -1.00 -1.00
  virtual crystal weights 
   VCA    =   1.00  1.00  1.00
   NELECT =      72.0000    total number of electrons
   NUPDOWN=      -1.0000    fix difference up-down

 DOS related values:
   EMIN   =  10.00;   EMAX   =-10.00  energy-range for DOS
   EFERMI =   0.00
   ISMEAR =     0;   SIGMA  =   0.05  broadening in eV -4-tet -1-fermi 0-gaus

 Electronic relaxation 2 (details)
   IALGO  =     38    algorithm
   LDIAG  =      T    sub-space diagonalisation (order eigenvalues)
   LSUBROT=      F    optimize rotation matrix (better conditioning)
   TURBO    =      0    0=normal 1=particle mesh
   IRESTART =      0    0=no restart 2=restart with 2 vectors
   NREBOOT  =      0    no. of reboots
   NMIN     =      0    reboot dimension
   EREF     =   0.00    reference energy to select bands
   IMIX   =      4    mixing-type and parameters
     AMIX     =   0.40;   BMIX     =  1.00
     AMIX_MAG =   1.60;   BMIX_MAG =  1.00
     AMIN     =   0.10
     WC   =   100.;   INIMIX=   1;  MIXPRE=   1;  MAXMIX= -45

 Intra band minimization:
   WEIMIN = 0.0010     energy-eigenvalue tresh-hold
   EBREAK =  0.45E-06  absolut break condition
   DEPER  =   0.30     relativ break condition  

   TIME   =   0.40     timestep for ELM

  volume/ion in A,a.u.               =      33.27       224.55
  Fermi-wavevector in a.u.,A,eV,Ry     =   0.840313  1.587962  9.607437  0.706127
  Thomas-Fermi vector in A             =   1.954675
 
 Write flags
   LWAVE        =      F    write WAVECAR
   LDOWNSAMPLE  =      F    k-point downsampling of WAVECAR
   LCHARG       =      F    write CHGCAR
   LVTOT        =      F    write LOCPOT, total local potential
   LVHAR        =      F    write LOCPOT, Hartree potential only
   LELF         =      F    write electronic localiz. function (ELF)
   LORBIT       =     10    0 simple, 1 ext, 2 COOP (PROOUT), +10 PAW based schemes


 Dipole corrections
   LMONO  =      F    monopole corrections only (constant potential shift)
   LDIPOL =      F    correct potential (dipole corrections)
   IDIPOL =      0    1-x, 2-y, 3-z, 4-all directions 
   EPSILON=  1.0000000 bulk dielectric constant

 Exchange correlation treatment:
   GGA     =    --    GGA type
   LEXCH   =     8    internal setting for exchange type
   VOSKOWN=      0    Vosko Wilk Nusair interpolation
   LHFCALC =     F    Hartree Fock is set to
   LHFONE  =     F    Hartree Fock one center treatment
   AEXX    =    0.0000 exact exchange contribution

 Linear response parameters
   LEPSILON=     F    determine dielectric tensor
   LRPA    =     F    only Hartree local field effects (RPA)
   LNABLA  =     F    use nabla operator in PAW spheres
   LVEL    =     F    velocity operator in full k-point grid
   LINTERFAST=   F  fast interpolation
   KINTER  =     0    interpolate to denser k-point grid
   CSHIFT  =0.1000    complex shift for real part using Kramers Kronig
   OMEGAMAX=  -1.0    maximum frequency
   DEG_THRESHOLD= 0.2000000E-02 threshold for treating states as degnerate
   RTIME   =   -0.100 relaxation time in fs
  (WPLASMAI=    0.000 imaginary part of plasma frequency in eV, 0.658/RTIME)
   DFIELD  = 0.0000000 0.0000000 0.0000000 field for delta impulse in time
 
 Orbital magnetization related:
   ORBITALMAG=     F  switch on orbital magnetization
   LCHIMAG   =     F  perturbation theory with respect to B field
   DQ        =  0.001000  dq finite difference perturbation B field
   LLRAUG    =     F  two centre corrections for induced B field



--------------------------------------------------------------------------------------------------------


 conjugate gradient relaxation of ions
 charge density and potential will be updated during run
 non-spin polarized calculation
 Variant of blocked Davidson
 Davidson routine will perform the subspace rotation
 perform sub-space diagonalisation
    after iterative eigenvector-optimisation
 modified Broyden-mixing scheme, WC =      100.0
 initial mixing is a Kerker type mixing with AMIX =  0.4000 and BMIX =      1.0000
 Hartree-type preconditioning will be used
 using additional bands           20
 real space projection scheme for non local part
 use partial core corrections
 calculate Harris-corrections to forces 
   (improved forces if not selfconsistent)
 use gradient corrections 
 use of overlap-Matrix (Vanderbilt PP)
 Gauss-broadening in eV      SIGMA  =   0.05


--------------------------------------------------------------------------------------------------------


  energy-cutoff  :      300.00
  volume of cell :      532.39
      direct lattice vectors                 reciprocal lattice vectors
     6.456999420  0.790754140 -0.988154190     0.151882983  0.020018570 -0.003503398
    -0.865149840  6.470254380 -0.535565840    -0.020389792  0.150786551 -0.012570696
     0.147269680  1.054516950 12.410146430     0.011213706  0.008101239  0.079757775

  length of vectors
     6.579861877  6.549771504 12.455738789     0.153236607  0.152677274  0.080948625


 
 k-points in units of 2pi/SCALE and weight: pymatgen with grid density = 807 / numbe
   0.00280343  0.00202531  0.01993944       0.111
   0.05343109  0.00869817  0.01877164       0.111
  -0.04782423 -0.00464755  0.02110724       0.111
  -0.00399317  0.05228749  0.01574921       0.111
   0.04663449  0.05896035  0.01458141       0.111
  -0.05462083  0.04561464  0.01691701       0.111
   0.00960002 -0.04823687  0.02412968       0.111
   0.06022768 -0.04156402  0.02296188       0.111
  -0.04102764 -0.05490973  0.02529747       0.111
 
 k-points in reciprocal lattice and weights: pymatgen with grid density = 807 / numbe
   0.00000000  0.00000000  0.25000000       0.111
   0.33333333 -0.00000000  0.25000000       0.111
  -0.33333333 -0.00000000  0.25000000       0.111
  -0.00000000  0.33333333  0.25000000       0.111
   0.33333333  0.33333333  0.25000000       0.111
  -0.33333333  0.33333333  0.25000000       0.111
  -0.00000000 -0.33333333  0.25000000       0.111
   0.33333333 -0.33333333  0.25000000       0.111
  -0.33333333 -0.33333333  0.25000000       0.111
 
 position of ions in fractional coordinates (direct lattice) 
   0.51696127  0.73781771  0.88080757
   0.48303873  0.26218229  0.11919243
   0.98367476  0.73743148  0.61946244
   0.01632524  0.26256852  0.38053756
   0.03733388  0.79571282  0.12119584
   0.96266612  0.20428718  0.87880416
   0.46308368  0.79527065  0.37915100
   0.53691632  0.20472935  0.62084900
   0.51656990  0.18558520  0.38446004
   0.48343010  0.81441480  0.61553996
   0.98260466  0.18602253  0.11531716
   0.01739534  0.81397747  0.88468284
   0.93178840  0.23024954  0.64474581
   0.06821160  0.76975046  0.35525419
   0.56779112  0.23067466  0.85497141
   0.43220888  0.76932534  0.14502859
 
 position of ions in cartesian coordinates  (Angst):
   2.82941200  6.11148405 10.02496351
   2.90970726  2.20404142  0.86146289
   5.80482666  6.20244780  6.32065414
  -0.06570740  2.11307767  4.56577226
  -0.42949750  5.30578935  1.04100989
   6.16861676  3.00973612  9.84541651
   2.35794022  5.91160990  3.82180156
   3.38117904  2.40391557  7.06462484
   3.23155185  2.01468287  4.16136159
   2.50756741  6.30084260  6.72506481
   6.20072308  2.10221569  0.36051062
  -0.46160382  6.21330978 10.52591578
   5.91230831  2.90648401  6.95732551
  -0.17318905  5.40904146  3.92910089
   3.59257015  2.84308875  9.92571375
   2.14654911  5.47243672  0.96071265
 


--------------------------------------------------------------------------------------------------------


 k-point  1 :   0.0000 0.0000 0.2500  plane waves:    6296
 k-point  2 :   0.3333-0.0000 0.2500  plane waves:    6289
 k-point  3 :  -0.3333-0.0000 0.2500  plane waves:    6291
 k-point  4 :  -0.0000 0.3333 0.2500  plane waves:    6292
 k-point  5 :   0.3333 0.3333 0.2500  plane waves:    6277
 k-point  6 :  -0.3333 0.3333 0.2500  plane waves:    6276
 k-point  7 :  -0.0000-0.3333 0.2500  plane waves:    6293
 k-point  8 :   0.3333-0.3333 0.2500  plane waves:    6281
 k-point  9 :  -0.3333-0.3333 0.2500  plane waves:    6270

 maximum and minimum number of plane-waves per node :      6296     6270

 maximum number of plane-waves:      6296
 maximum index in each direction: 
   IXMAX=    9   IYMAX=    9   IZMAX=   17
   IXMIN=   -9   IYMIN=   -9   IZMIN=  -17


 serial   3D FFT for wavefunctions
 parallel 3D FFT for charge:
    minimum data exchange during FFTs selected (reduces bandwidth)


 total amount of memory used by VASP MPI-rank0    37652. kBytes
=======================================================================

   base      :      30000. kBytes
   nonlr-proj:        912. kBytes
   fftplans  :        539. kBytes
   grid      :       2363. kBytes
   one-center:        129. kBytes
   wavefun   :       3709. kBytes
 
     INWAV:  cpu time    0.0000: real time    0.0000
 Broyden mixing: mesh for mixing (old mesh)
   NGX = 19   NGY = 19   NGZ = 35
  (NGX  = 42   NGY  = 42   NGZ  = 80)
  gives a total of  12635 points

 initial charge density was supplied:
 charge density of overlapping atoms calculated
 number of electron      72.0000000 magnetization 
 keeping initial charge density in first step


--------------------------------------------------------------------------------------------------------


 Maximum index for non-local projection operator          645
 Maximum index for augmentation-charges          168 (set IRDMAX)


--------------------------------------------------------------------------------------------------------


 First call to EWALD:  gamma=   0.219
 Maximum number of real-space cells 3x 3x 2
 Maximum number of reciprocal cells 2x 2x 4

    FEWALD:  cpu time    0.0020: real time    0.0019


--------------------------------------- Iteration      1(   1)  ---------------------------------------


    POTLOK:  cpu time    0.0084: real time    0.0092
    SETDIJ:  cpu time    0.1136: real time    0.1146
     EDDAV:  cpu time    0.4096: real time    0.4098
       DOS:  cpu time    0.0005: real time    0.0005
    --------------------------------------------
      LOOP:  cpu time    0.5321: real time    0.5342

 eigenvalue-minimisations  :  1008
 total energy-change (2. order) : 0.2896761E+03  (-0.1846528E+04)
 number of electron      72.0000000 magnetization 
 augmentation part       72.0000000 magnetization 

 Free energy of the ion-electron system (eV)
  ---------------------------------------------------
  alpha Z        PSCENC =        10.86193820
  Ewald energy   TEWEN  =     -2086.23039101
  -Hartree energ DENC   =      -688.16633907
  -exchange      EXHF   =         0.00000000
  -V(xc)+E(xc)   XCENC  =      -237.25097917
  PAW double counting   =      2554.09552065    -2162.71493027
  entropy T*S    EENTRO =        -0.01384843
  eigenvalues    EBANDS =        64.14168979
  atomic energy  EATOM  =      2834.95345036
  Solvation  Ediel_sol  =         0.00000000
  ---------------------------------------------------
  free energy    TOTEN  =       289.67611104 eV

  energy without entropy =      289.68995948  energy(sigma->0) =      289.68303526


--------------------------------------------------------------------------------------------------------




--------------------------------------- Iteration      1(   2)  ---------------------------------------


     EDDAV:  cpu time    0.4039: real time    0.4040
       DOS:  cpu time    0.0002: real time    0.0002
    --------------------------------------------
      LOOP:  cpu time    0.4041: real time    0.4042

 eigenvalue-minimisations  :  1344
 total energy-change (2. order) :-0.3192185E+03  (-0.3074546E+03)
 number of electron      72.0000000 magnetization 
 augmentation part       72.0000000 magnetization 

 Free energy of the ion-electron system (eV)
  ---------------------------------------------------
  alpha Z        PSCENC =        10.86193820
  Ewald energy   TEWEN  =     -2086.23039101
  -Hartree energ DENC   =      -688.16633907
  -exchange      EXHF   =         0.00000000
  -V(xc)+E(xc)   XCENC  =      -237.25097917
  PAW double counting   =      2554.09552065    -2162.71493027
  entropy T*S    EENTRO =        -0.00000000
  eigenvalues    EBANDS =      -255.09067453
  atomic energy  EATOM  =      2834.95345036
  Solvation  Ediel_sol  =         0.00000000
  ---------------------------------------------------
  free energy    TOTEN  =       -29.54240485 eV

  energy without entropy =      -29.54240485  energy(sigma->0) =      -29.54240485


--------------------------------------------------------------------------------------------------------




--------------------------------------- Iteration      1(   3)  ---------------------------------------


     EDDAV:  cpu time    0.5022: real time    0.5022
       DOS:  cpu time    0.0003: real time    0.0003
    --------------------------------------------
      LOOP:  cpu time    0.5025: real time    0.5025

 eigenvalue-minimisations  :  1260
 total energy-change (2. order) :-0.3739504E+02  (-0.3683890E+02)
 number of electron      72.0000000 magnetization 
 augmentation part       72.0000000 magnetization 

 Free energy of the ion-electron system (eV)
  ---------------------------------------------------
  alpha Z        PSCENC =        10.86193820
  Ewald energy   TEWEN  =     -2086.23039101
  -Hartree energ DENC   =      -688.16633907
  -exchange      EXHF   =         0.00000000
  -V(xc)+E(xc)   XCENC  =      -237.25097917
  PAW double counting   =      2554.09552065    -2162.71493027
  entropy T*S    EENTRO =        -0.00000000
  eigenvalues    EBANDS =      -292.48571121
  atomic energy  EATOM  =      2834.95345036
  Solvation  Ediel_sol  =         0.00000000
  ---------------------------------------------------
  free energy    TOTEN  =       -66.93744153 eV

  energy without entropy =      -66.93744153  energy(sigma->0) =      -66.93744153


--------------------------------------------------------------------------------------------------------




--------------------------------------- Iteration      1(   4)  ---------------------------------------


     EDDAV:  cpu time    0.5028: real time    0.5036
       DOS:  cpu time    0.0002: real time    0.0003
    --------------------------------------------
      LOOP:  cpu time    0.5030: real time    0.5039

 eigenvalue-minimisations  :  1218
 total energy-change (2. order) :-0.1175706E+01  (-0.1173746E+01)
 number of electron      72.0000000 magnetization 
 augmentation part       72.0000000 magnetization 

 Free energy of the ion-electron system (eV)
  ---------------------------------------------------
  alpha Z        PSCENC =        10.86193820
  Ewald energy   TEWEN  =     -2086.23039101
  -Hartree energ DENC   =      -688.16633907
  -exchange      EXHF   =         0.00000000
  -V(xc)+E(xc)   XCENC  =      -237.25097917
  PAW double counting   =      2554.09552065    -2162.71493027
  entropy T*S    EENTRO =        -0.00000000
  eigenvalues    EBANDS =      -293.66141703
  atomic energy  EATOM  =      2834.95345036
  Solvation  Ediel_sol  =         0.00000000
  ---------------------------------------------------
  free energy    TOTEN  =       -68.11314735 eV

  energy without entropy =      -68.11314735  energy(sigma->0) =      -68.11314735


--------------------------------------------------------------------------------------------------------




--------------------------------------- Iteration      1(   5)  ---------------------------------------


     EDDAV:  cpu time    0.5835: real time    0.5837
       DOS:  cpu time    0.0002: real time    0.0002
    CHARGE:  cpu time    0.0162: real time    0.0163
    MIXING:  cpu time    0.0005: real time    0.0007
    --------------------------------------------
      LOOP:  cpu time    0.6005: real time    0.6009

 eigenvalue-minimisations  :  1372
 total energy-change (2. order) :-0.3979683E-01  (-0.3978622E-01)
 number of electron      72.0000166 magnetization 
 augmentation part       -9.9991927 magnetization 

 Broyden mixing:
  rms(total) = 0.12783E+01    rms(broyden)= 0.12783E+01
  rms(prec ) = 0.16089E+01
  weight for this iteration     100.00

 Free energy of the ion-electron system (eV)
  ---------------------------------------------------
  alpha Z        PSCENC =        10.86193820
  Ewald energy   TEWEN  =     -2086.23039101
  -Hartree energ DENC   =      -688.16633907
  -exchange      EXHF   =         0.00000000
  -V(xc)+E(xc)   XCENC  =      -237.25097917
  PAW double counting   =      2554.09552065    -2162.71493027
  entropy T*S    EENTRO =        -0.00000000
  eigenvalues    EBANDS =      -293.70121386
  atomic energy  EATOM  =      2834.95345036
  Solvation  Ediel_sol  =         0.00000000
  ---------------------------------------------------
  free energy    TOTEN  =       -68.15294418 eV

  energy without entropy =      -68.15294418  energy(sigma->0) =      -68.15294418


--------------------------------------------------------------------------------------------------------




--------------------------------------- Iteration      1(   6)  ---------------------------------------


    POTLOK:  cpu time    0.0069: real time    0.0069
    SETDIJ:  cpu time    0.1133: real time    0.1133
     EDDAV:  cpu time    0.3322: real time    0.3322
       DOS:  cpu time    0.0002: real time    0.0002
    CHARGE:  cpu time    0.0143: real time    0.0143
    MIXING:  cpu time    0.0003: real time    0.0004
    --------------------------------------------
      LOOP:  cpu time    0.4672: real time    0.4673

 eigenvalue-minimisations  :  1134
 total energy-change (2. order) : 0.4664961E+01  (-0.9859260E+00)
 number of electron      72.0000171 magnetization 
 augmentation part       -9.7978924 magnetization 

 Broyden mixing:
  rms(total) = 0.97948E+00    rms(broyden)= 0.97944E+00
  rms(prec ) = 0.10104E+01
  weight for this iteration     100.00

 eigenvalues of (default mixing * dielectric matrix)
  average eigenvalue GAMMA=   1.0703
  1.0703

 Free energy of the ion-electron system (eV)
  ---------------------------------------------------
  alpha Z        PSCENC =        10.86193820
  Ewald energy   TEWEN  =     -2086.23039101
  -Hartree energ DENC   =      -728.89053212
  -exchange      EXHF   =         0.00000000
  -V(xc)+E(xc)   XCENC  =      -233.90890233
  PAW double counting   =      3263.10766613    -2872.66856544
  entropy T*S    EENTRO =        -0.00000000
  eigenvalues    EBANDS =      -250.71264725
  atomic energy  EATOM  =      2834.95345036
  Solvation  Ediel_sol  =         0.00000000
  ---------------------------------------------------
  free energy    TOTEN  =       -63.48798346 eV

  energy without entropy =      -63.48798346  energy(sigma->0) =      -63.48798346


--------------------------------------------------------------------------------------------------------




--------------------------------------- Iteration      1(   7)  ---------------------------------------


    POTLOK:  cpu time    0.0048: real time    0.0048
    SETDIJ:  cpu time    0.1131: real time    0.1131
     EDDAV:  cpu time    0.5379: real time    0.5380
       DOS:  cpu time    0.0004: real time    0.0004
    CHARGE:  cpu time    0.0170: real time    0.0170
    MIXING:  cpu time    0.0005: real time    0.0005
    --------------------------------------------
      LOOP:  cpu time    0.6736: real time    0.6737

 eigenvalue-minimisations  :  1274
 total energy-change (2. order) :-0.1512400E-01  (-0.1528675E+00)
 number of electron      72.0000169 magnetization 
 augmentation part       -9.7988258 magnetization 

 Broyden mixing:
  rms(total) = 0.52977E+00    rms(broyden)= 0.52976E+00
  rms(prec ) = 0.54967E+00
  weight for this iteration     100.00

 eigenvalues of (default mixing * dielectric matrix)
  average eigenvalue GAMMA=   1.3201
  1.1068  1.5333

 Free energy of the ion-electron system (eV)
  ---------------------------------------------------
  alpha Z        PSCENC =        10.86193820
  Ewald energy   TEWEN  =     -2086.23039101
  -Hartree energ DENC   =      -736.60141584
  -exchange      EXHF   =         0.00000000
  -V(xc)+E(xc)   XCENC  =      -233.08212126
  PAW double counting   =      4019.32275344    -3628.90784127
  entropy T*S    EENTRO =        -0.00000000
  eigenvalues    EBANDS =      -243.81948006
  atomic energy  EATOM  =      2834.95345036
  Solvation  Ediel_sol  =         0.00000000
  ---------------------------------------------------
  free energy    TOTEN  =       -63.50310746 eV

  energy without entropy =      -63.50310746  energy(sigma->0) =      -63.50310746


--------------------------------------------------------------------------------------------------------




--------------------------------------- Iteration      1(   8)  ---------------------------------------


    POTLOK:  cpu time    0.0058: real time    0.0084
    SETDIJ:  cpu time    0.1156: real time    0.1157
     EDDAV:  cpu time    0.6430: real time    0.6430
       DOS:  cpu time    0.0003: real time    0.0003
    CHARGE:  cpu time    0.0172: real time    0.0172
    MIXING:  cpu time    0.0008: real time    0.0008
    --------------------------------------------
      LOOP:  cpu time    0.7827: real time    0.7854

 eigenvalue-minimisations  :  1358
 total energy-change (2. order) : 0.1345188E-01  (-0.9784919E-02)
 number of electron      72.0000167 magnetization 
 augmentation part       -9.8075182 magnetization 

 Broyden mixing:
  rms(total) = 0.15772E+00    rms(broyden)= 0.15772E+00
  rms(prec ) = 0.17195E+00
  weight for this iteration     100.00

 eigenvalues of (default mixing * dielectric matrix)
  average eigenvalue GAMMA=   1.4513
  2.2337  1.0601  1.0601

 Free energy of the ion-electron system (eV)
  ---------------------------------------------------
  alpha Z        PSCENC =        10.86193820
  Ewald energy   TEWEN  =     -2086.23039101
  -Hartree energ DENC   =      -739.43631422
  -exchange      EXHF   =         0.00000000
  -V(xc)+E(xc)   XCENC  =      -232.64704893
  PAW double counting   =      4592.26893478    -4201.79567369
  entropy T*S    EENTRO =        -0.00000000
  eigenvalues    EBANDS =      -241.46455106
  atomic energy  EATOM  =      2834.95345036
  Solvation  Ediel_sol  =         0.00000000
  ---------------------------------------------------
  free energy    TOTEN  =       -63.48965558 eV

  energy without entropy =      -63.48965558  energy(sigma->0) =      -63.48965558


--------------------------------------------------------------------------------------------------------




--------------------------------------- Iteration      1(   9)  ---------------------------------------


    POTLOK:  cpu time    0.0077: real time    0.0079
    SETDIJ:  cpu time    0.1207: real time    0.1207
     EDDAV:  cpu time    0.6620: real time    0.6620
       DOS:  cpu time    0.0003: real time    0.0003
    CHARGE:  cpu time    0.0173: real time    0.0173
    MIXING:  cpu time    0.0007: real time    0.0007
    --------------------------------------------
      LOOP:  cpu time    0.8087: real time    0.8089

 eigenvalue-minimisations  :  1274
 total energy-change (2. order) :-0.6683675E-02  (-0.3260072E-02)
 number of electron      72.0000167 magnetization 
 augmentation part       -9.8075572 magnetization 

 Broyden mixing:
  rms(total) = 0.37441E-01    rms(broyden)= 0.37441E-01
  rms(prec ) = 0.43610E-01
  weight for this iteration     100.00

 eigenvalues of (default mixing * dielectric matrix)
  average eigenvalue GAMMA=   1.3842
  2.1569  1.0442  1.0442  1.2916

 Free energy of the ion-electron system (eV)
  ---------------------------------------------------
  alpha Z        PSCENC =        10.86193820
  Ewald energy   TEWEN  =     -2086.23039101
  -Hartree energ DENC   =      -742.89139845
  -exchange      EXHF   =         0.00000000
  -V(xc)+E(xc)   XCENC  =      -232.23728696
  PAW double counting   =      4847.66361655    -4457.18630079
  entropy T*S    EENTRO =        -0.00000000
  eigenvalues    EBANDS =      -238.42996715
  atomic energy  EATOM  =      2834.95345036
  Solvation  Ediel_sol  =         0.00000000
  ---------------------------------------------------
  free energy    TOTEN  =       -63.49633925 eV

  energy without entropy =      -63.49633925  energy(sigma->0) =      -63.49633925


--------------------------------------------------------------------------------------------------------




--------------------------------------- Iteration      1(  10)  ---------------------------------------


    POTLOK:  cpu time    0.0064: real time    0.0065
    SETDIJ:  cpu time    0.1173: real time    0.1173
     EDDAV:  cpu time    0.5831: real time    0.5831
       DOS:  cpu time    0.0002: real time    0.0002
    CHARGE:  cpu time    0.0156: real time    0.0156
    MIXING:  cpu time    0.0005: real time    0.0005
    --------------------------------------------
      LOOP:  cpu time    0.7230: real time    0.7232

 eigenvalue-minimisations  :  1218
 total energy-change (2. order) :-0.3598351E-02  (-0.4064670E-03)
 number of electron      72.0000167 magnetization 
 augmentation part       -9.8081101 magnetization 

 Broyden mixing:
  rms(total) = 0.20276E-01    rms(broyden)= 0.20276E-01
  rms(prec ) = 0.24165E-01
  weight for this iteration     100.00

 eigenvalues of (default mixing * dielectric matrix)
  average eigenvalue GAMMA=   1.7084
  3.0730  2.3172  1.0676  1.0676  1.0167

 Free energy of the ion-electron system (eV)
  ---------------------------------------------------
  alpha Z        PSCENC =        10.86193820
  Ewald energy   TEWEN  =     -2086.23039101
  -Hartree energ DENC   =      -743.61390560
  -exchange      EXHF   =         0.00000000
  -V(xc)+E(xc)   XCENC  =      -232.16763392
  PAW double counting   =      4804.62372941    -4414.13302300
  entropy T*S    EENTRO =        -0.00000000
  eigenvalues    EBANDS =      -237.79410204
  atomic energy  EATOM  =      2834.95345036
  Solvation  Ediel_sol  =         0.00000000
  ---------------------------------------------------
  free energy    TOTEN  =       -63.49993761 eV

  energy without entropy =      -63.49993761  energy(sigma->0) =      -63.49993761


--------------------------------------------------------------------------------------------------------




--------------------------------------- Iteration      1(  11)  ---------------------------------------


    POTLOK:  cpu time    0.0060: real time    0.0062
    SETDIJ:  cpu time    0.1159: real time    0.1160
     EDDAV:  cpu time    0.6469: real time    0.6469
       DOS:  cpu time    0.0003: real time    0.0003
    CHARGE:  cpu time    0.0177: real time    0.0177
    MIXING:  cpu time    0.0009: real time    0.0009
    --------------------------------------------
      LOOP:  cpu time    0.7877: real time    0.7880

 eigenvalue-minimisations  :  1204
 total energy-change (2. order) :-0.2298941E-02  (-0.3981473E-03)
 number of electron      72.0000167 magnetization 
 augmentation part       -9.8079465 magnetization 

 Broyden mixing:
  rms(total) = 0.83061E-02    rms(broyden)= 0.83059E-02
  rms(prec ) = 0.87923E-02
  weight for this iteration     100.00

 eigenvalues of (default mixing * dielectric matrix)
  average eigenvalue GAMMA=   1.5626
  2.6571  2.6571  1.0335  1.0335  0.9972  0.9972

 Free energy of the ion-electron system (eV)
  ---------------------------------------------------
  alpha Z        PSCENC =        10.86193820
  Ewald energy   TEWEN  =     -2086.23039101
  -Hartree energ DENC   =      -744.42045237
  -exchange      EXHF   =         0.00000000
  -V(xc)+E(xc)   XCENC  =      -232.08478455
  PAW double counting   =      4773.10801209    -4382.59666906
  entropy T*S    EENTRO =        -0.00000000
  eigenvalues    EBANDS =      -237.09334020
  atomic energy  EATOM  =      2834.95345036
  Solvation  Ediel_sol  =         0.00000000
  ---------------------------------------------------
  free energy    TOTEN  =       -63.50223655 eV

  energy without entropy =      -63.50223655  energy(sigma->0) =      -63.50223655


--------------------------------------------------------------------------------------------------------




--------------------------------------- Iteration      1(  12)  ---------------------------------------


    POTLOK:  cpu time    0.0087: real time    0.0089
    SETDIJ:  cpu time    0.1192: real time    0.1192
     EDDAV:  cpu time    0.5126: real time    0.5126
       DOS:  cpu time    0.0003: real time    0.0003
    --------------------------------------------
      LOOP:  cpu time    0.6409: real time    0.6410

 eigenvalue-minimisations  :  1092
 total energy-change (2. order) :-0.1331125E-04  (-0.8628078E-05)
 number of electron      72.0000167 magnetization 
 augmentation part       -9.8079465 magnetization 

 Free energy of the ion-electron system (eV)
  ---------------------------------------------------
  alpha Z        PSCENC =        10.86193820
  Ewald energy   TEWEN  =     -2086.23039101
  -Hartree energ DENC   =      -744.44852627
  -exchange      EXHF   =         0.00000000
  -V(xc)+E(xc)   XCENC  =      -232.08623725
  PAW double counting   =      4767.10389491    -4376.59345701
  entropy T*S    EENTRO =        -0.00000000
  eigenvalues    EBANDS =      -237.06292178
  atomic energy  EATOM  =      2834.95345036
  Solvation  Ediel_sol  =         0.00000000
  ---------------------------------------------------
  free energy    TOTEN  =       -63.50224986 eV

  energy without entropy =      -63.50224986  energy(sigma->0) =      -63.50224986


--------------------------------------------------------------------------------------------------------




 average (electrostatic) potential at core
  the test charge radii are     1.1212  1.1712  0.9698
  (the norm of the test charge is              1.0000)
       1 -42.0304       2 -42.0304       3 -42.0319       4 -42.0319       5 -91.6496
       6 -91.6496       7 -91.6513       8 -91.6513       9 -89.0865      10 -89.0865
      11 -89.0851      12 -89.0851      13 -89.1588      14 -89.1588      15 -89.1574
      16 -89.1574
 
 
 
 E-fermi :   1.3074     XC(G=0):  -7.3729     alpha+bet : -7.1455


 k-point     1 :       0.0000    0.0000    0.2500
  band No.  band energies     occupation 
      1     -11.0901      2.00000
      2     -10.8668      2.00000
      3     -10.4690      2.00000
      4     -10.0615      2.00000
      5      -9.8541      2.00000
      6      -9.8171      2.00000
      7      -9.8017      2.00000
      8      -9.7650      2.00000
      9      -6.9627      2.00000
     10      -6.5668      2.00000
     11      -6.0953      2.00000
     12      -5.8274      2.00000
     13      -2.3828      2.00000
     14      -2.1838      2.00000
     15      -2.1765      2.00000
     16      -1.9551      2.00000
     17      -1.8505      2.00000
     18      -1.8291      2.00000
     19      -1.4226      2.00000
     20      -1.3847      2.00000
     21      -0.9377      2.00000
     22      -0.9339      2.00000
     23      -0.9163      2.00000
     24      -0.2555      2.00000
     25       0.0875      2.00000
     26       0.1396      2.00000
     27       0.1556      2.00000
     28       0.2526      2.00000
     29       0.2878      2.00000
     30       0.3171      2.00000
     31       0.3545      2.00000
     32       0.4878      2.00000
     33       0.6676      2.00000
     34       0.6714      2.00000
     35       0.8103      2.00000
     36       0.8997      2.00000
     37       3.1842      0.00000
     38       3.6980      0.00000
     39       4.5482      0.00000
     40       4.5721      0.00000
     41       4.5764      0.00000
     42       4.7112      0.00000
     43       4.7483      0.00000
     44       4.7886      0.00000
     45       4.9466      0.00000
     46       5.1503      0.00000
     47       5.2014      0.00000
     48       5.3436      0.00000
     49       5.4934      0.00000
     50       5.6524      0.00000
     51       5.7428      0.00000
     52       6.1448      0.00000
     53       6.6003      0.00000
     54       6.6460      0.00000
     55       7.0878      0.00000
     56       7.1101      0.00000

 k-point     2 :       0.3333   -0.0000    0.2500
  band No.  band energies     occupation 
      1     -10.9788      2.00000
      2     -10.9353      2.00000
      3     -10.2985      2.00000
      4     -10.1952      2.00000
      5      -9.9041      2.00000
      6      -9.8615      2.00000
      7      -9.7698      2.00000
      8      -9.7685      2.00000
      9      -6.9423      2.00000
     10      -6.8339      2.00000
     11      -6.0874      2.00000
     12      -5.9917      2.00000
     13      -2.1465      2.00000
     14      -2.1077      2.00000
     15      -2.0527      2.00000
     16      -2.0404      2.00000
     17      -1.5838      2.00000
     18      -1.5085      2.00000
     19      -1.3255      2.00000
     20      -1.2866      2.00000
     21      -0.6545      2.00000
     22      -0.6162      2.00000
     23      -0.5575      2.00000
     24      -0.4564      2.00000
     25      -0.0819      2.00000
     26      -0.0631      2.00000
     27       0.0569      2.00000
     28       0.1901      2.00000
     29       0.1964      2.00000
     30       0.2527      2.00000
     31       0.3932      2.00000
     32       0.4715      2.00000
     33       0.7634      2.00000
     34       0.8126      2.00000
     35       0.8253      2.00000
     36       0.9082      2.00000
     37       3.2329      0.00000
     38       3.4299      0.00000
     39       3.4948      0.00000
     40       3.6688      0.00000
     41       4.2161      0.00000
     42       4.2428      0.00000
     43       4.6064      0.00000
     44       4.7666      0.00000
     45       4.7712      0.00000
     46       4.8620      0.00000
     47       5.2968      0.00000
     48       5.3998      0.00000
     49       5.5677      0.00000
     50       5.6935      0.00000
     51       6.0002      0.00000
     52       6.2428      0.00000
     53       6.9120      0.00000
     54       7.0466      0.00000
     55       7.2645      0.00000
     56       7.4477      0.00000

 k-point     3 :      -0.3333   -0.0000    0.2500
  band No.  band energies     occupation 
      1     -11.0660      2.00000
      2     -10.7058      2.00000
      3     -10.6009      2.00000
      4      -9.9554      2.00000
      5      -9.9088      2.00000
      6      -9.8550      2.00000
      7      -9.8469      2.00000
      8      -9.7688      2.00000
      9      -7.1079      2.00000
     10      -6.4946      2.00000
     11      -6.3611      2.00000
     12      -5.8959      2.00000
     13      -2.3593      2.00000
     14      -2.1170      2.00000
     15      -1.9566      2.00000
     16      -1.7098      2.00000
     17      -1.6689      2.00000
     18      -1.5307      2.00000
     19      -1.3441      2.00000
     20      -1.1631      2.00000
     21      -1.0778      2.00000
     22      -0.8248      2.00000
     23      -0.3823      2.00000
     24      -0.1855      2.00000
     25      -0.0273      2.00000
     26       0.0073      2.00000
     27       0.1311      2.00000
     28       0.1631      2.00000
     29       0.2252      2.00000
     30       0.3257      2.00000
     31       0.3977      2.00000
     32       0.4112      2.00000
     33       0.6319      2.00000
     34       0.6808      2.00000
     35       0.8159      2.00000
     36       0.8758      2.00000
     37       3.2310      0.00000
     38       3.2590      0.00000
     39       3.7106      0.00000
     40       4.0183      0.00000
     41       4.1250      0.00000
     42       4.2628      0.00000
     43       4.4580      0.00000
     44       4.7555      0.00000
     45       4.8340      0.00000
     46       4.8616      0.00000
     47       5.1809      0.00000
     48       5.2909      0.00000
     49       5.5112      0.00000
     50       5.7287      0.00000
     51       5.9449      0.00000
     52       6.4309      0.00000
     53       6.8360      0.00000
     54       7.1069      0.00000
     55       7.2482      0.00000
     56       7.2563      0.00000

 k-point     4 :      -0.0000    0.3333    0.2500
  band No.  band energies     occupation 
      1     -11.0462      2.00000
      2     -10.8344      2.00000
      3     -10.4480      2.00000
      4     -10.0639      2.00000
      5      -9.8672      2.00000
      6      -9.8309      2.00000
      7      -9.8151      2.00000
      8      -9.7869      2.00000
      9      -7.0782      2.00000
     10      -6.6826      2.00000
     11      -6.2047      2.00000
     12      -5.9302      2.00000
     13      -2.2912      2.00000
     14      -2.1696      2.00000
     15      -2.0538      2.00000
     16      -1.8309      2.00000
     17      -1.5793      2.00000
     18      -1.5032      2.00000
     19      -1.2632      2.00000
     20      -1.2459      2.00000
     21      -0.8254      2.00000
     22      -0.7359      2.00000
     23      -0.6288      2.00000
     24      -0.2858      2.00000
     25      -0.0876      2.00000
     26       0.0123      2.00000
     27       0.0803      2.00000
     28       0.2058      2.00000
     29       0.2318      2.00000
     30       0.3000      2.00000
     31       0.3511      2.00000
     32       0.4830      2.00000
     33       0.6735      2.00000
     34       0.7729      2.00000
     35       0.9503      2.00000
     36       0.9995      2.00000
     37       3.0220      0.00000
     38       3.5448      0.00000
     39       3.6322      0.00000
     40       3.8350      0.00000
     41       4.2855      0.00000
     42       4.3261      0.00000
     43       4.4467      0.00000
     44       4.6052      0.00000
     45       4.6152      0.00000
     46       4.8216      0.00000
     47       5.1743      0.00000
     48       5.2791      0.00000
     49       5.4519      0.00000
     50       5.8445      0.00000
     51       6.0043      0.00000
     52       6.4460      0.00000
     53       6.7919      0.00000
     54       7.0716      0.00000
     55       7.2930      0.00000
     56       7.3899      0.00000

 k-point     5 :       0.3333    0.3333    0.2500
  band No.  band energies     occupation 
      1     -10.9427      2.00000
      2     -10.8972      2.00000
      3     -10.2868      2.00000
      4     -10.1864      2.00000
      5      -9.9024      2.00000
      6      -9.8694      2.00000
      7      -9.7906      2.00000
      8      -9.7900      2.00000
      9      -7.0613      2.00000
     10      -6.9522      2.00000
     11      -6.1984      2.00000
     12      -6.1083      2.00000
     13      -2.0878      2.00000
     14      -2.0383      2.00000
     15      -1.7441      2.00000
     16      -1.6573      2.00000
     17      -1.4806      2.00000
     18      -1.3666      2.00000
     19      -1.1925      2.00000
     20      -1.0912      2.00000
     21      -0.6468      2.00000
     22      -0.5584      2.00000
     23      -0.5276      2.00000
     24      -0.4490      2.00000
     25      -0.2648      2.00000
     26      -0.0606      2.00000
     27       0.0157      2.00000
     28       0.1928      2.00000
     29       0.3525      2.00000
     30       0.4346      2.00000
     31       0.5346      2.00000
     32       0.5387      2.00000
     33       0.8176      2.00000
     34       0.8679      2.00000
     35       0.9431      2.00000
     36       0.9752      2.00000
     37       3.0388      0.00000
     38       3.1891      0.00000
     39       3.2418      0.00000
     40       3.3037      0.00000
     41       3.6954      0.00000
     42       3.7985      0.00000
     43       4.1195      0.00000
     44       4.1402      0.00000
     45       4.1859      0.00000
     46       4.3287      0.00000
     47       4.6817      0.00000
     48       4.7589      0.00000
     49       6.0385      0.00000
     50       6.1347      0.00000
     51       6.3882      0.00000
     52       6.6234      0.00000
     53       7.0243      0.00000
     54       7.3251      0.00000
     55       7.4841      0.00000
     56       7.5461      0.00000

 k-point     6 :      -0.3333    0.3333    0.2500
  band No.  band energies     occupation 
      1     -11.0248      2.00000
      2     -10.6858      2.00000
      3     -10.5662      2.00000
      4      -9.9629      2.00000
      5      -9.9231      2.00000
      6      -9.8512      2.00000
      7      -9.8470      2.00000
      8      -9.8000      2.00000
      9      -7.2277      2.00000
     10      -6.6082      2.00000
     11      -6.4792      2.00000
     12      -6.0091      2.00000
     13      -2.2826      2.00000
     14      -1.8032      2.00000
     15      -1.6558      2.00000
     16      -1.6474      2.00000
     17      -1.5162      2.00000
     18      -1.3753      2.00000
     19      -1.2358      2.00000
     20      -1.0508      2.00000
     21      -0.9759      2.00000
     22      -0.6634      2.00000
     23      -0.3894      2.00000
     24      -0.2489      2.00000
     25      -0.1034      2.00000
     26      -0.0351      2.00000
     27       0.0917      2.00000
     28       0.1582      2.00000
     29       0.3010      2.00000
     30       0.4551      2.00000
     31       0.4756      2.00000
     32       0.5691      2.00000
     33       0.6509      2.00000
     34       0.7300      2.00000
     35       0.9774      2.00000
     36       1.0258      2.00000
     37       2.8822      0.00000
     38       3.1548      0.00000
     39       3.3012      0.00000
     40       3.4907      0.00000
     41       3.7973      0.00000
     42       3.8597      0.00000
     43       4.0083      0.00000
     44       4.2023      0.00000
     45       4.2990      0.00000
     46       4.3600      0.00000
     47       4.4421      0.00000
     48       4.8444      0.00000
     49       5.7551      0.00000
     50       6.2110      0.00000
     51       6.4252      0.00000
     52       6.8175      0.00000
     53       6.9481      0.00000
     54       7.2459      0.00000
     55       7.3546      0.00000
     56       7.5171      0.00000

 k-point     7 :      -0.0000   -0.3333    0.2500
  band No.  band energies     occupation 
      1     -11.0462      2.00000
      2     -10.8346      2.00000
      3     -10.4479      2.00000
      4     -10.0640      2.00000
      5      -9.8674      2.00000
      6      -9.8306      2.00000
      7      -9.8154      2.00000
      8      -9.7868      2.00000
      9      -7.0784      2.00000
     10      -6.6821      2.00000
     11      -6.2052      2.00000
     12      -5.9301      2.00000
     13      -2.2912      2.00000
     14      -2.1697      2.00000
     15      -2.0532      2.00000
     16      -1.8312      2.00000
     17      -1.5801      2.00000
     18      -1.5034      2.00000
     19      -1.2637      2.00000
     20      -1.2448      2.00000
     21      -0.8265      2.00000
     22      -0.7340      2.00000
     23      -0.6289      2.00000
     24      -0.2859      2.00000
     25      -0.0871      2.00000
     26       0.0113      2.00000
     27       0.0802      2.00000
     28       0.2057      2.00000
     29       0.2314      2.00000
     30       0.3003      2.00000
     31       0.3518      2.00000
     32       0.4831      2.00000
     33       0.6724      2.00000
     34       0.7733      2.00000
     35       0.9503      2.00000
     36       0.9995      2.00000
     37       3.0215      0.00000
     38       3.5480      0.00000
     39       3.6290      0.00000
     40       3.8364      0.00000
     41       4.2856      0.00000
     42       4.3266      0.00000
     43       4.4480      0.00000
     44       4.6027      0.00000
     45       4.6145      0.00000
     46       4.8220      0.00000
     47       5.1741      0.00000
     48       5.2785      0.00000
     49       5.4541      0.00000
     50       5.8437      0.00000
     51       6.0051      0.00000
     52       6.4417      0.00000
     53       6.7969      0.00000
     54       7.0709      0.00000
     55       7.2913      0.00000
     56       7.3849      0.00000

 k-point     8 :       0.3333   -0.3333    0.2500
  band No.  band energies     occupation 
      1     -10.9429      2.00000
      2     -10.8969      2.00000
      3     -10.2870      2.00000
      4     -10.1861      2.00000
      5      -9.9025      2.00000
      6      -9.8695      2.00000
      7      -9.7907      2.00000
      8      -9.7899      2.00000
      9      -7.0610      2.00000
     10      -6.9526      2.00000
     11      -6.1979      2.00000
     12      -6.1085      2.00000
     13      -2.0884      2.00000
     14      -2.0377      2.00000
     15      -1.7448      2.00000
     16      -1.6572      2.00000
     17      -1.4801      2.00000
     18      -1.3662      2.00000
     19      -1.1926      2.00000
     20      -1.0918      2.00000
     21      -0.6460      2.00000
     22      -0.5595      2.00000
     23      -0.5282      2.00000
     24      -0.4485      2.00000
     25      -0.2607      2.00000
     26      -0.0628      2.00000
     27       0.0167      2.00000
     28       0.1923      2.00000
     29       0.3517      2.00000
     30       0.4346      2.00000
     31       0.5345      2.00000
     32       0.5374      2.00000
     33       0.8167      2.00000
     34       0.8679      2.00000
     35       0.9421      2.00000
     36       0.9754      2.00000
     37       3.0390      0.00000
     38       3.1883      0.00000
     39       3.2453      0.00000
     40       3.3015      0.00000
     41       3.6939      0.00000
     42       3.8014      0.00000
     43       4.1186      0.00000
     44       4.1410      0.00000
     45       4.1868      0.00000
     46       4.3300      0.00000
     47       4.6818      0.00000
     48       4.7575      0.00000
     49       6.0381      0.00000
     50       6.1352      0.00000
     51       6.3872      0.00000
     52       6.6213      0.00000
     53       7.0252      0.00000
     54       7.3270      0.00000
     55       7.4854      0.00000
     56       7.5463      0.00000

 k-point     9 :      -0.3333   -0.3333    0.2500
  band No.  band energies     occupation 
      1     -11.0249      2.00000
      2     -10.6856      2.00000
      3     -10.5664      2.00000
      4      -9.9628      2.00000
      5      -9.9230      2.00000
      6      -9.8514      2.00000
      7      -9.8469      2.00000
      8      -9.7999      2.00000
      9      -7.2277      2.00000
     10      -6.6088      2.00000
     11      -6.4787      2.00000
     12      -6.0092      2.00000
     13      -2.2827      2.00000
     14      -1.8032      2.00000
     15      -1.6554      2.00000
     16      -1.6471      2.00000
     17      -1.5162      2.00000
     18      -1.3751      2.00000
     19      -1.2341      2.00000
     20      -1.0525      2.00000
     21      -0.9768      2.00000
     22      -0.6631      2.00000
     23      -0.3908      2.00000
     24      -0.2491      2.00000
     25      -0.1042      2.00000
     26      -0.0336      2.00000
     27       0.0920      2.00000
     28       0.1567      2.00000
     29       0.3017      2.00000
     30       0.4547      2.00000
     31       0.4759      2.00000
     32       0.5704      2.00000
     33       0.6517      2.00000
     34       0.7304      2.00000
     35       0.9780      2.00000
     36       1.0261      2.00000
     37       2.8836      0.00000
     38       3.1531      0.00000
     39       3.3017      0.00000
     40       3.4892      0.00000
     41       3.7954      0.00000
     42       3.8603      0.00000
     43       4.0077      0.00000
     44       4.2030      0.00000
     45       4.3010      0.00000
     46       4.3603      0.00000
     47       4.4395      0.00000
     48       4.8441      0.00000
     49       5.7555      0.00000
     50       6.2125      0.00000
     51       6.4261      0.00000
     52       6.8155      0.00000
     53       6.9512      0.00000
     54       7.2423      0.00000
     55       7.3542      0.00000
     56       7.5160      0.00000


--------------------------------------------------------------------------------------------------------


 soft charge-density along one line, spin component           1
         0         1         2         3         4         5         6         7         8         9
 total charge-density along one line
 
 pseudopotential strength for first ion, spin component:           1
  1.423   6.379   0.000  -0.000   0.000
  6.379  28.172  -0.002   0.002   0.000
  0.000  -0.002   5.301  -0.000   0.000
 -0.000   0.002  -0.000   5.301   0.000
  0.000   0.000   0.000   0.000   5.301
 total augmentation occupancy for first ion, spin component:           1
  0.245   0.001   0.005  -0.003   0.001
  0.001   0.000   0.000  -0.000   0.000
  0.005   0.000   0.009  -0.001  -0.000
 -0.003  -0.000  -0.001   0.007  -0.001
  0.001   0.000  -0.000  -0.001   0.008


------------------------ aborting loop because EDIFF is reached ----------------------------------------


 


 total charge     
 
# of ion       s       p       d       tot
------------------------------------------
    1        0.028   0.015   0.000   0.043
    2        0.028   0.015   0.000   0.043
    3        0.028   0.015   0.000   0.043
    4        0.028   0.015   0.000   0.043
    5        1.269   0.908   0.049   2.226
    6        1.269   0.908   0.049   2.226
    7        1.269   0.908   0.049   2.226
    8        1.269   0.908   0.049   2.226
    9        1.350   2.304   0.000   3.654
   10        1.350   2.304   0.000   3.654
   11        1.350   2.304   0.000   3.654
   12        1.350   2.304   0.000   3.654
   13        1.350   2.304   0.000   3.654
   14        1.350   2.304   0.000   3.654
   15        1.350   2.304   0.000   3.654
   16        1.350   2.304   0.000   3.654
--------------------------------------------------
tot         15.985  22.127   0.196  38.308
 
    CHARGE:  cpu time    0.0171: real time    0.0171
    FORLOC:  cpu time    0.0009: real time    0.0009
    FORNL :  cpu time    0.1132: real time    0.1133
    STRESS:  cpu time    0.3352: real time    0.3355
    FORCOR:  cpu time    0.0063: real time    0.0063
    FORHAR:  cpu time    0.0020: real time    0.0020
    MIXING:  cpu time    0.0007: real time    0.0007
    OFIELD:  cpu time    0.0000: real time    0.0000

  FORCE on cell =-STRESS in cart. coord.  units (eV):
  Direction    XX          YY          ZZ          XY          YZ          ZX
  --------------------------------------------------------------------------------------
  Alpha Z    10.86194    10.86194    10.86194
  Ewald    -742.84985  -822.69610  -520.68897    22.29353    43.41950   130.66655
  Hartree   219.54268   156.36584   368.69631    16.99724    30.94769    94.74978
  E(xc)    -252.91253  -252.97018  -250.48020     0.02782     0.23840     0.20386
  Local    -718.89055  -577.90224 -1088.02712   -38.82896   -73.62990  -222.60907
  n-local   910.75979   911.08033   895.59338    -0.07241    -1.39351    -0.68999
  augment  -209.00728  -209.23320  -206.54035     0.05545     0.27198     0.32533
  Kinetic   765.05165   765.98058   773.33714    -0.14614     0.45852    -1.17662
  Fock        0.00000     0.00000     0.00000     0.00000     0.00000     0.00000
  -------------------------------------------------------------------------------------
  Total     -17.44415   -18.51304   -17.24788     0.32652     0.31268     1.46983
  in kB     -52.49613   -55.71283   -51.90548     0.98261     0.94099     4.42328
  external pressure =      -53.37 kB  Pullay stress =        0.00 kB


 VOLUME and BASIS-vectors are now :
 -----------------------------------------------------------------------------
  energy-cutoff  :      300.00
  volume of cell :      532.39
      direct lattice vectors                 reciprocal lattice vectors
     6.456999420  0.790754140 -0.988154190     0.151882983  0.020018570 -0.003503398
    -0.865149840  6.470254380 -0.535565840    -0.020389792  0.150786551 -0.012570696
     0.147269680  1.054516950 12.410146430     0.011213706  0.008101239  0.079757775

  length of vectors
     6.579861877  6.549771504 12.455738789     0.153236607  0.152677274  0.080948625


 FORCES acting on ions
    electron-ion (+dipol)            ewald-force                    non-local-force                 convergence-correction
 -----------------------------------------------------------------------------------------------
   0.131E+01 0.485E+01 -.190E+01   -.131E+01 -.454E+01 0.165E+01   -.168E-01 -.148E+00 0.104E+00   -.272E-03 -.587E-03 0.239E-03
   -.131E+01 -.485E+01 0.190E+01   0.131E+01 0.454E+01 -.165E+01   0.168E-01 0.148E+00 -.104E+00   0.272E-03 0.587E-03 -.239E-03
   -.262E+01 0.459E+01 0.109E+01   0.252E+01 -.425E+01 -.893E+00   0.610E-01 -.156E+00 -.771E-01   0.413E-03 -.526E-03 -.153E-03
   0.262E+01 -.459E+01 -.109E+01   -.252E+01 0.425E+01 0.893E+00   -.610E-01 0.156E+00 0.771E-01   -.413E-03 0.526E-03 0.153E-03
   0.253E+02 0.399E+02 -.239E+01   -.314E+02 -.484E+02 0.294E+01   0.690E+01 0.941E+01 -.599E+00   -.432E-02 -.899E-02 0.563E-04
   -.253E+02 -.399E+02 0.239E+01   0.314E+02 0.484E+02 -.294E+01   -.690E+01 -.941E+01 0.599E+00   0.432E-02 0.899E-02 -.563E-04
   -.349E+02 0.318E+02 -.348E+01   0.431E+02 -.383E+02 0.417E+01   -.906E+01 0.719E+01 -.706E+00   0.658E-02 -.752E-02 0.126E-02
   0.349E+02 -.318E+02 0.348E+01   -.431E+02 0.383E+02 -.417E+01   0.906E+01 -.719E+01 0.706E+00   -.658E-02 0.752E-02 -.126E-02
   -.532E+01 -.550E+02 0.370E+02   0.501E+01 0.580E+02 -.388E+02   0.219E+00 -.379E+01 0.196E+01   0.572E-02 0.246E-01 -.577E-02
   0.532E+01 0.550E+02 -.370E+02   -.501E+01 -.580E+02 0.388E+02   -.219E+00 0.379E+01 -.196E+01   -.572E-02 -.246E-01 0.577E-02
   0.205E+02 -.570E+02 -.275E+02   -.210E+02 0.602E+02 0.287E+02   0.851E+00 -.398E+01 -.130E+01   -.121E-01 0.227E-01 0.164E-02
   -.205E+02 0.570E+02 0.275E+02   0.210E+02 -.602E+02 -.287E+02   -.851E+00 0.398E+01 0.130E+01   0.121E-01 -.227E-01 -.164E-02
   -.472E+02 -.286E+02 0.412E+02   0.501E+02 0.288E+02 -.427E+02   -.369E+01 -.359E+00 0.175E+01   0.200E-01 0.154E-01 -.105E-01
   0.472E+02 0.286E+02 -.412E+02   -.501E+02 -.288E+02 0.427E+02   0.369E+01 0.359E+00 -.175E+01   -.200E-01 -.154E-01 0.105E-01
   0.539E+02 -.216E+02 -.371E+02   -.568E+02 0.212E+02 0.387E+02   0.370E+01 0.311E+00 -.174E+01   -.236E-01 0.111E-01 0.822E-02
   -.539E+02 0.216E+02 0.371E+02   0.568E+02 -.212E+02 -.387E+02   -.370E+01 -.311E+00 0.174E+01   0.236E-01 -.111E-01 -.822E-02
 -----------------------------------------------------------------------------------------------
   -.116E-11 0.433E-11 0.515E-10   0.284E-13 0.142E-13 -.426E-13   -.400E-14 0.172E-14 -.444E-15   0.103E-12 -.437E-13 -.350E-13
 
 
 POSITION                                       TOTAL-FORCE (eV/Angst)
 -----------------------------------------------------------------------------------
      2.82941      6.11148     10.02496        -0.015178      0.163890     -0.144898
      2.90971      2.20404      0.86146         0.015178     -0.163890      0.144898
      5.80483      6.20245      6.32065        -0.035927      0.183910      0.117017
     -0.06571      2.11308      4.56577         0.035927     -0.183910     -0.117017
     -0.42950      5.30579      1.04101         0.723987      0.936581     -0.047779
      6.16862      3.00974      9.84542        -0.723987     -0.936581      0.047779
      2.35794      5.91161      3.82180        -0.872373      0.666541     -0.014355
      3.38118      2.40392      7.06462         0.872373     -0.666541      0.014355
[...]
     37       5.6984      0.00000
     38       5.8828      0.00000
     39       5.9346      0.00000
     40       6.0589      0.00000
     41       6.3483      0.00000
     42       6.4361      0.00000
     43       6.8217      0.00000
     44       6.8626      0.00000
     45       6.9477      0.00000
     46       7.0722      0.00000
     47       7.3433      0.00000
     48       7.5382      0.00000
     49       9.4749      0.00000
     50       9.7470      0.00000
     51       9.9356      0.00000
     52      10.0538      0.00000
     53      10.2489      0.00000
     54      10.3647      0.00000
     55      10.5745      0.00000
     56      10.7475      0.00000

 k-point     6 :      -0.3333    0.3333    0.2500
  band No.  band energies     occupation 
      1      -9.2509      2.00000
      2      -8.7819      2.00000
      3      -8.7699      2.00000
      4      -8.0143      2.00000
      5      -7.9889      2.00000
      6      -7.9199      2.00000
      7      -7.8598      2.00000
      8      -7.8335      2.00000
      9      -5.3637      2.00000
     10      -4.5858      2.00000
     11      -4.4931      2.00000
     12      -3.9465      2.00000
     13      -0.5102      2.00000
     14       0.0659      2.00000
     15       0.2710      2.00000
     16       0.3495      2.00000
     17       0.6163      2.00000
     18       0.6546      2.00000
     19       0.8550      2.00000
     20       1.0079      2.00000
     21       1.1025      2.00000
     22       1.4257      2.00000
     23       1.5298      2.00000
     24       1.6465      2.00000
     25       1.8963      2.00000
     26       2.0310      2.00000
     27       2.1247      2.00000
     28       2.3677      2.00000
     29       2.5491      2.00000
     30       2.6791      2.00000
     31       2.7275      2.00000
     32       2.7792      2.00000
     33       3.0697      2.00000
     34       3.1928      2.00000
     35       3.4603      2.00000
     36       3.5583      2.00000
     37       5.6123      0.00000
     38       5.8543      0.00000
     39       6.0066      0.00000
     40       6.1673      0.00000
     41       6.3205      0.00000
     42       6.6383      0.00000
     43       6.7366      0.00000
     44       6.9151      0.00000
     45       7.0197      0.00000
     46       7.1185      0.00000
     47       7.2212      0.00000
     48       7.4566      0.00000
     49       9.5163      0.00000
     50       9.6904      0.00000
     51       9.9344      0.00000
     52      10.0978      0.00000
     53      10.1548      0.00000
     54      10.3941      0.00000
     55      10.4842      0.00000
     56      10.7730      0.00000

 k-point     7 :      -0.0000   -0.3333    0.2500
  band No.  band energies     occupation 
      1      -9.3983      2.00000
      2      -9.1149      2.00000
      3      -8.6252      2.00000
      4      -8.1311      2.00000
      5      -7.9658      2.00000
      6      -7.8751      2.00000
      7      -7.8057      2.00000
      8      -7.7001      2.00000
      9      -4.8363      2.00000
     10      -4.3623      2.00000
     11      -3.7582      2.00000
     12      -3.4839      2.00000
     13      -0.8369      2.00000
     14      -0.6524      2.00000
     15      -0.6113      2.00000
     16      -0.0411      2.00000
     17       0.0558      2.00000
     18       0.3181      2.00000
     19       0.4872      2.00000
     20       0.7567      2.00000
     21       1.1102      2.00000
     22       1.3310      2.00000
     23       1.5707      2.00000
     24       1.6777      2.00000
     25       1.9434      2.00000
     26       1.9742      2.00000
     27       2.0495      2.00000
     28       2.2990      2.00000
     29       2.3330      2.00000
     30       2.4128      2.00000
     31       2.5106      2.00000
     32       2.6590      2.00000
     33       2.8579      2.00000
     34       3.0746      2.00000
     35       3.2662      2.00000
     36       3.4528      2.00000
     37       5.8363      0.00000
     38       6.2716      0.00000
     39       6.3473      0.00000
     40       6.6943      0.00000
     41       7.1352      0.00000
     42       7.1879      0.00000
     43       7.4305      0.00000
     44       7.6158      0.00000
     45       8.2801      0.00000
     46       8.4322      0.00000
     47       8.6074      0.00000
     48       8.8433      0.00000
     49       9.1097      0.00000
     50       9.3113      0.00000
     51       9.6506      0.00000
     52       9.8205      0.00000
     53       9.9312      0.00000
     54      10.0272      0.00000
     55      10.0818      0.00000
     56      10.4457      0.00000

 k-point     8 :       0.3333   -0.3333    0.2500
  band No.  band energies     occupation 
      1      -9.1589      2.00000
      2      -9.0860      2.00000
      3      -8.3436      2.00000
      4      -8.2964      2.00000
      5      -7.9929      2.00000
      6      -7.9220      2.00000
      7      -7.8164      2.00000
      8      -7.8123      2.00000
      9      -5.1334      2.00000
     10      -5.0452      2.00000
     11      -4.1587      2.00000
     12      -4.0416      2.00000
     13      -0.3259      2.00000
     14      -0.1944      2.00000
     15       0.2460      2.00000
     16       0.4518      2.00000
     17       0.5124      2.00000
     18       0.7788      2.00000
     19       0.8547      2.00000
     20       0.9537      2.00000
     21       1.2526      2.00000
     22       1.3594      2.00000
     23       1.4374      2.00000
     24       1.6559      2.00000
     25       1.7821      2.00000
     26       2.0357      2.00000
     27       2.1135      2.00000
     28       2.3407      2.00000
     29       2.6564      2.00000
     30       2.7110      2.00000
     31       2.7769      2.00000
     32       2.8012      2.00000
     33       3.0726      2.00000
     34       3.3230      2.00000
     35       3.4377      2.00000
     36       3.4700      2.00000
     37       5.7268      0.00000
     38       5.8458      0.00000
     39       5.9496      0.00000
     40       6.0735      0.00000
     41       6.3285      0.00000
     42       6.4434      0.00000
     43       6.8322      0.00000
     44       6.8589      0.00000
     45       6.9542      0.00000
     46       7.0746      0.00000
     47       7.3563      0.00000
     48       7.5311      0.00000
     49       9.4820      0.00000
     50       9.7769      0.00000
     51       9.9059      0.00000
     52      10.0318      0.00000
     53      10.2364      0.00000
     54      10.3766      0.00000
     55      10.5704      0.00000
     56      10.7565      0.00000

 k-point     9 :      -0.3333   -0.3333    0.2500
  band No.  band energies     occupation 
      1      -9.2502      2.00000
      2      -8.7874      2.00000
      3      -8.7681      2.00000
      4      -8.0094      2.00000
      5      -7.9985      2.00000
      6      -7.9065      2.00000
      7      -7.8634      2.00000
      8      -7.8332      2.00000
      9      -5.3643      2.00000
     10      -4.5890      2.00000
     11      -4.4940      2.00000
     12      -3.9463      2.00000
     13      -0.5097      2.00000
     14       0.0528      2.00000
     15       0.2742      2.00000
     16       0.3452      2.00000
     17       0.6501      2.00000
     18       0.6797      2.00000
     19       0.8607      2.00000
     20       1.0072      2.00000
     21       1.0492      2.00000
     22       1.4273      2.00000
     23       1.5052      2.00000
     24       1.6536      2.00000
     25       1.9046      2.00000
     26       2.0078      2.00000
     27       2.1534      2.00000
     28       2.3592      2.00000
     29       2.5503      2.00000
     30       2.6880      2.00000
     31       2.7121      2.00000
     32       2.8024      2.00000
     33       3.0766      2.00000
     34       3.2047      2.00000
     35       3.4387      2.00000
     36       3.5801      2.00000
     37       5.6224      0.00000
     38       5.8345      0.00000
     39       5.9795      0.00000
     40       6.2078      0.00000
     41       6.2928      0.00000
     42       6.6359      0.00000
     43       6.7394      0.00000
     44       6.9063      0.00000
     45       7.0387      0.00000
     46       7.1049      0.00000
     47       7.2067      0.00000
     48       7.4648      0.00000
     49       9.5137      0.00000
     50       9.6955      0.00000
     51       9.9667      0.00000
     52      10.0910      0.00000
     53      10.1221      0.00000
     54      10.3979      0.00000
     55      10.5075      0.00000
     56      10.7640      0.00000


--------------------------------------------------------------------------------------------------------


 soft charge-density along one line, spin component           1
         0         1         2         3         4         5         6         7         8         9
 total charge-density along one line
 
 pseudopotential strength for first ion, spin component:           1
  1.435   6.356   0.000  -0.000   0.000
  6.356  27.816  -0.000   0.000   0.000
  0.000  -0.000   5.833  -0.000   0.000
 -0.000   0.000  -0.000   5.832  -0.000
  0.000   0.000   0.000  -0.000   5.833
 total augmentation occupancy for first ion, spin component:           1
  0.436   0.003   0.002  -0.001  -0.000
  0.003   0.000   0.000  -0.000   0.000
  0.002   0.000   0.022  -0.001  -0.000
 -0.001  -0.000  -0.001   0.016  -0.001
 -0.000   0.000  -0.000  -0.001   0.022


------------------------ aborting loop because EDIFF is reached ----------------------------------------


 


 total charge     
 
# of ion       s       p       d       tot
------------------------------------------
    1        0.051   0.038   0.000   0.089
    2        0.051   0.038   0.000   0.089
    3        0.051   0.038   0.000   0.089
    4        0.051   0.038   0.000   0.089
    5        1.283   0.922   0.066   2.272
    6        1.283   0.922   0.066   2.272
    7        1.283   0.921   0.067   2.271
    8        1.283   0.921   0.067   2.271
    9        1.350   2.354   0.000   3.704
   10        1.350   2.354   0.000   3.704
   11        1.349   2.354   0.000   3.703
   12        1.349   2.354   0.000   3.703
   13        1.349   2.357   0.000   3.706
   14        1.349   2.357   0.000   3.706
   15        1.349   2.357   0.000   3.706
   16        1.349   2.357   0.000   3.706
--------------------------------------------------
tot         16.129  22.682   0.266  39.078
 
    CHARGE:  cpu time    0.0147: real time    0.0147
    FORLOC:  cpu time    0.0009: real time    0.0009
    FORNL :  cpu time    0.1060: real time    0.1060
    STRESS:  cpu time    0.2602: real time    0.2603
    FORCOR:  cpu time    0.0051: real time    0.0051
    FORHAR:  cpu time    0.0016: real time    0.0016
    MIXING:  cpu time    0.0003: real time    0.0003
    OFIELD:  cpu time    0.0000: real time    0.0000

  FORCE on cell =-STRESS in cart. coord.  units (eV):
  Direction    XX          YY          ZZ          XY          YZ          ZX
  --------------------------------------------------------------------------------------
  Alpha Z    15.29945    15.29945    15.29945
  Ewald    -843.33371  -865.00367  -782.87444     7.17751    13.97840    60.59728
  Hartree   153.66645   139.39835   203.07080     5.22257     9.66678    36.17398
  E(xc)    -258.17811  -258.01042  -256.23528    -0.00054     0.17322     0.23236
  Local    -567.16201  -531.01441  -673.28161   -12.60807   -23.12857   -93.91246
  n-local   925.65687   923.96061   910.30537    -0.05192    -1.35047    -1.31286
  augment  -209.21874  -209.02833  -206.62590    -0.02281     0.25158     0.49343
  Kinetic   783.44971   784.34810   790.35551     0.24308     0.33853    -2.22087
  Fock        0.00000     0.00000     0.00000     0.00000     0.00000     0.00000
  -------------------------------------------------------------------------------------
  Total       0.17991    -0.05031     0.01390    -0.04019    -0.07054     0.05085
  in kB       0.76261    -0.21325     0.05892    -0.17038    -0.29900     0.21553
  external pressure =        0.20 kB  Pullay stress =        0.00 kB


 VOLUME and BASIS-vectors are now :
 -----------------------------------------------------------------------------
  energy-cutoff  :      300.00
  volume of cell :      377.98
      direct lattice vectors                 reciprocal lattice vectors
     5.665134101  0.718803250 -0.593903281     0.172424727  0.021926153 -0.012510806
    -0.751893831  5.646999272 -0.465846865    -0.023432539  0.172776726 -0.014406391
     0.697630429  1.049707132 11.454479727     0.007987062  0.008163576  0.086067516

  length of vectors
     5.741353813  5.715851504 11.523613977     0.174262913  0.174952637  0.086821970


 FORCES acting on ions
    electron-ion (+dipol)            ewald-force                    non-local-force                 convergence-correction
 -----------------------------------------------------------------------------------------------
   0.516E+00 0.272E+01 -.731E+00   -.552E+00 -.262E+01 0.708E+00   0.987E-02 -.105E+00 0.295E-01   -.669E-04 -.336E-03 -.253E-02
   -.516E+00 -.272E+01 0.731E+00   0.552E+00 0.262E+01 -.708E+00   -.987E-02 0.105E+00 -.295E-01   0.669E-04 0.336E-03 0.253E-02
   -.125E+01 0.250E+01 -.840E-01   0.127E+01 -.239E+01 0.121E+00   0.359E-02 -.112E+00 -.257E-01   -.347E-03 -.738E-03 -.227E-02
   0.125E+01 -.250E+01 0.840E-01   -.127E+01 0.239E+01 -.121E+00   -.359E-02 0.112E+00 0.257E-01   0.347E-03 0.738E-03 0.227E-02
   0.168E+02 0.242E+02 -.284E+01   -.225E+02 -.312E+02 0.381E+01   0.559E+01 0.702E+01 -.946E+00   0.889E-02 0.450E-02 0.145E-01
   -.168E+02 -.242E+02 0.284E+01   0.225E+02 0.312E+02 -.381E+01   -.559E+01 -.702E+01 0.946E+00   -.889E-02 -.450E-02 -.145E-01
   -.236E+02 0.190E+02 0.233E+01   0.308E+02 -.243E+02 -.266E+01   -.723E+01 0.521E+01 0.330E+00   -.114E-02 -.402E-02 0.162E-01
   0.236E+02 -.190E+02 -.233E+01   -.308E+02 0.243E+02 0.266E+01   0.723E+01 -.521E+01 -.330E+00   0.114E-02 0.402E-02 -.162E-01
   -.684E-01 -.334E+02 0.335E+02   -.618E-01 0.357E+02 -.355E+02   0.133E+00 -.231E+01 0.202E+01   -.189E-02 0.143E-01 0.875E-02
   0.684E-01 0.334E+02 -.335E+02   0.618E-01 -.357E+02 0.355E+02   -.133E+00 0.231E+01 -.202E+01   0.189E-02 -.143E-01 -.875E-02
   0.102E+02 -.375E+02 -.235E+02   -.107E+02 0.401E+02 0.249E+02   0.542E+00 -.262E+01 -.148E+01   -.119E-02 -.865E-02 0.212E-01
   -.102E+02 0.375E+02 0.235E+02   0.107E+02 -.401E+02 -.249E+02   -.542E+00 0.262E+01 0.148E+01   0.119E-02 0.865E-02 -.212E-01
   -.313E+02 -.167E+02 0.299E+02   0.336E+02 0.172E+02 -.317E+02   -.225E+01 -.506E+00 0.189E+01   -.968E-02 0.555E-02 -.233E-01
   0.313E+02 0.167E+02 -.299E+02   -.336E+02 -.172E+02 0.317E+02   0.225E+01 0.506E+00 -.189E+01   0.968E-02 -.555E-02 0.233E-01
   0.342E+02 -.129E+02 -.300E+02   -.367E+02 0.131E+02 0.318E+02   0.235E+01 -.177E+00 -.179E+01   0.210E-01 0.340E-02 -.140E-01
   -.342E+02 0.129E+02 0.300E+02   0.367E+02 -.131E+02 -.318E+02   -.235E+01 0.177E+00 0.179E+01   -.210E-01 -.340E-02 0.140E-01
 -----------------------------------------------------------------------------------------------
   0.834E-12 0.592E-11 0.458E-10   -.142E-13 -.213E-13 0.711E-14   0.888E-15 0.133E-14 0.000E+00   0.227E-12 -.334E-12 -.149E-12
 
 
 POSITION                                       TOTAL-FORCE (eV/Angst)
 -----------------------------------------------------------------------------------
      2.93709      5.48376      9.38643        -0.026204     -0.005646      0.003661
      2.67378      1.93175      1.00830         0.026204      0.005646     -0.003661
      5.48693      5.57420      6.21994         0.019034     -0.003240      0.008740
      0.12394      1.84131      4.17479        -0.019034      0.003240     -0.008740
     -0.35032      4.54995      1.05325        -0.030331      0.013595      0.034884
      5.96119      2.86556      9.34148         0.030331     -0.013595     -0.034884
      2.41787      5.13162      3.67497         0.004844     -0.045506      0.009471
      3.19300      2.28389      6.71976        -0.004844      0.045506     -0.009471
      3.00885      1.99960      3.97268         0.001070     -0.025144     -0.011780
      2.60202      5.41591      6.42205        -0.001070      0.025144      0.011780
      5.51877      2.06753      0.66712         0.013895     -0.009895     -0.004943
      0.09210      5.34797      9.72761        -0.013895      0.009895      0.004943
      5.65438      2.73275      6.55898         0.000548      0.007031      0.021372
     -0.04351      4.68276      3.83575        -0.000548     -0.007031     -0.021372
      3.47122      2.67162      9.49102        -0.046229     -0.005613     -0.012316
      2.13965      4.74389      0.90371         0.046229      0.005613      0.012316
 -----------------------------------------------------------------------------------
    total drift:                                0.000000      0.000000      0.000000


--------------------------------------------------------------------------------------------------------



  FREE ENERGIE OF THE ION-ELECTRON SYSTEM (eV)
  ---------------------------------------------------
  free  energy   TOTEN  =       -66.16202492 eV

  energy  without entropy=      -66.16202492  energy(sigma->0) =      -66.16202492
 
 d Force = 0.4112257E-03[ 0.342E-03, 0.481E-03]  d Energy = 0.3965061E-03 0.147E-04
 d Force = 0.4989819E-01[ 0.479E-01, 0.519E-01]  d Ewald  =-0.1577582E+00 0.208E+00


--------------------------------------------------------------------------------------------------------


    POTLOK:  cpu time    0.1350: real time    0.1351


--------------------------------------------------------------------------------------------------------




--------------------------------------------------------------------------------------------------------


  
 reached required accuracy - stopping structural energy minimisation
     LOOP+:  cpu time    2.7521: real time    2.7551
    4ORBIT:  cpu time    0.0000: real time    0.0000
 


 total charge     
 
# of ion       s       p       d       tot
------------------------------------------
    1        0.051   0.038   0.000   0.089
    2        0.051   0.038   0.000   0.089
    3        0.051   0.038   0.000   0.089
    4        0.051   0.038   0.000   0.089
    5        1.283   0.922   0.066   2.272
    6        1.283   0.922   0.066   2.272
    7        1.283   0.921   0.067   2.271
    8        1.283   0.921   0.067   2.271
    9        1.350   2.354   0.000   3.704
   10        1.350   2.354   0.000   3.704
   11        1.349   2.354   0.000   3.703
   12        1.349   2.354   0.000   3.703
   13        1.349   2.357   0.000   3.706
   14        1.349   2.357   0.000   3.706
   15        1.349   2.357   0.000   3.706
   16        1.349   2.357   0.000   3.706
--------------------------------------------------
tot         16.129  22.682   0.266  39.078
 

 total amount of memory used by VASP MPI-rank0    38057. kBytes
=======================================================================

   base      :      30000. kBytes
   nonlr-proj:       1317. kBytes
   fftplans  :        539. kBytes
   grid      :       2363. kBytes
   one-center:        129. kBytes
   wavefun   :       3709. kBytes
 
  
  
 General timing and accounting informations for this job:
 ========================================================
  
                  Total CPU time used (sec):      144.374
                            User time (sec):      141.516
                          System time (sec):        2.858
                         Elapsed time (sec):      144.482
  
                   Maximum memory used (kb):       75624.
                   Average memory used (kb):           0.
  
                          Minor page faults:        47904
                          Major page faults:            0
                 Voluntary context switches:          296
