PROCAR new format
# of k-points:    9         # of bands:   56         # of ions:   16

 k-point     1 :    0.00000000 0.00000000 0.25000000     weight = 0.11111111

band     1 # energy   -9.58918381 # occ.  2.00000000
 
ion      s      p      d    tot
    1  0.000  0.000  0.000  0.000
    2  0.000  0.000  0.000  0.000
    3  0.001  0.000  0.000  0.001
    4  0.001  0.000  0.000  0.001
    5  0.031  0.001  0.000  0.032
    6  0.031  0.001  0.000  0.032
    7  0.043  0.001  0.000  0.044
    8  0.043  0.001  0.000  0.044
    9  0.067  0.001  0.000  0.068
   10  0.067  0.001  0.000  0.068
   11  0.042  0.001  0.000  0.043
   12  0.042  0.001  0.000  0.043
   13  0.058  0.001  0.000  0.059
   14  0.058  0.001  0.000  0.059
   15  0.047  0.001  0.000  0.048
   16  0.047  0.001  0.000  0.048
tot    0.578  0.012  0.000  0.589
 
band     2 # energy   -9.26864867 # occ.  2.00000000
 
ion      s      p      d    tot
    1  0.000  0.000  0.000  0.000
    2  0.000  0.000  0.000  0.000
    3  0.000  0.000  0.000  0.000
    4  0.000  0.000  0.000  0.000
    5  0.038  0.002  0.000  0.040
    6  0.038  0.002  0.000  0.040
    7  0.030  0.002  0.000  0.032
    8  0.030  0.002  0.000  0.032
    9  0.049  0.001  0.000  0.050
   10  0.049  0.001  0.000  0.050
   11  0.064  0.001  0.000  0.065
   12  0.064  0.001  0.000  0.065
   13  0.051  0.001  0.000  0.052
   14  0.051  0.001  0.000  0.052
   15  0.060  0.001  0.000  0.061
   16  0.060  0.001  0.000  0.061
tot    0.586  0.016  0.000  0.602
 
band     3 # energy   -8.72277409 # occ.  2.00000000
 
ion      s      p      d    tot
    1  0.000  0.000  0.000  0.000
    2  0.000  0.000  0.000  0.000
    3  0.000  0.000  0.000  0.000
    4  0.000  0.000  0.000  0.000
    5  0.029  0.003  0.000  0.032
    6  0.029  0.003  0.000  0.032
    7  0.025  0.003  0.000  0.028
    8  0.025  0.003  0.000  0.028
    9  0.058  0.001  0.000  0.059
   10  0.058  0.001  0.000  0.059
   11  0.060  0.001  0.000  0.061
   12  0.060  0.001  0.000  0.061
   13  0.062  0.001  0.000  0.063
   14  0.062  0.001  0.000  0.063
   15  0.068  0.001  0.000  0.069
   16  0.068  0.001  0.000  0.069
tot    0.605  0.020  0.001  0.626
 
band     4 # energy   -8.14088711 # occ.  2.00000000
 
ion      s      p      d    tot
    1  0.000  0.000  0.000  0.000
    2  0.000  0.000  0.000  0.000
    3  0.000  0.000  0.000  0.000
    4  0.000  0.000  0.000  0.000
    5  0.017  0.003  0.000  0.020
    6  0.017  0.003  0.000  0.020
    7  0.016  0.003  0.000  0.020
    8  0.016  0.003  0.000  0.020
    9  0.069  0.001  0.000  0.069
   10  0.069  0.001  0.000  0.069
   11  0.066  0.001  0.000  0.067
   12  0.066  0.001  0.000  0.067
   13  0.078  0.001  0.000  0.079
   14  0.078  0.001  0.000  0.079
   15  0.074  0.001  0.000  0.074
   16  0.074  0.001  0.000  0.074
tot    0.639  0.017  0.002  0.659
 
band     5 # energy   -7.77859666 # occ.  2.00000000
 
ion      s      p      d    tot
    1  0.000  0.000  0.000  0.000
    2  0.000  0.000  0.000  0.000
    3  0.000  0.000  0.000  0.000
    4  0.000  0.000  0.000  0.000
    5  0.000  0.001  0.000  0.001
    6  0.000  0.001  0.000  0.001
    7  0.000  0.005  0.001  0.006
    8  0.000  0.005  0.001  0.006
    9  0.243  0.000  0.000  0.243
   10  0.243  0.000  0.000  0.243
   11  0.005  0.000  0.000  0.005
   12  0.005  0.000  0.000  0.005
   13  0.080  0.000  0.000  0.080
   14  0.080  0.000  0.000  0.080
   15  0.003  0.000  0.000  0.003
   16  0.003  0.000  0.000  0.003
tot    0.662  0.013  0.003  0.678
 
band     6 # energy   -7.74986055 # occ.  2.00000000
 
ion      s      p      d    tot
    1  0.000  0.000  0.000  0.000
    2  0.000  0.000  0.000  0.000
    3  0.000  0.000  0.000  0.000
    4  0.000  0.000  0.000  0.000
    5  0.001  0.003  0.001  0.004
    6  0.001  0.003  0.001  0.004
    7  0.001  0.003  0.001  0.005
    8  0.001  0.003  0.001  0.005
    9  0.056  0.000  0.000  0.056
   10  0.056  0.000  0.000  0.056
   11  0.038  0.000  0.000  0.038
   12  0.038  0.000  0.000  0.038
   13  0.152  0.000  0.000  0.152
   14  0.152  0.000  0.000  0.152
   15  0.084  0.000  0.000  0.085
   16  0.084  0.000  0.000  0.085
tot    0.662  0.015  0.003  0.680
 
band     7 # energy   -7.71839471 # occ.  2.00000000
 
ion      s      p      d    tot
    1  0.000  0.000  0.000  0.000
    2  0.000  0.000  0.000  0.000
    3  0.000  0.000  0.000  0.000
    4  0.000  0.000  0.000  0.000
    5  0.000  0.005  0.001  0.006
    6  0.000  0.005  0.001  0.006
    7  0.001  0.001  0.000  0.001
    8  0.001  0.001  0.000  0.001
    9  0.003  0.000  0.000  0.003
   10  0.003  0.000  0.000  0.003
   11  0.222  0.000  0.000  0.223
   12  0.222  0.000  0.000  0.223
   13  0.010  0.000  0.000  0.010
   14  0.010  0.000  0.000  0.010
   15  0.096  0.000  0.000  0.096
   16  0.096  0.000  0.000  0.096
tot    0.663  0.013  0.003  0.679
 
band     8 # energy   -7.68656767 # occ.  2.00000000
 
ion      s      p      d    tot
    1  0.000  0.000  0.000  0.000
    2  0.000  0.000  0.000  0.000
    3  0.000  0.000  0.000  0.000
    4  0.000  0.000  0.000  0.000
    5  0.000  0.003  0.001  0.004
    6  0.000  0.003  0.001  0.004
    7  0.000  0.001  0.001  0.002
    8  0.000  0.001  0.001  0.002
    9  0.031  0.000  0.000  0.031
   10  0.031  0.000  0.000  0.031
   11  0.077  0.000  0.000  0.078
   12  0.077  0.000  0.000  0.078
   13  0.083  0.000  0.000  0.083
   14  0.083  0.000  0.000  0.083
   15  0.143  0.000  0.000  0.143
   16  0.143  0.000  0.000  0.143
tot    0.668  0.010  0.003  0.682
 
band     9 # energy   -4.39220157 # occ.  2.00000000
 
ion      s      p      d    tot
    1  0.000  0.000  0.000  0.000
    2  0.000  0.000  0.000  0.000
    3  0.000  0.000  0.000  0.000
    4  0.000  0.000  0.000  0.000
    5  0.116  0.000  0.000  0.116
    6  0.116  0.000  0.000  0.116
    7  0.138  0.000  0.000  0.138
    8  0.138  0.000  0.000  0.138
    9  0.011  0.007  0.000  0.018
   10  0.011  0.007  0.000  0.018
   11  0.011  0.005  0.000  0.017
   12  0.011  0.005  0.000  0.017
   13  0.015  0.007  0.000  0.022
   14  0.015  0.007  0.000  0.022
   15  0.011  0.006  0.000  0.017
   16  0.011  0.006  0.000  0.017
tot    0.604  0.051  0.001  0.656
 
band    10 # energy   -3.85991709 # occ.  2.00000000
 
ion      s      p      d    tot
    1  0.000  0.000  0.000  0.000
    2  0.000  0.000  0.000  0.000
    3  0.000  0.000  0.000  0.000
    4  0.000  0.000  0.000  0.000
    5  0.123  0.001  0.000  0.124
    6  0.123  0.001  0.000  0.124
    7  0.110  0.001  0.000  0.111
    8  0.110  0.001  0.000  0.111
    9  0.021  0.006  0.000  0.026
   10  0.021  0.006  0.000  0.026
   11  0.020  0.006  0.000  0.026
   12  0.020  0.006  0.000  0.026
   13  0.020  0.006  0.000  0.026
   14  0.020  0.006  0.000  0.026
   15  0.023  0.006  0.000  0.029
   16  0.023  0.006  0.000  0.029
tot    0.632  0.053  0.001  0.685
 
band    11 # energy   -3.25264107 # occ.  2.00000000
 
ion      s      p      d    tot
    1  0.000  0.000  0.000  0.000
    2  0.000  0.000  0.000  0.000
    3  0.000  0.000  0.000  0.000
    4  0.000  0.000  0.000  0.000
    5  0.107  0.001  0.000  0.108
    6  0.107  0.001  0.000  0.108
    7  0.109  0.001  0.000  0.110
    8  0.109  0.001  0.000  0.110
    9  0.030  0.007  0.000  0.036
   10  0.030  0.007  0.000  0.036
   11  0.027  0.006  0.000  0.033
   12  0.027  0.006  0.000  0.033
   13  0.027  0.006  0.000  0.034
   14  0.027  0.006  0.000  0.034
   15  0.028  0.006  0.000  0.034
   16  0.028  0.006  0.000  0.034
tot    0.657  0.054  0.000  0.711
 
band    12 # energy   -2.98377234 # occ.  2.00000000
 
ion      s      p      d    tot
    1  0.001  0.000  0.000  0.001
    2  0.001  0.000  0.000  0.001
    3  0.001  0.000  0.000  0.001
    4  0.001  0.000  0.000  0.001
    5  0.107  0.000  0.000  0.107
    6  0.107  0.000  0.000  0.107
    7  0.097  0.000  0.000  0.097
    8  0.097  0.000  0.000  0.097
    9  0.028  0.008  0.000  0.036
   10  0.028  0.008  0.000  0.036
   11  0.031  0.008  0.000  0.039
   12  0.031  0.008  0.000  0.039
   13  0.028  0.007  0.000  0.035
   14  0.028  0.007  0.000  0.035
   15  0.029  0.008  0.000  0.037
   16  0.029  0.008  0.000  0.037
tot    0.642  0.064  0.000  0.705
 
band    13 # energy   -0.98743673 # occ.  2.00000000
 
ion      s      p      d    tot
    1  0.000  0.001  0.000  0.001
    2  0.000  0.001  0.000  0.001
    3  0.000  0.001  0.000  0.001
    4  0.000  0.001  0.000  0.001
    5  0.001  0.027  0.000  0.028
    6  0.001  0.027  0.000  0.028
    7  0.001  0.047  0.000  0.048
    8  0.001  0.047  0.000  0.048
    9  0.000  0.062  0.000  0.062
   10  0.000  0.062  0.000  0.062
   11  0.000  0.031  0.000  0.031
   12  0.000  0.031  0.000  0.031
   13  0.000  0.019  0.000  0.020
   14  0.000  0.019  0.000  0.020
   15  0.000  0.016  0.000  0.016
   16  0.000  0.016  0.000  0.016
tot    0.007  0.405  0.001  0.413
 
band    14 # energy   -0.91382800 # occ.  2.00000000
 
ion      s      p      d    tot
    1  0.000  0.001  0.000  0.001
    2  0.000  0.001  0.000  0.001
    3  0.000  0.001  0.000  0.001
    4  0.000  0.001  0.000  0.001
    5  0.001  0.033  0.000  0.035
    6  0.001  0.033  0.000  0.035
    7  0.001  0.038  0.000  0.040
    8  0.001  0.038  0.000  0.040
    9  0.001  0.014  0.000  0.015
   10  0.001  0.014  0.000  0.015
   11  0.001  0.013  0.000  0.013
   12  0.001  0.013  0.000  0.013
   13  0.000  0.055  0.000  0.056
   14  0.000  0.055  0.000  0.056
   15  0.000  0.046  0.000  0.047
   16  0.000  0.046  0.000  0.047
tot    0.009  0.402  0.001  0.413
 
band    15 # energy   -0.80496441 # occ.  2.00000000
 
ion      s      p      d    tot
    1  0.000  0.001  0.000  0.001
    2  0.000  0.001  0.000  0.001
    3  0.000  0.001  0.000  0.001
    4  0.000  0.001  0.000  0.001
    5  0.000  0.027  0.000  0.028
    6  0.000  0.027  0.000  0.028
    7  0.001  0.035  0.000  0.036
    8  0.001  0.035  0.000  0.036
    9  0.002  0.039  0.000  0.041
   10  0.002  0.039  0.000  0.041
   11  0.002  0.027  0.000  0.030
   12  0.002  0.027  0.000  0.030
   13  0.004  0.030  0.000  0.034
   14  0.004  0.030  0.000  0.034
   15  0.003  0.031  0.000  0.034
   16  0.003  0.031  0.000  0.034
tot    0.026  0.383  0.001  0.410
 
band    16 # energy   -0.66561011 # occ.  2.00000000
 
ion      s      p      d    tot
    1  0.000  0.000  0.000  0.001
    2  0.000  0.000  0.000  0.001
    3  0.000  0.000  0.000  0.000
    4  0.000  0.000  0.000  0.000
    5  0.002  0.048  0.000  0.051
    6  0.002  0.048  0.000  0.051
    7  0.002  0.027  0.000  0.029
    8  0.002  0.027  0.000  0.029
    9  0.000  0.042  0.000  0.042
   10  0.000  0.042  0.000  0.042
   11  0.001  0.071  0.000  0.071
   12  0.001  0.071  0.000  0.071
   13  0.000  0.006  0.000  0.006
   14  0.000  0.006  0.000  0.006
   15  0.001  0.013  0.000  0.014
   16  0.001  0.013  0.000  0.014
tot    0.013  0.414  0.002  0.428
 
band    17 # energy   -0.56350580 # occ.  2.00000000
 
ion      s      p      d    tot
    1  0.000  0.000  0.000  0.001
    2  0.000  0.000  0.000  0.001
    3  0.000  0.000  0.000  0.000
    4  0.000  0.000  0.000  0.000
    5  0.006  0.038  0.000  0.044
    6  0.006  0.038  0.000  0.044
    7  0.005  0.036  0.000  0.041
    8  0.005  0.036  0.000  0.041
    9  0.001  0.009  0.000  0.010
   10  0.001  0.009  0.000  0.010
   11  0.001  0.014  0.000  0.015
   12  0.001  0.014  0.000  0.015
   13  0.000  0.052  0.000  0.052
   14  0.000  0.052  0.000  0.052
   15  0.000  0.049  0.000  0.050
   16  0.000  0.049  0.000  0.050
tot    0.026  0.398  0.002  0.426
 
band    18 # energy   -0.08004492 # occ.  2.00000000
 
ion      s      p      d    tot
    1  0.001  0.000  0.000  0.001
    2  0.001  0.000  0.000  0.001
    3  0.001  0.000  0.000  0.001
    4  0.001  0.000  0.000  0.001
    5  0.000  0.034  0.001  0.035
    6  0.000  0.034  0.001  0.035
    7  0.000  0.033  0.001  0.034
    8  0.000  0.033  0.001  0.034
    9  0.001  0.039  0.000  0.040
   10  0.001  0.039  0.000  0.040
   11  0.001  0.040  0.000  0.041
   12  0.001  0.040  0.000  0.041
   13  0.003  0.032  0.000  0.036
   14  0.003  0.032  0.000  0.036
   15  0.003  0.032  0.000  0.035
   16  0.003  0.032  0.000  0.035
tot    0.019  0.421  0.003  0.443
 
band    19 # energy    0.08933153 # occ.  2.00000000
 
ion      s      p      d    tot
    1  0.000  0.001  0.000  0.001
    2  0.000  0.001  0.000  0.001
    3  0.000  0.000  0.000  0.000
    4  0.000  0.000  0.000  0.000
    5  0.003  0.038  0.000  0.041
    6  0.003  0.038  0.000  0.041
    7  0.002  0.035  0.000  0.038
    8  0.002  0.035  0.000  0.038
    9  0.000  0.020  0.000  0.021
   10  0.000  0.020  0.000  0.021
   11  0.001  0.020  0.000  0.020
   12  0.001  0.020  0.000  0.020
   13  0.001  0.050  0.000  0.051
   14  0.001  0.050  0.000  0.051
   15  0.001  0.057  0.000  0.057
   16  0.001  0.057  0.000  0.057
tot    0.015  0.442  0.002  0.459
 
band    20 # energy    0.10628920 # occ.  2.00000000
 
ion      s      p      d    tot
    1  0.000  0.000  0.000  0.001
    2  0.000  0.000  0.000  0.001
    3  0.000  0.001  0.000  0.001
    4  0.000  0.001  0.000  0.001
    5  0.002  0.034  0.000  0.037
    6  0.002  0.034  0.000  0.037
    7  0.003  0.036  0.000  0.039
    8  0.003  0.036  0.000  0.039
    9  0.002  0.050  0.000  0.052
   10  0.002  0.050  0.000  0.052
   11  0.002  0.048  0.000  0.050
   12  0.002  0.048  0.000  0.050
   13  0.000  0.024  0.000  0.024
   14  0.000  0.024  0.000  0.024
   15  0.000  0.020  0.000  0.021
   16  0.000  0.020  0.000  0.021
tot    0.020  0.428  0.002  0.450
 
band    21 # energy    0.53990618 # occ.  2.00000000
 
ion      s      p      d    tot
    1  0.000  0.000  0.000  0.000
    2  0.000  0.000  0.000  0.000
    3  0.000  0.000  0.000  0.000
    4  0.000  0.000  0.000  0.000
    5  0.003  0.040  0.000  0.043
    6  0.003  0.040  0.000  0.043
    7  0.003  0.035  0.000  0.039
    8  0.003  0.035  0.000  0.039
    9  0.000  0.064  0.000  0.064
   10  0.000  0.064  0.000  0.064
   11  0.000  0.067  0.000  0.068
   12  0.000  0.067  0.000  0.068
   13  0.000  0.011  0.000  0.011
   14  0.000  0.011  0.000  0.011
   15  0.000  0.012  0.000  0.012
   16  0.000  0.012  0.000  0.012
tot    0.013  0.458  0.001  0.473
 
band    22 # energy    0.60941921 # occ.  2.00000000
 
ion      s      p      d    tot
    1  0.000  0.000  0.000  0.000
    2  0.000  0.000  0.000  0.000
    3  0.000  0.000  0.000  0.000
    4  0.000  0.000  0.000  0.000
    5  0.004  0.039  0.000  0.043
    6  0.004  0.039  0.000  0.043
    7  0.003  0.037  0.000  0.041
    8  0.003  0.037  0.000  0.041
    9  0.001  0.007  0.000  0.008
   10  0.001  0.007  0.000  0.008
   11  0.001  0.009  0.000  0.009
   12  0.001  0.009  0.000  0.009
   13  0.001  0.066  0.000  0.067
   14  0.001  0.066  0.000  0.067
   15  0.001  0.070  0.000  0.070
   16  0.001  0.070  0.000  0.070
tot    0.020  0.457  0.001  0.477
 
band    23 # energy    1.03020642 # occ.  2.00000000
 
ion      s      p      d    tot
    1  0.000  0.001  0.000  0.001
    2  0.000  0.001  0.000  0.001
    3  0.000  0.001  0.000  0.001
    4  0.000  0.001  0.000  0.001
    5  0.002  0.031  0.001  0.033
    6  0.002  0.031  0.001  0.033
    7  0.002  0.030  0.001  0.032
    8  0.002  0.030  0.001  0.032
    9  0.001  0.044  0.000  0.045
   10  0.001  0.044  0.000  0.045
   11  0.001  0.042  0.000  0.043
   12  0.001  0.042  0.000  0.043
   13  0.001  0.041  0.000  0.042
   14  0.001  0.041  0.000  0.042
   15  0.001  0.040  0.000  0.041
   16  0.001  0.040  0.000  0.041
tot    0.013  0.459  0.002  0.475
 
band    24 # energy    1.90020372 # occ.  2.00000000
 
ion      s      p      d    tot
    1  0.002  0.000  0.000  0.002
    2  0.002  0.000  0.000  0.002
    3  0.002  0.000  0.000  0.002
    4  0.002  0.000  0.000  0.002
    5  0.003  0.019  0.001  0.024
    6  0.003  0.019  0.001  0.024
    7  0.003  0.020  0.001  0.023
    8  0.003  0.020  0.001  0.023
    9  0.001  0.063  0.000  0.065
   10  0.001  0.063  0.000  0.065
   11  0.001  0.050  0.000  0.052
   12  0.001  0.050  0.000  0.052
   13  0.001  0.045  0.000  0.047
   14  0.001  0.045  0.000  0.047
   15  0.001  0.040  0.000  0.042
   16  0.001  0.040  0.000  0.042
tot    0.030  0.477  0.003  0.511
 
band    25 # energy    2.19346382 # occ.  2.00000000
 
ion      s      p      d    tot
    1  0.000  0.002  0.000  0.003
    2  0.000  0.002  0.000  0.003
    3  0.000  0.004  0.000  0.004
    4  0.000  0.004  0.000  0.004
    5  0.000  0.003  0.001  0.003
    6  0.000  0.003  0.001  0.003
    7  0.000  0.002  0.001  0.003
    8  0.000  0.002  0.001  0.003
    9  0.000  0.122  0.000  0.122
   10  0.000  0.122  0.000  0.122
   11  0.000  0.068  0.000  0.068
   12  0.000  0.068  0.000  0.068
   13  0.000  0.017  0.000  0.017
   14  0.000  0.017  0.000  0.017
   15  0.000  0.021  0.000  0.021
   16  0.000  0.021  0.000  0.021
tot    0.003  0.478  0.002  0.484
 
band    26 # energy    2.20741882 # occ.  2.00000000
 
ion      s      p      d    tot
    1  0.000  0.003  0.000  0.003
    2  0.000  0.003  0.000  0.003
    3  0.000  0.004  0.000  0.004
    4  0.000  0.004  0.000  0.004
    5  0.001  0.001  0.001  0.003
    6  0.001  0.001  0.001  0.003
    7  0.001  0.001  0.001  0.003
    8  0.001  0.001  0.001  0.003
    9  0.000  0.031  0.000  0.031
   10  0.000  0.031  0.000  0.031
   11  0.000  0.032  0.000  0.032
   12  0.000  0.032  0.000  0.032
   13  0.000  0.093  0.000  0.093
   14  0.000  0.093  0.000  0.093
   15  0.000  0.073  0.000  0.073
   16  0.000  0.073  0.000  0.073
tot    0.006  0.475  0.003  0.485
 
band    27 # energy    2.22971804 # occ.  2.00000000
 
ion      s      p      d    tot
    1  0.000  0.003  0.000  0.003
    2  0.000  0.003  0.000  0.003
    3  0.000  0.002  0.000  0.002
    4  0.000  0.002  0.000  0.002
    5  0.002  0.001  0.001  0.004
    6  0.002  0.001  0.001  0.004
    7  0.002  0.002  0.001  0.005
    8  0.002  0.002  0.001  0.005
    9  0.000  0.070  0.000  0.070
   10  0.000  0.070  0.000  0.070
   11  0.000  0.085  0.000  0.085
   12  0.000  0.085  0.000  0.085
   13  0.000  0.045  0.000  0.045
   14  0.000  0.045  0.000  0.045
   15  0.000  0.030  0.000  0.031
   16  0.000  0.030  0.000  0.031
tot    0.010  0.477  0.005  0.491
 
band    28 # energy    2.34026530 # occ.  2.00000000
 
ion      s      p      d    tot
    1  0.000  0.003  0.000  0.003
    2  0.000  0.003  0.000  0.003
    3  0.000  0.003  0.000  0.003
    4  0.000  0.003  0.000  0.003
    5  0.000  0.002  0.001  0.003
    6  0.000  0.002  0.001  0.003
    7  0.000  0.002  0.001  0.003
    8  0.000  0.002  0.001  0.003
    9  0.000  0.017  0.000  0.017
   10  0.000  0.017  0.000  0.017
   11  0.000  0.020  0.000  0.020
   12  0.000  0.020  0.000  0.020
   13  0.000  0.088  0.000  0.088
   14  0.000  0.088  0.000  0.088
   15  0.000  0.112  0.000  0.112
   16  0.000  0.112  0.000  0.112
tot    0.002  0.493  0.004  0.498
 
band    29 # energy    2.48748587 # occ.  2.00000000
 
ion      s      p      d    tot
    1  0.001  0.002  0.000  0.003
    2  0.001  0.002  0.000  0.003
    3  0.001  0.002  0.000  0.003
    4  0.001  0.002  0.000  0.003
    5  0.004  0.002  0.001  0.007
    6  0.004  0.002  0.001  0.007
    7  0.005  0.002  0.001  0.008
    8  0.005  0.002  0.001  0.008
    9  0.000  0.071  0.000  0.071
   10  0.000  0.071  0.000  0.071
   11  0.000  0.076  0.000  0.076
   12  0.000  0.076  0.000  0.076
   13  0.000  0.046  0.000  0.046
   14  0.000  0.046  0.000  0.046
   15  0.000  0.041  0.000  0.041
   16  0.000  0.041  0.000  0.041
tot    0.023  0.483  0.005  0.511
 
band    30 # energy    2.58218092 # occ.  2.00000000
 
ion      s      p      d    tot
    1  0.000  0.002  0.000  0.003
    2  0.000  0.002  0.000  0.003
    3  0.000  0.002  0.000  0.002
    4  0.000  0.002  0.000  0.002
    5  0.002  0.001  0.001  0.004
    6  0.002  0.001  0.001  0.004
    7  0.002  0.001  0.001  0.004
    8  0.002  0.001  0.001  0.004
    9  0.000  0.027  0.000  0.027
   10  0.000  0.027  0.000  0.027
   11  0.000  0.034  0.000  0.034
   12  0.000  0.034  0.000  0.034
   13  0.000  0.094  0.000  0.094
   14  0.000  0.094  0.000  0.094
   15  0.000  0.089  0.000  0.089
   16  0.000  0.089  0.000  0.089
tot    0.008  0.504  0.004  0.516
 
band    31 # energy    2.62116812 # occ.  2.00000000
 
ion      s      p      d    tot
    1  0.000  0.002  0.000  0.002
    2  0.000  0.002  0.000  0.002
    3  0.000  0.002  0.000  0.002
    4  0.000  0.002  0.000  0.002
    5  0.001  0.001  0.001  0.003
    6  0.001  0.001  0.001  0.003
    7  0.001  0.002  0.001  0.004
    8  0.001  0.002  0.001  0.004
    9  0.000  0.088  0.000  0.088
   10  0.000  0.088  0.000  0.088
   11  0.000  0.085  0.000  0.085
   12  0.000  0.085  0.000  0.085
   13  0.000  0.037  0.000  0.037
   14  0.000  0.037  0.000  0.037
   15  0.000  0.038  0.000  0.038
   16  0.000  0.038  0.000  0.038
tot    0.005  0.510  0.004  0.519
 
band    32 # energy    2.63341495 # occ.  2.00000000
 
ion      s      p      d    tot
    1  0.000  0.002  0.000  0.002
    2  0.000  0.002  0.000  0.002
    3  0.000  0.002  0.000  0.002
    4  0.000  0.002  0.000  0.002
    5  0.001  0.002  0.002  0.005
    6  0.001  0.002  0.002  0.005
    7  0.001  0.001  0.001  0.003
    8  0.001  0.001  0.001  0.003
    9  0.000  0.054  0.000  0.054
   10  0.000  0.054  0.000  0.054
   11  0.000  0.092  0.000  0.092
   12  0.000  0.092  0.000  0.092
   13  0.000  0.050  0.000  0.050
   14  0.000  0.050  0.000  0.050
   15  0.000  0.054  0.000  0.054
   16  0.000  0.054  0.000  0.054
tot    0.006  0.512  0.005  0.523
 
band    33 # energy    2.72356754 # occ.  2.00000000
 
ion      s      p      d    tot
    1  0.001  0.001  0.000  0.003
    2  0.001  0.001  0.000  0.003
    3  0.001  0.001  0.000  0.003
    4  0.001  0.001  0.000  0.003
    5  0.011  0.003  0.001  0.015
    6  0.011  0.003  0.001  0.015
    7  0.012  0.003  0.001  0.016
    8  0.012  0.003  0.001  0.016
    9  0.000  0.026  0.000  0.027
   10  0.000  0.026  0.000  0.027
   11  0.000  0.022  0.000  0.023
   12  0.000  0.022  0.000  0.023
   13  0.000  0.081  0.000  0.082
   14  0.000  0.081  0.000  0.082
   15  0.000  0.091  0.000  0.092
   16  0.000  0.091  0.000  0.092
tot    0.054  0.460  0.005  0.519
 
band    34 # energy    2.94475565 # occ.  2.00000000
 
ion      s      p      d    tot
    1  0.001  0.001  0.000  0.002
    2  0.001  0.001  0.000  0.002
    3  0.001  0.001  0.000  0.002
    4  0.001  0.001  0.000  0.002
    5  0.007  0.003  0.001  0.011
    6  0.007  0.003  0.001  0.011
    7  0.009  0.004  0.001  0.014
    8  0.009  0.004  0.001  0.014
    9  0.000  0.060  0.000  0.060
   10  0.000  0.060  0.000  0.060
   11  0.000  0.046  0.000  0.046
   12  0.000  0.046  0.000  0.046
   13  0.000  0.062  0.000  0.062
   14  0.000  0.062  0.000  0.062
   15  0.000  0.072  0.000  0.072
   16  0.000  0.072  0.000  0.072
tot    0.037  0.498  0.005  0.540
 
band    35 # energy    3.02753527 # occ.  2.00000000
 
ion      s      p      d    tot
    1  0.001  0.001  0.000  0.001
    2  0.001  0.001  0.000  0.001
    3  0.001  0.001  0.000  0.002
    4  0.001  0.001  0.000  0.002
    5  0.014  0.003  0.002  0.019
    6  0.014  0.003  0.002  0.019
    7  0.010  0.002  0.002  0.014
    8  0.010  0.002  0.002  0.014
    9  0.001  0.078  0.000  0.079
   10  0.001  0.078  0.000  0.079
   11  0.001  0.108  0.000  0.109
   12  0.001  0.108  0.000  0.109
   13  0.001  0.027  0.000  0.028
   14  0.001  0.027  0.000  0.028
   15  0.001  0.027  0.000  0.028
   16  0.001  0.027  0.000  0.028
tot    0.058  0.495  0.008  0.561
 
band    36 # energy    3.11710511 # occ.  2.00000000
 
ion      s      p      d    tot
    1  0.001  0.001  0.000  0.001
    2  0.001  0.001  0.000  0.001
    3  0.001  0.001  0.000  0.001
    4  0.001  0.001  0.000  0.001
    5  0.010  0.003  0.002  0.015
    6  0.010  0.003  0.002  0.015
    7  0.010  0.003  0.002  0.014
    8  0.010  0.003  0.002  0.014
    9  0.001  0.048  0.000  0.049
   10  0.001  0.048  0.000  0.049
   11  0.001  0.048  0.000  0.048
   12  0.001  0.048  0.000  0.048
   13  0.001  0.076  0.000  0.076
   14  0.001  0.076  0.000  0.076
   15  0.000  0.074  0.000  0.075
   16  0.000  0.074  0.000  0.075
tot    0.049  0.507  0.006  0.562
 
band    37 # energy    5.99672900 # occ.  0.00000000
 
ion      s      p      d    tot
    1  0.005  0.000  0.000  0.005
    2  0.005  0.000  0.000  0.005
    3  0.005  0.000  0.000  0.005
    4  0.005  0.000  0.000  0.005
    5  0.000  0.084  0.000  0.084
    6  0.000  0.084  0.000  0.084
    7  0.000  0.080  0.000  0.081
    8  0.000  0.080  0.000  0.081
    9  0.007  0.010  0.000  0.017
   10  0.007  0.010  0.000  0.017
   11  0.007  0.009  0.000  0.016
   12  0.007  0.009  0.000  0.016
   13  0.007  0.010  0.000  0.016
   14  0.007  0.010  0.000  0.016
   15  0.006  0.008  0.000  0.015
   16  0.006  0.008  0.000  0.015
tot    0.073  0.404  0.001  0.478
 
band    38 # energy    6.75099308 # occ.  0.00000000
 
ion      s      p      d    tot
    1  0.003  0.001  0.000  0.004
    2  0.003  0.001  0.000  0.004
    3  0.003  0.001  0.000  0.004
    4  0.003  0.001  0.000  0.004
    5  0.000  0.067  0.001  0.068
    6  0.000  0.067  0.001  0.068
    7  0.000  0.068  0.001  0.069
    8  0.000  0.068  0.001  0.069
    9  0.008  0.021  0.000  0.029
   10  0.008  0.021  0.000  0.029
   11  0.007  0.022  0.000  0.029
   12  0.007  0.022  0.000  0.029
   13  0.007  0.023  0.000  0.030
   14  0.007  0.023  0.000  0.030
   15  0.007  0.023  0.000  0.031
   16  0.007  0.023  0.000  0.031
tot    0.072  0.454  0.003  0.529
 
band    39 # energy    7.57194901 # occ.  0.00000000
 
ion      s      p      d    tot
    1  0.013  0.000  0.000  0.014
    2  0.013  0.000  0.000  0.014
    3  0.017  0.000  0.000  0.017
    4  0.017  0.000  0.000  0.017
    5  0.000  0.069  0.000  0.070
    6  0.000  0.069  0.000  0.070
    7  0.000  0.052  0.000  0.053
    8  0.000  0.052  0.000  0.053
    9  0.001  0.018  0.000  0.020
   10  0.001  0.018  0.000  0.020
   11  0.002  0.026  0.000  0.028
   12  0.002  0.026  0.000  0.028
   13  0.001  0.020  0.000  0.022
   14  0.001  0.020  0.000  0.022
   15  0.002  0.019  0.000  0.020
   16  0.002  0.019  0.000  0.020
tot    0.073  0.412  0.001  0.485
 
band    40 # energy    7.66063290 # occ.  0.00000000
 
ion      s      p      d    tot
    1  0.012  0.004  0.000  0.016
    2  0.012  0.004  0.000  0.016
    3  0.008  0.003  0.000  0.011
    4  0.008  0.003  0.000  0.011
    5  0.000  0.048  0.001  0.049
    6  0.000  0.048  0.001  0.049
    7  0.000  0.066  0.001  0.067
    8  0.000  0.066  0.001  0.067
    9  0.004  0.021  0.000  0.025
   10  0.004  0.021  0.000  0.025
   11  0.003  0.013  0.000  0.016
   12  0.003  0.013  0.000  0.016
   13  0.003  0.014  0.000  0.017
   14  0.003  0.014  0.000  0.017
   15  0.003  0.016  0.000  0.019
   16  0.003  0.016  0.000  0.019
tot    0.067  0.368  0.005  0.439
 
band    41 # energy    8.02784956 # occ.  0.00000000
 
ion      s      p      d    tot
    1  0.000  0.002  0.000  0.002
    2  0.000  0.002  0.000  0.002
    3  0.000  0.001  0.000  0.001
    4  0.000  0.001  0.000  0.001
    5  0.002  0.049  0.013  0.064
    6  0.002  0.049  0.013  0.064
    7  0.000  0.010  0.006  0.016
    8  0.000  0.010  0.006  0.016
    9  0.000  0.003  0.000  0.003
   10  0.000  0.003  0.000  0.003
   11  0.000  0.027  0.000  0.028
   12  0.000  0.027  0.000  0.028
   13  0.000  0.005  0.000  0.005
   14  0.000  0.005  0.000  0.005
   15  0.000  0.012  0.000  0.012
   16  0.000  0.012  0.000  0.012
tot    0.005  0.218  0.039  0.262
 
band    42 # energy    8.15967690 # occ.  0.00000000
 
ion      s      p      d    tot
    1  0.002  0.001  0.000  0.002
    2  0.002  0.001  0.000  0.002
    3  0.002  0.002  0.000  0.003
    4  0.002  0.002  0.000  0.003
    5  0.001  0.020  0.003  0.025
    6  0.001  0.020  0.003  0.025
    7  0.002  0.057  0.011  0.070
    8  0.002  0.057  0.011  0.070
    9  0.001  0.037  0.000  0.038
   10  0.001  0.037  0.000  0.038
   11  0.000  0.017  0.000  0.018
   12  0.000  0.017  0.000  0.018
   13  0.001  0.012  0.000  0.012
   14  0.001  0.012  0.000  0.012
   15  0.000  0.003  0.000  0.004
   16  0.000  0.003  0.000  0.004
tot    0.017  0.298  0.029  0.343
 
band    43 # energy    8.31618165 # occ.  0.00000000
 
ion      s      p      d    tot
    1  0.002  0.000  0.000  0.002
    2  0.002  0.000  0.000  0.002
    3  0.003  0.000  0.000  0.003
    4  0.003  0.000  0.000  0.003
    5  0.001  0.012  0.012  0.025
    6  0.001  0.012  0.012  0.025
    7  0.001  0.014  0.013  0.028
    8  0.001  0.014  0.013  0.028
    9  0.000  0.008  0.000  0.008
   10  0.000  0.008  0.000  0.008
   11  0.001  0.006  0.000  0.007
   12  0.001  0.006  0.000  0.007
   13  0.001  0.012  0.000  0.013
   14  0.001  0.012  0.000  0.013
   15  0.001  0.013  0.000  0.014
   16  0.001  0.013  0.000  0.014
tot    0.016  0.133  0.050  0.198
 
band    44 # energy    8.40226746 # occ.  0.00000000
 
ion      s      p      d    tot
    1  0.009  0.000  0.000  0.010
    2  0.009  0.000  0.000  0.010
    3  0.012  0.001  0.000  0.012
    4  0.012  0.001  0.000  0.012
    5  0.001  0.013  0.010  0.025
    6  0.001  0.013  0.010  0.025
    7  0.001  0.014  0.012  0.027
    8  0.001  0.014  0.012  0.027
    9  0.001  0.007  0.000  0.008
   10  0.001  0.007  0.000  0.008
   11  0.001  0.007  0.000  0.008
   12  0.001  0.007  0.000  0.008
   13  0.005  0.007  0.000  0.013
   14  0.005  0.007  0.000  0.013
   15  0.005  0.006  0.000  0.010
   16  0.005  0.006  0.000  0.010
tot    0.070  0.110  0.044  0.224
 
band    45 # energy    8.60561136 # occ.  0.00000000
 
ion      s      p      d    tot
    1  0.007  0.001  0.000  0.008
    2  0.007  0.001  0.000  0.008
    3  0.001  0.001  0.000  0.002
    4  0.001  0.001  0.000  0.002
    5  0.001  0.031  0.005  0.037
    6  0.001  0.031  0.005  0.037
    7  0.001  0.054  0.007  0.062
    8  0.001  0.054  0.007  0.062
    9  0.002  0.014  0.000  0.016
   10  0.002  0.014  0.000  0.016
   11  0.004  0.012  0.000  0.015