 running on   14 total cores
 distrk:  each k-point on   14 cores,    1 groups
 distr:  one band on    1 cores,   14 groups
 using from now: INCAR     
 vasp.5.4.4.18Apr17-6-g9f103f2a35 (build Oct 27 2022 13:04:57) complex          
  
 POSCAR found type information on POSCAR  Na Sb S 
 POSCAR found :  3 types and      16 ions
 scaLAPACK will be used

 ----------------------------------------------------------------------------- 
|                                                                             |
|           W    W    AA    RRRRR   N    N  II  N    N   GGGG   !!!           |
|           W    W   A  A   R    R  NN   N  II  NN   N  G    G  !!!           |
|           W    W  A    A  R    R  N N  N  II  N N  N  G       !!!           |
|           W WW W  AAAAAA  RRRRR   N  N N  II  N  N N  G  GGG   !            |
|           WW  WW  A    A  R   R   N   NN  II  N   NN  G    G                |
|           W    W  A    A  R    R  N    N  II  N    N   GGGG   !!!           |
|                                                                             |
|      For optimal performance we recommend to set                            |
|        NCORE= 4 - approx SQRT( number of cores)                             |
|      NCORE specifies how many cores store one orbital (NPAR=cpu/NCORE).     |
|      This setting can  greatly improve the performance of VASP for DFT.     |
|      The default,   NCORE=1            might be grossly inefficient         |
|      on modern multi-core architectures or massively parallel machines.     |
|      Do your own testing !!!!                                               |
|      Unfortunately you need to use the default for GW and RPA calculations. |
|      (for HF NCORE is supported but not extensively tested yet)             |
|                                                                             |
 ----------------------------------------------------------------------------- 

 LDA part: xc-table for Pade appr. of Perdew
 POSCAR, INCAR and KPOINTS ok, starting setup
 FFT: planning ...
 WAVECAR not read
 entering main loop
       N       E                     dE             d eps       ncg     rms          rms(c)
DAV:   1     0.289676111044E+03    0.28968E+03   -0.18465E+04  1008   0.648E+02
DAV:   2    -0.295424048464E+02   -0.31922E+03   -0.30745E+03  1344   0.145E+02
DAV:   3    -0.669374415312E+02   -0.37395E+02   -0.36839E+02  1260   0.550E+01
DAV:   4    -0.681131473483E+02   -0.11757E+01   -0.11737E+01  1218   0.120E+01
DAV:   5    -0.681529441807E+02   -0.39797E-01   -0.39786E-01  1372   0.211E+00    0.128E+01
DAV:   6    -0.634879834615E+02    0.46650E+01   -0.98593E+00  1134   0.886E+00    0.979E+00
DAV:   7    -0.635031074602E+02   -0.15124E-01   -0.15287E+00  1274   0.334E+00    0.530E+00
DAV:   8    -0.634896555798E+02    0.13452E-01   -0.97849E-02  1358   0.115E+00    0.158E+00
DAV:   9    -0.634963392546E+02   -0.66837E-02   -0.32601E-02  1274   0.644E-01    0.374E-01
DAV:  10    -0.634999376060E+02   -0.35984E-02   -0.40647E-03  1218   0.196E-01    0.203E-01
DAV:  11    -0.635022365475E+02   -0.22989E-02   -0.39815E-03  1204   0.200E-01    0.831E-02
DAV:  12    -0.635022498587E+02   -0.13311E-04   -0.86281E-05  1092   0.334E-02
   1 F= -.63502250E+02 E0= -.63502250E+02  d E =-.635022E+02
 curvature:   0.00 expect dE= 0.000E+00 dE for cont linesearch  0.000E+00
 trial: gam= 0.00000 g(F)=  0.100E+00 g(S)=  0.572E+00 ort = 0.000E+00 (trialstep = 0.100E+01)
 search vector abs. value=  0.673E+00
 bond charge predicted
       N       E                     dE             d eps       ncg     rms          rms(c)
DAV:   1    -0.643787059445E+02   -0.87647E+00   -0.55694E+00  1050   0.685E+00    0.372E+00
DAV:   2    -0.641439303769E+02    0.23478E+00   -0.56616E-01  1120   0.222E+00    0.117E+00
DAV:   3    -0.641161959942E+02    0.27734E-01   -0.11918E-01  1246   0.950E-01    0.499E-01
DAV:   4    -0.641120931142E+02    0.41029E-02   -0.41140E-03  1344   0.222E-01    0.381E-01
DAV:   5    -0.641103779167E+02    0.17152E-02   -0.24467E-03  1330   0.136E-01    0.194E-01
DAV:   6    -0.641102813585E+02    0.96558E-04   -0.29127E-04  1050   0.521E-02
   2 F= -.64110281E+02 E0= -.64110281E+02  d E =-.608031E+00
 trial-energy change:   -0.608031  1 .order   -0.604029   -0.672866   -0.535191
 step:   3.4317(harm=  4.8874)  dis= 0.03101  next Energy=   -64.818539 (dE=-0.132E+01)
 bond charge predicted
       N       E                     dE             d eps       ncg     rms          rms(c)
DAV:   1    -0.665352473516E+02   -0.24249E+01   -0.33839E+01  1092   0.174E+01    0.989E+00
DAV:   2    -0.651401424476E+02    0.13951E+01   -0.32906E+00  1162   0.540E+00    0.336E+00
DAV:   3    -0.649666214843E+02    0.17352E+00   -0.81604E-01  1246   0.244E+00    0.144E+00
DAV:   4    -0.649471052334E+02    0.19516E-01   -0.19528E-02  1372   0.532E-01    0.112E+00
DAV:   5    -0.649337566646E+02    0.13349E-01   -0.24203E-02  1288   0.428E-01    0.486E-01
DAV:   6    -0.649337583340E+02   -0.16693E-05   -0.16741E-03  1232   0.133E-01    0.183E-01
DAV:   7    -0.649336323347E+02    0.12600E-03   -0.65922E-04  1330   0.714E-02    0.793E-02
DAV:   8    -0.649336528215E+02   -0.20487E-04   -0.36994E-05   826   0.232E-02
   3 F= -.64933653E+02 E0= -.64933653E+02  d E =-.143140E+01
 curvature:  -2.10 expect dE=-0.149E+00 dE for cont linesearch -0.316E-01
 ZBRENT: extrapolating
 opt :   3.9947  next Energy=   -64.961984 (dE=-0.146E+01)
 bond charge predicted
       N       E                     dE             d eps       ncg     rms          rms(c)
DAV:   1    -0.650500924118E+02   -0.11646E+00   -0.18097E+00  1106   0.399E+00    0.221E+00
DAV:   2    -0.649743755633E+02    0.75717E-01   -0.17981E-01  1190   0.127E+00    0.740E-01
DAV:   3    -0.649646339035E+02    0.97417E-02   -0.43323E-02  1246   0.563E-01    0.277E-01
DAV:   4    -0.649634852972E+02    0.11486E-02   -0.11145E-03  1358   0.128E-01    0.209E-01
DAV:   5    -0.649629863889E+02    0.49891E-03   -0.89548E-04  1288   0.832E-02    0.106E-01
DAV:   6    -0.649629876830E+02   -0.12941E-05   -0.57056E-05   812   0.265E-02
   4 F= -.64962988E+02 E0= -.64962988E+02  d E =-.146074E+01
 curvature:  -1.88 expect dE=-0.151E+00 dE for cont linesearch -0.311E-04
 trial: gam= 0.12425 g(F)=  0.656E-01 g(S)=  0.146E-01 ort =-0.334E-02 (trialstep = 0.160E+01)
 search vector abs. value=  0.898E-01
 bond charge predicted
       N       E                     dE             d eps       ncg     rms          rms(c)
DAV:   1    -0.651208281689E+02   -0.15784E+00   -0.18644E+00  1008   0.393E+00    0.128E+00
DAV:   2    -0.650889295086E+02    0.31899E-01   -0.14714E-01  1246   0.123E+00    0.560E-01
DAV:   3    -0.650817061899E+02    0.72233E-02   -0.17949E-02  1260   0.394E-01    0.296E-01
DAV:   4    -0.650802901596E+02    0.14160E-02   -0.21475E-03  1386   0.148E-01    0.176E-01
DAV:   5    -0.650799678687E+02    0.32229E-03   -0.75911E-04  1344   0.778E-02    0.963E-02
DAV:   6    -0.650799663422E+02    0.15264E-05   -0.36080E-05   826   0.224E-02
   5 F= -.65079966E+02 E0= -.65079966E+02  d E =-.116979E+00
 ZBRENT: can't locate minimum, use default step
 trial-energy change:   -0.116979  1 .order   -0.119855   -0.127681   -0.112029
 step:   6.3958(harm= 13.0431)  dis= 0.04239  next Energy=   -65.483756 (dE=-0.521E+00)
 bond charge predicted
       N       E                     dE             d eps       ncg     rms          rms(c)
DAV:   1    -0.657165994216E+02   -0.63663E+00   -0.17101E+01  1008   0.120E+01    0.404E+00
DAV:   2    -0.654254876280E+02    0.29111E+00   -0.13791E+00  1246   0.375E+00    0.173E+00
DAV:   3    -0.653590891646E+02    0.66398E-01   -0.17436E-01  1260   0.123E+00    0.884E-01
DAV:   4    -0.653481658310E+02    0.10923E-01   -0.17484E-02  1386   0.428E-01    0.604E-01
DAV:   5    -0.653447868175E+02    0.33790E-02   -0.61816E-03  1344   0.223E-01    0.280E-01
DAV:   6    -0.653446204625E+02    0.16635E-03   -0.57642E-04  1344   0.767E-02    0.112E-01
DAV:   7    -0.653446223588E+02   -0.18963E-05   -0.84310E-05   868   0.345E-02
   6 F= -.65344622E+02 E0= -.65344622E+02  d E =-.381635E+00
 curvature:  -4.86 expect dE=-0.200E+00 dE for cont linesearch -0.824E-01
 ZBRENT: increasing intervall
 opt :  15.9895  next Energy=   -65.421191 (dE=-0.458E+00)
 bond charge predicted
       N       E                     dE             d eps       ncg     rms          rms(c)
DAV:   1    -0.669774118182E+02   -0.16328E+01   -0.70056E+01  1008   0.246E+01    0.919E+00
DAV:   2    -0.658035691085E+02    0.11738E+01   -0.58751E+00  1260   0.774E+00    0.370E+00
DAV:   3    -0.655330186680E+02    0.27055E+00   -0.77725E-01  1246   0.261E+00    0.193E+00
DAV:   4    -0.654993720947E+02    0.33647E-01   -0.64229E-02  1386   0.835E-01    0.151E+00
DAV:   5    -0.654823415669E+02    0.17031E-01   -0.26438E-02  1316   0.463E-01    0.512E-01
DAV:   6    -0.654811730557E+02    0.11685E-02   -0.39990E-03  1400   0.200E-01    0.168E-01
DAV:   7    -0.654812014606E+02   -0.28405E-04   -0.44565E-04  1232   0.697E-02
   7 F= -.65481201E+02 E0= -.65481201E+02  d E =-.518214E+00
 curvature:  -4.52 expect dE=-0.647E+00 dE for cont linesearch -0.588E-02
 trial: gam= 1.77064 g(F)=  0.460E-01 g(S)=  0.972E-01 ort =-0.108E-01 (trialstep = 0.104E+01)
 search vector abs. value=  0.387E+00
 bond charge predicted
       N       E                     dE             d eps       ncg     rms          rms(c)
DAV:   1    -0.656258759301E+02   -0.14470E+00   -0.35633E+00  1008   0.544E+00    0.148E+00
DAV:   2    -0.656123219842E+02    0.13554E-01   -0.25989E-01  1260   0.170E+00    0.565E-01
DAV:   3    -0.656042017379E+02    0.81202E-02   -0.14156E-02  1358   0.404E-01    0.355E-01
DAV:   4    -0.656014082109E+02    0.27935E-02   -0.52263E-03  1330   0.220E-01    0.206E-01
DAV:   5    -0.656011727434E+02    0.23547E-03   -0.98393E-04  1246   0.100E-01    0.891E-02
DAV:   6    -0.656011542042E+02    0.18539E-04   -0.14534E-04   882   0.389E-02
   8 F= -.65601154E+02 E0= -.65601154E+02  d E =-.119953E+00
 ZBRENT: can't locate minimum, use default step
 trial-energy change:   -0.119953  1 .order   -0.119512   -0.129105   -0.109920
 step:   4.1612(harm=  7.0005)  dis= 0.05585  next Energy=   -65.814441 (dE=-0.333E+00)
 bond charge predicted
       N       E                     dE             d eps       ncg     rms          rms(c)
DAV:   1    -0.660864772394E+02   -0.48530E+00   -0.32447E+01  1008   0.165E+01    0.449E+00
DAV:   2    -0.659632338777E+02    0.12324E+00   -0.24263E+00  1260   0.515E+00    0.168E+00
DAV:   3    -0.658904618438E+02    0.72772E-01   -0.13584E-01  1372   0.125E+00    0.111E+00
DAV:   4    -0.658687734008E+02    0.21688E-01   -0.37759E-02  1330   0.605E-01    0.749E-01
DAV:   5    -0.658652854451E+02    0.34880E-02   -0.82187E-03  1330   0.290E-01    0.220E-01
DAV:   6    -0.658649423435E+02    0.34310E-03   -0.18207E-03  1330   0.131E-01    0.892E-02
DAV:   7    -0.658649713175E+02   -0.28974E-04   -0.19407E-04   924   0.490E-02
   9 F= -.65864971E+02 E0= -.65864971E+02  d E =-.383770E+00
 curvature:  -8.43 expect dE=-0.431E+00 dE for cont linesearch -0.872E-01
 ZBRENT: increasing intervall
 opt :  10.4029  next Energy=   -65.994851 (dE=-0.514E+00)
 bond charge predicted
       N       E                     dE             d eps       ncg     rms          rms(c)
DAV:   1    -0.667417349378E+02   -0.87679E+00   -0.13050E+02  1008   0.335E+01    0.111E+01
DAV:   2    -0.662829504049E+02    0.45878E+00   -0.10427E+01  1260   0.105E+01    0.336E+00
DAV:   3    -0.659995198465E+02    0.28343E+00   -0.58760E-01  1372   0.265E+00    0.270E+00
DAV:   4    -0.659289733737E+02    0.70546E-01   -0.11577E-01  1344   0.108E+00    0.201E+00
DAV:   5    -0.659046574399E+02    0.24316E-01   -0.36314E-02  1344   0.602E-01    0.300E-01
DAV:   6    -0.659023707420E+02    0.22867E-02   -0.98374E-03  1316   0.324E-01    0.154E-01
DAV:   7    -0.659025515630E+02   -0.18082E-03   -0.16739E-03  1260   0.133E-01    0.129E-01
DAV:   8    -0.659025474844E+02    0.40786E-05   -0.15968E-04   896   0.453E-02
  10 F= -.65902547E+02 E0= -.65902547E+02  d E =-.421346E+00
 curvature: -12.56 expect dE=-0.351E+00 dE for cont linesearch -0.600E-01
 ZBRENT: bracketing found
 ZBRENT: interpolating
 opt :   7.8767  next Energy=   -65.956854 (dE=-0.476E+00)
 bond charge predicted
       N       E                     dE             d eps       ncg     rms          rms(c)
DAV:   1    -0.660860901000E+02   -0.18354E+00   -0.20475E+01  1008   0.131E+01    0.391E+00
DAV:   2    -0.660321664709E+02    0.53924E-01   -0.15181E+00  1260   0.417E+00    0.182E+00
DAV:   3    -0.659886187309E+02    0.43548E-01   -0.73407E-02  1372   0.968E-01    0.119E+00
DAV:   4    -0.659647025558E+02    0.23916E-01   -0.40584E-02  1302   0.617E-01    0.400E-01
DAV:   5    -0.659633984772E+02    0.13041E-02   -0.84556E-03  1288   0.283E-01    0.219E-01
DAV:   6    -0.659632447931E+02    0.15368E-03   -0.76032E-04  1428   0.860E-02    0.199E-01
DAV:   7    -0.659632452933E+02   -0.50021E-06   -0.10403E-04   812   0.357E-02
  11 F= -.65963245E+02 E0= -.65963245E+02  d E =-.482044E+00
 curvature: -11.36 expect dE=-0.272E+00 dE for cont linesearch -0.790E-04
 trial: gam=-0.02296 g(F)=  0.168E-01 g(S)=  0.716E-02 ort =-0.164E-02 (trialstep = 0.241E+01)
 search vector abs. value=  0.242E-01
 bond charge predicted
       N       E                     dE             d eps       ncg     rms          rms(c)
DAV:   1    -0.660132500220E+02   -0.50005E-01   -0.95426E-01  1022   0.294E+00    0.728E-01
DAV:   2    -0.660154156949E+02   -0.21657E-02   -0.71763E-02  1400   0.886E-01    0.281E-01
DAV:   3    -0.660138091515E+02    0.16065E-02   -0.23153E-03  1344   0.187E-01    0.207E-01
DAV:   4    -0.660129142168E+02    0.89493E-03   -0.16238E-03  1260   0.131E-01    0.687E-02
DAV:   5    -0.660128939233E+02    0.20294E-04   -0.31406E-04  1092   0.607E-02
  12 F= -.66012894E+02 E0= -.66012894E+02  d E =-.496486E-01
 trial-energy change:   -0.049649  1 .order   -0.050251   -0.057775   -0.042728
 step:   9.2440(harm=  9.2440)  dis= 0.03562  next Energy=   -66.074160 (dE=-0.111E+00)
 bond charge predicted
       N       E                     dE             d eps       ncg     rms          rms(c)
DAV:   1    -0.660705845391E+02   -0.57670E-01   -0.76620E+00  1036   0.834E+00    0.223E+00
DAV:   2    -0.660874539215E+02   -0.16869E-01   -0.58009E-01  1400   0.252E+00    0.802E-01
DAV:   3    -0.660744213743E+02    0.13033E-01   -0.18878E-02  1302   0.532E-01    0.591E-01
DAV:   4    -0.660672186107E+02    0.72028E-02   -0.12997E-02  1260   0.370E-01    0.189E-01
DAV:   5    -0.660670601443E+02    0.15847E-03   -0.26561E-03  1386   0.172E-01    0.135E-01
DAV:   6    -0.660670640320E+02   -0.38878E-05   -0.18632E-04   966   0.491E-02
  13 F= -.66067064E+02 E0= -.66067064E+02  d E =-.103819E+00
 curvature:  -4.67 expect dE=-0.750E-01 dE for cont linesearch -0.395E-03
 trial: gam= 0.73717 g(F)=  0.957E-02 g(S)=  0.649E-02 ort =-0.143E-02 (trialstep = 0.337E+01)
 search vector abs. value=  0.271E-01
 bond charge predicted
       N       E                     dE             d eps       ncg     rms          rms(c)
DAV:   1    -0.661022135102E+02   -0.35153E-01   -0.25849E+00  1050   0.465E+00    0.110E+00
DAV:   2    -0.661091518054E+02   -0.69383E-02   -0.19175E-01  1442   0.147E+00    0.597E-01
DAV:   3    -0.661070104371E+02    0.21414E-02   -0.55631E-03  1246   0.259E-01    0.446E-01
DAV:   4    -0.661055953037E+02    0.14151E-02   -0.23999E-03  1302   0.149E-01    0.169E-01
DAV:   5    -0.661054324251E+02    0.16288E-03   -0.67736E-04  1246   0.789E-02    0.434E-02
DAV:   6    -0.661054138780E+02    0.18547E-04   -0.43091E-05   882   0.248E-02
  14 F= -.66105414E+02 E0= -.66105414E+02  d E =-.383498E-01
 trial-energy change:   -0.038350  1 .order   -0.038860   -0.050617   -0.027102
 step:   9.5164(harm=  7.2625)  dis= 0.05273  next Energy=   -66.127007 (dE=-0.599E-01)
 bond charge predicted
       N       E                     dE             d eps       ncg     rms          rms(c)
DAV:   1    -0.661064310575E+02   -0.99863E-03   -0.85015E+00  1050   0.842E+00    0.207E+00
DAV:   2    -0.661293224156E+02   -0.22891E-01   -0.62771E-01  1456   0.266E+00    0.113E+00
DAV:   3    -0.661222611887E+02    0.70612E-02   -0.18070E-02  1274   0.464E-01    0.860E-01
DAV:   4    -0.661175368840E+02    0.47243E-02   -0.77481E-03  1302   0.268E-01    0.326E-01
DAV:   5    -0.661169578338E+02    0.57905E-03   -0.24277E-03  1358   0.147E-01    0.793E-02
DAV:   6    -0.661169116291E+02    0.46205E-04   -0.14503E-04   882   0.454E-02
  15 F= -.66116912E+02 E0= -.66116912E+02  d E =-.498476E-01
 curvature:  -4.36 expect dE=-0.412E-01 dE for cont linesearch -0.342E-02
 ZBRENT: interpolating
 opt :   7.2749  next Energy=   -66.122085 (dE=-0.550E-01)
 bond charge predicted
       N       E                     dE             d eps       ncg     rms          rms(c)
DAV:   1    -0.661206246137E+02   -0.36668E-02   -0.11400E+00  1050   0.308E+00    0.728E-01
DAV:   2    -0.661232451584E+02   -0.26205E-02   -0.84016E-02  1442   0.971E-01    0.367E-01
DAV:   3    -0.661222829387E+02    0.96222E-03   -0.25914E-03  1246   0.175E-01    0.256E-01
DAV:   4    -0.661217474193E+02    0.53552E-03   -0.10342E-03  1302   0.985E-02    0.963E-02
DAV:   5    -0.661217065723E+02    0.40847E-04   -0.21060E-04   966   0.477E-02
  16 F= -.66121707E+02 E0= -.66121707E+02  d E =-.546425E-01
 curvature:  -6.58 expect dE=-0.368E-01 dE for cont linesearch -0.132E-07
 trial: gam= 0.30112 g(F)=  0.183E-02 g(S)=  0.375E-02 ort = 0.736E-05 (trialstep = 0.415E+01)
 search vector abs. value=  0.805E-02
 bond charge predicted
       N       E                     dE             d eps       ncg     rms          rms(c)
DAV:   1    -0.661426393712E+02   -0.20892E-01   -0.11601E+00  1022   0.318E+00    0.925E-01
DAV:   2    -0.661378509905E+02    0.47884E-02   -0.91471E-02  1302   0.101E+00    0.467E-01
DAV:   3    -0.661361247210E+02    0.17263E-02   -0.52482E-03  1344   0.242E-01    0.292E-01
DAV:   4    -0.661352740683E+02    0.85065E-03   -0.12137E-03  1274   0.112E-01    0.108E-01
DAV:   5    -0.661351794300E+02    0.94638E-04   -0.30612E-04  1022   0.562E-02
  17 F= -.66135179E+02 E0= -.66135179E+02  d E =-.134729E-01
 trial-energy change:   -0.013473  1 .order   -0.015059   -0.023200   -0.006918
 step:   5.9193(harm=  5.9193)  dis= 0.01495  next Energy=   -66.138236 (dE=-0.165E-01)
 bond charge predicted
       N       E                     dE             d eps       ncg     rms          rms(c)
DAV:   1    -0.661377000954E+02   -0.24260E-02   -0.20734E-01  1008   0.135E+00    0.393E-01
DAV:   2    -0.661367938569E+02    0.90624E-03   -0.16491E-02  1302   0.429E-01    0.193E-01
DAV:   3    -0.661364616461E+02    0.33221E-03   -0.93391E-04  1330   0.102E-01    0.122E-01
DAV:   4    -0.661363031245E+02    0.15852E-03   -0.21069E-04   994   0.485E-02    0.468E-02
DAV:   5    -0.661362897125E+02    0.13412E-04   -0.96573E-05   840   0.328E-02
  18 F= -.66136290E+02 E0= -.66136290E+02  d E =-.145831E-01
 curvature:  -4.26 expect dE=-0.573E-02 dE for cont linesearch -0.803E-05
 trial: gam= 0.23548 g(F)=  0.108E-02 g(S)=  0.265E-03 ort =-0.123E-03 (trialstep = 0.451E+01)
 search vector abs. value=  0.173E-02
 bond charge predicted
       N       E                     dE             d eps       ncg     rms          rms(c)
DAV:   1    -0.661407020880E+02   -0.43990E-02   -0.24770E-01  1008   0.147E+00    0.362E-01
DAV:   2    -0.661412375787E+02   -0.53549E-03   -0.18626E-02  1344   0.465E-01    0.140E-01
DAV:   3    -0.661409840824E+02    0.25350E-03   -0.98682E-04  1358   0.113E-01    0.854E-02
DAV:   4    -0.661408574346E+02    0.12665E-03   -0.13270E-04   882   0.418E-02    0.430E-02
DAV:   5    -0.661408235708E+02    0.33864E-04   -0.14023E-04   938   0.421E-02
  19 F= -.66140824E+02 E0= -.66140824E+02  d E =-.453386E-02
 trial-energy change:   -0.004534  1 .order   -0.004725   -0.005925   -0.003524
 step:  11.1207(harm= 11.1207)  dis= 0.01382  next Energy=   -66.143600 (dE=-0.731E-02)
 bond charge predicted
       N       E                     dE             d eps       ncg     rms          rms(c)
DAV:   1    -0.661437938277E+02   -0.29364E-02   -0.53348E-01  1008   0.216E+00    0.530E-01
DAV:   2    -0.661449370240E+02   -0.11432E-02   -0.39937E-02  1344   0.680E-01    0.202E-01
DAV:   3    -0.661443970965E+02    0.53993E-03   -0.21598E-03  1386   0.167E-01    0.122E-01
DAV:   4    -0.661441353690E+02    0.26173E-03   -0.31050E-04  1176   0.608E-02    0.649E-02
DAV:   5    -0.661440593642E+02    0.76005E-04   -0.18640E-04   924   0.504E-02
  20 F= -.66144059E+02 E0= -.66144059E+02  d E =-.776965E-02
 curvature:  -7.32 expect dE=-0.722E-02 dE for cont linesearch -0.576E-03
 ZBRENT: increasing intervall
 opt :  24.3477  next Energy=   -66.143483 (dE=-0.719E-02)
 bond charge predicted
       N       E                     dE             d eps       ncg     rms          rms(c)
DAV:   1    -0.661393850941E+02    0.47503E-02   -0.21322E+00  1008   0.431E+00    0.103E+00
DAV:   2    -0.661439292805E+02   -0.45442E-02   -0.15973E-01  1344   0.136E+00    0.406E-01
DAV:   3    -0.661418018393E+02    0.21274E-02   -0.86328E-03  1386   0.333E-01    0.244E-01
DAV:   4    -0.661407623173E+02    0.10395E-02   -0.12747E-03  1316   0.121E-01    0.131E-01
DAV:   5    -0.661404564633E+02    0.30585E-03   -0.68714E-04  1344   0.933E-02    0.578E-02
DAV:   6    -0.661404626500E+02   -0.61867E-05   -0.13468E-04   882   0.402E-02
  21 F= -.66140463E+02 E0= -.66140463E+02  d E =-.417294E-02
 curvature:   7.33 expect dE= 0.262E-01 dE for cont linesearch  0.302E-02
 ZBRENT: bracketing found
 ZBRENT: interpolating
 opt :  15.1439  next Energy=   -66.144802 (dE=-0.851E-02)
 bond charge predicted
       N       E                     dE             d eps       ncg     rms          rms(c)
DAV:   1    -0.661439016100E+02   -0.34451E-02   -0.10290E+00  1008   0.299E+00    0.744E-01
DAV:   2    -0.661461352763E+02   -0.22337E-02   -0.76376E-02  1358   0.946E-01    0.310E-01
DAV:   3    -0.661451446778E+02    0.99060E-03   -0.41584E-03  1386   0.230E-01    0.199E-01
DAV:   4    -0.661445745603E+02    0.57012E-03   -0.65630E-04  1288   0.866E-02    0.877E-02
DAV:   5    -0.661444190244E+02    0.15554E-03   -0.37574E-04  1260   0.679E-02    0.402E-02
DAV:   6    -0.661444202671E+02   -0.12427E-05   -0.70098E-05   868   0.291E-02
  22 F= -.66144420E+02 E0= -.66144420E+02  d E =-.813055E-02
 curvature:  -1.80 expect dE=-0.302E-02 dE for cont linesearch -0.239E-05
 trial: gam= 1.16034 g(F)=  0.667E-03 g(S)=  0.101E-02 ort =-0.480E-04 (trialstep = 0.295E+01)
 search vector abs. value=  0.390E-02
 bond charge predicted
       N       E                     dE             d eps       ncg     rms          rms(c)
DAV:   1    -0.661501398163E+02   -0.57208E-02   -0.24294E-01  1008   0.145E+00    0.334E-01
DAV:   2    -0.661491840342E+02    0.95578E-03   -0.16595E-02  1288   0.439E-01    0.172E-01
DAV:   3    -0.661486015621E+02    0.58247E-03   -0.10381E-03  1386   0.113E-01    0.973E-02
DAV:   4    -0.661483752873E+02    0.22627E-03   -0.28009E-04  1162   0.559E-02    0.432E-02
DAV:   5    -0.661483501756E+02    0.25112E-04   -0.86220E-05   770   0.330E-02
  23 F= -.66148350E+02 E0= -.66148350E+02  d E =-.392991E-02
 trial-energy change:   -0.003930  1 .order   -0.004071   -0.004778   -0.003364
 step:   9.9659(harm=  9.9659)  dis= 0.01372  next Energy=   -66.152494 (dE=-0.807E-02)
 bond charge predicted
       N       E                     dE             d eps       ncg     rms          rms(c)
DAV:   1    -0.661605365519E+02   -0.12161E-01   -0.13764E+00  1008   0.346E+00    0.808E-01
DAV:   2    -0.661552204484E+02    0.53161E-02   -0.94576E-02  1288   0.104E+00    0.389E-01
DAV:   3    -0.661518674746E+02    0.33530E-02   -0.58607E-03  1358   0.269E-01    0.223E-01
DAV:   4    -0.661506192276E+02    0.12482E-02   -0.15980E-03  1288   0.131E-01    0.109E-01
DAV:   5    -0.661504634960E+02    0.15573E-03   -0.45554E-04  1246   0.711E-02    0.540E-02
DAV:   6    -0.661504627679E+02    0.72805E-06   -0.47235E-05   812   0.254E-02
  24 F= -.66150463E+02 E0= -.66150463E+02  d E =-.604250E-02
 curvature: -11.98 expect dE=-0.182E-01 dE for cont linesearch -0.101E-02
 ZBRENT: interpolating
 opt :   7.6211  next Energy=   -66.151134 (dE=-0.671E-02)
 bond charge predicted
       N       E                     dE             d eps       ncg     rms          rms(c)
DAV:   1    -0.661522076107E+02   -0.17441E-02   -0.15425E-01  1008   0.116E+00    0.266E-01
DAV:   2    -0.661516282644E+02    0.57935E-03   -0.10631E-02  1288   0.351E-01    0.138E-01
DAV:   3    -0.661512597628E+02    0.36850E-03   -0.66951E-04  1330   0.911E-02    0.769E-02
DAV:   4    -0.661511031122E+02    0.15665E-03   -0.16545E-04   896   0.449E-02    0.312E-02
DAV:   5    -0.661510813266E+02    0.21786E-04   -0.88470E-05   700   0.327E-02
  25 F= -.66151081E+02 E0= -.66151081E+02  d E =-.666106E-02
 curvature:  -7.98 expect dE=-0.754E-02 dE for cont linesearch -0.134E-05
 trial: gam= 0.30275 g(F)=  0.773E-03 g(S)=  0.172E-03 ort = 0.256E-04 (trialstep = 0.388E+01)
 search vector abs. value=  0.132E-02
 bond charge predicted
       N       E                     dE             d eps       ncg     rms          rms(c)
DAV:   1    -0.661535474152E+02   -0.24443E-02   -0.13226E-01  1008   0.107E+00    0.232E-01
DAV:   2    -0.661542468742E+02   -0.69946E-03   -0.95100E-03  1358   0.331E-01    0.865E-02
DAV:   3    -0.661541689662E+02    0.77908E-04   -0.24106E-04  1064   0.643E-02
  26 F= -.66154169E+02 E0= -.66154169E+02  d E =-.308764E-02
 trial-energy change:   -0.003088  1 .order   -0.003124   -0.003700   -0.002549
 step:  12.4808(harm= 12.4808)  dis= 0.01556  next Energy=   -66.157027 (dE=-0.595E-02)
 bond charge predicted
       N       E                     dE             d eps       ncg     rms          rms(c)
DAV:   1    -0.661544880642E+02   -0.24119E-03   -0.63873E-01  1008   0.236E+00    0.507E-01
DAV:   2    -0.661576534660E+02   -0.31654E-02   -0.45152E-02  1358   0.723E-01    0.191E-01
DAV:   3    -0.661572564229E+02    0.39704E-03   -0.12954E-03  1414   0.142E-01    0.136E-01
DAV:   4    -0.661569850847E+02    0.27134E-03   -0.45961E-04  1260   0.733E-02    0.578E-02
DAV:   5    -0.661569687440E+02    0.16341E-04   -0.13168E-04   840   0.429E-02
  27 F= -.66156969E+02 E0= -.66156969E+02  d E =-.588742E-02
 curvature:  -8.63 expect dE=-0.515E-02 dE for cont linesearch -0.985E-04
 ZBRENT: extrapolating
 opt :  14.4558  next Energy=   -66.157090 (dE=-0.601E-02)
 bond charge predicted
       N       E                     dE             d eps       ncg     rms          rms(c)
DAV:   1    -0.661568249919E+02    0.16009E-03   -0.33879E-02  1036   0.545E-01    0.135E-01
DAV:   2    -0.661570058891E+02   -0.18090E-03   -0.25079E-03  1386   0.168E-01    0.342E-02
DAV:   3    -0.661569852482E+02    0.20641E-04   -0.52767E-05   854   0.324E-02
  28 F= -.66156985E+02 E0= -.66156985E+02  d E =-.590392E-02
 curvature: -10.61 expect dE=-0.903E-02 dE for cont linesearch -0.459E-04
 trial: gam= 0.99813 g(F)=  0.760E-03 g(S)=  0.906E-04 ort =-0.755E-04 (trialstep = 0.393E+01)
 search vector abs. value=  0.201E-02
 bond charge predicted
       N       E                     dE             d eps       ncg     rms          rms(c)
DAV:   1    -0.661586130055E+02   -0.16071E-02   -0.15979E-01  1022   0.119E+00    0.202E-01
DAV:   2    -0.661593223191E+02   -0.70931E-03   -0.10264E-02  1386   0.348E-01    0.100E-01
DAV:   3    -0.661592699402E+02    0.52379E-04   -0.27813E-04  1120   0.645E-02
  29 F= -.66159270E+02 E0= -.66159270E+02  d E =-.228469E-02
 trial-energy change:   -0.002285  1 .order   -0.002360   -0.003044   -0.001676
 step:   8.7380(harm=  8.7380)  dis= 0.01448  next Energy=   -66.160372 (dE=-0.339E-02)
 bond charge predicted
       N       E                     dE             d eps       ncg     rms          rms(c)
DAV:   1    -0.661589599818E+02    0.36234E-03   -0.23810E-01  1022   0.145E+00    0.235E-01
DAV:   2    -0.661599285026E+02   -0.96852E-03   -0.15000E-02  1400   0.423E-01    0.136E-01
DAV:   3    -0.661598361343E+02    0.92368E-04   -0.42165E-04  1162   0.779E-02
  30 F= -.66159836E+02 E0= -.66159836E+02  d E =-.285089E-02
 curvature: -11.34 expect dE=-0.777E-02 dE for cont linesearch -0.941E-04
 trial: gam= 0.35756 g(F)=  0.557E-03 g(S)=  0.128E-03 ort = 0.129E-03 (trialstep = 0.489E+01)
 search vector abs. value=  0.103E-02
 bond charge predicted
       N       E                     dE             d eps       ncg     rms          rms(c)
DAV:   1    -0.661611003768E+02   -0.11719E-02   -0.13532E-01  1008   0.110E+00    0.225E-01
DAV:   2    -0.661617135405E+02   -0.61316E-03   -0.95051E-03  1344   0.339E-01    0.959E-02
DAV:   3    -0.661616284161E+02    0.85124E-04   -0.36203E-04  1204   0.720E-02
  31 F= -.66161628E+02 E0= -.66161628E+02  d E =-.179228E-02
 trial-energy change:   -0.001792  1 .order   -0.002398   -0.003573   -0.001222
 step:   7.4317(harm=  7.4317)  dis= 0.00914  next Energy=   -66.162552 (dE=-0.272E-02)
 bond charge predicted
       N       E                     dE             d eps       ncg     rms          rms(c)
DAV:   1    -0.661619616672E+02   -0.24813E-03   -0.35854E-02  1008   0.567E-01    0.122E-01
DAV:   2    -0.661620642686E+02   -0.10260E-03   -0.23876E-03  1358   0.172E-01    0.571E-02
DAV:   3    -0.661620249223E+02    0.39346E-04   -0.91023E-05   840   0.402E-02
  32 F= -.66162025E+02 E0= -.66162025E+02  d E =-.218879E-02
 curvature:  -5.26 expect dE=-0.114E-02 dE for cont linesearch -0.115E-03
 trial: gam= 0.10232 g(F)=  0.185E-03 g(S)=  0.322E-04 ort = 0.150E-03 (trialstep = 0.540E+01)
 search vector abs. value=  0.259E-03
 reached required accuracy - stopping structural energy minimisation
