<?xml version="1.0" encoding="ISO-8859-1"?>
<modeling>
 <generator>
  <i name="program" type="string">vasp </i>
  <i name="version" type="string">5.4.4.18Apr17-6-g9f103f2a35  </i>
  <i name="subversion" type="string">(build Oct 27 2022 13:04:57) complex            parallel </i>
  <i name="platform" type="string">LinuxIFC </i>
  <i name="date" type="string">2024 06 29 </i>
  <i name="time" type="string">02:49:13 </i>
 </generator>
 <incar>
  <i type="string" name="SYSTEM"> CIS</i>
  <i type="int" name="ISTART">     0</i>
  <i type="string" name="PREC">medium</i>
  <i type="int" name="ICHARG">     2</i>
  <i type="int" name="IBRION">     2</i>
  <i name="EDIFF">      0.00010000</i>
  <i name="EDIFFG">     -0.05000000</i>
  <i type="int" name="NSW">    99</i>
  <i type="int" name="ISIF">     3</i>
  <i name="ENCUT">    300.00000000</i>
  <i name="POTIM">      0.10000000</i>
  <i type="string" name="LREAL"> Auto</i>
  <i type="int" name="ISMEAR">     0</i>
  <i name="SIGMA">      0.05000000</i>
  <i type="int" name="LMAXMIX">     4</i>
  <i type="logical" name="LWAVE"> F  </i>
  <i type="logical" name="LCHARG"> F  </i>
  <i type="int" name="LORBIT">    10</i>
  <i type="logical" name="LASPH"> T  </i>
  <v type="int" name="KPOINT_BSE">    -1     0     0     0</v>
  <i type="logical" name="LASPH"> T  </i>
 </incar>
 <structure name="primitive_cell" >
  <crystal>
   <varray name="basis" >
    <v>       6.45699942       0.79075414      -0.98815419 </v>
    <v>      -0.86514984       6.47025438      -0.53556584 </v>
    <v>       0.14726968       1.05451695      12.41014643 </v>
   </varray>
   <i name="volume">    532.39385827 </i>
   <varray name="rec_basis" >
    <v>       0.15188298       0.02001857      -0.00350340 </v>
    <v>      -0.02038979       0.15078655      -0.01257070 </v>
    <v>       0.01121371       0.00810124       0.07975778 </v>
   </varray>
  </crystal>
  <varray name="positions" >
   <v>      -0.48303873      -0.26218229      -0.11919243 </v>
   <v>      -0.43220888       0.23067466      -0.14502859 </v>
   <v>       0.48343010      -0.18558520      -0.38446004 </v>
   <v>       0.01739534      -0.18602253      -0.11531716 </v>
   <v>       0.43220888      -0.23067466       0.14502859 </v>
   <v>      -0.03733388       0.20428718      -0.12119584 </v>
   <v>       0.03733388      -0.20428718       0.12119584 </v>
   <v>       0.48303873       0.26218229       0.11919243 </v>
   <v>      -0.46308368       0.20472935      -0.37915100 </v>
   <v>      -0.01632524      -0.26256852      -0.38053756 </v>
   <v>      -0.01739534       0.18602253       0.11531716 </v>
   <v>      -0.06821160       0.23024954      -0.35525419 </v>
   <v>       0.46308368      -0.20472935       0.37915100 </v>
   <v>       0.06821160      -0.23024954       0.35525419 </v>
   <v>      -0.48343010       0.18558520       0.38446004 </v>
   <v>       0.01632524       0.26256852       0.38053756 </v>
  </varray>
 </structure>
 <varray name="primitive_index" >
  <v type="int" >        1 </v>
  <v type="int" >       15 </v>
  <v type="int" >       10 </v>
  <v type="int" >       12 </v>
  <v type="int" >       16 </v>
  <v type="int" >        6 </v>
  <v type="int" >        5 </v>
  <v type="int" >        2 </v>
  <v type="int" >        8 </v>
  <v type="int" >        3 </v>
  <v type="int" >       11 </v>
  <v type="int" >       13 </v>
  <v type="int" >        7 </v>
  <v type="int" >       14 </v>
  <v type="int" >        9 </v>
  <v type="int" >        4 </v>
 </varray>
 <kpoints>
  <generation param="Monkhorst-Pack">
   <v type="int" name="divisions">       3        3        2 </v>
   <v name="usershift">      0.00000000       0.00000000       0.00000000 </v>
   <v name="genvec1">      0.33333333       0.00000000      -0.00000000 </v>
   <v name="genvec2">      0.00000000       0.33333333       0.00000000 </v>
   <v name="genvec3">      0.00000000       0.00000000       0.50000000 </v>
   <v name="shift">      0.00000000       0.00000000       0.50000000 </v>
  </generation>
  <varray name="kpointlist" >
   <v>       0.00000000       0.00000000       0.25000000 </v>
   <v>       0.33333333      -0.00000000       0.25000000 </v>
   <v>      -0.33333333      -0.00000000       0.25000000 </v>
   <v>      -0.00000000       0.33333333       0.25000000 </v>
   <v>       0.33333333       0.33333333       0.25000000 </v>
   <v>      -0.33333333       0.33333333       0.25000000 </v>
   <v>      -0.00000000      -0.33333333       0.25000000 </v>
   <v>       0.33333333      -0.33333333       0.25000000 </v>
   <v>      -0.33333333      -0.33333333       0.25000000 </v>
  </varray>
  <varray name="weights" >
   <v>       0.11111111 </v>
   <v>       0.11111111 </v>
   <v>       0.11111111 </v>
   <v>       0.11111111 </v>
   <v>       0.11111111 </v>
   <v>       0.11111111 </v>
   <v>       0.11111111 </v>
   <v>       0.11111111 </v>
   <v>       0.11111111 </v>
  </varray>
 </kpoints>
 <parameters>
  <separator name="general" >
   <i type="string" name="SYSTEM">CIS</i>
   <i type="logical" name="LCOMPAT"> F  </i>
  </separator>
  <separator name="electronic" >
   <i type="string" name="PREC">medium</i>
   <i name="ENMAX">    300.00000000</i>
   <i name="ENAUG">    380.51300000</i>
   <i name="EDIFF">      0.00010000</i>
   <i type="int" name="IALGO">    38</i>
   <i type="int" name="IWAVPR">    11</i>
   <i type="int" name="NBANDS">    56</i>
   <i name="NELECT">     72.00000000</i>
   <i type="int" name="TURBO">     0</i>
   <i type="int" name="IRESTART">     0</i>
   <i type="int" name="NREBOOT">     0</i>
   <i type="int" name="NMIN">     0</i>
   <i name="EREF">      0.00000000</i>
   <separator name="electronic smearing" >
    <i type="int" name="ISMEAR">     0</i>
    <i name="SIGMA">      0.05000000</i>
    <i name="KSPACING">      0.50000000</i>
    <i type="logical" name="KGAMMA"> T  </i>
   </separator>
   <separator name="electronic projectors" >
    <i type="logical" name="LREAL"> T  </i>
    <v name="ROPT">     -0.00200000     -0.00200000     -0.00200000</v>
    <i type="int" name="LMAXPAW">  -100</i>
    <i type="int" name="LMAXMIX">     4</i>
    <i type="logical" name="NLSPLINE"> F  </i>
   </separator>
   <separator name="electronic startup" >
    <i type="int" name="ISTART">     0</i>
    <i type="int" name="ICHARG">     2</i>
    <i type="int" name="INIWAV">     1</i>
   </separator>
   <separator name="electronic spin" >
    <i type="int" name="ISPIN">     1</i>
    <i type="logical" name="LNONCOLLINEAR"> F  </i>
    <v name="MAGMOM">      1.00000000      1.00000000      1.00000000      1.00000000      1.00000000      1.00000000      1.00000000      1.00000000      1.00000000      1.00000000      1.00000000      1.00000000      1.00000000      1.00000000      1.00000000      1.00000000</v>
    <i name="NUPDOWN">     -1.00000000</i>
    <i type="logical" name="LSORBIT"> F  </i>
    <v name="SAXIS">      0.00000000      0.00000000      1.00000000</v>
    <i type="logical" name="LSPIRAL"> F  </i>
    <v name="QSPIRAL">      0.00000000      0.00000000      0.00000000</v>
    <i type="logical" name="LZEROZ"> F  </i>
   </separator>
   <separator name="electronic exchange-correlation" >
    <i type="logical" name="LASPH"> T  </i>
    <i type="logical" name="LMETAGGA"> F  </i>
   </separator>
   <separator name="electronic convergence" >
    <i type="int" name="NELM">    60</i>
    <i type="int" name="NELMDL">    -5</i>
    <i type="int" name="NELMIN">     2</i>
    <i name="ENINI">    300.00000000</i>
    <separator name="electronic convergence detail" >
     <i type="logical" name="LDIAG"> T  </i>
     <i type="logical" name="LSUBROT"> F  </i>
     <i name="WEIMIN">      0.00100000</i>
     <i name="EBREAK">      0.00000045</i>
     <i name="DEPER">      0.30000000</i>
     <i type="int" name="NRMM">     4</i>
     <i name="TIME">      0.40000000</i>
    </separator>
   </separator>
   <separator name="electronic mixer" >
    <i name="AMIX">      0.40000000</i>
    <i name="BMIX">      1.00000000</i>
    <i name="AMIN">      0.10000000</i>
    <i name="AMIX_MAG">      1.60000000</i>
    <i name="BMIX_MAG">      1.00000000</i>
    <separator name="electronic mixer details" >
     <i type="int" name="IMIX">     4</i>
     <i type="logical" name="MIXFIRST"> F  </i>
     <i type="int" name="MAXMIX">   -45</i>
     <i name="WC">    100.00000000</i>
     <i type="int" name="INIMIX">     1</i>
     <i type="int" name="MIXPRE">     1</i>
     <i type="int" name="MREMOVE">     5</i>
    </separator>
   </separator>
   <separator name="electronic dipolcorrection" >
    <i type="logical" name="LDIPOL"> F  </i>
    <i type="logical" name="LMONO"> F  </i>
    <i type="int" name="IDIPOL">     0</i>
    <i name="EPSILON">      1.00000000</i>
    <v name="DIPOL">   -100.00000000   -100.00000000   -100.00000000</v>
    <i name="EFIELD">      0.00000000</i>
   </separator>
  </separator>
  <separator name="grids" >
   <i type="int" name="NGX">    28</i>
   <i type="int" name="NGY">    28</i>
   <i type="int" name="NGZ">    54</i>
   <i type="int" name="NGXF">    42</i>
   <i type="int" name="NGYF">    42</i>
   <i type="int" name="NGZF">    80</i>
   <i type="logical" name="ADDGRID"> F  </i>
  </separator>
  <separator name="ionic" >
   <i type="int" name="NSW">    99</i>
   <i type="int" name="IBRION">     2</i>
   <i type="int" name="MDALGO">     0</i>
   <i type="int" name="ISIF">     3</i>
   <i name="PSTRESS">      0.00000000</i>
   <i name="EDIFFG">     -0.05000000</i>
   <i type="int" name="NFREE">     1</i>
   <i name="POTIM">      0.10000000</i>
   <i name="SMASS">     -3.00000000</i>
   <i name="SCALEE">      1.00000000</i>
  </separator>
  <separator name="ionic md" >
   <i name="TEBEG">      0.00010000</i>
   <i name="TEEND">      0.00010000</i>
   <i type="int" name="NBLOCK">     1</i>
   <i type="int" name="KBLOCK">    99</i>
   <i type="int" name="NPACO">   256</i>
   <i name="APACO">     16.00000000</i>
  </separator>
  <separator name="symmetry" >
   <i type="int" name="ISYM">     2</i>
   <i name="SYMPREC">      0.00001000</i>
  </separator>
  <separator name="dos" >
   <i type="int" name="LORBIT">    10</i>
   <v name="RWIGS">     -1.00000000     -1.00000000     -1.00000000</v>
   <i type="int" name="NEDOS">   301</i>
   <i name="EMIN">     10.00000000</i>
   <i name="EMAX">    -10.00000000</i>
   <i name="EFERMI">      0.00000000</i>
  </separator>
  <separator name="writing" >
   <i type="int" name="NWRITE">     2</i>
   <i type="logical" name="LWAVE"> F  </i>
   <i type="logical" name="LDOWNSAMPLE"> F  </i>
   <i type="logical" name="LCHARG"> F  </i>
   <i type="logical" name="LPARD"> F  </i>
   <i type="logical" name="LVTOT"> F  </i>
   <i type="logical" name="LVHAR"> F  </i>
   <i type="logical" name="LELF"> F  </i>
   <i type="logical" name="LOPTICS"> F  </i>
   <v name="STM">      0.00000000      0.00000000      0.00000000      0.00000000      0.00000000      0.00000000      0.00000000</v>
  </separator>
  <separator name="performance" >
   <i type="int" name="NPAR">    14</i>
   <i type="int" name="NSIM">     4</i>
   <i type="int" name="NBLK">    -1</i>
   <i type="logical" name="LPLANE"> T  </i>
   <i type="logical" name="LSCALAPACK"> T  </i>
   <i type="logical" name="LSCAAWARE"> F  </i>
   <i type="logical" name="LSCALU"> F  </i>
   <i type="logical" name="LASYNC"> F  </i>
   <i type="logical" name="LORBITALREAL"> F  </i>
  </separator>
  <separator name="miscellaneous" >
   <i type="int" name="IDIOT">     3</i>
   <i type="int" name="ISPECIAL">     0</i>
   <i type="logical" name="LMUSIC"> F  </i>
   <v name="POMASS">     22.99000000    121.75000000     32.06600000</v>
   <v name="DARWINR">      0.00000000      0.00000000      0.00000000</v>
   <v name="DARWINV">      1.00000000      1.00000000      1.00000000</v>
   <i type="logical" name="LCORR"> T  </i>
  </separator>
  <i type="logical" name="GGA_COMPAT"> T  </i>
  <i type="logical" name="LBERRY"> F  </i>
  <i type="int" name="ICORELEVEL">     0</i>
  <i type="logical" name="LDAU"> F  </i>
  <i type="int" name="I_CONSTRAINED_M">     0</i>
  <separator name="electronic exchange-correlation" >
   <i type="string" name="GGA">--</i>
   <i type="int" name="VOSKOWN">     0</i>
   <i type="logical" name="LHFCALC"> F  </i>
   <i type="string" name="PRECFOCK"></i>
   <i type="logical" name="LSYMGRAD"> F  </i>
   <i type="logical" name="LHFONE"> F  </i>
   <i type="logical" name="LRHFCALC"> F  </i>
   <i type="logical" name="LTHOMAS"> F  </i>
   <i type="logical" name="LMODELHF"> F  </i>
   <i name="ENCUT4O">     -1.00000000</i>
   <i type="int" name="EXXOEP">     0</i>
   <i type="int" name="FOURORBIT">     0</i>
   <i name="AEXX">      0.00000000</i>
   <i name="HFALPHA">      0.00000000</i>
   <i name="MCALPHA">      0.00000000</i>
   <i name="ALDAX">      1.00000000</i>
   <i name="AGGAX">      1.00000000</i>
   <i name="ALDAC">      1.00000000</i>
   <i name="AGGAC">      1.00000000</i>
   <i type="int" name="NKREDX">     1</i>
   <i type="int" name="NKREDY">     1</i>
   <i type="int" name="NKREDZ">     1</i>
   <i type="logical" name="SHIFTRED"> F  </i>
   <i type="logical" name="ODDONLY"> F  </i>
   <i type="logical" name="EVENONLY"> F  </i>
   <i type="int" name="LMAXFOCK">     0</i>
   <i type="int" name="NMAXFOCKAE">     0</i>
   <i type="logical" name="LFOCKAEDFT"> F  </i>
   <i name="HFSCREEN">      0.00000000</i>
   <i name="HFSCREENC">      0.00000000</i>
   <i type="int" name="NBANDSGWLOW">     0</i>
  </separator>
  <separator name="vdW DFT" >
   <i type="logical" name="LUSE_VDW"> F  </i>
   <i name="Zab_VDW">     -0.84910000</i>
   <i name="PARAM1">      0.12340000</i>
   <i name="PARAM2">      1.00000000</i>
   <i name="PARAM3">      0.00000000</i>
  </separator>
  <separator name="model GW" >
   <i type="int" name="MODEL_GW">     0</i>
   <i name="MODEL_EPS0">     19.96476968</i>
   <i name="MODEL_ALPHA">      1.00000000</i>
  </separator>
  <separator name="linear response parameters" >
   <i type="logical" name="LEPSILON"> F  </i>
   <i type="logical" name="LRPA"> F  </i>
   <i type="logical" name="LNABLA"> F  </i>
   <i type="logical" name="LVEL"> F  </i>
   <i type="int" name="KINTER">     0</i>
   <i name="CSHIFT">      0.10000000</i>
   <i name="OMEGAMAX">     -1.00000000</i>
   <i name="DEG_THRESHOLD">      0.00200000</i>
   <i name="RTIME">     -0.10000000</i>
   <i name="WPLASMAI">      0.00000000</i>
   <v name="DFIELD">      0.00000000      0.00000000      0.00000000</v>
   <v name="WPLASMA">      0.00000000      0.00000000      0.00000000      0.00000000      0.00000000      0.00000000      0.00000000      0.00000000      0.00000000</v>
  </separator>
  <separator name="orbital magnetization" >
   <i type="logical" name="NUCIND"> F  </i>
   <v name="MAGPOS">      0.00000000      0.00000000      0.00000000</v>
   <i type="logical" name="LNICSALL"> T  </i>
   <i type="logical" name="ORBITALMAG"> F  </i>
   <i type="logical" name="LMAGBLOCH"> F  </i>
   <i type="logical" name="LCHIMAG"> F  </i>
   <i type="logical" name="LGAUGE"> T  </i>
   <i type="int" name="MAGATOM">     0</i>
   <v name="MAGDIPOL">      0.00000000      0.00000000      0.00000000</v>
   <v name="AVECCONST">      0.00000000      0.00000000      0.00000000</v>
  </separator>
  <separator name="response functions" >
   <i type="logical" name="LADDER"> F  </i>
   <i type="logical" name="LRPAFORCE"> F  </i>
   <i type="logical" name="LFXC"> F  </i>
   <i type="logical" name="LHARTREE"> T  </i>
   <i type="int" name="IBSE">     0</i>
   <v type="int" name="KPOINT">    -1     0     0     0</v>
   <i type="logical" name="LTCTE"> F  </i>
   <i type="logical" name="LTETE"> F  </i>
   <i type="logical" name="LTRIPLET"> F  </i>
   <i type="logical" name="LFXCEPS"> F  </i>
   <i type="logical" name="LFXHEG"> F  </i>
   <i type="int" name="NATURALO">     2</i>
   <i type="logical" name="L2ORDER"> F  </i>
   <i type="logical" name="LMP2LT"> F  </i>
   <i type="logical" name="LUSEW"> F  </i>
   <i name="ENCUTGW">     -2.00000000</i>
   <i name="ENCUTGWSOFT">     -2.00000000</i>
   <i name="ENCUTLF">     -1.00000000</i>
   <i type="int" name="LMAXMP2">    -1</i>
   <i name="SCISSOR">      0.00000000</i>
   <i type="int" name="NOMEGA">     0</i>
   <i type="int" name="NOMEGAR">     0</i>
   <i type="int" name="NBANDSGW">    -1</i>
   <i type="int" name="NBANDSO">    -1</i>
   <i type="int" name="NBANDSV">    -1</i>
   <i type="int" name="NELM">     1</i>
   <i type="int" name="NELMHF">     1</i>
   <i type="int" name="DIM">     3</i>
   <i type="int" name="ANTIRES">     0</i>
   <i name="OMEGAMAX">    -30.00000000</i>
   <i name="OMEGAMIN">    -30.00000000</i>
   <i name="OMEGATL">   -200.00000000</i>
   <i type="int" name="OMEGAGRID">   140</i>
   <i name="CSHIFT">     -0.10000000</i>
   <i type="logical" name="SELFENERGY"> F  </i>
   <i type="logical" name="LSPECTRAL"> F  </i>
   <i type="logical" name="LSPECTRALGW"> F  </i>
   <i type="logical" name="LSINGLES"> F  </i>
   <i type="logical" name="LFERMIGW"> F  </i>
   <i type="logical" name="ODDONLYGW"> F  </i>
   <i type="logical" name="EVENONLYGW"> F  </i>
   <i type="int" name="NKREDLFX">     1</i>
   <i type="int" name="NKREDLFY">     1</i>
   <i type="int" name="NKREDLFZ">     1</i>
   <i type="int" name="MAXMEM">  2800</i>
   <i type="int" name="TELESCOPE">     0</i>
   <i type="int" name="TAUPAR">     1</i>
   <i type="int" name="OMEGAPAR">    -1</i>
   <i name="LAMBDA">      1.00000000</i>
  </separator>
  <separator name="External order field" >
   <i name="OFIELD_KAPPA">      0.00000000</i>
   <v name="OFIELD_K">      0.00000000      0.00000000      0.00000000</v>
   <i name="OFIELD_Q6_NEAR">      0.00000000</i>
   <i name="OFIELD_Q6_FAR">      0.00000000</i>
   <i name="OFIELD_A">      0.00000000</i>
  </separator>
 </parameters>
 <atominfo>
  <atoms>      16 </atoms>
  <types>       3 </types>
  <array name="atoms" >
   <dimension dim="1">ion</dimension>
   <field type="string">element</field>
   <field type="int">atomtype</field>
   <set>
    <rc><c>Na</c><c>   1</c></rc>
    <rc><c>Na</c><c>   1</c></rc>
    <rc><c>Na</c><c>   1</c></rc>
    <rc><c>Na</c><c>   1</c></rc>
    <rc><c>Sb</c><c>   2</c></rc>
    <rc><c>Sb</c><c>   2</c></rc>
    <rc><c>Sb</c><c>   2</c></rc>
    <rc><c>Sb</c><c>   2</c></rc>
    <rc><c>S </c><c>   3</c></rc>
    <rc><c>S </c><c>   3</c></rc>
    <rc><c>S </c><c>   3</c></rc>
    <rc><c>S </c><c>   3</c></rc>
    <rc><c>S </c><c>   3</c></rc>
    <rc><c>S </c><c>   3</c></rc>
    <rc><c>S </c><c>   3</c></rc>
    <rc><c>S </c><c>   3</c></rc>
   </set>
  </array>
  <array name="atomtypes" >
   <dimension dim="1">type</dimension>
   <field type="int">atomspertype</field>
   <field type="string">element</field>
   <field>mass</field>
   <field>valence</field>
   <field type="string">pseudopotential</field>
   <set>
    <rc><c>   4</c><c>Na</c><c>     22.99000000</c><c>      1.00000000</c><c>  PAW_PBE Na 08Apr2002                  </c></rc>
    <rc><c>   4</c><c>Sb</c><c>    121.75000000</c><c>      5.00000000</c><c>  PAW_PBE Sb 06Sep2000                  </c></rc>
    <rc><c>   8</c><c>S </c><c>     32.06600000</c><c>      6.00000000</c><c>  PAW_PBE S 06Sep2000                   </c></rc>
   </set>
  </array>
 </atominfo>
 <structure name="initialpos" >
  <crystal>
   <varray name="basis" >
    <v>       6.45699942       0.79075414      -0.98815419 </v>
    <v>      -0.86514984       6.47025438      -0.53556584 </v>
    <v>       0.14726968       1.05451695      12.41014643 </v>
   </varray>
   <i name="volume">    532.39385827 </i>
   <varray name="rec_basis" >
    <v>       0.15188298       0.02001857      -0.00350340 </v>
    <v>      -0.02038979       0.15078655      -0.01257070 </v>
    <v>       0.01121371       0.00810124       0.07975778 </v>
   </varray>
  </crystal>
  <varray name="positions" >
   <v>       0.51696127       0.73781771       0.88080757 </v>
   <v>       0.48303873       0.26218229       0.11919243 </v>
   <v>       0.98367476       0.73743148       0.61946244 </v>
   <v>       0.01632524       0.26256852       0.38053756 </v>
   <v>       0.03733388       0.79571282       0.12119584 </v>
   <v>       0.96266612       0.20428718       0.87880416 </v>
   <v>       0.46308368       0.79527065       0.37915100 </v>
   <v>       0.53691632       0.20472935       0.62084900 </v>
   <v>       0.51656990       0.18558520       0.38446004 </v>
   <v>       0.48343010       0.81441480       0.61553996 </v>
   <v>       0.98260466       0.18602253       0.11531716 </v>
   <v>       0.01739534       0.81397747       0.88468284 </v>
   <v>       0.93178840       0.23024954       0.64474581 </v>
   <v>       0.06821160       0.76975046       0.35525419 </v>
   <v>       0.56779112       0.23067466       0.85497141 </v>
   <v>       0.43220888       0.76932534       0.14502859 </v>
  </varray>
 </structure>
 <calculation>
  <scstep>
   <time name="dav">    0.41    0.41</time>
   <time name="total">    0.53    0.53</time>
   <energy>
    <i name="alphaZ">     10.86193820 </i>
    <i name="ewald">  -2086.23039101 </i>
    <i name="hartreedc">   -688.16633907 </i>
    <i name="XCdc">   -237.25097917 </i>
    <i name="pawpsdc">   2554.09552065 </i>
    <i name="pawaedc">  -2162.71493027 </i>
    <i name="eentropy">     -0.01384843 </i>
    <i name="bandstr">     64.14168979 </i>
    <i name="atom">   2834.95345036 </i>
    <i name="e_fr_energy">    289.67611104 </i>
    <i name="e_wo_entrp">    289.68995948 </i>
    <i name="e_0_energy">    289.68303526 </i>
   </energy>
  </scstep>
  <scstep>
   <time name="dav">    0.40    0.40</time>
   <time name="total">    0.40    0.40</time>
   <energy>
    <i name="e_fr_energy">    -29.54240485 </i>
    <i name="e_wo_entrp">    -29.54240485 </i>
    <i name="e_0_energy">    -29.54240485 </i>
   </energy>
  </scstep>
  <scstep>
   <time name="dav">    0.50    0.50</time>
   <time name="total">    0.50    0.50</time>
   <energy>
    <i name="e_fr_energy">    -66.93744153 </i>
    <i name="e_wo_entrp">    -66.93744153 </i>
    <i name="e_0_energy">    -66.93744153 </i>
   </energy>
  </scstep>
  <scstep>
   <time name="dav">    0.50    0.50</time>
   <time name="total">    0.50    0.50</time>
   <energy>
    <i name="e_fr_energy">    -68.11314735 </i>
    <i name="e_wo_entrp">    -68.11314735 </i>
    <i name="e_0_energy">    -68.11314735 </i>
   </energy>
  </scstep>
  <scstep>
   <time name="dav">    0.58    0.58</time>
   <time name="total">    0.60    0.60</time>
   <energy>
    <i name="e_fr_energy">    -68.15294418 </i>
    <i name="e_wo_entrp">    -68.15294418 </i>
    <i name="e_0_energy">    -68.15294418 </i>
   </energy>
  </scstep>
  <scstep>
   <time name="dav">    0.33    0.33</time>
   <time name="total">    0.47    0.47</time>
   <energy>
    <i name="e_fr_energy">    -63.48798346 </i>
    <i name="e_wo_entrp">    -63.48798346 </i>
    <i name="e_0_energy">    -63.48798346 </i>
   </energy>
  </scstep>
  <scstep>
   <time name="dav">    0.54    0.54</time>
   <time name="total">    0.67    0.67</time>
   <energy>
    <i name="e_fr_energy">    -63.50310746 </i>
    <i name="e_wo_entrp">    -63.50310746 </i>
    <i name="e_0_energy">    -63.50310746 </i>
   </energy>
  </scstep>
  <scstep>
   <time name="dav">    0.64    0.64</time>
   <time name="total">    0.78    0.79</time>
   <energy>
    <i name="e_fr_energy">    -63.48965558 </i>
    <i name="e_wo_entrp">    -63.48965558 </i>
    <i name="e_0_energy">    -63.48965558 </i>
   </energy>
  </scstep>
  <scstep>
   <time name="dav">    0.66    0.66</time>
   <time name="total">    0.81    0.81</time>
   <energy>
    <i name="e_fr_energy">    -63.49633925 </i>
    <i name="e_wo_entrp">    -63.49633925 </i>
    <i name="e_0_energy">    -63.49633925 </i>
   </energy>
  </scstep>
  <scstep>
   <time name="dav">    0.58    0.58</time>
   <time name="total">    0.72    0.72</time>
   <energy>
    <i name="e_fr_energy">    -63.49993761 </i>
    <i name="e_wo_entrp">    -63.49993761 </i>
    <i name="e_0_energy">    -63.49993761 </i>
   </energy>
  </scstep>
  <scstep>
   <time name="dav">    0.65    0.65</time>
   <time name="total">    0.79    0.79</time>
   <energy>
    <i name="e_fr_energy">    -63.50223655 </i>
    <i name="e_wo_entrp">    -63.50223655 </i>
    <i name="e_0_energy">    -63.50223655 </i>
   </energy>
  </scstep>
  <scstep>
   <time name="dav">    0.51    0.51</time>
   <time name="total">    0.64    0.64</time>
   <energy>
    <i name="alphaZ">     10.86193820 </i>
    <i name="ewald">  -2086.23039101 </i>
    <i name="hartreedc">   -744.44852627 </i>
    <i name="XCdc">   -232.08623725 </i>
    <i name="pawpsdc">   4767.10389491 </i>
    <i name="pawaedc">  -4376.59345701 </i>
    <i name="eentropy">     -0.00000000 </i>
    <i name="bandstr">   -237.06292178 </i>
    <i name="atom">   2834.95345036 </i>
    <i name="e_fr_energy">    -63.50224986 </i>
    <i name="e_wo_entrp">    -63.50224986 </i>
    <i name="e_0_energy">    -63.50224986 </i>
   </energy>
  </scstep>
  <structure>
   <crystal>
    <varray name="basis" >
     <v>       6.45699942       0.79075414      -0.98815419 </v>
     <v>      -0.86514984       6.47025438      -0.53556584 </v>
     <v>       0.14726968       1.05451695      12.41014643 </v>
    </varray>
    <i name="volume">    532.39385827 </i>
    <varray name="rec_basis" >
     <v>       0.15188298       0.02001857      -0.00350340 </v>
     <v>      -0.02038979       0.15078655      -0.01257070 </v>
     <v>       0.01121371       0.00810124       0.07975778 </v>
    </varray>
   </crystal>
   <varray name="positions" >
    <v>       0.51696127       0.73781771       0.88080757 </v>
    <v>       0.48303873       0.26218229       0.11919243 </v>
    <v>       0.98367476       0.73743148       0.61946244 </v>
    <v>       0.01632524       0.26256852       0.38053756 </v>
    <v>       0.03733388       0.79571282       0.12119584 </v>
    <v>       0.96266612       0.20428718       0.87880416 </v>
    <v>       0.46308368       0.79527065       0.37915100 </v>
    <v>       0.53691632       0.20472935       0.62084900 </v>
    <v>       0.51656990       0.18558520       0.38446004 </v>
    <v>       0.48343010       0.81441480       0.61553996 </v>
    <v>       0.98260466       0.18602253       0.11531716 </v>
    <v>       0.01739534       0.81397747       0.88468284 </v>
    <v>       0.93178840       0.23024954       0.64474581 </v>
    <v>       0.06821160       0.76975046       0.35525419 </v>
    <v>       0.56779112       0.23067466       0.85497141 </v>
    <v>       0.43220888       0.76932534       0.14502859 </v>
   </varray>
  </structure>
  <varray name="forces" >
   <v>      -0.01517833       0.16388963      -0.14489834 </v>
   <v>       0.01517833      -0.16388963       0.14489834 </v>
   <v>      -0.03592688       0.18391024       0.11701707 </v>
   <v>       0.03592688      -0.18391024      -0.11701707 </v>
   <v>       0.72398750       0.93658090      -0.04777861 </v>
   <v>      -0.72398750      -0.93658090       0.04777861 </v>
   <v>      -0.87237316       0.66654067      -0.01435495 </v>
   <v>       0.87237316      -0.66654067       0.01435495 </v>
   <v>      -0.08614403      -0.72659684       0.23826845 </v>
   <v>       0.08614403       0.72659684      -0.23826845 </v>
   <v>       0.28991944      -0.70992703      -0.12000703 </v>
   <v>      -0.28991944       0.70992703       0.12000703 </v>
   <v>      -0.74926958      -0.18591744       0.23091553 </v>
   <v>       0.74926958       0.18591744      -0.23091553 </v>
   <v>       0.78243029      -0.03745769      -0.20315678 </v>
   <v>      -0.78243029       0.03745769       0.20315678 </v>
  </varray>
  <varray name="stress" >
   <v>     -52.49613322       0.98261353       4.42328362 </v>
   <v>       0.98261427     -55.71282559       0.94098527 </v>
   <v>       4.42328455       0.94098540     -51.90547515 </v>
  </varray>
  <energy>
   <i name="e_fr_energy">    -63.50224986 </i>
   <i name="e_wo_entrp">    -63.50224986 </i>
   <i name="e_0_energy">     -0.00000000 </i>
  </energy>
  <time name="totalsc">    8.22    8.23</time>
 </calculation>
 <calculation>
  <scstep>
   <time name="dav">    0.55    0.55</time>
   <time name="total">    0.70    0.70</time>
   <energy>
    <i name="alphaZ">     11.21803822 </i>
    <i name="ewald">  -2102.39797813 </i>
    <i name="hartreedc">   -758.17623572 </i>
    <i name="XCdc">   -230.65005724 </i>
    <i name="pawpsdc">   4761.35382875 </i>
    <i name="pawaedc">  -4370.84145595 </i>
    <i name="eentropy">     -0.00000000 </i>
    <i name="bandstr">   -209.83829622 </i>
    <i name="atom">   2834.95345036 </i>
    <i name="e_fr_energy">    -64.37870594 </i>
    <i name="e_wo_entrp">    -64.37870594 </i>
    <i name="e_0_energy">    -64.37870594 </i>
   </energy>
  </scstep>
  <scstep>
   <time name="dav">    0.35    0.35</time>
   <time name="total">    0.48    0.48</time>
   <energy>
    <i name="e_fr_energy">    -64.14393038 </i>
    <i name="e_wo_entrp">    -64.14393038 </i>
    <i name="e_0_energy">    -64.14393038 </i>
   </energy>
  </scstep>
  <scstep>
   <time name="dav">    0.53    0.53</time>
   <time name="total">    0.67    0.67</time>
   <energy>
    <i name="e_fr_energy">    -64.11619599 </i>
    <i name="e_wo_entrp">    -64.11619599 </i>
    <i name="e_0_energy">    -64.11619599 </i>
   </energy>
  </scstep>
  <scstep>
   <time name="dav">    0.44    0.44</time>
   <time name="total">    0.58    0.58</time>
   <energy>
    <i name="e_fr_energy">    -64.11209311 </i>
    <i name="e_wo_entrp">    -64.11209311 </i>
    <i name="e_0_energy">    -64.11209311 </i>
   </energy>
  </scstep>
  <scstep>
   <time name="dav">    0.50    0.50</time>
   <time name="total">    0.64    0.64</time>
   <energy>
    <i name="e_fr_energy">    -64.11037792 </i>
    <i name="e_wo_entrp">    -64.11037792 </i>
    <i name="e_0_energy">    -64.11037792 </i>
   </energy>
  </scstep>
  <scstep>
   <time name="dav">    0.34    0.34</time>
   <time name="total">    0.46    0.46</time>
   <energy>
    <i name="alphaZ">     11.21803822 </i>
    <i name="ewald">  -2102.39797813 </i>
    <i name="hartreedc">   -740.16164656 </i>
    <i name="XCdc">   -231.28672458 </i>
    <i name="pawpsdc">   4966.45396297 </i>
    <i name="pawaedc">  -4576.05315283 </i>
    <i name="eentropy">     -0.00000000 </i>
    <i name="bandstr">   -226.83623080 </i>
    <i name="atom">   2834.95345036 </i>
    <i name="e_fr_energy">    -64.11028136 </i>
    <i name="e_wo_entrp">    -64.11028136 </i>
    <i name="e_0_energy">    -64.11028136 </i>
   </energy>
  </scstep>
  <structure>
   <crystal>
    <varray name="basis" >
     <v>       6.38835550       0.78301124      -0.97200405 </v>
     <v>      -0.85524969       6.39774929      -0.52954221 </v>
     <v>       0.15692794       1.04511339      12.28139735 </v>
    </varray>
    <i name="volume">    515.49380304 </i>
    <varray name="rec_basis" >
     <v>       0.15349696       0.02021472      -0.00368155 </v>
     <v>      -0.02062552       0.15249546      -0.01271340 </v>
     <v>       0.01125911       0.00817509       0.08058442 </v>
    </varray>
   </crystal>
   <varray name="positions" >
    <v>       0.51697558       0.73807671       0.88070723 </v>
    <v>       0.48302442       0.26192329       0.11929277 </v>
    <v>       0.98365368       0.73769192       0.61956298 </v>
    <v>       0.01634632       0.26230808       0.38043702 </v>
    <v>       0.03857736       0.79693879       0.12131061 </v>
    <v>       0.96142264       0.20306121       0.87868939 </v>
    <v>       0.46193449       0.79641374       0.37909767 </v>
    <v>       0.53806551       0.20358626       0.62090233 </v>
    <v>       0.51629526       0.18451614       0.38457728 </v>
    <v>       0.48370474       0.81548386       0.61542272 </v>
    <v>       0.98289646       0.18494720       0.11520069 </v>
    <v>       0.01710354       0.81505280       0.88479931 </v>
    <v>       0.93064667       0.23009845       0.64482791 </v>
    <v>       0.06935333       0.76990155       0.35517209 </v>
    <v>       0.56893736       0.23049088       0.85489680 </v>
    <v>       0.43106264       0.76950912       0.14510320 </v>
   </varray>
  </structure>
  <varray name="forces" >
   <v>      -0.01533018       0.15682133      -0.14038322 </v>
   <v>       0.01533018      -0.15682133       0.14038322 </v>
   <v>      -0.03032709       0.17690917       0.11341793 </v>
   <v>       0.03032709      -0.17690917      -0.11341793 </v>
   <v>       0.45648526       0.53773738      -0.05481808 </v>
   <v>      -0.45648526      -0.53773738       0.05481808 </v>
   <v>      -0.60680192       0.35842612      -0.05005766 </v>
   <v>       0.60680192      -0.35842612       0.05005766 </v>
   <v>      -0.06919335      -0.45828595       0.11719080 </v>
   <v>       0.06919335       0.45828595      -0.11719080 </v>
   <v>       0.20029640      -0.43843253      -0.04428523 </v>
   <v>      -0.20029640       0.43843253       0.04428523 </v>
   <v>      -0.51077959      -0.13264890       0.05216508 </v>
   <v>       0.51077959       0.13264890      -0.05216508 </v>
   <v>       0.51955729      -0.02693535      -0.04541574 </v>
   <v>      -0.51955729       0.02693535       0.04541574 </v>
  </varray>
  <varray name="stress" >
   <v>     -45.24567550       0.82685492       3.91969506 </v>
   <v>       0.82685518     -47.03483841       0.99563166 </v>
   <v>       3.91969559       0.99563260     -44.05124111 </v>
  </varray>
  <energy>
   <i name="e_fr_energy">    -64.11028136 </i>
   <i name="e_wo_entrp">    -64.11028136 </i>
   <i name="e_0_energy">     -0.00000000 </i>
  </energy>
  <time name="totalsc">    4.27    4.27</time>
 </calculation>
 <calculation>
  <scstep>
   <time name="dav">    0.47    0.47</time>
   <time name="total">    0.61    0.61</time>
   <energy>
    <i name="alphaZ">     12.15149433 </i>
    <i name="ewald">  -2142.55919938 </i>
    <i name="hartreedc">   -774.18252821 </i>
    <i name="XCdc">   -227.70211173 </i>
    <i name="pawpsdc">   4956.01644125 </i>
    <i name="pawaedc">  -4565.62788619 </i>
    <i name="eentropy">     -0.00000000 </i>
    <i name="bandstr">   -159.58490777 </i>
    <i name="atom">   2834.95345036 </i>
    <i name="e_fr_energy">    -66.53524735 </i>
    <i name="e_wo_entrp">    -66.53524735 </i>
    <i name="e_0_energy">    -66.53524735 </i>
   </energy>
  </scstep>
  <scstep>
   <time name="dav">    0.36    0.36</time>
   <time name="total">    0.50    0.50</time>
   <energy>
    <i name="e_fr_energy">    -65.14014245 </i>
    <i name="e_wo_entrp">    -65.14014245 </i>
    <i name="e_0_energy">    -65.14014245 </i>
   </energy>
  </scstep>
  <scstep>
   <time name="dav">    0.48    0.48</time>
   <time name="total">    0.61    0.61</time>
   <energy>
    <i name="e_fr_energy">    -64.96662148 </i>
    <i name="e_wo_entrp">    -64.96662148 </i>
    <i name="e_0_energy">    -64.96662148 </i>
   </energy>
  </scstep>
  <scstep>
   <time name="dav">    0.72    0.72</time>
   <time name="total">    0.86    0.87</time>
   <energy>
    <i name="e_fr_energy">    -64.94710523 </i>
    <i name="e_wo_entrp">    -64.94710523 </i>
    <i name="e_0_energy">    -64.94710523 </i>
   </energy>
  </scstep>
  <scstep>
   <time name="dav">    0.65    0.65</time>
   <time name="total">    0.79    0.79</time>
   <energy>
    <i name="e_fr_energy">    -64.93375666 </i>
    <i name="e_wo_entrp">    -64.93375666 </i>
    <i name="e_0_energy">    -64.93375666 </i>
   </energy>
  </scstep>
  <scstep>
   <time name="dav">    0.60    0.60</time>
   <time name="total">    0.74    0.74</time>
   <energy>
    <i name="e_fr_energy">    -64.93375833 </i>
    <i name="e_wo_entrp">    -64.93375833 </i>
    <i name="e_0_energy">    -64.93375833 </i>
   </energy>
  </scstep>
  <scstep>
   <time name="dav">    0.61    0.61</time>
   <time name="total">    0.75    0.75</time>
   <energy>
    <i name="e_fr_energy">    -64.93363233 </i>
    <i name="e_wo_entrp">    -64.93363233 </i>
    <i name="e_0_energy">    -64.93363233 </i>
   </energy>
  </scstep>
  <scstep>
   <time name="dav">    0.49    0.49</time>
   <time name="total">    0.62    0.62</time>
   <energy>
    <i name="alphaZ">     12.15149433 </i>
    <i name="ewald">  -2142.55919938 </i>
    <i name="hartreedc">   -729.22066839 </i>
    <i name="XCdc">   -229.24271692 </i>
    <i name="pawpsdc">   5529.90057909 </i>
    <i name="pawaedc">  -5139.87173250 </i>
    <i name="eentropy">     -0.00000000 </i>
    <i name="bandstr">   -201.04485941 </i>
    <i name="atom">   2834.95345036 </i>
    <i name="e_fr_energy">    -64.93365282 </i>
    <i name="e_wo_entrp">    -64.93365282 </i>
    <i name="e_0_energy">    -64.93365282 </i>
   </energy>
  </scstep>
  <structure>
   <crystal>
    <varray name="basis" >
     <v>       6.22143629       0.76418308      -0.93273227 </v>
     <v>      -0.83117581       6.22144099      -0.51489473 </v>
     <v>       0.18041363       1.02224705      11.96832235 </v>
    </varray>
    <i name="volume">    475.89448904 </i>
    <varray name="rec_basis" >
     <v>       0.15756972       0.02070813      -0.00414399 </v>
     <v>      -0.02122208       0.15681718      -0.01307428 </v>
     <v>       0.01136694       0.00836036       0.08266847 </v>
    </varray>
   </crystal>
   <varray name="positions" >
    <v>       0.51701116       0.73871365       0.88046070 </v>
    <v>       0.48298884       0.26128635       0.11953930 </v>
    <v>       0.98360141       0.73833241       0.61981000 </v>
    <v>       0.01639859       0.26166759       0.38019000 </v>
    <v>       0.04163302       0.79995364       0.12159117 </v>
    <v>       0.95836698       0.20004636       0.87840883 </v>
    <v>       0.45911014       0.79922496       0.37896792 </v>
    <v>       0.54088986       0.20077504       0.62103208 </v>
    <v>       0.51561984       0.18188710       0.38486565 </v>
    <v>       0.48438016       0.81811290       0.61513435 </v>
    <v>       0.98361422       0.18230268       0.11491421 </v>
    <v>       0.01638578       0.81769732       0.88508579 </v>
    <v>       0.92784017       0.22972697       0.64503091 </v>
    <v>       0.07215983       0.77027303       0.35496909 </v>
    <v>       0.57175495       0.23003883       0.85471220 </v>
    <v>       0.42824505       0.76996117       0.14528780 </v>
   </varray>
  </structure>
  <varray name="forces" >
   <v>      -0.02336718       0.12669319      -0.12258968 </v>
   <v>       0.02336718      -0.12669319       0.12258968 </v>
   <v>      -0.01598657       0.14794196       0.10189704 </v>
   <v>       0.01598657      -0.14794196      -0.10189704 </v>
   <v>      -0.44814485      -0.40130282       0.11798912 </v>
   <v>       0.44814485       0.40130282      -0.11798912 </v>
   <v>       0.54624063      -0.29560208      -0.02422425 </v>
   <v>      -0.54624063       0.29560208       0.02422425 </v>
   <v>      -0.09314301       0.35136187      -0.18332441 </v>
   <v>       0.09314301      -0.35136187       0.18332441 </v>
   <v>       0.00710966       0.40013261       0.13367027 </v>
   <v>      -0.00710966      -0.40013261      -0.13367027 </v>
   <v>       0.28951903      -0.07399426      -0.27039863 </v>
   <v>      -0.28951903       0.07399426       0.27039863 </v>
   <v>      -0.29375099      -0.11213949       0.27821985 </v>
   <v>       0.29375099       0.11213949      -0.27821985 </v>
  </varray>
  <varray name="stress" >
   <v>     -10.31182648       0.92472831       4.59250259 </v>
   <v>       0.92472896     -15.56793246       0.07470786 </v>
   <v>       4.59250391       0.07470872     -19.83640110 </v>
  </varray>
  <energy>
   <i name="e_fr_energy">    -64.93365282 </i>
   <i name="e_wo_entrp">    -64.93365282 </i>
   <i name="e_0_energy">     -0.00000000 </i>
  </energy>
  <time name="totalsc">    6.26    6.26</time>
 </calculation>
 <calculation>
  <scstep>
   <time name="dav">    0.45    0.45</time>
   <time name="total">    0.59    0.59</time>
   <energy>
    <i name="alphaZ">     12.38232807 </i>
    <i name="ewald">  -2151.95799115 </i>
    <i name="hartreedc">   -737.24765786 </i>
    <i name="XCdc">   -228.39381983 </i>
    <i name="pawpsdc">   5528.24889249 </i>
    <i name="pawaedc">  -5138.22055028 </i>
    <i name="eentropy">     -0.00000000 </i>
    <i name="bandstr">   -184.81474421 </i>
    <i name="atom">   2834.95345036 </i>
    <i name="e_fr_energy">    -65.05009241 </i>
    <i name="e_wo_entrp">    -65.05009241 </i>
    <i name="e_0_energy">    -65.05009241 </i>
   </energy>
  </scstep>
  <scstep>
   <time name="dav">    0.35    0.35</time>
   <time name="total">    0.49    0.49</time>
   <energy>
    <i name="e_fr_energy">    -64.97437556 </i>
    <i name="e_wo_entrp">    -64.97437556 </i>
    <i name="e_0_energy">    -64.97437556 </i>
   </energy>
  </scstep>
  <scstep>
   <time name="dav">    0.45    0.45</time>
   <time name="total">    0.59    0.59</time>
   <energy>
    <i name="e_fr_energy">    -64.96463390 </i>
    <i name="e_wo_entrp">    -64.96463390 </i>
    <i name="e_0_energy">    -64.96463390 </i>
   </energy>
  </scstep>
  <scstep>
   <time name="dav">    0.55    0.55</time>
   <time name="total">    0.69    0.69</time>
   <energy>
    <i name="e_fr_energy">    -64.96348530 </i>
    <i name="e_wo_entrp">    -64.96348530 </i>
    <i name="e_0_energy">    -64.96348530 </i>
   </energy>
  </scstep>
  <scstep>
   <time name="dav">    0.52    0.52</time>
   <time name="total">    0.66    0.66</time>
   <energy>
    <i name="e_fr_energy">    -64.96298639 </i>
    <i name="e_wo_entrp">    -64.96298639 </i>
    <i name="e_0_energy">    -64.96298639 </i>
   </energy>
  </scstep>
  <scstep>
   <time name="dav">    0.39    0.39</time>
   <time name="total">    0.51    0.51</time>
   <energy>
    <i name="alphaZ">     12.38232807 </i>
    <i name="ewald">  -2151.95799115 </i>
    <i name="hartreedc">   -726.96098415 </i>
    <i name="XCdc">   -228.74253218 </i>
    <i name="pawpsdc">   5697.86185088 </i>
    <i name="pawaedc">  -5307.91711591 </i>
    <i name="eentropy">     -0.00000000 </i>
    <i name="bandstr">   -194.58199361 </i>
    <i name="atom">   2834.95345036 </i>
    <i name="e_fr_energy">    -64.96298768 </i>
    <i name="e_wo_entrp">    -64.96298768 </i>
    <i name="e_0_energy">    -64.96298768 </i>
   </energy>
  </scstep>
  <structure>
   <crystal>
    <varray name="basis" >
     <v>       6.18278420       0.75982320      -0.92363844 </v>
     <v>      -0.82560122       6.18061475      -0.51150293 </v>
     <v>       0.18585202       1.01695208      11.89582619 </v>
    </varray>
    <i name="volume">    467.02277255 </i>
    <varray name="rec_basis" >
     <v>       0.15854407       0.02082585      -0.00425734 </v>
     <v>      -0.02136517       0.15785309      -0.01316077 </v>
     <v>       0.01139131       0.00840445       0.08316665 </v>
    </varray>
   </crystal>
   <varray name="positions" >
    <v>       0.51701987       0.73886532       0.88040213 </v>
    <v>       0.48298013       0.26113468       0.11959787 </v>
    <v>       0.98358871       0.73848492       0.61986869 </v>
    <v>       0.01641129       0.26151508       0.38013131 </v>
    <v>       0.04235924       0.80067150       0.12165696 </v>
    <v>       0.95764076       0.19932850       0.87834304 </v>
    <v>       0.45843864       0.79989444       0.37893788 </v>
    <v>       0.54156136       0.20010556       0.62106212 </v>
    <v>       0.51545898       0.18126107       0.38493434 </v>
    <v>       0.48454102       0.81873893       0.61506566 </v>
    <v>       0.98378524       0.18167294       0.11484597 </v>
    <v>       0.01621476       0.81832706       0.88515403 </v>
    <v>       0.92717263       0.22963856       0.64507990 </v>
    <v>       0.07282737       0.77036144       0.35492010 </v>
    <v>       0.57242512       0.22993113       0.85466757 </v>
    <v>       0.42757488       0.77006887       0.14533243 </v>
   </varray>
  </structure>
  <varray name="forces" >
   <v>      -0.02230326       0.11916911      -0.11801598 </v>
   <v>       0.02230326      -0.11916911       0.11801598 </v>
   <v>      -0.01294929       0.13874190       0.09944731 </v>
   <v>       0.01294929      -0.13874190      -0.09944731 </v>
   <v>      -0.60288207      -0.59502987       0.10169287 </v>
   <v>       0.60288207       0.59502987      -0.10169287 </v>
   <v>       0.79529050      -0.44715348       0.02964271 </v>
   <v>      -0.79529050       0.44715348      -0.02964271 </v>
   <v>      -0.10687046       0.58876261      -0.29110369 </v>
   <v>       0.10687046      -0.58876261       0.29110369 </v>
   <v>      -0.04870397       0.65262058       0.20164278 </v>
   <v>       0.04870397      -0.65262058      -0.20164278 </v>
   <v>       0.53401984      -0.02349169      -0.36830900 </v>
   <v>      -0.53401984       0.02349169       0.36830900 </v>
   <v>      -0.55185406      -0.10453672       0.36445311 </v>
   <v>       0.55185406       0.10453672      -0.36445311 </v>
  </varray>
  <varray name="stress" >
   <v>      -1.27278923       1.12061119       4.35920181 </v>
   <v>       1.12061130      -7.18919972       0.41412803 </v>
   <v>       4.35920274       0.41412882     -13.84565955 </v>
  </varray>
  <energy>
   <i name="e_fr_energy">    -64.96298768 </i>
   <i name="e_wo_entrp">    -64.96298768 </i>
   <i name="e_0_energy">     -0.00000000 </i>
  </energy>
  <time name="totalsc">    4.18    4.18</time>
 </calculation>
 <calculation>
  <scstep>
   <time name="dav">    0.48    0.48</time>
   <time name="total">    0.62    0.62</time>
   <energy>
    <i name="alphaZ">     12.54028601 </i>
    <i name="ewald">  -2169.42587895 </i>
    <i name="hartreedc">   -722.97012751 </i>
    <i name="XCdc">   -228.39770972 </i>
    <i name="pawpsdc">   5690.06853599 </i>
    <i name="pawaedc">  -5300.13639760 </i>
    <i name="eentropy">     -0.00000000 </i>
    <i name="bandstr">   -181.75298676 </i>
    <i name="atom">   2834.95345036 </i>
    <i name="e_fr_energy">    -65.12082817 </i>
    <i name="e_wo_entrp">    -65.12082817 </i>
    <i name="e_0_energy">    -65.12082817 </i>
   </energy>
  </scstep>
  <scstep>
   <time name="dav">    0.55    0.55</time>
   <time name="total">    0.69    0.69</time>
   <energy>
    <i name="e_fr_energy">    -65.08892951 </i>
    <i name="e_wo_entrp">    -65.08892951 </i>
    <i name="e_0_energy">    -65.08892951 </i>
   </energy>
  </scstep>
  <scstep>
   <time name="dav">    0.58    0.58</time>
   <time name="total">    0.72    0.72</time>
   <energy>
    <i name="e_fr_energy">    -65.08170619 </i>
    <i name="e_wo_entrp">    -65.08170619 </i>
    <i name="e_0_energy">    -65.08170619 </i>
   </energy>
  </scstep>
  <scstep>
   <time name="dav">    0.72    0.72</time>
   <time name="total">    0.86    0.86</time>
   <energy>
    <i name="e_fr_energy">    -65.08029016 </i>
    <i name="e_wo_entrp">    -65.08029016 </i>
    <i name="e_0_energy">    -65.08029016 </i>
   </energy>
  </scstep>
  <scstep>
   <time name="dav">    0.70    0.70</time>
   <time name="total">    0.84    0.84</time>
   <energy>
    <i name="e_fr_energy">    -65.07996787 </i>
    <i name="e_wo_entrp">    -65.07996787 </i>
    <i name="e_0_energy">    -65.07996787 </i>
   </energy>
  </scstep>
  <scstep>
   <time name="dav">    0.43    0.43</time>
   <time name="total">    0.55    0.55</time>
   <energy>
    <i name="alphaZ">     12.54028601 </i>
    <i name="ewald">  -2169.42587895 </i>
    <i name="hartreedc">   -715.26321811 </i>
    <i name="XCdc">   -228.65241382 </i>
    <i name="pawpsdc">   5695.64296142 </i>
    <i name="pawaedc">  -5305.70271993 </i>
    <i name="eentropy">     -0.00000000 </i>
    <i name="bandstr">   -189.17243334 </i>
    <i name="atom">   2834.95345036 </i>
    <i name="e_fr_energy">    -65.07996634 </i>
    <i name="e_wo_entrp">    -65.07996634 </i>
    <i name="e_0_energy">    -65.07996634 </i>
   </energy>
  </scstep>
  <structure>
   <crystal>
    <varray name="basis" >
     <v>       6.16662577       0.75864973      -0.90935465 </v>
     <v>      -0.82210879       6.15404674      -0.50866145 </v>
     <v>       0.20242686       1.01453772      11.82536915 </v>
    </varray>
    <i name="volume">    461.14013491 </i>
    <varray name="rec_basis" >
     <v>       0.15893201       0.02085868      -0.00451014 </v>
     <v>      -0.02145527       0.15853468      -0.01323395 </v>
     <v>       0.01129877       0.00842328       0.08364788 </v>
    </varray>
   </crystal>
   <varray name="positions" >
    <v>       0.51701447       0.73924071       0.88024145 </v>
    <v>       0.48298553       0.26075929       0.11975855 </v>
    <v>       0.98359055       0.73886104       0.62003284 </v>
    <v>       0.01640945       0.26113896       0.37996716 </v>
    <v>       0.04094458       0.79965545       0.12162762 </v>
    <v>       0.95905542       0.20034455       0.87837238 </v>
    <v>       0.45999987       0.79877512       0.37904710 </v>
    <v>       0.54000013       0.20122488       0.62095290 </v>
    <v>       0.51534874       0.18256686       0.38464280 </v>
    <v>       0.48465126       0.81743314       0.61535720 </v>
    <v>       0.98392330       0.18301371       0.11515651 </v>
    <v>       0.01607670       0.81698629       0.88484349 </v>
    <v>       0.92825844       0.22944872       0.64471560 </v>
    <v>       0.07174156       0.77055128       0.35528440 </v>
    <v>       0.57125574       0.22974620       0.85500874 </v>
    <v>       0.42874426       0.77025380       0.14499126 </v>
   </varray>
  </structure>
  <varray name="forces" >
   <v>      -0.02741122       0.11062879      -0.10975599 </v>
   <v>       0.02741122      -0.11062879       0.10975599 </v>
   <v>      -0.00678010       0.13277112       0.09092601 </v>
   <v>       0.00678010      -0.13277112      -0.09092601 </v>
   <v>      -0.49999814      -0.66019479      -0.02835515 </v>
   <v>       0.49999814       0.66019479       0.02835515 </v>
   <v>       0.67516193      -0.44763397       0.12468363 </v>
   <v>      -0.67516193       0.44763397      -0.12468363 </v>
   <v>      -0.10448035       0.55686839      -0.29539288 </v>
   <v>       0.10448035      -0.55686839       0.29539288 </v>
   <v>      -0.05677379       0.62276852       0.20965600 </v>
   <v>       0.05677379      -0.62276852      -0.20965600 </v>
   <v>       0.44361139      -0.02529230      -0.40394298 </v>
   <v>      -0.44361139       0.02529230       0.40394298 </v>
   <v>      -0.47552516      -0.08413775       0.40158431 </v>
   <v>       0.47552516       0.08413775      -0.40158431 </v>
  </varray>
  <varray name="stress" >
   <v>      -2.63771389       1.02782332       4.25446275 </v>
   <v>       1.02782286      -5.06861810      -0.17024151 </v>
   <v>       4.25446349      -0.17024059      -9.63661005 </v>
  </varray>
  <energy>
   <i name="e_fr_energy">    -65.07996634 </i>
   <i name="e_wo_entrp">    -65.07996634 </i>
   <i name="e_0_energy">     -0.00000000 </i>
  </energy>
  <time name="totalsc">    5.01    5.01</time>
 </calculation>
 <calculation>
  <scstep>
   <time name="dav">    0.43    0.43</time>
   <time name="total">    0.57    0.57</time>
   <energy>
    <i name="alphaZ">     13.03142524 </i>
    <i name="ewald">  -2221.78052283 </i>
    <i name="hartreedc">   -704.07251982 </i>
    <i name="XCdc">   -227.59646033 </i>
    <i name="pawpsdc">   5684.37053937 </i>
    <i name="pawaedc">  -5294.43774930 </i>
    <i name="eentropy">     -0.00000000 </i>
    <i name="bandstr">   -150.18476212 </i>
    <i name="atom">   2834.95345036 </i>
    <i name="e_fr_energy">    -65.71659942 </i>
    <i name="e_wo_entrp">    -65.71659942 </i>
    <i name="e_0_energy">    -65.71659942 </i>
   </energy>
  </scstep>
  <scstep>
   <time name="dav">    0.50    0.50</time>
   <time name="total">    0.63    0.63</time>
   <energy>
    <i name="e_fr_energy">    -65.42548763 </i>
    <i name="e_wo_entrp">    -65.42548763 </i>
    <i name="e_0_energy">    -65.42548763 </i>
   </energy>
  </scstep>
  <scstep>
   <time name="dav">    0.56    0.56</time>
   <time name="total">    0.70    0.70</time>
   <energy>
    <i name="e_fr_energy">    -65.35908916 </i>
    <i name="e_wo_entrp">    -65.35908916 </i>
    <i name="e_0_energy">    -65.35908916 </i>
   </energy>
  </scstep>
  <scstep>
   <time name="dav">    0.41    0.41</time>
   <time name="total">    0.54    0.54</time>
   <energy>
    <i name="e_fr_energy">    -65.34816583 </i>
    <i name="e_wo_entrp">    -65.34816583 </i>
    <i name="e_0_energy">    -65.34816583 </i>
   </energy>
  </scstep>
  <scstep>
   <time name="dav">    0.51    0.51</time>
   <time name="total">    0.64    0.64</time>
   <energy>
    <i name="e_fr_energy">    -65.34478682 </i>
    <i name="e_wo_entrp">    -65.34478682 </i>
    <i name="e_0_energy">    -65.34478682 </i>
   </energy>
  </scstep>
  <scstep>
   <time name="dav">    0.60    0.60</time>
   <time name="total">    0.73    0.73</time>
   <energy>
    <i name="e_fr_energy">    -65.34462046 </i>
    <i name="e_wo_entrp">    -65.34462046 </i>
    <i name="e_0_energy">    -65.34462046 </i>
   </energy>
  </scstep>
  <scstep>
   <time name="dav">    0.42    0.42</time>
   <time name="total">    0.54    0.54</time>
   <energy>
    <i name="alphaZ">     13.03142524 </i>
    <i name="ewald">  -2221.78052283 </i>
    <i name="hartreedc">   -681.00449663 </i>
    <i name="XCdc">   -228.33962326 </i>
    <i name="pawpsdc">   5688.89153636 </i>
    <i name="pawaedc">  -5298.96749556 </i>
    <i name="eentropy">     -0.00000000 </i>
    <i name="bandstr">   -172.12889604 </i>
    <i name="atom">   2834.95345036 </i>
    <i name="e_fr_energy">    -65.34462236 </i>
    <i name="e_wo_entrp">    -65.34462236 </i>
    <i name="e_0_energy">    -65.34462236 </i>
   </energy>
  </scstep>
  <structure>
   <crystal>
    <varray name="basis" >
     <v>       6.11815049       0.75512932      -0.86650328 </v>
     <v>      -0.81163150       6.07434272      -0.50013698 </v>
     <v>       0.25215140       1.00729465      11.61399802 </v>
    </varray>
    <i name="volume">    443.76030085 </i>
    <varray name="rec_basis" >
     <v>       0.16011164       0.02095766      -0.00529386 </v>
     <v>      -0.02172996       0.16061526      -0.01345856 </v>
     <v>       0.01100993       0.00848024       0.08512846 </v>
    </varray>
   </crystal>
   <varray name="positions" >
    <v>       0.51699964       0.74037185       0.87975661 </v>
    <v>       0.48300036       0.25962815       0.12024339 </v>
    <v>       0.98359467       0.73999419       0.62052802 </v>
    <v>       0.01640533       0.26000581       0.37947198 </v>
    <v>       0.03668953       0.79659403       0.12154350 </v>
    <v>       0.96331047       0.20340597       0.87845650 </v>
    <v>       0.46469499       0.79540269       0.37937212 </v>
    <v>       0.53530501       0.20459731       0.62062788 </v>
    <v>       0.51501971       0.18650134       0.38376327 </v>
    <v>       0.48498029       0.81349866       0.61623673 </v>
    <v>       0.98433592       0.18705324       0.11609284 </v>
    <v>       0.01566408       0.81294676       0.88390716 </v>
    <v>       0.93152768       0.22887703       0.64361320 </v>
    <v>       0.06847232       0.77112297       0.35638680 </v>
    <v>       0.56773532       0.22918871       0.85604166 </v>
    <v>       0.43226468       0.77081129       0.14395834 </v>
   </varray>
  </structure>
  <varray name="forces" >
   <v>      -0.03834106       0.08190371      -0.08310661 </v>
   <v>       0.03834106      -0.08190371       0.08310661 </v>
   <v>       0.01266773       0.10401604       0.07118618 </v>
   <v>      -0.01266773      -0.10401604      -0.07118618 </v>
   <v>      -0.27649393      -0.37037517       0.03151476 </v>
   <v>       0.27649393       0.37037517      -0.03151476 </v>
   <v>       0.28577499      -0.32070293       0.01630430 </v>
   <v>      -0.28577499       0.32070293      -0.01630430 </v>
   <v>      -0.05255070       0.44747788      -0.39232356 </v>
   <v>       0.05255070      -0.44747788       0.39232356 </v>
   <v>      -0.08239559       0.53081003       0.31173383 </v>
   <v>       0.08239559      -0.53081003      -0.31173383 </v>
   <v>       0.19021685      -0.01001609      -0.47593640 </v>
   <v>      -0.19021685       0.01001609       0.47593640 </v>
   <v>      -0.23837980       0.00436248       0.45467973 </v>
   <v>       0.23837980      -0.00436248      -0.45467973 </v>
  </varray>
  <varray name="stress" >
   <v>      -8.36643850       0.36459397       4.71325993 </v>
   <v>       0.36459355      -4.64413904       1.33965278 </v>
   <v>       4.71326136       1.33965281       6.46538716 </v>
  </varray>
  <energy>
   <i name="e_fr_energy">    -65.34462236 </i>
   <i name="e_wo_entrp">    -65.34462236 </i>
   <i name="e_0_energy">     -0.00000000 </i>
  </energy>
  <time name="totalsc">    5.11    5.11</time>
 </calculation>
 <calculation>
  <scstep>
   <time name="dav">    0.35    0.35</time>
   <time name="total">    0.49    0.50</time>
   <energy>
    <i name="alphaZ">     14.09779969 </i>
    <i name="ewald">  -2326.35409794 </i>
    <i name="hartreedc">   -660.51388948 </i>
    <i name="XCdc">   -226.11950354 </i>
    <i name="pawpsdc">   5695.83113783 </i>
    <i name="pawaedc">  -5305.90460925 </i>
    <i name="eentropy">     -0.00000000 </i>
    <i name="bandstr">    -92.96769949 </i>
    <i name="atom">   2834.95345036 </i>
    <i name="e_fr_energy">    -66.97741182 </i>
    <i name="e_wo_entrp">    -66.97741182 </i>
    <i name="e_0_energy">    -66.97741182 </i>
   </energy>
  </scstep>
  <scstep>
   <time name="dav">    0.65    0.65</time>
   <time name="total">    0.79    0.79</time>
   <energy>
    <i name="e_fr_energy">    -65.80356911 </i>
    <i name="e_wo_entrp">    -65.80356911 </i>
    <i name="e_0_energy">    -65.80356911 </i>
   </energy>
  </scstep>
  <scstep>
   <time name="dav">    0.70    0.70</time>
   <time name="total">    0.84    0.84</time>
   <energy>
    <i name="e_fr_energy">    -65.53301867 </i>
    <i name="e_wo_entrp">    -65.53301867 </i>
    <i name="e_0_energy">    -65.53301867 </i>
   </energy>
  </scstep>
  <scstep>
   <time name="dav">    0.61    0.61</time>
   <time name="total">    0.76    0.76</time>
   <energy>
    <i name="e_fr_energy">    -65.49937209 </i>
    <i name="e_wo_entrp">    -65.49937209 </i>
    <i name="e_0_energy">    -65.49937209 </i>
   </energy>
  </scstep>
  <scstep>
   <time name="dav">    0.62    0.62</time>
   <time name="total">    0.76    0.76</time>
   <energy>
    <i name="e_fr_energy">    -65.48234157 </i>
    <i name="e_wo_entrp">    -65.48234157 </i>
    <i name="e_0_energy">    -65.48234157 </i>
   </energy>
  </scstep>
  <scstep>
   <time name="dav">    0.75    0.75</time>
   <time name="total">    0.89    0.89</time>
   <energy>
    <i name="e_fr_energy">    -65.48117306 </i>
    <i name="e_wo_entrp">    -65.48117306 </i>
    <i name="e_0_energy">    -65.48117306 </i>
   </energy>
  </scstep>
  <scstep>
   <time name="dav">    0.46    0.46</time>
   <time name="total">    0.58    0.58</time>
   <energy>
    <i name="alphaZ">     14.09779969 </i>
    <i name="ewald">  -2326.35409794 </i>
    <i name="hartreedc">   -615.41560264 </i>
    <i name="XCdc">   -227.53364777 </i>
    <i name="pawpsdc">   5799.06194416 </i>
    <i name="pawaedc">  -5409.18712545 </i>
    <i name="eentropy">     -0.00000000 </i>
    <i name="bandstr">   -135.10392187 </i>
    <i name="atom">   2834.95345036 </i>
    <i name="e_fr_energy">    -65.48120146 </i>
    <i name="e_wo_entrp">    -65.48120146 </i>
    <i name="e_0_energy">    -65.48120146 </i>
   </energy>
  </scstep>
  <structure>
   <crystal>
    <varray name="basis" >
     <v>       6.02119992       0.74808850      -0.78080056 </v>
     <v>      -0.79067691       5.91493468      -0.48308805 </v>
     <v>       0.35160047       0.99280850      11.19125577 </v>
    </varray>
    <i name="volume">    410.19374022 </i>
    <varray name="rec_basis" >
     <v>       0.16254553       0.02115784      -0.00698374 </v>
     <v>      -0.02229979       0.16494478      -0.01393212 </v>
     <v>       0.01037800       0.00859626       0.08826683 </v>
    </varray>
   </crystal>
   <varray name="positions" >
    <v>       0.51697847       0.74266444       0.87876966 </v>
    <v>       0.48302153       0.25733556       0.12123034 </v>
    <v>       0.98359422       0.74228967       0.62153533 </v>
    <v>       0.01640578       0.25771033       0.37846467 </v>
    <v>       0.02811208       0.79039006       0.12139957 </v>
    <v>       0.97188792       0.20960994       0.87860043 </v>
    <v>       0.47415488       0.78856963       0.38000569 </v>
    <v>       0.52584512       0.21143037       0.61999431 </v>
    <v>       0.51437235       0.19447473       0.38197415 </v>
    <v>       0.48562765       0.80552527       0.61802585 </v>
    <v>       0.98515140       0.19523743       0.11799439 </v>
    <v>       0.01484860       0.80476257       0.88200561 </v>
    <v>       0.93813852       0.22772054       0.64134983 </v>
    <v>       0.06186148       0.77227946       0.35865017 </v>
    <v>       0.56061922       0.22805722       0.85816557 </v>
    <v>       0.43938078       0.77194278       0.14183443 </v>
   </varray>
  </structure>
  <varray name="forces" >
   <v>      -0.04128812      -0.00163912      -0.01978648 </v>
   <v>       0.04128812       0.00163912       0.01978648 </v>
   <v>       0.04142433       0.01376604       0.02649656 </v>
   <v>      -0.04142433      -0.01376604      -0.02649656 </v>
   <v>       0.12866718      -0.37627333       0.15956777 </v>
   <v>      -0.12866718       0.37627333      -0.15956777 </v>
   <v>      -0.05609746      -0.36511839      -0.11882764 </v>
   <v>       0.05609746       0.36511839       0.11882764 </v>
   <v>       0.00853590       0.25220731      -0.61166642 </v>
   <v>      -0.00853590      -0.25220731       0.61166642 </v>
   <v>      -0.09307955       0.39163399       0.52108706 </v>
   <v>       0.09307955      -0.39163399      -0.52108706 </v>
   <v>      -0.20791854       0.04392090      -0.76687971 </v>
   <v>       0.20791854      -0.04392090       0.76687971 </v>
   <v>       0.13570937       0.20974120       0.69307646 </v>
   <v>      -0.13570937      -0.20974120      -0.69307646 </v>
  </varray>
  <varray name="stress" >
   <v>     -16.18851241      -1.96622428       7.95189528 </v>
   <v>      -1.96622418       0.11885324       4.76955634 </v>
   <v>       7.95189657       4.76955671      44.91377088 </v>
  </varray>
  <energy>
   <i name="e_fr_energy">    -65.48120146 </i>
   <i name="e_wo_entrp">    -65.48120146 </i>
   <i name="e_0_energy">     -0.00000000 </i>
  </energy>
  <time name="totalsc">    5.79    5.80</time>
 </calculation>
 <calculation>
  <scstep>
   <time name="dav">    0.51    0.51</time>
   <time name="total">    0.65    0.65</time>
   <energy>
    <i name="alphaZ">     14.23904640 </i>
    <i name="ewald">  -2347.57863916 </i>
    <i name="hartreedc">   -606.56105546 </i>
    <i name="XCdc">   -227.37704490 </i>
    <i name="pawpsdc">   5797.15523374 </i>
    <i name="pawaedc">  -5407.28258628 </i>
    <i name="eentropy">     -0.00000000 </i>
    <i name="bandstr">   -123.17428063 </i>
    <i name="atom">   2834.95345036 </i>
    <i name="e_fr_energy">    -65.62587593 </i>
    <i name="e_wo_entrp">    -65.62587593 </i>
    <i name="e_0_energy">    -65.62587593 </i>
   </energy>
  </scstep>
  <scstep>
   <time name="dav">    0.51    0.51</time>
   <time name="total">    0.64    0.64</time>
   <energy>
    <i name="e_fr_energy">    -65.61232198 </i>
    <i name="e_wo_entrp">    -65.61232198 </i>
    <i name="e_0_energy">    -65.61232198 </i>
   </energy>
  </scstep>
  <scstep>
   <time name="dav">    0.44    0.44</time>
   <time name="total">    0.58    0.58</time>
   <energy>
    <i name="e_fr_energy">    -65.60420174 </i>
    <i name="e_wo_entrp">    -65.60420174 </i>
    <i name="e_0_energy">    -65.60420174 </i>
   </energy>
  </scstep>
  <scstep>
   <time name="dav">    0.58    0.58</time>
   <time name="total">    0.72    0.72</time>
   <energy>
    <i name="e_fr_energy">    -65.60140821 </i>
    <i name="e_wo_entrp">    -65.60140821 </i>
    <i name="e_0_energy">    -65.60140821 </i>
   </energy>
  </scstep>
  <scstep>
   <time name="dav">    0.52    0.52</time>
   <time name="total">    0.66    0.66</time>
   <energy>
    <i name="e_fr_energy">    -65.60117274 </i>
    <i name="e_wo_entrp">    -65.60117274 </i>
    <i name="e_0_energy">    -65.60117274 </i>
   </energy>
  </scstep>
  <scstep>
   <time name="dav">    0.38    0.38</time>
   <time name="total">    0.51    0.51</time>
   <energy>
    <i name="alphaZ">     14.23904640 </i>
    <i name="ewald">  -2347.57863916 </i>
    <i name="hartreedc">   -599.65661552 </i>
    <i name="XCdc">   -227.60123363 </i>
    <i name="pawpsdc">   5752.47642502 </i>
    <i name="pawaedc">  -5362.56995340 </i>
    <i name="eentropy">     -0.00000000 </i>
    <i name="bandstr">   -129.86363426 </i>
    <i name="atom">   2834.95345036 </i>
    <i name="e_fr_energy">    -65.60115420 </i>
    <i name="e_wo_entrp">    -65.60115420 </i>
    <i name="e_0_energy">    -65.60115420 </i>
   </energy>
  </scstep>
  <structure>
   <crystal>
    <varray name="basis" >
     <v>       5.98637805       0.74426805      -0.76295832 </v>
     <v>      -0.78724372       5.88563759      -0.47996396 </v>
     <v>       0.38214532       0.99856868      11.19712799 </v>
    </varray>
    <i name="volume">    406.12475168 </i>
    <varray name="rec_basis" >
     <v>       0.16345104       0.02125321      -0.00747378 </v>
     <v>      -0.02239590       0.16576631      -0.01401882 </v>
     <v>       0.01017735       0.00855373       0.08819845 </v>
    </varray>
   </crystal>
   <varray name="positions" >
    <v>       0.51691162       0.74312603       0.87855117 </v>
    <v>       0.48308838       0.25687397       0.12144883 </v>
    <v>       0.98365918       0.74275186       0.62176459 </v>
    <v>       0.01634082       0.25724814       0.37823541 </v>
    <v>       0.02655728       0.78849239       0.12150436 </v>
    <v>       0.97344272       0.21150761       0.87849564 </v>
    <v>       0.47583802       0.78664714       0.37997781 </v>
    <v>       0.52416198       0.21335286       0.62002219 </v>
    <v>       0.51436296       0.19654854       0.38109915 </v>
    <v>       0.48563704       0.80345146       0.61890085 </v>
    <v>       0.98519860       0.19744713       0.11885697 </v>
    <v>       0.01480140       0.80255287       0.88114303 </v>
    <v>       0.93916076       0.22771979       0.64019398 </v>
    <v>       0.06083924       0.77228021       0.35980602 </v>
    <v>       0.55944006       0.22805327       0.85924343 </v>
    <v>       0.44055994       0.77194673       0.14075657 </v>
   </varray>
  </structure>
  <varray name="forces" >
   <v>      -0.04403489      -0.01911859      -0.01059097 </v>
   <v>       0.04403489       0.01911859       0.01059097 </v>
   <v>       0.04743904      -0.00335157       0.02021491 </v>
   <v>      -0.04743904       0.00335157      -0.02021491 </v>
   <v>       0.17724910      -0.26641117       0.13667926 </v>
   <v>      -0.17724910       0.26641117      -0.13667926 </v>
   <v>      -0.05189805      -0.25765162      -0.23300356 </v>
   <v>       0.05189805       0.25765162       0.23300356 </v>
   <v>       0.01958420       0.22126153      -0.48383400 </v>
   <v>      -0.01958420      -0.22126153       0.48383400 </v>
   <v>      -0.07136443       0.31427024       0.39890561 </v>
   <v>       0.07136443      -0.31427024      -0.39890561 </v>
   <v>      -0.21513042       0.09599908      -0.68262960 </v>
   <v>       0.21513042      -0.09599908       0.68262960 </v>
   <v>       0.12354072       0.23613491       0.60459125 </v>
   <v>      -0.12354072      -0.23613491      -0.60459125 </v>
  </varray>
  <varray name="stress" >
   <v>     -16.09871474      -1.19341604       7.68722678 </v>
   <v>      -1.19341565      -0.54050778       3.56869504 </v>
   <v>       7.68722778       3.56869510      40.56603696 </v>
  </varray>
  <energy>
   <i name="e_fr_energy">    -65.60115420 </i>
   <i name="e_wo_entrp">    -65.60115420 </i>
   <i name="e_0_energy">     -0.00000000 </i>
  </energy>
  <time name="totalsc">    4.43    4.43</time>
 </calculation>
 <calculation>
  <scstep>
   <time name="dav">    0.55    0.55</time>
   <time name="total">    0.69    0.69</time>
   <energy>
    <i name="alphaZ">     14.67776802 </i>
    <i name="ewald">  -2408.89567527 </i>
    <i name="hartreedc">   -575.44012449 </i>
    <i name="XCdc">   -227.07407537 </i>
    <i name="pawpsdc">   5744.79568629 </i>
    <i name="pawaedc">  -5354.89288418 </i>
    <i name="eentropy">     -0.00000000 </i>
    <i name="bandstr">    -94.21062260 </i>
    <i name="atom">   2834.95345036 </i>
    <i name="e_fr_energy">    -66.08647724 </i>
    <i name="e_wo_entrp">    -66.08647724 </i>
    <i name="e_0_energy">    -66.08647724 </i>
   </energy>
  </scstep>
  <scstep>
   <time name="dav">    0.66    0.66</time>
   <time name="total">    0.79    0.79</time>
   <energy>
    <i name="e_fr_energy">    -65.96323388 </i>
    <i name="e_wo_entrp">    -65.96323388 </i>
    <i name="e_0_energy">    -65.96323388 </i>
   </energy>
  </scstep>
  <scstep>
   <time name="dav">    0.74    0.74</time>
   <time name="total">    0.88    0.88</time>
   <energy>
    <i name="e_fr_energy">    -65.89046184 </i>
    <i name="e_wo_entrp">    -65.89046184 </i>
    <i name="e_0_energy">    -65.89046184 </i>
   </energy>
  </scstep>
  <scstep>
   <time name="dav">    0.72    0.73</time>
   <time name="total">    0.86    0.87</time>
   <energy>
    <i name="e_fr_energy">    -65.86877340 </i>
    <i name="e_wo_entrp">    -65.86877340 </i>
    <i name="e_0_energy">    -65.86877340 </i>
   </energy>
  </scstep>
  <scstep>
   <time name="dav">    0.64    0.64</time>
   <time name="total">    0.79    0.79</time>
   <energy>
    <i name="e_fr_energy">    -65.86528545 </i>
    <i name="e_wo_entrp">    -65.86528545 </i>
    <i name="e_0_energy">    -65.86528545 </i>
   </energy>
  </scstep>
  <scstep>
   <time name="dav">    0.58    0.58</time>
   <time name="total">    0.72    0.72</time>
   <energy>
    <i name="e_fr_energy">    -65.86494234 </i>
    <i name="e_wo_entrp">    -65.86494234 </i>
    <i name="e_0_energy">    -65.86494234 </i>
   </energy>
  </scstep>
  <scstep>
   <time name="dav">    0.40    0.40</time>
   <time name="total">    0.52    0.52</time>
   <energy>
    <i name="alphaZ">     14.67776802 </i>
    <i name="ewald">  -2408.89567527 </i>
    <i name="hartreedc">   -555.50472419 </i>
    <i name="XCdc">   -227.71677779 </i>
    <i name="pawpsdc">   5607.97828092 </i>
    <i name="pawaedc">  -5217.99599396 </i>
    <i name="eentropy">     -0.00000000 </i>
    <i name="bandstr">   -113.36129941 </i>
    <i name="atom">   2834.95345036 </i>
    <i name="e_fr_energy">    -65.86497132 </i>
    <i name="e_wo_entrp">    -65.86497132 </i>
    <i name="e_0_energy">    -65.86497132 </i>
   </energy>
  </scstep>
  <structure>
   <crystal>
    <varray name="basis" >
     <v>       5.88191246       0.73280672      -0.70943160 </v>
     <v>      -0.77694417       5.79774633      -0.47059169 </v>
     <v>       0.47377988       1.01584923      11.21474464 </v>
    </varray>
    <i name="volume">    393.98559631 </i>
    <varray name="rec_basis" >
     <v>       0.16624540       0.02154971      -0.00897524 </v>
     <v>      -0.02268843       0.16828093      -0.01428465 </v>
     <v>       0.00956444       0.00842459       0.08800115 </v>
    </varray>
   </crystal>
   <varray name="positions" >
    <v>       0.51671332       0.74451781       0.87789642 </v>
    <v>       0.48328668       0.25548219       0.12210358 </v>
    <v>       0.98385185       0.74414524       0.62245147 </v>
    <v>       0.01614815       0.25585476       0.37754853 </v>
    <v>       0.02186326       0.78277050       0.12182433 </v>
    <v>       0.97813674       0.21722950       0.87817567 </v>
    <v>       0.48091718       0.78085153       0.37988856 </v>
    <v>       0.51908282       0.21914847       0.62011144 </v>
    <v>       0.51434847       0.20280142       0.37847609 </v>
    <v>       0.48565153       0.79719858       0.62152391 </v>
    <v>       0.98532849       0.20410873       0.12144186 </v>
    <v>       0.01467151       0.79589127       0.87855814 </v>
    <v>       0.94226318       0.22771852       0.63672584 </v>
    <v>       0.05773682       0.77228148       0.36327416 </v>
    <v>       0.55586531       0.22804040       0.86247837 </v>
    <v>       0.44413469       0.77195960       0.13752163 </v>
   </varray>
  </structure>
  <varray name="forces" >
   <v>      -0.04610333      -0.07090775       0.01366535 </v>
   <v>       0.04610333       0.07090775      -0.01366535 </v>
   <v>       0.06356301      -0.05584632       0.00631091 </v>
   <v>      -0.06356301       0.05584632      -0.00631091 </v>
   <v>       0.11670698      -0.13944139       0.17439962 </v>
   <v>      -0.11670698       0.13944139      -0.17439962 </v>
   <v>      -0.25502065      -0.22706303      -0.17916183 </v>
   <v>       0.25502065       0.22706303       0.17916183 </v>
   <v>       0.05347491       0.10785544      -0.15499074 </v>
   <v>      -0.05347491      -0.10785544       0.15499074 </v>
   <v>      -0.07198600       0.12006097       0.11675112 </v>
   <v>       0.07198600      -0.12006097      -0.11675112 </v>
   <v>      -0.21817154       0.20820434      -0.40783559 </v>
   <v>       0.21817154      -0.20820434       0.40783559 </v>
   <v>       0.13189221       0.28621164       0.33706096 </v>
   <v>      -0.13189221      -0.28621164      -0.33706096 </v>
  </varray>
  <varray name="stress" >
   <v>     -15.18725140      -0.51991684       5.88754536 </v>
   <v>      -0.51991682      -4.87103407       3.07853952 </v>
   <v>       5.88754541       3.07853956      25.54067513 </v>
  </varray>
  <energy>
   <i name="e_fr_energy">    -65.86497132 </i>
   <i name="e_wo_entrp">    -65.86497132 </i>
   <i name="e_0_energy">     -0.00000000 </i>
  </energy>
  <time name="totalsc">    6.03    6.04</time>
 </calculation>
 <calculation>
  <scstep>
   <time name="dav">    0.34    0.34</time>
   <time name="total">    0.47    0.47</time>
   <energy>
    <i name="alphaZ">     15.62822637 </i>
    <i name="ewald">  -2521.10508900 </i>
    <i name="hartreedc">   -516.27067261 </i>
    <i name="XCdc">   -226.45145844 </i>
    <i name="pawpsdc">   5601.99681706 </i>
    <i name="pawaedc">  -5212.01667291 </i>
    <i name="eentropy">     -0.00000000 </i>
    <i name="bandstr">    -43.47633578 </i>
    <i name="atom">   2834.95345036 </i>
    <i name="e_fr_energy">    -66.74173494 </i>
    <i name="e_wo_entrp">    -66.74173494 </i>
    <i name="e_0_energy">    -66.74173494 </i>
   </energy>
  </scstep>
  <scstep>
   <time name="dav">    0.51    0.51</time>
   <time name="total">    0.65    0.65</time>
   <energy>
    <i name="e_fr_energy">    -66.28295040 </i>
    <i name="e_wo_entrp">    -66.28295040 </i>
    <i name="e_0_energy">    -66.28295040 </i>
   </energy>
  </scstep>
  <scstep>
   <time name="dav">    0.65    0.65</time>
   <time name="total">    0.78    0.78</time>
   <energy>
    <i name="e_fr_energy">    -65.99951985 </i>
    <i name="e_wo_entrp">    -65.99951985 </i>
    <i name="e_0_energy">    -65.99951985 </i>
   </energy>
  </scstep>
  <scstep>
   <time name="dav">    0.59    0.59</time>
   <time name="total">    0.73    0.73</time>
   <energy>
    <i name="e_fr_energy">    -65.92897337 </i>
    <i name="e_wo_entrp">    -65.92897337 </i>
    <i name="e_0_energy">    -65.92897337 </i>
   </energy>
  </scstep>
  <scstep>
   <time name="dav">    0.55    0.55</time>
   <time name="total">    0.69    0.69</time>
   <energy>
    <i name="e_fr_energy">    -65.90465744 </i>
    <i name="e_wo_entrp">    -65.90465744 </i>
    <i name="e_0_energy">    -65.90465744 </i>
   </energy>
  </scstep>
  <scstep>
   <time name="dav">    0.68    0.68</time>
   <time name="total">    0.82    0.82</time>
   <energy>
    <i name="e_fr_energy">    -65.90237074 </i>
    <i name="e_wo_entrp">    -65.90237074 </i>
    <i name="e_0_energy">    -65.90237074 </i>
   </energy>
  </scstep>
  <scstep>
   <time name="dav">    0.69    0.69</time>
   <time name="total">    0.83    0.83</time>
   <energy>
    <i name="e_fr_energy">    -65.90255156 </i>
    <i name="e_wo_entrp">    -65.90255156 </i>
    <i name="e_0_energy">    -65.90255156 </i>
   </energy>
  </scstep>
  <scstep>
   <time name="dav">    0.52    0.52</time>
   <time name="total">    0.65    0.65</time>
   <energy>
    <i name="alphaZ">     15.62822637 </i>
    <i name="ewald">  -2521.10508900 </i>
    <i name="hartreedc">   -479.29269711 </i>
    <i name="XCdc">   -227.63613727 </i>
    <i name="pawpsdc">   5452.32439297 </i>
    <i name="pawaedc">  -5062.23995512 </i>
    <i name="eentropy">     -0.00000000 </i>
    <i name="bandstr">    -78.53473868 </i>
    <i name="atom">   2834.95345036 </i>
    <i name="e_fr_energy">    -65.90254748 </i>
    <i name="e_wo_entrp">    -65.90254748 </i>
    <i name="e_0_energy">    -65.90254748 </i>
   </energy>
  </scstep>
  <structure>
   <crystal>
    <varray name="basis" >
     <v>       5.67298127       0.70988404      -0.60237816 </v>
     <v>      -0.75634506       5.62196380      -0.45184717 </v>
     <v>       0.65704898       1.05041033      11.24997795 </v>
    </varray>
    <i name="volume">    370.02466223 </i>
    <varray name="rec_basis" >
     <v>       0.17220905       0.02219306      -0.01212994 </v>
     <v>      -0.02329284       0.17354710      -0.01484369 </v>
     <v>       0.00828536       0.00815872       0.08764338 </v>
    </varray>
   </crystal>
   <varray name="positions" >
    <v>       0.51633052       0.74734420       0.87659122 </v>
    <v>       0.48366948       0.25265580       0.12340878 </v>
    <v>       0.98422367       0.74697357       0.62381980 </v>
    <v>       0.01577633       0.25302643       0.37618020 </v>
    <v>       0.01229243       0.77114987       0.12249864 </v>
    <v>       0.98770757       0.22885013       0.87750136 </v>
    <v>       0.49125899       0.76908799       0.37967594 </v>
    <v>       0.50874101       0.23091201       0.62032406 </v>
    <v>       0.51440333       0.21549977       0.37324129 </v>
    <v>       0.48559667       0.78450023       0.62675871 </v>
    <v>       0.98551666       0.21763100       0.12659497 </v>
    <v>       0.01448334       0.78236900       0.87340503 </v>
    <v>       0.94868745       0.22772195       0.62978497 </v>
    <v>       0.05131255       0.77227805       0.37021503 </v>
    <v>       0.54848648       0.22800821       0.86895745 </v>
    <v>       0.45151352       0.77199179       0.13104255 </v>
   </varray>
  </structure>
  <varray name="forces" >
   <v>      -0.03649464      -0.21050523       0.07148092 </v>
   <v>       0.03649464       0.21050523      -0.07148092 </v>
   <v>       0.08584883      -0.19399453      -0.02579393 </v>
   <v>      -0.08584883       0.19399453       0.02579393 </v>
   <v>       0.28472620       0.25634661       0.23450403 </v>
   <v>      -0.28472620      -0.25634661      -0.23450403 </v>
   <v>      -0.26319527       0.18106026      -0.25181304 </v>
   <v>       0.26319527      -0.18106026       0.25181304 </v>
   <v>       0.12732589       0.01568664       0.42024497 </v>
   <v>      -0.12732589      -0.01568664      -0.42024497 </v>
   <v>      -0.08560011      -0.11164621      -0.44031647 </v>
[...]
        <r>  0.0001  0.0616  0.0000 </r>
       </set>
       <set comment="band 31">
        <r>  0.0002  0.0012  0.0000 </r>
        <r>  0.0002  0.0012  0.0000 </r>
        <r>  0.0000  0.0008  0.0000 </r>
        <r>  0.0000  0.0008  0.0000 </r>
        <r>  0.0009  0.0012  0.0012 </r>
        <r>  0.0009  0.0012  0.0012 </r>
        <r>  0.0011  0.0012  0.0008 </r>
        <r>  0.0011  0.0012  0.0008 </r>
        <r>  0.0001  0.0673  0.0000 </r>
        <r>  0.0001  0.0673  0.0000 </r>
        <r>  0.0002  0.0605  0.0000 </r>
        <r>  0.0002  0.0605  0.0000 </r>
        <r>  0.0001  0.0308  0.0000 </r>
        <r>  0.0001  0.0308  0.0000 </r>
        <r>  0.0002  0.0910  0.0000 </r>
        <r>  0.0002  0.0910  0.0000 </r>
       </set>
       <set comment="band 32">
        <r>  0.0001  0.0014  0.0000 </r>
        <r>  0.0001  0.0014  0.0000 </r>
        <r>  0.0000  0.0004  0.0000 </r>
        <r>  0.0000  0.0004  0.0000 </r>
        <r>  0.0036  0.0016  0.0014 </r>
        <r>  0.0036  0.0016  0.0014 </r>
        <r>  0.0019  0.0016  0.0010 </r>
        <r>  0.0019  0.0016  0.0010 </r>
        <r>  0.0003  0.0241  0.0000 </r>
        <r>  0.0003  0.0241  0.0000 </r>
        <r>  0.0002  0.1154  0.0000 </r>
        <r>  0.0002  0.1154  0.0000 </r>
        <r>  0.0001  0.0203  0.0000 </r>
        <r>  0.0001  0.0203  0.0000 </r>
        <r>  0.0001  0.0891  0.0000 </r>
        <r>  0.0001  0.0891  0.0000 </r>
       </set>
       <set comment="band 33">
        <r>  0.0003  0.0006  0.0000 </r>
        <r>  0.0003  0.0006  0.0000 </r>
        <r>  0.0002  0.0012  0.0000 </r>
        <r>  0.0002  0.0012  0.0000 </r>
        <r>  0.0281  0.0191  0.0015 </r>
        <r>  0.0281  0.0191  0.0015 </r>
        <r>  0.0141  0.0074  0.0014 </r>
        <r>  0.0141  0.0074  0.0014 </r>
        <r>  0.0013  0.0381  0.0000 </r>
        <r>  0.0013  0.0381  0.0000 </r>
        <r>  0.0002  0.0569  0.0000 </r>
        <r>  0.0002  0.0569  0.0000 </r>
        <r>  0.0001  0.0524  0.0000 </r>
        <r>  0.0001  0.0524  0.0000 </r>
        <r>  0.0011  0.0465  0.0000 </r>
        <r>  0.0011  0.0465  0.0000 </r>
       </set>
       <set comment="band 34">
        <r>  0.0003  0.0003  0.0000 </r>
        <r>  0.0003  0.0003  0.0000 </r>
        <r>  0.0001  0.0004  0.0000 </r>
        <r>  0.0001  0.0004  0.0000 </r>
        <r>  0.0200  0.0205  0.0010 </r>
        <r>  0.0200  0.0205  0.0010 </r>
        <r>  0.0140  0.0150  0.0004 </r>
        <r>  0.0140  0.0150  0.0004 </r>
        <r>  0.0010  0.0354  0.0000 </r>
        <r>  0.0010  0.0354  0.0000 </r>
        <r>  0.0016  0.0355  0.0000 </r>
        <r>  0.0016  0.0355  0.0000 </r>
        <r>  0.0008  0.0964  0.0000 </r>
        <r>  0.0008  0.0964  0.0000 </r>
        <r>  0.0018  0.0325  0.0000 </r>
        <r>  0.0018  0.0325  0.0000 </r>
       </set>
       <set comment="band 35">
        <r>  0.0002  0.0003  0.0000 </r>
        <r>  0.0002  0.0003  0.0000 </r>
        <r>  0.0000  0.0003  0.0000 </r>
        <r>  0.0000  0.0003  0.0000 </r>
        <r>  0.0038  0.0029  0.0008 </r>
        <r>  0.0038  0.0029  0.0008 </r>
        <r>  0.0378  0.0324  0.0011 </r>
        <r>  0.0378  0.0324  0.0011 </r>
        <r>  0.0030  0.0885  0.0000 </r>
        <r>  0.0030  0.0885  0.0000 </r>
        <r>  0.0002  0.0241  0.0000 </r>
        <r>  0.0002  0.0241  0.0000 </r>
        <r>  0.0023  0.0314  0.0000 </r>
        <r>  0.0023  0.0314  0.0000 </r>
        <r>  0.0010  0.0548  0.0000 </r>
        <r>  0.0010  0.0548  0.0000 </r>
       </set>
       <set comment="band 36">
        <r>  0.0005  0.0002  0.0000 </r>
        <r>  0.0005  0.0002  0.0000 </r>
        <r>  0.0001  0.0005  0.0000 </r>
        <r>  0.0001  0.0005  0.0000 </r>
        <r>  0.0364  0.0292  0.0007 </r>
        <r>  0.0364  0.0292  0.0007 </r>
        <r>  0.0112  0.0092  0.0007 </r>
        <r>  0.0112  0.0092  0.0007 </r>
        <r>  0.0002  0.0356  0.0000 </r>
        <r>  0.0002  0.0356  0.0000 </r>
        <r>  0.0038  0.0719  0.0000 </r>
        <r>  0.0038  0.0719  0.0000 </r>
        <r>  0.0014  0.0523  0.0000 </r>
        <r>  0.0014  0.0523  0.0000 </r>
        <r>  0.0016  0.0336  0.0000 </r>
        <r>  0.0016  0.0336  0.0000 </r>
       </set>
       <set comment="band 37">
        <r>  0.0002  0.0004  0.0000 </r>
        <r>  0.0002  0.0004  0.0000 </r>
        <r>  0.0007  0.0008  0.0000 </r>
        <r>  0.0007  0.0008  0.0000 </r>
        <r>  0.0056  0.0668  0.0017 </r>
        <r>  0.0056  0.0668  0.0017 </r>
        <r>  0.0082  0.0494  0.0016 </r>
        <r>  0.0082  0.0494  0.0016 </r>
        <r>  0.0101  0.0243  0.0000 </r>
        <r>  0.0101  0.0243  0.0000 </r>
        <r>  0.0121  0.0253  0.0000 </r>
        <r>  0.0121  0.0253  0.0000 </r>
        <r>  0.0030  0.0143  0.0000 </r>
        <r>  0.0030  0.0143  0.0000 </r>
        <r>  0.0009  0.0076  0.0000 </r>
        <r>  0.0009  0.0076  0.0000 </r>
       </set>
       <set comment="band 38">
        <r>  0.0000  0.0001  0.0000 </r>
        <r>  0.0000  0.0001  0.0000 </r>
        <r>  0.0006  0.0005  0.0000 </r>
        <r>  0.0006  0.0005  0.0000 </r>
        <r>  0.0063  0.0446  0.0020 </r>
        <r>  0.0063  0.0446  0.0020 </r>
        <r>  0.0038  0.0717  0.0043 </r>
        <r>  0.0038  0.0717  0.0043 </r>
        <r>  0.0034  0.0084  0.0000 </r>
        <r>  0.0034  0.0084  0.0000 </r>
        <r>  0.0004  0.0035  0.0000 </r>
        <r>  0.0004  0.0035  0.0000 </r>
        <r>  0.0113  0.0317  0.0000 </r>
        <r>  0.0113  0.0317  0.0000 </r>
        <r>  0.0070  0.0280  0.0000 </r>
        <r>  0.0070  0.0280  0.0000 </r>
       </set>
       <set comment="band 39">
        <r>  0.0004  0.0007  0.0000 </r>
        <r>  0.0004  0.0007  0.0000 </r>
        <r>  0.0003  0.0001  0.0000 </r>
        <r>  0.0003  0.0001  0.0000 </r>
        <r>  0.0028  0.0432  0.0021 </r>
        <r>  0.0028  0.0432  0.0021 </r>
        <r>  0.0122  0.0705  0.0021 </r>
        <r>  0.0122  0.0705  0.0021 </r>
        <r>  0.0034  0.0324  0.0000 </r>
        <r>  0.0034  0.0324  0.0000 </r>
        <r>  0.0010  0.0137  0.0000 </r>
        <r>  0.0010  0.0137  0.0000 </r>
        <r>  0.0054  0.0166  0.0000 </r>
        <r>  0.0054  0.0166  0.0000 </r>
        <r>  0.0099  0.0190  0.0000 </r>
        <r>  0.0099  0.0190  0.0000 </r>
       </set>
       <set comment="band 40">
        <r>  0.0006  0.0007  0.0000 </r>
        <r>  0.0006  0.0007  0.0000 </r>
        <r>  0.0002  0.0005  0.0000 </r>
        <r>  0.0002  0.0005  0.0000 </r>
        <r>  0.0178  0.0855  0.0029 </r>
        <r>  0.0178  0.0855  0.0029 </r>
        <r>  0.0062  0.0323  0.0009 </r>
        <r>  0.0062  0.0323  0.0009 </r>
        <r>  0.0042  0.0130  0.0000 </r>
        <r>  0.0042  0.0130  0.0000 </r>
        <r>  0.0073  0.0433  0.0000 </r>
        <r>  0.0073  0.0433  0.0000 </r>
        <r>  0.0014  0.0103  0.0000 </r>
        <r>  0.0014  0.0103  0.0000 </r>
        <r>  0.0015  0.0164  0.0000 </r>
        <r>  0.0015  0.0164  0.0000 </r>
       </set>
       <set comment="band 41">
        <r>  0.0010  0.0004  0.0000 </r>
        <r>  0.0010  0.0004  0.0000 </r>
        <r>  0.0010  0.0005  0.0000 </r>
        <r>  0.0010  0.0005  0.0000 </r>
        <r>  0.0017  0.0573  0.0021 </r>
        <r>  0.0017  0.0573  0.0021 </r>
        <r>  0.0043  0.0797  0.0031 </r>
        <r>  0.0043  0.0797  0.0031 </r>
        <r>  0.0019  0.0221  0.0000 </r>
        <r>  0.0019  0.0221  0.0000 </r>
        <r>  0.0021  0.0081  0.0000 </r>
        <r>  0.0021  0.0081  0.0000 </r>
        <r>  0.0021  0.0214  0.0000 </r>
        <r>  0.0021  0.0214  0.0000 </r>
        <r>  0.0016  0.0232  0.0000 </r>
        <r>  0.0016  0.0232  0.0000 </r>
       </set>
       <set comment="band 42">
        <r>  0.0002  0.0015  0.0000 </r>
        <r>  0.0002  0.0015  0.0000 </r>
        <r>  0.0001  0.0017  0.0000 </r>
        <r>  0.0001  0.0017  0.0000 </r>
        <r>  0.0024  0.0582  0.0034 </r>
        <r>  0.0024  0.0582  0.0034 </r>
        <r>  0.0042  0.0472  0.0037 </r>
        <r>  0.0042  0.0472  0.0037 </r>
        <r>  0.0094  0.0301  0.0000 </r>
        <r>  0.0094  0.0301  0.0000 </r>
        <r>  0.0041  0.0242  0.0000 </r>
        <r>  0.0041  0.0242  0.0000 </r>
        <r>  0.0086  0.0161  0.0000 </r>
        <r>  0.0086  0.0161  0.0000 </r>
        <r>  0.0057  0.0122  0.0000 </r>
        <r>  0.0057  0.0122  0.0000 </r>
       </set>
       <set comment="band 43">
        <r>  0.0012  0.0008  0.0000 </r>
        <r>  0.0012  0.0008  0.0000 </r>
        <r>  0.0003  0.0010  0.0000 </r>
        <r>  0.0003  0.0010  0.0000 </r>
        <r>  0.0038  0.0583  0.0049 </r>
        <r>  0.0038  0.0583  0.0049 </r>
        <r>  0.0043  0.0523  0.0024 </r>
        <r>  0.0043  0.0523  0.0024 </r>
        <r>  0.0002  0.0151  0.0000 </r>
        <r>  0.0002  0.0151  0.0000 </r>
        <r>  0.0009  0.0073  0.0000 </r>
        <r>  0.0009  0.0073  0.0000 </r>
        <r>  0.0070  0.0240  0.0000 </r>
        <r>  0.0070  0.0240  0.0000 </r>
        <r>  0.0140  0.0427  0.0000 </r>
        <r>  0.0140  0.0427  0.0000 </r>
       </set>
       <set comment="band 44">
        <r>  0.0010  0.0013  0.0000 </r>
        <r>  0.0010  0.0013  0.0000 </r>
        <r>  0.0008  0.0006  0.0000 </r>
        <r>  0.0008  0.0006  0.0000 </r>
        <r>  0.0025  0.0557  0.0016 </r>
        <r>  0.0025  0.0557  0.0016 </r>
        <r>  0.0049  0.0664  0.0015 </r>
        <r>  0.0049  0.0664  0.0015 </r>
        <r>  0.0039  0.0131  0.0000 </r>
        <r>  0.0039  0.0131  0.0000 </r>
        <r>  0.0080  0.0187  0.0000 </r>
        <r>  0.0080  0.0187  0.0000 </r>
        <r>  0.0000  0.0410  0.0000 </r>
        <r>  0.0000  0.0410  0.0000 </r>
        <r>  0.0019  0.0279  0.0000 </r>
        <r>  0.0019  0.0279  0.0000 </r>
       </set>
       <set comment="band 45">
        <r>  0.0014  0.0009  0.0000 </r>
        <r>  0.0014  0.0009  0.0000 </r>
        <r>  0.0008  0.0011  0.0000 </r>
        <r>  0.0008  0.0011  0.0000 </r>
        <r>  0.0110  0.0687  0.0036 </r>
        <r>  0.0110  0.0687  0.0036 </r>
        <r>  0.0014  0.0493  0.0027 </r>
        <r>  0.0014  0.0493  0.0027 </r>
        <r>  0.0037  0.0160  0.0000 </r>
        <r>  0.0037  0.0160  0.0000 </r>
        <r>  0.0101  0.0444  0.0000 </r>
        <r>  0.0101  0.0444  0.0000 </r>
        <r>  0.0000  0.0126  0.0000 </r>
        <r>  0.0000  0.0126  0.0000 </r>
        <r>  0.0001  0.0228  0.0000 </r>
        <r>  0.0001  0.0228  0.0000 </r>
       </set>
       <set comment="band 46">
        <r>  0.0001  0.0007  0.0000 </r>
        <r>  0.0001  0.0007  0.0000 </r>
        <r>  0.0003  0.0004  0.0000 </r>
        <r>  0.0003  0.0004  0.0000 </r>
        <r>  0.0067  0.0552  0.0013 </r>
        <r>  0.0067  0.0552  0.0013 </r>
        <r>  0.0088  0.0671  0.0031 </r>
        <r>  0.0088  0.0671  0.0031 </r>
        <r>  0.0020  0.0442  0.0000 </r>
        <r>  0.0020  0.0442  0.0000 </r>
        <r>  0.0008  0.0357  0.0000 </r>
        <r>  0.0008  0.0357  0.0000 </r>
        <r>  0.0052  0.0179  0.0000 </r>
        <r>  0.0052  0.0179  0.0000 </r>
        <r>  0.0016  0.0154  0.0000 </r>
        <r>  0.0016  0.0154  0.0000 </r>
       </set>
       <set comment="band 47">
        <r>  0.0001  0.0003  0.0000 </r>
        <r>  0.0001  0.0003  0.0000 </r>
        <r>  0.0015  0.0005  0.0000 </r>
        <r>  0.0015  0.0005  0.0000 </r>
        <r>  0.0052  0.0496  0.0017 </r>
        <r>  0.0052  0.0496  0.0017 </r>
        <r>  0.0125  0.0603  0.0028 </r>
        <r>  0.0125  0.0603  0.0028 </r>
        <r>  0.0048  0.0345  0.0000 </r>
        <r>  0.0048  0.0345  0.0000 </r>
        <r>  0.0017  0.0233  0.0000 </r>
        <r>  0.0017  0.0233  0.0000 </r>
        <r>  0.0047  0.0316  0.0000 </r>
        <r>  0.0047  0.0316  0.0000 </r>
        <r>  0.0050  0.0252  0.0000 </r>
        <r>  0.0050  0.0252  0.0000 </r>
       </set>
       <set comment="band 48">
        <r>  0.0029  0.0027  0.0000 </r>
        <r>  0.0029  0.0027  0.0000 </r>
        <r>  0.0021  0.0022  0.0000 </r>
        <r>  0.0021  0.0022  0.0000 </r>
        <r>  0.0006  0.0675  0.0010 </r>
        <r>  0.0006  0.0675  0.0010 </r>
        <r>  0.0007  0.0612  0.0005 </r>
        <r>  0.0007  0.0612  0.0005 </r>
        <r>  0.0028  0.0228  0.0000 </r>
        <r>  0.0028  0.0228  0.0000 </r>
        <r>  0.0014  0.0204  0.0000 </r>
        <r>  0.0014  0.0204  0.0000 </r>
        <r>  0.0010  0.0277  0.0000 </r>
        <r>  0.0010  0.0277  0.0000 </r>
        <r>  0.0006  0.0229  0.0000 </r>
        <r>  0.0006  0.0229  0.0000 </r>
       </set>
       <set comment="band 49">
        <r>  0.0008  0.0030  0.0000 </r>
        <r>  0.0008  0.0030  0.0000 </r>
        <r>  0.0002  0.0046  0.0000 </r>
        <r>  0.0002  0.0046  0.0000 </r>
        <r>  0.0011  0.0042  0.0118 </r>
        <r>  0.0011  0.0042  0.0118 </r>
        <r>  0.0014  0.0047  0.0130 </r>
        <r>  0.0014  0.0047  0.0130 </r>
        <r>  0.0006  0.0075  0.0000 </r>
        <r>  0.0006  0.0075  0.0000 </r>
        <r>  0.0002  0.0095  0.0000 </r>
        <r>  0.0002  0.0095  0.0000 </r>
        <r>  0.0006  0.0082  0.0000 </r>
        <r>  0.0006  0.0082  0.0000 </r>
        <r>  0.0001  0.0118  0.0000 </r>
        <r>  0.0001  0.0118  0.0000 </r>
       </set>
       <set comment="band 50">
        <r>  0.0252  0.0154  0.0000 </r>
        <r>  0.0252  0.0154  0.0000 </r>
        <r>  0.0082  0.0070  0.0000 </r>
        <r>  0.0082  0.0070  0.0000 </r>
        <r>  0.0038  0.0067  0.0031 </r>
        <r>  0.0038  0.0067  0.0031 </r>
        <r>  0.0032  0.0021  0.0029 </r>
        <r>  0.0032  0.0021  0.0029 </r>
        <r>  0.0050  0.0070  0.0000 </r>
        <r>  0.0050  0.0070  0.0000 </r>
        <r>  0.0048  0.0093  0.0000 </r>
        <r>  0.0048  0.0093  0.0000 </r>
        <r>  0.0025  0.0026  0.0000 </r>
        <r>  0.0025  0.0026  0.0000 </r>
        <r>  0.0074  0.0092  0.0000 </r>
        <r>  0.0074  0.0092  0.0000 </r>
       </set>
       <set comment="band 51">
        <r>  0.0051  0.0062  0.0000 </r>
        <r>  0.0051  0.0062  0.0000 </r>
        <r>  0.0143  0.0110  0.0000 </r>
        <r>  0.0143  0.0110  0.0000 </r>
        <r>  0.0001  0.0066  0.0141 </r>
        <r>  0.0001  0.0066  0.0141 </r>
        <r>  0.0001  0.0042  0.0029 </r>
        <r>  0.0001  0.0042  0.0029 </r>
        <r>  0.0007  0.0117  0.0000 </r>
        <r>  0.0007  0.0117  0.0000 </r>
        <r>  0.0014  0.0023  0.0000 </r>
        <r>  0.0014  0.0023  0.0000 </r>
        <r>  0.0036  0.0084  0.0000 </r>
        <r>  0.0036  0.0084  0.0000 </r>
        <r>  0.0007  0.0058  0.0000 </r>
        <r>  0.0007  0.0058  0.0000 </r>
       </set>
       <set comment="band 52">
        <r>  0.0085  0.0031  0.0000 </r>
        <r>  0.0085  0.0031  0.0000 </r>
        <r>  0.0147  0.0162  0.0000 </r>
        <r>  0.0147  0.0162  0.0000 </r>
        <r>  0.0002  0.0020  0.0047 </r>
        <r>  0.0002  0.0020  0.0047 </r>
        <r>  0.0007  0.0127  0.0108 </r>
        <r>  0.0007  0.0127  0.0108 </r>
        <r>  0.0006  0.0021  0.0000 </r>
        <r>  0.0006  0.0021  0.0000 </r>
        <r>  0.0002  0.0125  0.0000 </r>
        <r>  0.0002  0.0125  0.0000 </r>
        <r>  0.0020  0.0041  0.0000 </r>
        <r>  0.0020  0.0041  0.0000 </r>
        <r>  0.0013  0.0020  0.0000 </r>
        <r>  0.0013  0.0020  0.0000 </r>
       </set>
       <set comment="band 53">
        <r>  0.0153  0.0108  0.0000 </r>
        <r>  0.0153  0.0108  0.0000 </r>
        <r>  0.0009  0.0019  0.0000 </r>
        <r>  0.0009  0.0019  0.0000 </r>
        <r>  0.0003  0.0058  0.0090 </r>
        <r>  0.0003  0.0058  0.0090 </r>
        <r>  0.0002  0.0031  0.0133 </r>
        <r>  0.0002  0.0031  0.0133 </r>
        <r>  0.0001  0.0046  0.0000 </r>
        <r>  0.0001  0.0046  0.0000 </r>
        <r>  0.0016  0.0021  0.0000 </r>
        <r>  0.0016  0.0021  0.0000 </r>
        <r>  0.0000  0.0024  0.0000 </r>
        <r>  0.0000  0.0024  0.0000 </r>
        <r>  0.0008  0.0140  0.0000 </r>
        <r>  0.0008  0.0140  0.0000 </r>
       </set>
       <set comment="band 54">
        <r>  0.0139  0.0087  0.0000 </r>
        <r>  0.0139  0.0087  0.0000 </r>
        <r>  0.0142  0.0115  0.0000 </r>
        <r>  0.0142  0.0115  0.0000 </r>
        <r>  0.0008  0.0062  0.0052 </r>
        <r>  0.0008  0.0062  0.0052 </r>
        <r>  0.0007  0.0154  0.0054 </r>
        <r>  0.0007  0.0154  0.0054 </r>
        <r>  0.0026  0.0174  0.0000 </r>
        <r>  0.0026  0.0174  0.0000 </r>
        <r>  0.0022  0.0079  0.0000 </r>
        <r>  0.0022  0.0079  0.0000 </r>
        <r>  0.0001  0.0057  0.0000 </r>
        <r>  0.0001  0.0057  0.0000 </r>
        <r>  0.0014  0.0058  0.0000 </r>
        <r>  0.0014  0.0058  0.0000 </r>
       </set>
       <set comment="band 55">
        <r>  0.0041  0.0058  0.0000 </r>
        <r>  0.0041  0.0058  0.0000 </r>
        <r>  0.0187  0.0145  0.0000 </r>
        <r>  0.0187  0.0145  0.0000 </r>
        <r>  0.0014  0.0113  0.0042 </r>
        <r>  0.0014  0.0113  0.0042 </r>
        <r>  0.0002  0.0147  0.0042 </r>
        <r>  0.0002  0.0147  0.0042 </r>
        <r>  0.0016  0.0045  0.0000 </r>
        <r>  0.0016  0.0045  0.0000 </r>
        <r>  0.0010  0.0116  0.0000 </r>
        <r>  0.0010  0.0116  0.0000 </r>
        <r>  0.0029  0.0232  0.0000 </r>
        <r>  0.0029  0.0232  0.0000 </r>
        <r>  0.0000  0.0057  0.0000 </r>
        <r>  0.0000  0.0057  0.0000 </r>
       </set>
       <set comment="band 56">
        <r>  0.0041  0.0153  0.0000 </r>
        <r>  0.0041  0.0153  0.0000 </r>
        <r>  0.0020  0.0068  0.0000 </r>
        <r>  0.0020  0.0068  0.0000 </r>
        <r>  0.0006  0.0141  0.0070 </r>
        <r>  0.0006  0.0141  0.0070 </r>
        <r>  0.0006  0.0103  0.0096 </r>
        <r>  0.0006  0.0103  0.0096 </r>
        <r>  0.0016  0.0095  0.0000 </r>
        <r>  0.0016  0.0095  0.0000 </r>
        <r>  0.0006  0.0085  0.0000 </r>
        <r>  0.0006  0.0085  0.0000 </r>
        <r>  0.0002  0.0114  0.0000 </r>
        <r>  0.0002  0.0114  0.0000 </r>
        <r>  0.0000  0.0112  0.0000 </r>
        <r>  0.0000  0.0112  0.0000 </r>
       </set>
      </set>
     </set>
    </set>
   </array>
  </projected>
 </calculation>
 <structure name="finalpos" >
  <crystal>
   <varray name="basis" >
    <v>       5.66513410       0.71880325      -0.59390328 </v>
    <v>      -0.75189383       5.64699927      -0.46584687 </v>
    <v>       0.69763043       1.04970713      11.45447973 </v>
   </varray>
   <i name="volume">    377.97619031 </i>
   <varray name="rec_basis" >
    <v>       0.17242473       0.02192615      -0.01251081 </v>
    <v>      -0.02343254       0.17277673      -0.01440639 </v>
    <v>       0.00798706       0.00816358       0.08606752 </v>
   </varray>
  </crystal>
  <varray name="positions" >
   <v>       0.50923283       0.74341869       0.87609224 </v>
   <v>       0.49076717       0.25658131       0.12390776 </v>
   <v>       0.99048641       0.74491179       0.62466465 </v>
   <v>       0.00951359       0.25508821       0.37533535 </v>
   <v>       0.02618170       0.77916156       0.12499653 </v>
   <v>       0.97381830       0.22083844       0.87500347 </v>
   <v>       0.48343993       0.77702440       0.37749995 </v>
   <v>       0.51656007       0.22297560       0.62250005 </v>
   <v>       0.51294218       0.21774740       0.38227461 </v>
   <v>       0.48705782       0.78225260       0.61772539 </v>
   <v>       0.98855867       0.21829246       0.11837417 </v>
   <v>       0.01144133       0.78170754       0.88162583 </v>
   <v>       0.95281611       0.24516829       0.63198630 </v>
   <v>       0.04718389       0.75483171       0.36801370 </v>
   <v>       0.53836292       0.24352227       0.86640341 </v>
   <v>       0.46163708       0.75647773       0.13359659 </v>
  </varray>
 </structure>
</modeling>
