CIS                                     
           1
     6.456999    0.790754   -0.988154
    -0.865150    6.470254   -0.535566
     0.147270    1.054517   12.410146
   Na   Sb   S 
   4   4   8
Direct configuration=     1
   0.51696127  0.73781771  0.88080757
   0.48303873  0.26218229  0.11919243
   0.98367476  0.73743148  0.61946244
   0.01632524  0.26256852  0.38053756
   0.03733388  0.79571282  0.12119584
   0.96266612  0.20428718  0.87880416
   0.46308368  0.79527065  0.37915100
   0.53691632  0.20472935  0.62084900
   0.51656990  0.18558520  0.38446004
   0.48343010  0.81441480  0.61553996
   0.98260466  0.18602253  0.11531716
   0.01739534  0.81397747  0.88468284
   0.93178840  0.23024954  0.64474581
   0.06821160  0.76975046  0.35525419
   0.56779112  0.23067466  0.85497141
   0.43220888  0.76932534  0.14502859
CIS                                     
           1
     6.388356    0.783011   -0.972004
    -0.855250    6.397749   -0.529542
     0.156928    1.045113   12.281397
   Na   Sb   S 
   4   4   8
Direct configuration=     2
   0.51697558  0.73807671  0.88070723
   0.48302442  0.26192329  0.11929277
   0.98365368  0.73769192  0.61956298
   0.01634632  0.26230808  0.38043702
   0.03857736  0.79693879  0.12131061
   0.96142264  0.20306121  0.87868939
   0.46193449  0.79641374  0.37909767
   0.53806551  0.20358626  0.62090233
   0.51629526  0.18451614  0.38457728
   0.48370474  0.81548386  0.61542272
   0.98289646  0.18494720  0.11520069
   0.01710354  0.81505280  0.88479931
   0.93064667  0.23009845  0.64482791
   0.06935333  0.76990155  0.35517209
   0.56893736  0.23049088  0.85489680
   0.43106264  0.76950912  0.14510320
CIS                                     
           1
     6.221436    0.764183   -0.932732
    -0.831176    6.221441   -0.514895
     0.180414    1.022247   11.968322
   Na   Sb   S 
   4   4   8
Direct configuration=     3
   0.51701116  0.73871365  0.88046070
   0.48298884  0.26128635  0.11953930
   0.98360141  0.73833241  0.61981000
   0.01639859  0.26166759  0.38019000
   0.04163302  0.79995364  0.12159117
   0.95836698  0.20004636  0.87840883
   0.45911014  0.79922496  0.37896792
   0.54088986  0.20077504  0.62103208
   0.51561984  0.18188710  0.38486565
   0.48438016  0.81811290  0.61513435
   0.98361422  0.18230268  0.11491421
   0.01638578  0.81769732  0.88508579
   0.92784017  0.22972697  0.64503091
   0.07215983  0.77027303  0.35496909
   0.57175495  0.23003883  0.85471220
   0.42824505  0.76996117  0.14528780
CIS                                     
           1
     6.182784    0.759823   -0.923638
    -0.825601    6.180615   -0.511503
     0.185852    1.016952   11.895826
   Na   Sb   S 
   4   4   8
Direct configuration=     4
   0.51701987  0.73886532  0.88040213
   0.48298013  0.26113468  0.11959787
   0.98358871  0.73848492  0.61986869
   0.01641129  0.26151508  0.38013131
   0.04235924  0.80067150  0.12165696
   0.95764076  0.19932850  0.87834304
   0.45843864  0.79989444  0.37893788
   0.54156136  0.20010556  0.62106212
   0.51545898  0.18126107  0.38493434
   0.48454102  0.81873893  0.61506566
   0.98378524  0.18167294  0.11484597
   0.01621476  0.81832706  0.88515403
   0.92717263  0.22963856  0.64507990
   0.07282737  0.77036144  0.35492010
   0.57242512  0.22993113  0.85466757
   0.42757488  0.77006887  0.14533243
CIS                                     
           1
     6.166626    0.758650   -0.909355
    -0.822109    6.154047   -0.508661
     0.202427    1.014538   11.825369
   Na   Sb   S 
   4   4   8
Direct configuration=     5
   0.51701447  0.73924071  0.88024145
   0.48298553  0.26075929  0.11975855
   0.98359055  0.73886104  0.62003284
   0.01640945  0.26113896  0.37996716
   0.04094458  0.79965545  0.12162762
   0.95905542  0.20034455  0.87837238
   0.45999987  0.79877512  0.37904710
   0.54000013  0.20122488  0.62095290
   0.51534874  0.18256686  0.38464280
   0.48465126  0.81743314  0.61535720
   0.98392330  0.18301371  0.11515651
   0.01607670  0.81698629  0.88484349
   0.92825844  0.22944872  0.64471560
   0.07174156  0.77055128  0.35528440
   0.57125574  0.22974620  0.85500874
   0.42874426  0.77025380  0.14499126
CIS                                     
           1
     6.118150    0.755129   -0.866503
    -0.811631    6.074343   -0.500137
     0.252151    1.007295   11.613998
   Na   Sb   S 
   4   4   8
Direct configuration=     6
   0.51699964  0.74037185  0.87975661
   0.48300036  0.25962815  0.12024339
   0.98359467  0.73999419  0.62052802
   0.01640533  0.26000581  0.37947198
   0.03668953  0.79659403  0.12154350
   0.96331047  0.20340597  0.87845650
   0.46469499  0.79540269  0.37937212
   0.53530501  0.20459731  0.62062788
   0.51501971  0.18650134  0.38376327
   0.48498029  0.81349866  0.61623673
   0.98433592  0.18705324  0.11609284
   0.01566408  0.81294676  0.88390716
   0.93152768  0.22887703  0.64361320
   0.06847232  0.77112297  0.35638680
   0.56773532  0.22918871  0.85604166
   0.43226468  0.77081129  0.14395834
CIS                                     
           1
     6.021200    0.748089   -0.780801
    -0.790677    5.914935   -0.483088
     0.351600    0.992809   11.191256
   Na   Sb   S 
   4   4   8
Direct configuration=     7
   0.51697847  0.74266444  0.87876966
   0.48302153  0.25733556  0.12123034
   0.98359422  0.74228967  0.62153533
   0.01640578  0.25771033  0.37846467
   0.02811208  0.79039006  0.12139957
   0.97188792  0.20960994  0.87860043
   0.47415488  0.78856963  0.38000569
   0.52584512  0.21143037  0.61999431
   0.51437235  0.19447473  0.38197415
   0.48562765  0.80552527  0.61802585
   0.98515140  0.19523743  0.11799439
   0.01484860  0.80476257  0.88200561
   0.93813852  0.22772054  0.64134983
   0.06186148  0.77227946  0.35865017
   0.56061922  0.22805722  0.85816557
   0.43938078  0.77194278  0.14183443
CIS                                     
           1
     5.986378    0.744268   -0.762958
    -0.787244    5.885638   -0.479964
     0.382145    0.998569   11.197128
   Na   Sb   S 
   4   4   8
Direct configuration=     8
   0.51691162  0.74312603  0.87855117
   0.48308838  0.25687397  0.12144883
   0.98365918  0.74275186  0.62176459
   0.01634082  0.25724814  0.37823541
   0.02655728  0.78849239  0.12150436
   0.97344272  0.21150761  0.87849564
   0.47583802  0.78664714  0.37997781
   0.52416198  0.21335286  0.62002219
   0.51436296  0.19654854  0.38109915
   0.48563704  0.80345146  0.61890085
   0.98519860  0.19744713  0.11885697
   0.01480140  0.80255287  0.88114303
   0.93916076  0.22771979  0.64019398
   0.06083924  0.77228021  0.35980602
   0.55944006  0.22805327  0.85924343
   0.44055994  0.77194673  0.14075657
CIS                                     
           1
     5.881912    0.732807   -0.709432
    -0.776944    5.797746   -0.470592
     0.473780    1.015849   11.214745
   Na   Sb   S 
   4   4   8
Direct configuration=     9
   0.51671332  0.74451781  0.87789642
   0.48328668  0.25548219  0.12210358
   0.98385185  0.74414524  0.62245147
   0.01614815  0.25585476  0.37754853
   0.02186326  0.78277050  0.12182433
   0.97813674  0.21722950  0.87817567
   0.48091718  0.78085153  0.37988856
   0.51908282  0.21914847  0.62011144
   0.51434847  0.20280142  0.37847609
   0.48565153  0.79719858  0.62152391
   0.98532849  0.20410873  0.12144186
   0.01467151  0.79589127  0.87855814
   0.94226318  0.22771852  0.63672584
   0.05773682  0.77228148  0.36327416
   0.55586531  0.22804040  0.86247837
   0.44413469  0.77195960  0.13752163
CIS                                     
           1
     5.672981    0.709884   -0.602378
    -0.756345    5.621964   -0.451847
     0.657049    1.050410   11.249978
   Na   Sb   S 
   4   4   8
Direct configuration=    10
   0.51633052  0.74734420  0.87659122
   0.48366948  0.25265580  0.12340878
   0.98422367  0.74697357  0.62381980
   0.01577633  0.25302643  0.37618020
   0.01229243  0.77114987  0.12249864
   0.98770757  0.22885013  0.87750136
   0.49125899  0.76908799  0.37967594
   0.50874101  0.23091201  0.62032406
   0.51440333  0.21549977  0.37324129
   0.48559667  0.78450023  0.62675871
   0.98551666  0.21763100  0.12659497
   0.01448334  0.78236900  0.87340503
   0.94868745  0.22772195  0.62978497
   0.05131255  0.77227805  0.37021503
   0.54848648  0.22800821  0.86895745
   0.45151352  0.77199179  0.13104255
CIS                                     
           1
     5.757542    0.719162   -0.645706
    -0.764682    5.693108   -0.459434
     0.582874    1.036422   11.235718
   Na   Sb   S 
   4   4   8
Direct configuration=    11
   0.51647379  0.74616398  0.87711617
   0.48352621  0.25383602  0.12288383
   0.98408450  0.74579363  0.62327026
   0.01591550  0.25420637  0.37672974
   0.01632385  0.77600317  0.12219636
   0.98367615  0.22399683  0.87780364
   0.48691521  0.77399487  0.37979101
   0.51308479  0.22600513  0.62020899
   0.51430971  0.21019711  0.37535173
   0.48569029  0.78980289  0.62464827
   0.98550097  0.21198949  0.12452219
   0.01449903  0.78801051  0.87547781
   0.94589949  0.22771531  0.63259983
   0.05410051  0.77228469  0.36740017
   0.55166942  0.22802690  0.86632569
   0.44833058  0.77197310  0.13367431
CIS                                     
           1
     5.741713    0.718262   -0.643139
    -0.763427    5.691373   -0.459163
     0.590278    1.041184   11.278109
   Na   Sb   S 
   4   4   8
Direct configuration=    12
   0.51622607  0.74553984  0.87718508
   0.48377393  0.25446016  0.12281492
   0.98432484  0.74519157  0.62322326
   0.01567516  0.25480843  0.37677674
   0.01741054  0.77644229  0.12251523
   0.98258946  0.22355771  0.87748477
   0.48557587  0.77450422  0.37894245
   0.51442413  0.22549578  0.62105755
   0.51463387  0.21023349  0.37582419
   0.48536613  0.78976651  0.62417581
   0.98520738  0.21184552  0.12400516
   0.01479262  0.78815448  0.87599484
   0.94557344  0.22941442  0.63244456
   0.05442656  0.77058558  0.36755544
   0.55199249  0.22957283  0.86649607
   0.44800751  0.77042717  0.13350393
CIS                                     
           1
     5.696765    0.715708   -0.635851
    -0.759863    5.686444   -0.458396
     0.611302    1.054703   11.398480
   Na   Sb   S 
   4   4   8
Direct configuration=    13
   0.51552086  0.74376709  0.87738010
   0.48447914  0.25623291  0.12261990
   0.98500961  0.74348132  0.62309029
   0.01499039  0.25651868  0.37690971
   0.02050368  0.77768904  0.12341693
   0.97949632  0.22231096  0.87658307
   0.48176423  0.77595174  0.37654235
   0.51823577  0.22404826  0.62345765
   0.51555565  0.21033664  0.37716057
   0.48444435  0.78966336  0.62283943
   0.98437279  0.21143676  0.12254272
   0.01562721  0.78856324  0.87745728
   0.94464463  0.23424089  0.63200534
   0.05535537  0.76575911  0.36799466
   0.55291120  0.23396386  0.86697786
   0.44708880  0.76603614  0.13302214
CIS                                     
           1
     5.717285    0.719841   -0.631049
    -0.759499    5.688576   -0.461710
     0.627694    1.053317   11.431113
   Na   Sb   S 
   4   4   8
Direct configuration=    14
   0.51497559  0.74271814  0.87737453
   0.48502441  0.25728186  0.12262547
   0.98552391  0.74247692  0.62307532
   0.01447609  0.25752308  0.37692468
   0.02091941  0.77842227  0.12378230
   0.97908059  0.22157773  0.87621770
   0.48181912  0.77651462  0.37576844
   0.51818088  0.22348538  0.62423156
   0.51605114  0.21099575  0.37820340
   0.48394886  0.78900425  0.62179660
   0.98399190  0.21179387  0.12138956
   0.01600810  0.78820613  0.87861044
   0.94604646  0.23735328  0.63199912
   0.05395354  0.76264672  0.36800088
   0.55166646  0.23687072  0.86718476
   0.44833354  0.76312928  0.13281524
CIS                                     
           1
     5.754642    0.727365   -0.622307
    -0.758835    5.692457   -0.467742
     0.657536    1.050794   11.490524
   Na   Sb   S 
   4   4   8
Direct configuration=    15
   0.51398671  0.74080942  0.87736453
   0.48601329  0.25919058  0.12263547
   0.98645721  0.74064894  0.62304708
   0.01354279  0.25935106  0.37695292
   0.02167178  0.77975720  0.12444539
   0.97832822  0.22024280  0.87555461
   0.48192192  0.77753739  0.37436388
   0.51807808  0.22246261  0.62563612
   0.51694529  0.21219712  0.38009607
   0.48305471  0.78780288  0.61990393
   0.98330587  0.21244155  0.11929697
   0.01669413  0.78755845  0.88070303
   0.94858868  0.24301675  0.63198774
   0.05141132  0.75698325  0.36801226
   0.54940673  0.24216138  0.86756315
   0.45059327  0.75783862  0.13243685
CIS                                     
           1
     5.741009    0.724619   -0.625497
    -0.759077    5.691041   -0.465540
     0.646646    1.051715   11.468844
   Na   Sb   S 
   4   4   8
Direct configuration=    16
   0.51434506  0.74150534  0.87736809
   0.48565494  0.25849466  0.12263191
   0.98611859  0.74131564  0.62305803
   0.01388141  0.25868436  0.37694197
   0.02140015  0.77927002  0.12420478
   0.97859985  0.22072998  0.87579522
   0.48188253  0.77716546  0.37487357
   0.51811747  0.22283454  0.62512643
   0.51662418  0.21175777  0.37940922
   0.48337582  0.78824223  0.62059078
   0.98355138  0.21220681  0.12005614
   0.01644862  0.78779319  0.87994386
   0.94766744  0.24095184  0.63199191
   0.05233256  0.75904816  0.36800809
   0.55022718  0.24023161  0.86742395
   0.44977282  0.75976839  0.13257605
CIS                                     
           1
     5.736825    0.725066   -0.618263
    -0.757377    5.678157   -0.468625
     0.656816    1.040701   11.420373
   Na   Sb   S 
   4   4   8
Direct configuration=    17
   0.51391196  0.74117352  0.87722663
   0.48608804  0.25882648  0.12277337
   0.98650120  0.74106806  0.62311766
   0.01349880  0.25893194  0.37688234
   0.02146210  0.77982845  0.12434238
   0.97853790  0.22017155  0.87565762
   0.48136884  0.77816279  0.37507905
   0.51863116  0.22183721  0.62492095
   0.51672133  0.21212838  0.38016125
   0.48327867  0.78787162  0.61983875
   0.98344535  0.21272934  0.11935003
   0.01655465  0.78727066  0.88064997
   0.94824115  0.24265289  0.63236657
   0.05175885  0.75734711  0.36763343
   0.54938899  0.24171924  0.86730632
   0.45061101  0.75828076  0.13269368
CIS                                     
           1
     5.735047    0.725256   -0.615190
    -0.756655    5.672682   -0.469936
     0.661137    1.036022   11.399777
   Na   Sb   S 
   4   4   8
Direct configuration=    18
   0.51372792  0.74103214  0.87716633
   0.48627208  0.25896786  0.12283367
   0.98666385  0.74096265  0.62314298
   0.01333615  0.25903735  0.37685702
   0.02148832  0.78006634  0.12440116
   0.97851168  0.21993366  0.87559884
   0.48115020  0.77858765  0.37516700
   0.51884980  0.22141235  0.62483300
   0.51676197  0.21228666  0.38048217
   0.48323803  0.78771334  0.61951783
   0.98340087  0.21295143  0.11904883
   0.01659913  0.78704857  0.88095117
   0.94848475  0.24337750  0.63252655
   0.05151525  0.75662250  0.36747345
   0.54903262  0.24235270  0.86725657
   0.45096738  0.75764730  0.13274343
CIS                                     
           1
     5.727906    0.723201   -0.609305
    -0.758375    5.672651   -0.471345
     0.671522    1.034090   11.396397
   Na   Sb   S 
   4   4   8
Direct configuration=    19
   0.51341182  0.74114511  0.87700337
   0.48658818  0.25885489  0.12299663
   0.98693355  0.74117609  0.62323547
   0.01306645  0.25882391  0.37676453
   0.02159287  0.77953837  0.12454164
   0.97840713  0.22046163  0.87545836
   0.48157297  0.77855430  0.37558224
   0.51842703  0.22144570  0.62441776
   0.51649285  0.21307632  0.38061413
   0.48350715  0.78692368  0.61938587
   0.98357990  0.21392822  0.11898188
   0.01642010  0.78607178  0.88101812
   0.94877586  0.24389517  0.63271394
   0.05122414  0.75610483  0.36728606
   0.54851238  0.24273174  0.86723698
   0.45148762  0.75726826  0.13276302
CIS                                     
           1
     5.717429    0.720185   -0.600670
    -0.760900    5.672607   -0.473412
     0.686759    1.031256   11.391438
   Na   Sb   S 
   4   4   8
Direct configuration=    20
   0.51294786  0.74131063  0.87676442
   0.48705214  0.25868937  0.12323558
   0.98732967  0.74148944  0.62337108
   0.01267033  0.25851056  0.37662892
   0.02174592  0.77876385  0.12474766
   0.97825408  0.22123615  0.87525234
   0.48219304  0.77850584  0.37619139
   0.51780696  0.22149416  0.62380861
   0.51609742  0.21423495  0.38080813
   0.48390258  0.78576505  0.61919187
   0.98384352  0.21536142  0.11888368
   0.01615648  0.78463858  0.88111632
   0.94920331  0.24465497  0.63298889
   0.05079669  0.75534503  0.36701111
   0.54774821  0.24328765  0.86720863
   0.45225179  0.75671235  0.13279137
CIS                                     
           1
     5.696475    0.714152   -0.583401
    -0.765949    5.672518   -0.477546
     0.717235    1.025587   11.381519
   Na   Sb   S 
   4   4   8
Direct configuration=    21
   0.51201950  0.74164088  0.87628703
   0.48798050  0.25835912  0.12371297
   0.98812300  0.74211661  0.62364202
   0.01187700  0.25788339  0.37635798
   0.02205090  0.77721539  0.12515931
   0.97794910  0.22278461  0.87484069
   0.48343241  0.77841038  0.37740928
   0.51656759  0.22158962  0.62259072
   0.51530493  0.21655200  0.38119722
   0.48469507  0.78344800  0.61880278
   0.98437345  0.21822765  0.11868747
   0.01562655  0.78177235  0.88131253
   0.95005906  0.24617521  0.63353872
   0.04994094  0.75382479  0.36646128
   0.54621747  0.24439874  0.86715312
   0.45378253  0.75560126  0.13284688
CIS                                     
           1
     5.711056    0.718350   -0.595417
    -0.762436    5.672580   -0.474669
     0.696029    1.029531   11.388421
   Na   Sb   S 
   4   4   8
Direct configuration=    22
   0.51266611  0.74141214  0.87661852
   0.48733389  0.25858786  0.12338148
   0.98756942  0.74167954  0.62345390
   0.01243058  0.25832046  0.37654610
   0.02184022  0.77829208  0.12487338
   0.97815978  0.22170792  0.87512662
   0.48257109  0.77847481  0.37656239
   0.51742891  0.22152519  0.62343761
   0.51585865  0.21494000  0.38092495
   0.48414135  0.78506000  0.61907505
   0.98400091  0.21623346  0.11882377
   0.01599909  0.78376654  0.88117623
   0.94946238  0.24511648  0.63315621
   0.05053762  0.75488352  0.36684379
   0.54728599  0.24362664  0.86719010
   0.45271401  0.75637336  0.13280990
CIS                                     
           1
     5.701069    0.717699   -0.590466
    -0.760903    5.663920   -0.473055
     0.705315    1.033653   11.400557
   Na   Sb   S 
   4   4   8
Direct configuration=    23
   0.51233158  0.74163735  0.87647488
   0.48766842  0.25836265  0.12352512
   0.98785390  0.74201748  0.62359407
   0.01214610  0.25798252  0.37640593
   0.02182040  0.77825629  0.12488267
   0.97817960  0.22174371  0.87511733
   0.48310537  0.77832905  0.37687234
   0.51689463  0.22167095  0.62312766
   0.51547020  0.21555332  0.38101712
   0.48452980  0.78444668  0.61898288
   0.98447864  0.21677362  0.11886785
   0.01552136  0.78322638  0.88113215
   0.94977500  0.24542546  0.63308292
   0.05022500  0.75457454  0.36691708
   0.54660245  0.24381187  0.86716849
   0.45339755  0.75618813  0.13283151
CIS                                     
           1
     5.677304    0.716150   -0.578683
    -0.757256    5.643312   -0.469213
     0.727414    1.043460   11.429437
   Na   Sb   S 
   4   4   8
Direct configuration=    24
   0.51153457  0.74217424  0.87613368
   0.48846543  0.25782576  0.12386632
   0.98853151  0.74282277  0.62392694
   0.01146849  0.25717723  0.37607306
   0.02177314  0.77817097  0.12490477
   0.97822686  0.22182903  0.87509523
   0.48437795  0.77798136  0.37760866
   0.51562205  0.22201864  0.62239134
   0.51454376  0.21701507  0.38123641
   0.48545624  0.78298493  0.61876359
   0.98561730  0.21806095  0.11897211
   0.01438270  0.78193905  0.88102789
   0.95052048  0.24616190  0.63290840
   0.04947952  0.75383810  0.36709160
   0.54497299  0.24425344  0.86711764
   0.45502701  0.75574656  0.13288236
CIS                                     
           1
     5.685245    0.716667   -0.582620
    -0.758475    5.650198   -0.470496
     0.720029    1.040183   11.419787
   Na   Sb   S 
   4   4   8
Direct configuration=    25
   0.51180164  0.74199405  0.87624720
   0.48819836  0.25800595  0.12375280
   0.98830455  0.74255279  0.62381625
   0.01169545  0.25744721  0.37618375
   0.02178902  0.77819959  0.12489738
   0.97821098  0.22180041  0.87510262
   0.48395178  0.77809821  0.37736362
   0.51604822  0.22190179  0.62263638
   0.51485499  0.21652483  0.38116318
   0.48514501  0.78347517  0.61883682
   0.98523536  0.21762926  0.11893776
   0.01476464  0.78237074  0.88106224
   0.95027013  0.24591488  0.63296681
   0.04972987  0.75408512  0.36703319
   0.54551976  0.24410526  0.86713416
   0.45448024  0.75589474  0.13286584
CIS                                     
           1
     5.683584    0.717624   -0.585206
    -0.756588    5.647763   -0.468606
     0.715065    1.043707   11.426714
   Na   Sb   S 
   4   4   8
Direct configuration=    26
   0.51153749  0.74220364  0.87622303
   0.48846251  0.25779636  0.12377697
   0.98854055  0.74286780  0.62392956
   0.01145945  0.25713220  0.37607044
   0.02209015  0.77850225  0.12477122
   0.97790985  0.22149775  0.87522878
   0.48389019  0.77749884  0.37732777
   0.51610981  0.22250116  0.62267223
   0.51460453  0.21686224  0.38131727
   0.48539547  0.78313776  0.61868273
   0.98566408  0.21760576  0.11892262
   0.01433592  0.78239424  0.88107738
   0.95066842  0.24588492  0.63272212
   0.04933158  0.75411508  0.36727788
   0.54466154  0.24398308  0.86705709
   0.45533846  0.75601692  0.13294291
CIS                                     
           1
     5.679905    0.719741   -0.590932
    -0.752410    5.642371   -0.464419
     0.704074    1.051510   11.442049
   Na   Sb   S 
   4   4   8
Direct configuration=    27
   0.51095238  0.74266808  0.87616936
   0.48904762  0.25733192  0.12383064
   0.98906322  0.74356529  0.62418028
   0.01093678  0.25643471  0.37581972
   0.02275659  0.77917269  0.12449210
   0.97724341  0.22082731  0.87550790
   0.48375405  0.77617126  0.37724863
   0.51624595  0.22382874  0.62275137
   0.51404999  0.21760954  0.38165799
   0.48595001  0.78239046  0.61834201
   0.98661345  0.21755349  0.11888936
   0.01338655  0.78244651  0.88111064
   0.95154999  0.24581868  0.63218091
   0.04845001  0.75418132  0.36781909
   0.54276089  0.24371302  0.86688614
   0.45723911  0.75628698  0.13311386
CIS                                     
           1
     5.679061    0.720228   -0.592247
    -0.751450    5.641132   -0.463457
     0.701549    1.053302   11.445572
   Na   Sb   S 
   4   4   8
Direct configuration=    28
   0.51081782  0.74277498  0.87615694
   0.48918218  0.25722502  0.12384306
   0.98918337  0.74372555  0.62423781
   0.01081663  0.25627445  0.37576219
   0.02290956  0.77932687  0.12442809
   0.97709044  0.22067313  0.87557191
   0.48372289  0.77586601  0.37723057
   0.51627711  0.22413399  0.62276943
   0.51392259  0.21778135  0.38173603
   0.48607741  0.78221865  0.61826397
   0.98683165  0.21754136  0.11888184
   0.01316835  0.78245864  0.88111816
   0.95175237  0.24580351  0.63205686
   0.04824763  0.75419649  0.36794314
   0.54232402  0.24365120  0.86684673
   0.45767598  0.75634880  0.13315327
CIS                                     
           1
     5.674095    0.720907   -0.594010
    -0.749921    5.641561   -0.462428
     0.697467    1.055283   11.447591
   Na   Sb   S 
   4   4   8
Direct configuration=    29
   0.51039312  0.74301498  0.87613679
   0.48960688  0.25698502  0.12386321
   0.98954263  0.74414217  0.62437589
   0.01045737  0.25585783  0.37562411
   0.02407935  0.77951367  0.12443168
   0.97592065  0.22048633  0.87556832
   0.48354061  0.77595960  0.37727875
   0.51645939  0.22404040  0.62272125
   0.51358752  0.21791642  0.38195894
   0.48641248  0.78208358  0.61804106
   0.98739239  0.21764403  0.11874197
   0.01260761  0.78235597  0.88125803
   0.95208006  0.24558345  0.63192731
   0.04791994  0.75441655  0.36807269
   0.54125667  0.24356575  0.86671799
   0.45874333  0.75643425  0.13328201
CIS                                     
           1
     5.668012    0.721740   -0.596170
    -0.748048    5.642087   -0.461168
     0.692467    1.057709   11.450064
   Na   Sb   S 
   4   4   8
Direct configuration=    30
   0.50987230  0.74330915  0.87611197
   0.49012770  0.25669085  0.12388803
   0.98998312  0.74465240  0.62454506
   0.01001688  0.25534760  0.37545494
   0.02551360  0.77974215  0.12443633
   0.97448640  0.22025785  0.87556367
   0.48331711  0.77607430  0.37733772
   0.51668289  0.22392570  0.62266228
   0.51317683  0.21808188  0.38223189
   0.48682317  0.78191812  0.61776811
   0.98807979  0.21776969  0.11857076
   0.01192021  0.78223031  0.88142924
   0.95248180  0.24531381  0.63176873
   0.04751820  0.75468619  0.36823127
   0.53994789  0.24346148  0.86656007
   0.46005211  0.75653852  0.13343993
CIS                                     
           1
     5.666119    0.719808   -0.594679
    -0.750578    5.645319   -0.464246
     0.695864    1.052445   11.452969
   Na   Sb   S 
   4   4   8
Direct configuration=    31
   0.50945165  0.74338128  0.87609897
   0.49054835  0.25661872  0.12390103
   0.99031417  0.74482302  0.62462374
   0.00968583  0.25517698  0.37537626
   0.02595317  0.77935993  0.12480495
   0.97404683  0.22064007  0.87519505
   0.48339785  0.77669945  0.37744440
   0.51660215  0.22330055  0.62255560
   0.51302251  0.21786179  0.38226001
   0.48697749  0.78213821  0.61773999
   0.98839474  0.21811370  0.11844140
   0.01160526  0.78188630  0.88155860
   0.95270174  0.24521798  0.63191189
   0.04729826  0.75478202  0.36808811
   0.53890529  0.24350163  0.86645696
   0.46109471  0.75649837  0.13354304
CIS                                     
           1
     5.665134    0.718803   -0.593903
    -0.751894    5.646999   -0.465847
     0.697630    1.049707   11.454480
   Na   Sb   S 
   4   4   8
Direct configuration=    32
   0.50923283  0.74341869  0.87609224
   0.49076717  0.25658131  0.12390776
   0.99048641  0.74491179  0.62466465
   0.00951359  0.25508821  0.37533535
   0.02618170  0.77916156  0.12499653
   0.97381830  0.22083844  0.87500347
   0.48343993  0.77702440  0.37749995
   0.51656007  0.22297560  0.62250005
   0.51294218  0.21774740  0.38227461
   0.48705782  0.78225260  0.61772539
   0.98855867  0.21829246  0.11837417
   0.01144133  0.78170754  0.88162583
   0.95281611  0.24516829  0.63198630
   0.04718389  0.75483171  0.36801370
   0.53836292  0.24352227  0.86640341
   0.46163708  0.75647773  0.13359659
