  16  16   1   0
  0.2338135E+02  0.6589574E-09  0.6869532E-09  0.8264280E-09  0.1000000E-15
  1.000000000000000E-004
  CAR 
 CIS                                     
      9.64622069    -11.18631744  301      2.08140528      1.00000000
    -11.186  0.0000E+00  0.0000E+00
    -11.117  0.0000E+00  0.0000E+00
    -11.047  0.0000E+00  0.0000E+00
    -10.978  0.0000E+00  0.0000E+00
    -10.909  0.0000E+00  0.0000E+00
    -10.839  0.0000E+00  0.0000E+00
    -10.770  0.0000E+00  0.0000E+00
    -10.700  0.0000E+00  0.0000E+00
    -10.631  0.0000E+00  0.0000E+00
    -10.561  0.0000E+00  0.0000E+00
    -10.492  0.4948E-14  0.3436E-15
    -10.422  0.1208E-08  0.8386E-10
    -10.353  0.7051E-05  0.4897E-06
    -10.284  0.1132E-02  0.7908E-04
    -10.214  0.7305E-02  0.5864E-03
    -10.145  0.1083E-01  0.1339E-02
    -10.075  0.2928E-01  0.3372E-02
    -10.006  0.4497E-01  0.6495E-02
     -9.936  0.6351E-01  0.1091E-01
     -9.867  0.5904E-01  0.1501E-01
     -9.797  0.1101E+00  0.2265E-01
     -9.728  0.7743E-01  0.2803E-01
     -9.659  0.8134E-01  0.3368E-01
     -9.589  0.4933E-01  0.3710E-01
     -9.520  0.6043E-01  0.4130E-01
     -9.450  0.4941E-01  0.4473E-01
     -9.381  0.9555E-01  0.5136E-01
     -9.311  0.1154E+00  0.5938E-01
     -9.242  0.1120E+00  0.6716E-01
     -9.173  0.1121E+00  0.7494E-01
     -9.103  0.8032E-01  0.8052E-01
     -9.034  0.2580E+00  0.9844E-01
     -8.964  0.4250E+00  0.1279E+00
     -8.895  0.3874E+00  0.1548E+00
     -8.825  0.9435E-01  0.1614E+00
     -8.756  0.3134E-02  0.1616E+00
     -8.686  0.5667E-05  0.1616E+00
     -8.617  0.3512E-09  0.1616E+00
     -8.548  0.6077E-15  0.1616E+00
     -8.478  0.0000E+00  0.1616E+00
     -8.409  0.0000E+00  0.1616E+00
     -8.339  0.0000E+00  0.1616E+00
     -8.270  0.0000E+00  0.1616E+00
     -8.200  0.0000E+00  0.1616E+00
     -8.131  0.0000E+00  0.1616E+00
     -8.061  0.0000E+00  0.1616E+00
     -7.992  0.0000E+00  0.1616E+00
     -7.923  0.0000E+00  0.1616E+00
     -7.853  0.0000E+00  0.1616E+00
     -7.784  0.0000E+00  0.1616E+00
     -7.714  0.0000E+00  0.1616E+00
     -7.645  0.0000E+00  0.1616E+00
     -7.575  0.0000E+00  0.1616E+00
     -7.506  0.0000E+00  0.1616E+00
     -7.436  0.0000E+00  0.1616E+00
     -7.367  0.0000E+00  0.1616E+00
     -7.298  0.0000E+00  0.1616E+00
     -7.228  0.0000E+00  0.1616E+00
     -7.159  0.0000E+00  0.1616E+00
     -7.089  0.0000E+00  0.1616E+00
     -7.020  0.0000E+00  0.1616E+00
     -6.950  0.0000E+00  0.1616E+00
     -6.881  0.0000E+00  0.1616E+00
     -6.811  0.0000E+00  0.1616E+00
     -6.742  0.0000E+00  0.1616E+00
     -6.673  0.0000E+00  0.1616E+00
     -6.603  0.0000E+00  0.1616E+00
     -6.534  0.0000E+00  0.1616E+00
     -6.464  0.0000E+00  0.1616E+00
     -6.395  0.0000E+00  0.1616E+00
     -6.325  0.0000E+00  0.1616E+00
     -6.256  0.0000E+00  0.1616E+00
     -6.187  0.0000E+00  0.1616E+00
     -6.117  0.0000E+00  0.1616E+00
     -6.048  0.0000E+00  0.1616E+00
     -5.978  0.0000E+00  0.1616E+00
     -5.909  0.0000E+00  0.1616E+00
     -5.839  0.0000E+00  0.1616E+00
     -5.770  0.0000E+00  0.1616E+00
     -5.700  0.0000E+00  0.1616E+00
     -5.631  0.0000E+00  0.1616E+00
     -5.562  0.0000E+00  0.1616E+00
     -5.492  0.0000E+00  0.1616E+00
     -5.423  0.0000E+00  0.1616E+00
     -5.353  0.0000E+00  0.1616E+00
     -5.284  0.0000E+00  0.1616E+00
     -5.214  0.0000E+00  0.1616E+00
     -5.145  0.0000E+00  0.1616E+00
     -5.075  0.0000E+00  0.1616E+00
     -5.006  0.0000E+00  0.1616E+00
     -4.937  0.0000E+00  0.1616E+00
     -4.867  0.0000E+00  0.1616E+00
     -4.798  0.0000E+00  0.1616E+00
     -4.728  0.0000E+00  0.1616E+00
     -4.659  0.0000E+00  0.1616E+00
     -4.589  0.0000E+00  0.1616E+00
     -4.520  0.0000E+00  0.1616E+00
     -4.450  0.0000E+00  0.1616E+00
     -4.381  0.0000E+00  0.1616E+00
     -4.312  0.0000E+00  0.1616E+00
     -4.242  0.0000E+00  0.1616E+00
     -4.173  0.0000E+00  0.1616E+00
     -4.103  0.0000E+00  0.1616E+00
     -4.034  0.0000E+00  0.1616E+00
     -3.964  0.0000E+00  0.1616E+00
     -3.895  0.0000E+00  0.1616E+00
     -3.825  0.0000E+00  0.1616E+00
     -3.756  0.0000E+00  0.1616E+00
     -3.687  0.0000E+00  0.1616E+00
     -3.617  0.0000E+00  0.1616E+00
     -3.548  0.0000E+00  0.1616E+00
     -3.478  0.7297E-16  0.1616E+00
     -3.409  0.5223E-10  0.1616E+00
     -3.339  0.8761E-06  0.1616E+00
     -3.270  0.3973E-03  0.1616E+00
     -3.201  0.8199E-02  0.1622E+00
     -3.131  0.1928E-01  0.1636E+00
     -3.062  0.2340E-01  0.1652E+00
     -2.992  0.5174E-01  0.1688E+00
     -2.923  0.3610E-01  0.1713E+00
     -2.853  0.6141E-01  0.1755E+00
     -2.784  0.1057E+00  0.1829E+00
     -2.714  0.9112E-01  0.1892E+00
     -2.645  0.6638E-01  0.1938E+00
     -2.576  0.6712E-01  0.1985E+00
     -2.506  0.1364E-01  0.1994E+00
     -2.437  0.5228E-01  0.2031E+00
     -2.367  0.2743E-01  0.2050E+00
     -2.298  0.7685E-03  0.2050E+00
     -2.228  0.4441E-02  0.2053E+00
     -2.159  0.2941E-01  0.2074E+00
     -2.089  0.7303E-01  0.2124E+00
     -2.020  0.5068E-01  0.2160E+00
     -1.951  0.7184E-01  0.2209E+00
     -1.881  0.9375E-01  0.2275E+00
     -1.812  0.1426E-01  0.2284E+00
     -1.742  0.2827E-01  0.2304E+00
     -1.673  0.4316E-01  0.2334E+00
     -1.603  0.7894E-01  0.2389E+00
     -1.534  0.3788E-01  0.2415E+00
     -1.464  0.2238E-02  0.2417E+00
     -1.395  0.6140E-05  0.2417E+00
     -1.326  0.3086E-03  0.2417E+00
     -1.256  0.1209E-01  0.2425E+00
     -1.187  0.5806E-01  0.2466E+00
     -1.117  0.2628E-01  0.2484E+00
     -1.048  0.1707E-01  0.2496E+00
     -0.978  0.9471E-01  0.2562E+00
     -0.909  0.8523E-01  0.2621E+00
     -0.839  0.1503E+00  0.2725E+00
     -0.770  0.1661E+00  0.2840E+00
     -0.701  0.1153E+00  0.2920E+00
     -0.631  0.6099E-01  0.2963E+00
     -0.562  0.1057E+00  0.3036E+00
     -0.492  0.1220E+00  0.3121E+00
     -0.423  0.9112E-01  0.3184E+00
     -0.353  0.1026E+00  0.3255E+00
     -0.284  0.1189E+00  0.3338E+00
     -0.215  0.1528E+00  0.3444E+00
     -0.145  0.1149E+00  0.3524E+00
     -0.076  0.1077E+00  0.3599E+00
     -0.006  0.6235E-01  0.3642E+00
      0.063  0.4541E-01  0.3674E+00
      0.133  0.1168E+00  0.3755E+00
      0.202  0.1245E+00  0.3841E+00
      0.272  0.1112E+00  0.3918E+00
      0.341  0.1619E+00  0.4031E+00
      0.410  0.1793E+00  0.4155E+00
      0.480  0.1628E+00  0.4268E+00
      0.549  0.1243E+00  0.4355E+00
      0.619  0.1125E+00  0.4433E+00
      0.688  0.1889E+00  0.4564E+00
      0.758  0.1552E+00  0.4672E+00
      0.827  0.1533E+00  0.4778E+00
      0.897  0.1676E+00  0.4895E+00
      0.966  0.1412E+00  0.4993E+00
      1.035  0.1414E+00  0.5091E+00
      1.105  0.1595E+00  0.5202E+00
      1.174  0.8274E-01  0.5259E+00
      1.244  0.1533E+00  0.5365E+00
      1.313  0.1713E+00  0.5484E+00
      1.383  0.1564E+00  0.5593E+00
      1.452  0.1629E+00  0.5706E+00
      1.522  0.1813E+00  0.5832E+00
      1.591  0.2621E+00  0.6014E+00
      1.660  0.2461E+00  0.6185E+00
      1.730  0.2350E+00  0.6348E+00
      1.799  0.1447E+00  0.6448E+00
      1.869  0.1977E-01  0.6462E+00
      1.938  0.3417E-02  0.6465E+00
      2.008  0.7237E-04  0.6465E+00
      2.077  0.4915E-07  0.6465E+00
      2.147  0.8311E-12  0.6465E+00
      2.216  0.0000E+00  0.6465E+00
      2.285  0.0000E+00  0.6465E+00
      2.355  0.0000E+00  0.6465E+00
      2.424  0.0000E+00  0.6465E+00
      2.494  0.0000E+00  0.6465E+00
      2.563  0.0000E+00  0.6465E+00
      2.633  0.0000E+00  0.6465E+00
      2.702  0.0000E+00  0.6465E+00
      2.771  0.0000E+00  0.6465E+00
      2.841  0.0000E+00  0.6465E+00
      2.910  0.0000E+00  0.6465E+00
      2.980  0.0000E+00  0.6465E+00
      3.049  0.0000E+00  0.6465E+00
      3.119  0.0000E+00  0.6465E+00
      3.188  0.0000E+00  0.6465E+00
      3.258  0.0000E+00  0.6465E+00
      3.327  0.0000E+00  0.6465E+00
      3.396  0.0000E+00  0.6465E+00
      3.466  0.0000E+00  0.6465E+00
      3.535  0.0000E+00  0.6465E+00
      3.605  0.0000E+00  0.6465E+00
      3.674  0.0000E+00  0.6465E+00
      3.744  0.0000E+00  0.6465E+00
      3.813  0.0000E+00  0.6465E+00
      3.883  0.0000E+00  0.6465E+00
      3.952  0.0000E+00  0.6465E+00
      4.021  0.0000E+00  0.6465E+00
      4.091  0.0000E+00  0.6465E+00
      4.160  0.0000E+00  0.6465E+00
      4.230  0.0000E+00  0.6465E+00
      4.299  0.0000E+00  0.6465E+00
      4.369  0.0000E+00  0.6465E+00
      4.438  0.0000E+00  0.6465E+00
      4.508  0.0000E+00  0.6465E+00
      4.577  0.0000E+00  0.6465E+00
      4.646  0.0000E+00  0.6465E+00
      4.716  0.0000E+00  0.6465E+00
      4.785  0.0000E+00  0.6465E+00
      4.855  0.0000E+00  0.6465E+00
      4.924  0.0000E+00  0.6465E+00
      4.994  0.0000E+00  0.6465E+00
      5.063  0.0000E+00  0.6465E+00
      5.133  0.0000E+00  0.6465E+00
      5.202  0.0000E+00  0.6465E+00
      5.271  0.0000E+00  0.6465E+00
      5.341  0.0000E+00  0.6465E+00
      5.410  0.0000E+00  0.6465E+00
      5.480  0.0000E+00  0.6465E+00
      5.549  0.0000E+00  0.6465E+00
      5.619  0.0000E+00  0.6465E+00
      5.688  0.4187E-17  0.6465E+00
      5.757  0.5843E-11  0.6465E+00
      5.827  0.1935E-06  0.6465E+00
      5.896  0.1622E-03  0.6465E+00
      5.966  0.4447E-02  0.6468E+00
      6.035  0.1567E-01  0.6479E+00
      6.105  0.4386E-01  0.6509E+00
      6.174  0.1377E-01  0.6519E+00
      6.244  0.4493E-01  0.6550E+00
      6.313  0.6550E-01  0.6595E+00
      6.382  0.4879E-01  0.6629E+00
      6.452  0.7751E-01  0.6683E+00
      6.521  0.7545E-01  0.6736E+00
      6.591  0.9316E-01  0.6800E+00
      6.660  0.1300E+00  0.6890E+00
      6.730  0.9049E-01  0.6953E+00
      6.799  0.8198E-01  0.7010E+00
      6.869  0.5756E-01  0.7050E+00
      6.938  0.1350E+00  0.7144E+00
      7.007  0.1360E+00  0.7238E+00
      7.077  0.9298E-01  0.7303E+00
      7.146  0.8755E-01  0.7364E+00
      7.216  0.7329E-01  0.7415E+00
      7.285  0.3657E-01  0.7440E+00
      7.355  0.9175E-01  0.7504E+00
      7.424  0.1821E+00  0.7630E+00
      7.494  0.9307E-01  0.7695E+00
      7.563  0.1022E+00  0.7766E+00
      7.632  0.1293E+00  0.7856E+00
      7.702  0.1116E+00  0.7933E+00
      7.771  0.1229E+00  0.8018E+00
      7.841  0.9544E-01  0.8085E+00
      7.910  0.7275E-01  0.8135E+00
      7.980  0.5842E-01  0.8176E+00
      8.049  0.6528E-01  0.8221E+00
      8.119  0.1016E+00  0.8292E+00
      8.188  0.1151E+00  0.8372E+00
      8.257  0.5913E-01  0.8413E+00
      8.327  0.2865E-01  0.8433E+00
      8.396  0.2828E-01  0.8452E+00
      8.466  0.3974E-02  0.8455E+00
      8.535  0.5275E-04  0.8455E+00
      8.605  0.3304E-02  0.8457E+00
      8.674  0.2225E-01  0.8473E+00
      8.743  0.1614E-01  0.8484E+00
      8.813  0.1370E-02  0.8485E+00
      8.882  0.7265E-05  0.8485E+00
      8.952  0.1212E-08  0.8485E+00
      9.021  0.4950E-14  0.8485E+00
      9.091  0.0000E+00  0.8485E+00
      9.160  0.0000E+00  0.8485E+00
      9.230  0.0000E+00  0.8485E+00
      9.299  0.0000E+00  0.8485E+00
      9.368  0.0000E+00  0.8485E+00
      9.438  0.0000E+00  0.8485E+00
      9.507  0.0000E+00  0.8485E+00
      9.577  0.0000E+00  0.8485E+00
      9.646  0.0000E+00  0.8485E+00
      9.64622069    -11.18631744  301      2.08140528      1.00000000
    -11.186  0.0000E+00  0.0000E+00  0.0000E+00
    -11.117  0.0000E+00  0.0000E+00  0.0000E+00
    -11.047  0.0000E+00  0.0000E+00  0.0000E+00
    -10.978  0.0000E+00  0.0000E+00  0.0000E+00
    -10.909  0.0000E+00  0.0000E+00  0.0000E+00
    -10.839  0.0000E+00  0.0000E+00  0.0000E+00
    -10.770  0.0000E+00  0.0000E+00  0.0000E+00
    -10.700  0.0000E+00  0.0000E+00  0.0000E+00
    -10.631  0.0000E+00  0.0000E+00  0.0000E+00
    -10.561  0.0000E+00  0.0000E+00  0.0000E+00
    -10.492  0.7083E-15  0.2649E-17  0.0000E+00
    -10.422  0.1729E-09  0.6465E-12  0.0000E+00
    -10.353  0.1009E-05  0.3775E-08  0.0000E+00
    -10.284  0.1620E-03  0.6096E-06  0.0000E+00
    -10.214  0.1039E-02  0.7891E-05  0.0000E+00
    -10.145  0.1317E-02  0.1514E-03  0.0000E+00
    -10.075  0.3301E-02  0.5608E-03  0.0000E+00
    -10.006  0.4275E-02  0.1213E-02  0.0000E+00
     -9.936  0.4951E-02  0.2311E-02  0.0000E+00
     -9.867  0.4228E-02  0.2506E-02  0.0000E+00
     -9.797  0.5550E-02  0.6125E-02  0.0000E+00
     -9.728  0.2552E-02  0.5331E-02  0.0000E+00
     -9.659  0.1388E-02  0.7108E-02  0.0000E+00
     -9.589  0.7679E-03  0.4340E-02  0.0000E+00
     -9.520  0.1086E-02  0.4339E-02  0.0000E+00
     -9.450  0.8581E-03  0.3109E-02  0.0000E+00
     -9.381  0.2711E-02  0.3761E-02  0.0000E+00
     -9.311  0.3792E-02  0.6165E-02  0.0000E+00
     -9.242  0.4308E-02  0.1070E-01  0.0000E+00
     -9.173  0.6557E-02  0.8679E-02  0.0000E+00
     -9.103  0.5097E-02  0.4922E-02  0.0000E+00
     -9.034  0.2068E-01  0.1546E-01  0.0000E+00
     -8.964  0.2122E-01  0.3034E-01  0.0000E+00
     -8.895  0.8870E-02  0.3306E-01  0.0000E+00
     -8.825  0.8361E-03  0.8339E-02  0.0000E+00
     -8.756  0.1217E-04  0.2742E-03  0.0000E+00
     -8.686  0.1499E-07  0.5007E-06  0.0000E+00
     -8.617  0.6634E-12  0.3177E-10  0.0000E+00
     -8.548  0.7737E-18  0.5630E-16  0.0000E+00
     -8.478  0.0000E+00  0.0000E+00  0.0000E+00
     -8.409  0.0000E+00  0.0000E+00  0.0000E+00
     -8.339  0.0000E+00  0.0000E+00  0.0000E+00
     -8.270  0.0000E+00  0.0000E+00  0.0000E+00
     -8.200  0.0000E+00  0.0000E+00  0.0000E+00
     -8.131  0.0000E+00  0.0000E+00  0.0000E+00
     -8.061  0.0000E+00  0.0000E+00  0.0000E+00
     -7.992  0.0000E+00  0.0000E+00  0.0000E+00
     -7.923  0.0000E+00  0.0000E+00  0.0000E+00
     -7.853  0.0000E+00  0.0000E+00  0.0000E+00
     -7.784  0.0000E+00  0.0000E+00  0.0000E+00
     -7.714  0.0000E+00  0.0000E+00  0.0000E+00
     -7.645  0.0000E+00  0.0000E+00  0.0000E+00
     -7.575  0.0000E+00  0.0000E+00  0.0000E+00
     -7.506  0.0000E+00  0.0000E+00  0.0000E+00
     -7.436  0.0000E+00  0.0000E+00  0.0000E+00
     -7.367  0.0000E+00  0.0000E+00  0.0000E+00
     -7.298  0.0000E+00  0.0000E+00  0.0000E+00
     -7.228  0.0000E+00  0.0000E+00  0.0000E+00
     -7.159  0.0000E+00  0.0000E+00  0.0000E+00
     -7.089  0.0000E+00  0.0000E+00  0.0000E+00
     -7.020  0.0000E+00  0.0000E+00  0.0000E+00
     -6.950  0.0000E+00  0.0000E+00  0.0000E+00
     -6.881  0.0000E+00  0.0000E+00  0.0000E+00
     -6.811  0.0000E+00  0.0000E+00  0.0000E+00
     -6.742  0.0000E+00  0.0000E+00  0.0000E+00
     -6.673  0.0000E+00  0.0000E+00  0.0000E+00
     -6.603  0.0000E+00  0.0000E+00  0.0000E+00
     -6.534  0.0000E+00  0.0000E+00  0.0000E+00
     -6.464  0.0000E+00  0.0000E+00  0.0000E+00
     -6.395  0.0000E+00  0.0000E+00  0.0000E+00
     -6.325  0.0000E+00  0.0000E+00  0.0000E+00
     -6.256  0.0000E+00  0.0000E+00  0.0000E+00
     -6.187  0.0000E+00  0.0000E+00  0.0000E+00
     -6.117  0.0000E+00  0.0000E+00  0.0000E+00
     -6.048  0.0000E+00  0.0000E+00  0.0000E+00
     -5.978  0.0000E+00  0.0000E+00  0.0000E+00
     -5.909  0.0000E+00  0.0000E+00  0.0000E+00
     -5.839  0.0000E+00  0.0000E+00  0.0000E+00
     -5.770  0.0000E+00  0.0000E+00  0.0000E+00
     -5.700  0.0000E+00  0.0000E+00  0.0000E+00
     -5.631  0.0000E+00  0.0000E+00  0.0000E+00
     -5.562  0.0000E+00  0.0000E+00  0.0000E+00
     -5.492  0.0000E+00  0.0000E+00  0.0000E+00
     -5.423  0.0000E+00  0.0000E+00  0.0000E+00
     -5.353  0.0000E+00  0.0000E+00  0.0000E+00
     -5.284  0.0000E+00  0.0000E+00  0.0000E+00
     -5.214  0.0000E+00  0.0000E+00  0.0000E+00
     -5.145  0.0000E+00  0.0000E+00  0.0000E+00
     -5.075  0.0000E+00  0.0000E+00  0.0000E+00
     -5.006  0.0000E+00  0.0000E+00  0.0000E+00
     -4.937  0.0000E+00  0.0000E+00  0.0000E+00
     -4.867  0.0000E+00  0.0000E+00  0.0000E+00
     -4.798  0.0000E+00  0.0000E+00  0.0000E+00
     -4.728  0.0000E+00  0.0000E+00  0.0000E+00
     -4.659  0.0000E+00  0.0000E+00  0.0000E+00
     -4.589  0.0000E+00  0.0000E+00  0.0000E+00
     -4.520  0.0000E+00  0.0000E+00  0.0000E+00
     -4.450  0.0000E+00  0.0000E+00  0.0000E+00
     -4.381  0.0000E+00  0.0000E+00  0.0000E+00
     -4.312  0.0000E+00  0.0000E+00  0.0000E+00
     -4.242  0.0000E+00  0.0000E+00  0.0000E+00
     -4.173  0.0000E+00  0.0000E+00  0.0000E+00
     -4.103  0.0000E+00  0.0000E+00  0.0000E+00
     -4.034  0.0000E+00  0.0000E+00  0.0000E+00
     -3.964  0.0000E+00  0.0000E+00  0.0000E+00
     -3.895  0.0000E+00  0.0000E+00  0.0000E+00
     -3.825  0.0000E+00  0.0000E+00  0.0000E+00
     -3.756  0.0000E+00  0.0000E+00  0.0000E+00
     -3.687  0.0000E+00  0.0000E+00  0.0000E+00
     -3.617  0.0000E+00  0.0000E+00  0.0000E+00
     -3.548  0.0000E+00  0.0000E+00  0.0000E+00
     -3.478  0.2666E-19  0.1502E-17  0.0000E+00
     -3.409  0.1909E-13  0.1076E-11  0.0000E+00
     -3.339  0.3219E-09  0.1821E-07  0.0000E+00
     -3.270  0.1545E-06  0.9104E-05  0.0000E+00
     -3.201  0.4335E-05  0.3018E-03  0.0000E+00
     -3.131  0.1659E-04  0.1156E-02  0.0000E+00
     -3.062  0.1515E-03  0.9906E-03  0.0000E+00
     -2.992  0.5964E-03  0.2059E-02  0.0000E+00
     -2.923  0.5922E-03  0.2820E-02  0.0000E+00
     -2.853  0.1668E-02  0.4994E-02  0.0000E+00
     -2.784  0.1331E-02  0.9143E-02  0.0000E+00
     -2.714  0.5862E-03  0.8140E-02  0.0000E+00
     -2.645  0.1269E-02  0.5752E-02  0.0000E+00
     -2.576  0.1890E-02  0.4404E-02  0.0000E+00
     -2.506  0.4867E-03  0.8518E-03  0.0000E+00
     -2.437  0.2343E-02  0.3518E-02  0.0000E+00
     -2.367  0.1240E-02  0.1769E-02  0.0000E+00
     -2.298  0.3301E-04  0.5161E-04  0.0000E+00
     -2.228  0.2652E-04  0.6283E-03  0.0000E+00
     -2.159  0.1488E-03  0.3114E-02  0.0000E+00
     -2.089  0.1675E-02  0.5592E-02  0.0000E+00
     -2.020  0.6187E-02  0.5150E-02  0.0000E+00
     -1.951  0.8936E-02  0.4835E-02  0.0000E+00
     -1.881  0.9258E-02  0.6199E-02  0.0000E+00
     -1.812  0.9762E-03  0.1154E-02  0.0000E+00
     -1.742  0.2237E-02  0.2864E-02  0.0000E+00
     -1.673  0.8836E-02  0.2836E-02  0.0000E+00
     -1.603  0.1799E-01  0.4677E-02  0.0000E+00
     -1.534  0.7280E-02  0.3020E-02  0.0000E+00
     -1.464  0.4213E-03  0.2087E-03  0.0000E+00
     -1.395  0.1115E-05  0.6994E-06  0.0000E+00
     -1.326  0.1675E-04  0.7145E-04  0.0000E+00
     -1.256  0.6177E-03  0.2657E-02  0.0000E+00
     -1.187  0.2628E-02  0.1258E-01  0.0000E+00
     -1.117  0.1044E-02  0.5896E-02  0.0000E+00
     -1.048  0.1484E-02  0.4098E-02  0.0000E+00
     -0.978  0.7607E-02  0.2279E-01  0.0000E+00
     -0.909  0.8970E-02  0.2133E-01  0.0000E+00
     -0.839  0.3652E-01  0.3894E-01  0.0000E+00
     -0.770  0.4772E-01  0.2916E-01  0.0000E+00
     -0.701  0.2962E-01  0.1431E-01  0.0000E+00
     -0.631  0.8856E-02  0.1009E-01  0.0000E+00
     -0.562  0.5972E-02  0.1539E-01  0.0000E+00
     -0.492  0.8190E-02  0.1151E-01  0.0000E+00
     -0.423  0.2472E-01  0.9310E-02  0.0000E+00
     -0.353  0.2433E-01  0.1099E-01  0.0000E+00
     -0.284  0.3658E-01  0.2103E-01  0.0000E+00
     -0.215  0.2826E-01  0.5367E-01  0.0000E+00
     -0.145  0.2314E-01  0.3410E-01  0.0000E+00
     -0.076  0.1429E-01  0.1992E-01  0.0000E+00
     -0.006  0.7078E-02  0.1658E-01  0.0000E+00
      0.063  0.1820E-01  0.8566E-02  0.0000E+00
      0.133  0.3908E-01  0.2939E-01  0.0000E+00
      0.202  0.3592E-01  0.2775E-01  0.0000E+00
      0.272  0.3547E-01  0.1372E-01  0.0000E+00
      0.341  0.3150E-01  0.4162E-01  0.0000E+00
      0.410  0.4737E-01  0.4640E-01  0.0000E+00
      0.480  0.6446E-01  0.3489E-01  0.0000E+00
      0.549  0.4885E-01  0.3279E-01  0.0000E+00
      0.619  0.2430E-01  0.3786E-01  0.0000E+00
      0.688  0.4305E-01  0.4319E-01  0.0000E+00
      0.758  0.4539E-01  0.4455E-01  0.0000E+00
      0.827  0.3734E-01  0.4665E-01  0.0000E+00
      0.897  0.2641E-01  0.5875E-01  0.0000E+00
      0.966  0.1822E-01  0.7455E-01  0.0000E+00
      1.035  0.2215E-01  0.8445E-01  0.0000E+00
      1.105  0.1457E-01  0.9590E-01  0.0000E+00
      1.174  0.1051E-01  0.4208E-01  0.0000E+00
      1.244  0.2945E-01  0.6078E-01  0.0000E+00
      1.313  0.4466E-01  0.7563E-01  0.0000E+00
      1.383  0.3896E-01  0.8939E-01  0.0000E+00
      1.452  0.2475E-01  0.9159E-01  0.0000E+00
      1.522  0.2015E-01  0.1020E+00  0.0000E+00
      1.591  0.1812E-01  0.1498E+00  0.0000E+00
      1.660  0.1693E-01  0.1343E+00  0.0000E+00
      1.730  0.7176E-02  0.1104E+00  0.0000E+00
      1.799  0.2539E-02  0.6623E-01  0.0000E+00
      1.869  0.1327E-03  0.6088E-02  0.0000E+00
      1.938  0.1055E-04  0.6904E-03  0.0000E+00
      2.008  0.2293E-06  0.1436E-04  0.0000E+00
      2.077  0.1561E-09  0.9744E-08  0.0000E+00
      2.147  0.2639E-14  0.1648E-12  0.0000E+00
      2.216  0.0000E+00  0.0000E+00  0.0000E+00
      2.285  0.0000E+00  0.0000E+00  0.0000E+00
      2.355  0.0000E+00  0.0000E+00  0.0000E+00
      2.424  0.0000E+00  0.0000E+00  0.0000E+00
      2.494  0.0000E+00  0.0000E+00  0.0000E+00
      2.563  0.0000E+00  0.0000E+00  0.0000E+00
      2.633  0.0000E+00  0.0000E+00  0.0000E+00
      2.702  0.0000E+00  0.0000E+00  0.0000E+00
      2.771  0.0000E+00  0.0000E+00  0.0000E+00
      2.841  0.0000E+00  0.0000E+00  0.0000E+00
      2.910  0.0000E+00  0.0000E+00  0.0000E+00
      2.980  0.0000E+00  0.0000E+00  0.0000E+00
      3.049  0.0000E+00  0.0000E+00  0.0000E+00
      3.119  0.0000E+00  0.0000E+00  0.0000E+00
      3.188  0.0000E+00  0.0000E+00  0.0000E+00
      3.258  0.0000E+00  0.0000E+00  0.0000E+00
      3.327  0.0000E+00  0.0000E+00  0.0000E+00
      3.396  0.0000E+00  0.0000E+00  0.0000E+00
      3.466  0.0000E+00  0.0000E+00  0.0000E+00
      3.535  0.0000E+00  0.0000E+00  0.0000E+00
      3.605  0.0000E+00  0.0000E+00  0.0000E+00
      3.674  0.0000E+00  0.0000E+00  0.0000E+00
      3.744  0.0000E+00  0.0000E+00  0.0000E+00
      3.813  0.0000E+00  0.0000E+00  0.0000E+00
      3.883  0.0000E+00  0.0000E+00  0.0000E+00
      3.952  0.0000E+00  0.0000E+00  0.0000E+00
      4.021  0.0000E+00  0.0000E+00  0.0000E+00
      4.091  0.0000E+00  0.0000E+00  0.0000E+00
      4.160  0.0000E+00  0.0000E+00  0.0000E+00
      4.230  0.0000E+00  0.0000E+00  0.0000E+00
      4.299  0.0000E+00  0.0000E+00  0.0000E+00
      4.369  0.0000E+00  0.0000E+00  0.0000E+00
      4.438  0.0000E+00  0.0000E+00  0.0000E+00
      4.508  0.0000E+00  0.0000E+00  0.0000E+00
      4.577  0.0000E+00  0.0000E+00  0.0000E+00
      4.646  0.0000E+00  0.0000E+00  0.0000E+00
      4.716  0.0000E+00  0.0000E+00  0.0000E+00
      4.785  0.0000E+00  0.0000E+00  0.0000E+00
      4.855  0.0000E+00  0.0000E+00  0.0000E+00
      4.924  0.0000E+00  0.0000E+00  0.0000E+00
      4.994  0.0000E+00  0.0000E+00  0.0000E+00
      5.063  0.0000E+00  0.0000E+00  0.0000E+00
      5.133  0.0000E+00  0.0000E+00  0.0000E+00
      5.202  0.0000E+00  0.0000E+00  0.0000E+00
      5.271  0.0000E+00  0.0000E+00  0.0000E+00
      5.341  0.0000E+00  0.0000E+00  0.0000E+00
      5.410  0.0000E+00  0.0000E+00  0.0000E+00
      5.480  0.0000E+00  0.0000E+00  0.0000E+00
      5.549  0.0000E+00  0.0000E+00  0.0000E+00
      5.619  0.0000E+00  0.0000E+00  0.0000E+00
      5.688  0.3504E-17  0.5267E-19  0.0000E+00
      5.757  0.4891E-11  0.7351E-13  0.0000E+00
      5.827  0.1619E-06  0.2434E-08  0.0000E+00
      5.896  0.1358E-03  0.2056E-05  0.0000E+00
      5.966  0.3650E-02  0.1114E-03  0.0000E+00
      6.035  0.5451E-02  0.6089E-02  0.0000E+00
      6.105  0.2497E-02  0.2681E-01  0.0000E+00
      6.174  0.5042E-03  0.8369E-02  0.0000E+00
      6.244  0.6782E-03  0.2430E-01  0.0000E+00
      6.313  0.1612E-02  0.2944E-01  0.0000E+00
      6.382  0.1721E-02  0.1656E-01  0.0000E+00
      6.452  0.3804E-02  0.2963E-01  0.0000E+00
      6.521  0.7712E-02  0.3165E-01  0.0000E+00
      6.591  0.1181E-01  0.4603E-01  0.0000E+00
      6.660  0.1479E-01  0.6033E-01  0.0000E+00
      6.730  0.1210E-01  0.3465E-01  0.0000E+00
      6.799  0.6587E-02  0.2649E-01  0.0000E+00
      6.869  0.4425E-02  0.2284E-01  0.0000E+00
      6.938  0.1307E-01  0.5772E-01  0.0000E+00
      7.007  0.1714E-01  0.5922E-01  0.0000E+00
      7.077  0.1370E-01  0.4689E-01  0.0000E+00
      7.146  0.6203E-02  0.3236E-01  0.0000E+00
      7.216  0.8197E-02  0.2790E-01  0.0000E+00
      7.285  0.5867E-02  0.1359E-01  0.0000E+00
      7.355  0.9696E-02  0.3669E-01  0.0000E+00
      7.424  0.2420E-01  0.8316E-01  0.0000E+00
      7.494  0.1447E-01  0.4358E-01  0.0000E+00
      7.563  0.1149E-01  0.3732E-01  0.0000E+00
      7.632  0.1836E-01  0.4348E-01  0.0000E+00
      7.702  0.1904E-01  0.4716E-01  0.0000E+00
      7.771  0.2394E-01  0.6288E-01  0.0000E+00
      7.841  0.2191E-01  0.4890E-01  0.0000E+00
      7.910  0.3159E-01  0.6199E-01  0.0000E+00
      7.980  0.1787E-01  0.6375E-01  0.0000E+00
      8.049  0.2840E-01  0.4575E-01  0.0000E+00
      8.119  0.2677E-01  0.7024E-01  0.0000E+00
      8.188  0.2796E-01  0.7462E-01  0.0000E+00
      8.257  0.1348E-01  0.3232E-01  0.0000E+00
      8.327  0.8328E-02  0.1888E-01  0.0000E+00
      8.396  0.1341E-01  0.2017E-01  0.0000E+00
      8.466  0.1904E-02  0.2838E-02  0.0000E+00
      8.535  0.1123E-04  0.2561E-04  0.0000E+00
      8.605  0.1270E-03  0.1628E-02  0.0000E+00
      8.674  0.1262E-02  0.1750E-01  0.0000E+00
      8.743  0.1236E-02  0.1919E-01  0.0000E+00
      8.813  0.1238E-03  0.2097E-02  0.0000E+00
      8.882  0.6862E-06  0.1194E-04  0.0000E+00
      8.952  0.1153E-09  0.2016E-08  0.0000E+00
      9.021  0.4713E-15  0.8242E-14  0.0000E+00
      9.091  0.0000E+00  0.0000E+00  0.0000E+00
      9.160  0.0000E+00  0.0000E+00  0.0000E+00
      9.230  0.0000E+00  0.0000E+00  0.0000E+00
      9.299  0.0000E+00  0.0000E+00  0.0000E+00
      9.368  0.0000E+00  0.0000E+00  0.0000E+00
      9.438  0.0000E+00  0.0000E+00  0.0000E+00
      9.507  0.0000E+00  0.0000E+00  0.0000E+00
      9.577  0.0000E+00  0.0000E+00  0.0000E+00
      9.646  0.0000E+00  0.0000E+00  0.0000E+00
      9.64622069    -11.18631744  301      2.08140528      1.00000000
    -11.186  0.0000E+00  0.0000E+00  0.0000E+00
    -11.117  0.0000E+00  0.0000E+00  0.0000E+00
    -11.047  0.0000E+00  0.0000E+00  0.0000E+00
    -10.978  0.0000E+00  0.0000E+00  0.0000E+00
    -10.909  0.0000E+00  0.0000E+00  0.0000E+00
    -10.839  0.0000E+00  0.0000E+00  0.0000E+00
    -10.770  0.0000E+00  0.0000E+00  0.0000E+00
    -10.700  0.0000E+00  0.0000E+00  0.0000E+00
    -10.631  0.0000E+00  0.0000E+00  0.0000E+00
    -10.561  0.0000E+00  0.0000E+00  0.0000E+00
    -10.492  0.7083E-15  0.2648E-17  0.0000E+00
    -10.422  0.1729E-09  0.6463E-12  0.0000E+00
    -10.353  0.1009E-05  0.3774E-08  0.0000E+00
    -10.284  0.1620E-03  0.6094E-06  0.0000E+00
    -10.214  0.1039E-02  0.7890E-05  0.0000E+00
    -10.145  0.1317E-02  0.1514E-03  0.0000E+00
    -10.075  0.3301E-02  0.5608E-03  0.0000E+00
    -10.006  0.4266E-02  0.1218E-02  0.0000E+00
     -9.936  0.4916E-02  0.2324E-02  0.0000E+00
     -9.867  0.4266E-02  0.2441E-02  0.0000E+00
     -9.797  0.5631E-02  0.6014E-02  0.0000E+00
     -9.728  0.2661E-02  0.5295E-02  0.0000E+00
     -9.659  0.1417E-02  0.7125E-02  0.0000E+00
     -9.589  0.7627E-03  0.4362E-02  0.0000E+00
     -9.520  0.9832E-03  0.4493E-02  0.0000E+00
     -9.450  0.7945E-03  0.3250E-02  0.0000E+00
     -9.381  0.2710E-02  0.3827E-02  0.0000E+00
     -9.311  0.3612E-02  0.6199E-02  0.0000E+00
     -9.242  0.4071E-02  0.1074E-01  0.0000E+00
     -9.173  0.6651E-02  0.8338E-02  0.0000E+00
     -9.103  0.5920E-02  0.4151E-02  0.0000E+00
     -9.034  0.2084E-01  0.1414E-01  0.0000E+00
     -8.964  0.2014E-01  0.3259E-01  0.0000E+00
     -8.895  0.9176E-02  0.3316E-01  0.0000E+00
     -8.825  0.8873E-03  0.8281E-02  0.0000E+00
     -8.756  0.1248E-04  0.2741E-03  0.0000E+00
     -8.686  0.1507E-07  0.5008E-06  0.0000E+00
     -8.617  0.6643E-12  0.3178E-10  0.0000E+00
     -8.548  0.7743E-18  0.5631E-16  0.0000E+00
     -8.478  0.0000E+00  0.0000E+00  0.0000E+00
     -8.409  0.0000E+00  0.0000E+00  0.0000E+00
     -8.339  0.0000E+00  0.0000E+00  0.0000E+00
     -8.270  0.0000E+00  0.0000E+00  0.0000E+00
     -8.200  0.0000E+00  0.0000E+00  0.0000E+00
     -8.131  0.0000E+00  0.0000E+00  0.0000E+00
     -8.061  0.0000E+00  0.0000E+00  0.0000E+00
     -7.992  0.0000E+00  0.0000E+00  0.0000E+00
     -7.923  0.0000E+00  0.0000E+00  0.0000E+00
     -7.853  0.0000E+00  0.0000E+00  0.0000E+00
     -7.784  0.0000E+00  0.0000E+00  0.0000E+00
     -7.714  0.0000E+00  0.0000E+00  0.0000E+00
     -7.645  0.0000E+00  0.0000E+00  0.0000E+00
     -7.575  0.0000E+00  0.0000E+00  0.0000E+00
     -7.506  0.0000E+00  0.0000E+00  0.0000E+00
     -7.436  0.0000E+00  0.0000E+00  0.0000E+00
     -7.367  0.0000E+00  0.0000E+00  0.0000E+00
     -7.298  0.0000E+00  0.0000E+00  0.0000E+00
     -7.228  0.0000E+00  0.0000E+00  0.0000E+00
     -7.159  0.0000E+00  0.0000E+00  0.0000E+00
     -7.089  0.0000E+00  0.0000E+00  0.0000E+00
     -7.020  0.0000E+00  0.0000E+00  0.0000E+00
     -6.950  0.0000E+00  0.0000E+00  0.0000E+00
     -6.881  0.0000E+00  0.0000E+00  0.0000E+00
     -6.811  0.0000E+00  0.0000E+00  0.0000E+00
     -6.742  0.0000E+00  0.0000E+00  0.0000E+00
     -6.673  0.0000E+00  0.0000E+00  0.0000E+00
     -6.603  0.0000E+00  0.0000E+00  0.0000E+00
     -6.534  0.0000E+00  0.0000E+00  0.0000E+00
     -6.464  0.0000E+00  0.0000E+00  0.0000E+00
     -6.395  0.0000E+00  0.0000E+00  0.0000E+00
     -6.325  0.0000E+00  0.0000E+00  0.0000E+00
     -6.256  0.0000E+00  0.0000E+00  0.0000E+00
     -6.187  0.0000E+00  0.0000E+00  0.0000E+00
     -6.117  0.0000E+00  0.0000E+00  0.0000E+00
     -6.048  0.0000E+00  0.0000E+00  0.0000E+00
     -5.978  0.0000E+00  0.0000E+00  0.0000E+00
     -5.909  0.0000E+00  0.0000E+00  0.0000E+00
     -5.839  0.0000E+00  0.0000E+00  0.0000E+00
     -5.770  0.0000E+00  0.0000E+00  0.0000E+00
     -5.700  0.0000E+00  0.0000E+00  0.0000E+00
     -5.631  0.0000E+00  0.0000E+00  0.0000E+00
     -5.562  0.0000E+00  0.0000E+00  0.0000E+00
     -5.492  0.0000E+00  0.0000E+00  0.0000E+00
     -5.423  0.0000E+00  0.0000E+00  0.0000E+00
     -5.353  0.0000E+00  0.0000E+00  0.0000E+00
     -5.284  0.0000E+00  0.0000E+00  0.0000E+00
     -5.214  0.0000E+00  0.0000E+00  0.0000E+00
     -5.145  0.0000E+00  0.0000E+00  0.0000E+00
     -5.075  0.0000E+00  0.0000E+00  0.0000E+00
     -5.006  0.0000E+00  0.0000E+00  0.0000E+00