       N       E                     dE             d eps       ncg     rms          rms(c)
DAV:   1     0.212503821783E+03    0.21250E+03   -0.18224E+04   672   0.797E+02
DAV:   2    -0.568349900583E+02   -0.26934E+03   -0.26419E+03   938   0.160E+02
DAV:   3    -0.772973702616E+02   -0.20462E+02   -0.20413E+02   868   0.515E+01
DAV:   4    -0.775944352533E+02   -0.29706E+00   -0.29688E+00   868   0.775E+00
DAV:   5    -0.776015798403E+02   -0.71446E-02   -0.71440E-02   868   0.113E+00    0.120E+01
DAV:   6    -0.747094946038E+02    0.28921E+01   -0.69905E+00   826   0.764E+00    0.972E+00
DAV:   7    -0.745854608717E+02    0.12403E+00   -0.12023E+00   896   0.336E+00    0.542E+00
DAV:   8    -0.746257369988E+02   -0.40276E-01   -0.10931E-01   868   0.134E+00    0.502E-01
DAV:   9    -0.746295132680E+02   -0.37763E-02   -0.15352E-02   896   0.467E-01    0.235E-01
DAV:  10    -0.746334680651E+02   -0.39548E-02   -0.27730E-03   854   0.216E-01    0.190E-01
DAV:  11    -0.746347213425E+02   -0.12533E-02   -0.14469E-03   896   0.147E-01    0.596E-02
DAV:  12    -0.746347582918E+02   -0.36949E-04   -0.62900E-05   658   0.304E-02
   1 F= -.74634758E+02 E0= -.74634758E+02  d E =-.746348E+02
       N       E                     dE             d eps       ncg     rms          rms(c)
DAV:   1    -0.754105854121E+02   -0.77586E+00   -0.50871E+00   812   0.820E+00    0.379E+00
DAV:   2    -0.752153935225E+02    0.19519E+00   -0.53413E-01   770   0.241E+00    0.116E+00
DAV:   3    -0.751939874641E+02    0.21406E-01   -0.92805E-02   882   0.925E-01    0.617E-01
DAV:   4    -0.751927319786E+02    0.12555E-02   -0.17648E-03   840   0.173E-01    0.476E-01
DAV:   5    -0.751917186820E+02    0.10133E-02   -0.21764E-03   882   0.159E-01    0.897E-02
DAV:   6    -0.751917279848E+02   -0.93029E-05   -0.78538E-05   630   0.380E-02
   2 F= -.75191728E+02 E0= -.75191728E+02  d E =-.556970E+00
       N       E                     dE             d eps       ncg     rms          rms(c)
DAV:   1    -0.777382696734E+02   -0.25466E+01   -0.38532E+01   812   0.232E+01    0.115E+01
DAV:   2    -0.763068196044E+02    0.14315E+01   -0.37784E+00   798   0.651E+00    0.365E+00
DAV:   3    -0.761298894571E+02    0.17693E+00   -0.75388E-01   826   0.266E+00    0.217E+00
DAV:   4    -0.761234324157E+02    0.64570E-02   -0.14954E-02   882   0.499E-01    0.166E+00
DAV:   5    -0.761136760467E+02    0.97564E-02   -0.24615E-02   812   0.537E-01    0.138E-01
DAV:   6    -0.761136762260E+02   -0.17930E-06   -0.69719E-04   882   0.109E-01
   3 F= -.76113676E+02 E0= -.76113676E+02  d E =-.147892E+01
       N       E                     dE             d eps       ncg     rms          rms(c)
DAV:   1    -0.764719104712E+02   -0.35823E+00   -0.68300E+00   784   0.976E+00    0.466E+00
DAV:   2    -0.762162161003E+02    0.25569E+00   -0.67134E-01   770   0.279E+00    0.156E+00
DAV:   3    -0.761824572188E+02    0.33759E-01   -0.13828E-01   882   0.114E+00    0.780E-01
DAV:   4    -0.761812750913E+02    0.11821E-02   -0.27033E-03   868   0.213E-01    0.609E-01
DAV:   5    -0.761798998599E+02    0.13752E-02   -0.30644E-03   868   0.193E-01    0.646E-02
DAV:   6    -0.761799094649E+02   -0.96049E-05   -0.93073E-05   616   0.424E-02
   4 F= -.76179909E+02 E0= -.76179909E+02  d E =-.154515E+01
       N       E                     dE             d eps       ncg     rms          rms(c)
DAV:   1    -0.761944447195E+02   -0.14545E-01   -0.24944E-01   798   0.185E+00    0.855E-01
DAV:   2    -0.761851676724E+02    0.92770E-02   -0.24955E-02   798   0.539E-01    0.296E-01
DAV:   3    -0.761839177735E+02    0.12499E-02   -0.50351E-03   854   0.216E-01    0.125E-01
DAV:   4    -0.761838441358E+02    0.73638E-04   -0.86830E-05   546   0.409E-02
   5 F= -.76183844E+02 E0= -.76183844E+02  d E =-.154909E+01
