 vasp.5.4.4.18Apr17-6-g9f103f2a35 (build Oct 27 2022 13:04:57) complex          
  
 executed on             LinuxIFC date 2024.07.03  22:42:40
 running on   14 total cores
 distrk:  each k-point on   14 cores,    1 groups
 distr:  one band on NCORES_PER_BAND=   1 cores,   14 groups


--------------------------------------------------------------------------------------------------------


 INCAR:
 POTCAR:    PAW_PBE Li 17Jan2003                  
 POTCAR:    PAW_PBE Al 04Jan2001                  
 POTCAR:    PAW_PBE S 06Sep2000                   

 ----------------------------------------------------------------------------- 
|                                                                             |
|           W    W    AA    RRRRR   N    N  II  N    N   GGGG   !!!           |
|           W    W   A  A   R    R  NN   N  II  NN   N  G    G  !!!           |
|           W    W  A    A  R    R  N N  N  II  N N  N  G       !!!           |
|           W WW W  AAAAAA  RRRRR   N  N N  II  N  N N  G  GGG   !            |
|           WW  WW  A    A  R   R   N   NN  II  N   NN  G    G                |
|           W    W  A    A  R    R  N    N  II  N    N   GGGG   !!!           |
|                                                                             |
|      For optimal performance we recommend to set                            |
|        NCORE= 4 - approx SQRT( number of cores)                             |
|      NCORE specifies how many cores store one orbital (NPAR=cpu/NCORE).     |
|      This setting can  greatly improve the performance of VASP for DFT.     |
|      The default,   NCORE=1            might be grossly inefficient         |
|      on modern multi-core architectures or massively parallel machines.     |
|      Do your own testing !!!!                                               |
|      Unfortunately you need to use the default for GW and RPA calculations. |
|      (for HF NCORE is supported but not extensively tested yet)             |
|                                                                             |
 ----------------------------------------------------------------------------- 

 POTCAR:    PAW_PBE Li 17Jan2003                  
   VRHFIN =Li: s1p0                                                             
   LEXCH  = PE                                                                  
   EATOM  =     5.3001 eV,    0.3895 Ry                                         
                                                                                
   TITEL  = PAW_PBE Li 17Jan2003                                                
   LULTRA =        F    use ultrasoft PP ?                                      
   IUNSCR =        1    unscreen: 0-lin 1-nonlin 2-no                           
   RPACOR =    1.500    partial core radius                                     
   POMASS =    7.010; ZVAL   =    1.000    mass and valenz                      
   RCORE  =    2.050    outmost cutoff radius                                   
   RWIGS  =    2.600; RWIGS  =    1.376    wigner-seitz radius (au A)           
   ENMAX  =  140.000; ENMIN  =  100.000 eV                                      
   ICORE  =        2    local potential                                         
   LCOR   =        T    correct aug charges                                     
   LPAW   =        T    paw PP                                                  
   EAUG   =  331.638                                                            
   DEXC   =    0.000                                                            
   RMAX   =    2.098    core radius for proj-oper                               
   RAUG   =    1.300    factor for augmentation sphere                          
   RDEP   =    2.094    radius for radial grids                                 
   RDEPT  =    1.810    core radius for aug-charge                              
                                                                                
   Atomic configuration                                                         
    4 entries                                                                   
     n  l   j            E        occ.                                          
     1  0  0.50       -51.8549   2.0000                                         
     2  0  0.50        -2.8742   1.0000                                         
     2  1  0.50        -1.3606   0.0000                                         
     3  2  1.50        -1.3606   0.0000                                         
   Description                                                                  
     l       E           TYP  RCUT    TYP  RCUT                                 
     0     -2.8742052     23  2.050                                             
     0     27.2116520     23  2.050                                             
     1     -1.3605826     23  2.050                                             
     2     -1.3605826     23  2.050                                             
  local pseudopotential read in
  partial core-charges read in
  partial kinetic energy density read in
  atomic valenz-charges read in
  non local Contribution for L=           0  read in
    real space projection operators read in
  non local Contribution for L=           0  read in
    real space projection operators read in
  non local Contribution for L=           1  read in
    real space projection operators read in
    PAW grid and wavefunctions read in
 
   number of l-projection  operators is LMAX  =           3
   number of lm-projection operators is LMMAX =           5
 
 POTCAR:    PAW_PBE Al 04Jan2001                  
   VRHFIN =Al: s2p1                                                             
   LEXCH  = PE                                                                  
   EATOM  =    53.5387 eV,    3.9350 Ry                                         
                                                                                
   TITEL  = PAW_PBE Al 04Jan2001                                                
   LULTRA =        F    use ultrasoft PP ?                                      
   IUNSCR =        1    unscreen: 0-lin 1-nonlin 2-no                           
   RPACOR =    1.500    partial core radius                                     
   POMASS =   26.981; ZVAL   =    3.000    mass and valenz                      
   RCORE  =    1.900    outmost cutoff radius                                   
   RWIGS  =    2.650; RWIGS  =    1.402    wigner-seitz radius (au A)           
   ENMAX  =  240.300; ENMIN  =  180.225 eV                                      
   ICORE  =        2    local potential                                         
   LCOR   =        T    correct aug charges                                     
   LPAW   =        T    paw PP                                                  
   EAUG   =  291.052                                                            
   DEXC   =    0.000                                                            
   RMAX   =    1.939    core radius for proj-oper                               
   RAUG   =    1.300    factor for augmentation sphere                          
   RDEP   =    1.966    radius for radial grids                                 
   RDEPT  =    1.856    core radius for aug-charge                              
                                                                                
   Atomic configuration                                                         
    6 entries                                                                   
     n  l   j            E        occ.                                          
     1  0  0.50     -1511.1048   2.0000                                         
     2  0  0.50      -108.1629   2.0000                                         
     2  1  1.50       -69.6402   6.0000                                         
     3  0  0.50        -7.7528   2.0000                                         
     3  1  1.50        -2.7121   1.0000                                         
     3  2  2.50        -2.7212   0.0000                                         
   Description                                                                  
     l       E           TYP  RCUT    TYP  RCUT                                 
     0     -7.7528455     23  1.900                                             
     0     -3.3096929     23  1.900                                             
     1     -2.7120682     23  1.900                                             
     1     13.6058260     23  1.900                                             
     2     -2.7211652      7  1.900                                             
  local pseudopotential read in
  partial core-charges read in
  partial kinetic energy density read in
  atomic valenz-charges read in
  non local Contribution for L=           0  read in
    real space projection operators read in
  non local Contribution for L=           0  read in
    real space projection operators read in
  non local Contribution for L=           1  read in
    real space projection operators read in
  non local Contribution for L=           1  read in
    real space projection operators read in
    PAW grid and wavefunctions read in
 
   number of l-projection  operators is LMAX  =           4
   number of lm-projection operators is LMMAX =           8
 
 POTCAR:    PAW_PBE S 06Sep2000                   
   VRHFIN =S : s2p4                                                             
   LEXCH  = PE                                                                  
   EATOM  =   276.8230 eV,   20.3459 Ry                                         
                                                                                
   TITEL  = PAW_PBE S 06Sep2000                                                 
   LULTRA =        F    use ultrasoft PP ?                                      
   IUNSCR =        1    unscreen: 0-lin 1-nonlin 2-no                           
   RPACOR =    1.500    partial core radius                                     
   POMASS =   32.066; ZVAL   =    6.000    mass and valenz                      
   RCORE  =    1.900    outmost cutoff radius                                   
   RWIGS  =    2.200; RWIGS  =    1.164    wigner-seitz radius (au A)           
   ENMAX  =  258.689; ENMIN  =  194.016 eV                                      
   ICORE  =        2    local potential                                         
   LCOR   =        T    correct aug charges                                     
   LPAW   =        T    paw PP                                                  
   EAUG   =  335.092                                                            
   DEXC   =    0.000                                                            
   RMAX   =    1.942    core radius for proj-oper                               
   RAUG   =    1.300    factor for augmentation sphere                          
   RDEP   =    1.954    radius for radial grids                                 
   RDEPT  =    1.744    core radius for aug-charge                              
                                                                                
   Atomic configuration                                                         
    6 entries                                                                   
     n  l   j            E        occ.                                          
     1  0  0.50     -2405.8406   2.0000                                         
     2  0  0.50      -211.7007   2.0000                                         
     2  1  1.50      -156.4958   6.0000                                         
     3  0  0.50       -17.2562   2.0000                                         
     3  1  0.50        -7.0085   4.0000                                         
     3  2  1.50        -6.8029   0.0000                                         
   Description                                                                  
     l       E           TYP  RCUT    TYP  RCUT                                 
     0    -17.2561641     23  1.900                                             
     0    -15.8743224     23  1.900                                             
     1     -7.0085400     23  1.900                                             
     1     -2.7779785     23  1.900                                             
     2     -6.8029130     23  1.900                                             
  local pseudopotential read in
  partial core-charges read in
  partial kinetic energy density read in
  atomic valenz-charges read in
  non local Contribution for L=           0  read in
    real space projection operators read in
  non local Contribution for L=           0  read in
    real space projection operators read in
  non local Contribution for L=           1  read in
    real space projection operators read in
  non local Contribution for L=           1  read in
    real space projection operators read in
    PAW grid and wavefunctions read in
 
   number of l-projection  operators is LMAX  =           4
   number of lm-projection operators is LMMAX =           8
 
 Optimization of the real space projectors (new method)

 maximal supplied QI-value         = 18.33
 optimisation between [QCUT,QGAM] = [  8.80, 17.60] = [ 21.68, 86.71] Ry 
 Optimized for a Real-space Cutoff    1.15 Angstroem

   l    n(q)    QCUT    max X(q) W(low)/X(q) W(high)/X(q)  e(spline) 
   0      6     8.799    33.825    0.11E-02    0.11E-02    0.82E-07
   0      6     8.799     8.944    0.75E-03    0.85E-03    0.59E-07
   1      5     8.799     4.214    0.92E-03    0.27E-03    0.41E-07
 Optimization of the real space projectors (new method)

 maximal supplied QI-value         = 19.84
 optimisation between [QCUT,QGAM] = [  8.73, 17.66] = [ 21.34, 87.33] Ry 
 Optimized for a Real-space Cutoff    1.12 Angstroem

   l    n(q)    QCUT    max X(q) W(low)/X(q) W(high)/X(q)  e(spline) 
   0      6     8.731   176.870    0.15E-02    0.11E-03    0.68E-07
   0      6     8.731   105.762    0.15E-02    0.11E-03    0.66E-07
   1      5     8.731    55.370    0.19E-02    0.30E-02    0.57E-07
   1      5     8.731    20.208    0.17E-02    0.27E-02    0.55E-07
 Optimization of the real space projectors (new method)

 maximal supplied QI-value         = 19.84
 optimisation between [QCUT,QGAM] = [  8.73, 17.66] = [ 21.34, 87.33] Ry 
 Optimized for a Real-space Cutoff    1.22 Angstroem

   l    n(q)    QCUT    max X(q) W(low)/X(q) W(high)/X(q)  e(spline) 
   0      6     8.731   187.594    0.15E-02    0.56E-03    0.90E-07
   0      6     8.731   164.243    0.15E-02    0.56E-03    0.89E-07
   1      6     8.731    67.533    0.37E-03    0.20E-02    0.11E-06
   1      6     8.731    50.729    0.36E-03    0.19E-02    0.10E-06
  PAW_PBE Li 17Jan2003                  :
 energy of atom  1       EATOM=   -5.3001
 kinetic energy error for atom=    0.0000 (will be added to EATOM!!)
  PAW_PBE Al 04Jan2001                  :
 energy of atom  2       EATOM=  -53.5387
 kinetic energy error for atom=    0.0011 (will be added to EATOM!!)
  PAW_PBE S 06Sep2000                   :
 energy of atom  3       EATOM= -276.8230
 kinetic energy error for atom=    0.0077 (will be added to EATOM!!)
 
 
 POSCAR: Li4 Al4 S8                              
  positions in direct lattice
  No initial velocities read in
 exchange correlation table for  LEXCH =        8
   RHO(1)=    0.500       N(1)  =     2000
   RHO(2)=  100.500       N(2)  =     4000
 


--------------------------------------------------------------------------------------------------------


 ion  position               nearest neighbor table
   1  0.120  0.914  0.622-  16 2.53  13 2.54   9 2.55  10 2.56
   2  0.620  0.086  0.378-  15 2.53  14 2.54  10 2.55   9 2.56
   3  0.620  0.586  0.122-  14 2.53  15 2.54  11 2.55  12 2.56
   4  0.120  0.414  0.878-  13 2.53  16 2.54  12 2.55  11 2.56
   5  0.623  0.573  0.626-  15 2.40  12 2.41   9 2.42  16 2.42
   6  0.123  0.427  0.374-  16 2.40  11 2.41  10 2.42  15 2.42
   7  0.123  0.927  0.126-  13 2.40  10 2.41  11 2.42  14 2.42
   8  0.623  0.073  0.874-  14 2.40   9 2.41  12 2.42  13 2.42
   9  0.506  0.907  0.634-   8 2.41   5 2.42   1 2.55   2 2.56
  10  0.006  0.093  0.366-   7 2.41   6 2.42   2 2.55   1 2.56
  11  0.006  0.593  0.134-   6 2.41   7 2.42   3 2.55   4 2.56
  12  0.506  0.407  0.866-   5 2.41   8 2.42   4 2.55   3 2.56
  13  0.990  0.067  0.881-   7 2.40   8 2.42   4 2.53   1 2.54
  14  0.490  0.933  0.119-   8 2.40   7 2.42   3 2.53   2 2.54
  15  0.490  0.433  0.381-   5 2.40   6 2.42   2 2.53   3 2.54
  16  0.990  0.567  0.619-   6 2.40   5 2.42   1 2.53   4 2.54
 
  LATTYP: Found a simple orthorhombic cell.
 ALAT       =     6.5895737600
 B/A-ratio  =     1.0424850863
 C/A-ratio  =     1.2541448948
  
  Lattice vectors:
  
 A1 = (   6.5895737600,   0.0000000000,   0.0000000000)
 A2 = (   0.0000000000,   6.8695323700,   0.0000000000)
 A3 = (   0.0000000000,   0.0000000000,   8.2642802900)


Analysis of symmetry for initial positions (statically):
=====================================================================
 Subroutine PRICEL returns:
 Original cell was already a primitive cell.
 

 Routine SETGRP: Setting up the symmetry group for a 
 simple orthorhombic supercell.


 Subroutine GETGRP returns: Found  4 space group operations
 (whereof  1 operations were pure point group operations)
 out of a pool of  8 trial point group operations.


The static configuration has the point symmetry C_1 .
 The point group associated with its full space group is C_2v.


Analysis of symmetry for dynamics (positions and initial velocities):
=====================================================================
 Subroutine PRICEL returns:
 Original cell was already a primitive cell.
 

 Routine SETGRP: Setting up the symmetry group for a 
 simple orthorhombic supercell.


 Subroutine GETGRP returns: Found  4 space group operations
 (whereof  1 operations were pure point group operations)
 out of a pool of  8 trial point group operations.


The dynamic configuration has the point symmetry C_1 .
 The point group associated with its full space group is C_2v.


 Subroutine INISYM returns: Found  4 space group operations
 (whereof  1 operations are pure point group operations),
 and found     1 'primitive' translations

 
 
 KPOINTS: pymatgen with grid density = 807 / numbe

Automatic generation of k-mesh.
Space group operators:
 irot       det(A)        alpha          n_x          n_y          n_z        tau_x        tau_y        tau_z
    1     1.000000     0.000000     1.000000     0.000000     0.000000     0.000000     0.000000     0.000000
    2    -1.000000   180.000000     0.000000     0.000000     1.000000     0.000000     0.500000     0.500000
    3    -1.000000   179.999999     0.000000     1.000000     0.000000     0.500000     0.500000     0.500000
    4     1.000000   180.000000     1.000000     0.000000     0.000000     0.500000     0.000000     0.000000
 
 Subroutine IBZKPT returns following result:
 ===========================================
 
 Found      8 irreducible k-points:
 
 Following reciprocal coordinates:
            Coordinates               Weight
  0.000000  0.000000  0.000000      1.000000
  0.333333  0.000000  0.000000      2.000000
  0.000000  0.333333  0.000000      2.000000
  0.333333  0.333333  0.000000      4.000000
  0.000000  0.000000  0.333333      2.000000
  0.333333  0.000000  0.333333      4.000000
  0.000000  0.333333  0.333333      4.000000
  0.333333  0.333333  0.333333      8.000000
 
 Following cartesian coordinates:
            Coordinates               Weight
  0.000000  0.000000  0.000000      1.000000
  0.050585  0.000000  0.000000      2.000000
  0.000000  0.048523  0.000000      2.000000
  0.050585  0.048523  0.000000      4.000000
  0.000000  0.000000  0.040334      2.000000
  0.050585  0.000000  0.040334      4.000000
  0.000000  0.048523  0.040334      4.000000
  0.050585  0.048523  0.040334      8.000000
 


--------------------------------------------------------------------------------------------------------




 Dimension of arrays:
   k-points           NKPTS =      8   k-points in BZ     NKDIM =      8   number of bands    NBANDS=     42
   number of dos      NEDOS =    301   number of ions     NIONS =     16
   non local maximal  LDIM  =      4   non local SUM 2l+1 LMDIM =      8
   total plane-waves  NPLWV =  30240
   max r-space proj   IRMAX =    667   max aug-charges    IRDMAX=   1292
   dimension x,y,z NGX =    28 NGY =   30 NGZ =   36
   dimension x,y,z NGXF=    40 NGYF=   42 NGZF=   50
   support grid    NGXF=    40 NGYF=   42 NGZF=   50
   ions per type =               4   4   8
   NGX,Y,Z   is equivalent  to a cutoff of   7.06,  7.26,  7.24 a.u.
   NGXF,Y,Z  is equivalent  to a cutoff of  10.09, 10.16, 10.06 a.u.

 SYSTEM =  CIS                                     
 POSCAR =  Li4 Al4 S8                              

 Startparameter for this run:
   NWRITE =      2    write-flag & timer
   PREC   = medium    normal or accurate (medium, high low for compatibility)
   ISTART =      0    job   : 0-new  1-cont  2-samecut
   ICHARG =      2    charge: 1-file 2-atom 10-const
   ISPIN  =      1    spin polarized calculation?
   LNONCOLLINEAR =      F non collinear calculations
   LSORBIT =      F    spin-orbit coupling
   INIWAV =      1    electr: 0-lowe 1-rand  2-diag
   LASPH  =      T    aspherical Exc in radial PAW
   METAGGA=      F    non-selfconsistent MetaGGA calc.

 Electronic Relaxation 1
   ENCUT  =  300.0 eV  22.05 Ry    4.70 a.u.   9.31  9.70 11.67*2*pi/ulx,y,z
   ENINI  =  300.0     initial cutoff
   ENAUG  =  335.1 eV  augmentation charge cutoff
   NELM   =     60;   NELMIN=  2; NELMDL= -5     # of ELM steps 
   EDIFF  = 0.1E-03   stopping-criterion for ELM
   LREAL  =      T    real-space projection
   NLSPLINE    = F    spline interpolate recip. space projectors
   LCOMPAT=      F    compatible to vasp.4.4
   GGA_COMPAT  = T    GGA compatible to vasp.4.4-vasp.4.6
   LMAXPAW     = -100 max onsite density
   LMAXMIX     =    4 max onsite mixed and CHGCAR
   VOSKOWN=      0    Vosko Wilk Nusair interpolation
   ROPT   =   -0.00200  -0.00200  -0.00200
 Ionic relaxation
   EDIFFG = -.5E-01   stopping-criterion for IOM
   NSW    =     99    number of steps for IOM
   NBLOCK =      1;   KBLOCK =     99    inner block; outer block 
   IBRION =      2    ionic relax: 0-MD 1-quasi-New 2-CG
   NFREE  =      1    steps in history (QN), initial steepest desc. (CG)
   ISIF   =      3    stress and relaxation
   IWAVPR =     11    prediction:  0-non 1-charg 2-wave 3-comb
   ISYM   =      2    0-nonsym 1-usesym 2-fastsym
   LCORR  =      T    Harris-Foulkes like correction to forces

   POTIM  = 0.1000    time-step for ionic-motion
   TEIN   =    0.0    initial temperature
   TEBEG  =    0.0;   TEEND  =   0.0 temperature during run
   SMASS  =  -3.00    Nose mass-parameter (am)
   estimated Nose-frequenzy (Omega)   =  0.10E-29 period in steps =****** mass=  -0.992E-27a.u.
   SCALEE = 1.0000    scale energy and forces
   NPACO  =    256;   APACO  = 16.0  distance and # of slots for P.C.
   PSTRESS=    0.0 pullay stress

  Mass of Ions in am
   POMASS =   7.01 26.98 32.07
  Ionic Valenz
   ZVAL   =   1.00  3.00  6.00
  Atomic Wigner-Seitz radii
   RWIGS  =  -1.00 -1.00 -1.00
  virtual crystal weights 
   VCA    =   1.00  1.00  1.00
   NELECT =      64.0000    total number of electrons
   NUPDOWN=      -1.0000    fix difference up-down

 DOS related values:
   EMIN   =  10.00;   EMAX   =-10.00  energy-range for DOS
   EFERMI =   0.00
   ISMEAR =     0;   SIGMA  =   0.05  broadening in eV -4-tet -1-fermi 0-gaus

 Electronic relaxation 2 (details)
   IALGO  =     38    algorithm
   LDIAG  =      T    sub-space diagonalisation (order eigenvalues)
   LSUBROT=      F    optimize rotation matrix (better conditioning)
   TURBO    =      0    0=normal 1=particle mesh
   IRESTART =      0    0=no restart 2=restart with 2 vectors
   NREBOOT  =      0    no. of reboots
   NMIN     =      0    reboot dimension
   EREF     =   0.00    reference energy to select bands
   IMIX   =      4    mixing-type and parameters
     AMIX     =   0.40;   BMIX     =  1.00
     AMIX_MAG =   1.60;   BMIX_MAG =  1.00
     AMIN     =   0.10
     WC   =   100.;   INIMIX=   1;  MIXPRE=   1;  MAXMIX= -45

 Intra band minimization:
   WEIMIN = 0.0010     energy-eigenvalue tresh-hold
   EBREAK =  0.60E-06  absolut break condition
   DEPER  =   0.30     relativ break condition  

   TIME   =   0.40     timestep for ELM

  volume/ion in A,a.u.               =      23.38       157.79
  Fermi-wavevector in a.u.,A,eV,Ry     =   0.908807  1.717396 11.237461  0.825930
  Thomas-Fermi vector in A             =   2.032777
 
 Write flags
   LWAVE        =      F    write WAVECAR
   LDOWNSAMPLE  =      F    k-point downsampling of WAVECAR
   LCHARG       =      F    write CHGCAR
   LVTOT        =      F    write LOCPOT, total local potential
   LVHAR        =      F    write LOCPOT, Hartree potential only
   LELF         =      F    write electronic localiz. function (ELF)
   LORBIT       =     10    0 simple, 1 ext, 2 COOP (PROOUT), +10 PAW based schemes


 Dipole corrections
   LMONO  =      F    monopole corrections only (constant potential shift)
   LDIPOL =      F    correct potential (dipole corrections)
   IDIPOL =      0    1-x, 2-y, 3-z, 4-all directions 
   EPSILON=  1.0000000 bulk dielectric constant

 Exchange correlation treatment:
   GGA     =    --    GGA type
   LEXCH   =     8    internal setting for exchange type
   VOSKOWN=      0    Vosko Wilk Nusair interpolation
   LHFCALC =     F    Hartree Fock is set to
   LHFONE  =     F    Hartree Fock one center treatment
   AEXX    =    0.0000 exact exchange contribution

 Linear response parameters
   LEPSILON=     F    determine dielectric tensor
   LRPA    =     F    only Hartree local field effects (RPA)
   LNABLA  =     F    use nabla operator in PAW spheres
   LVEL    =     F    velocity operator in full k-point grid
   LINTERFAST=   F  fast interpolation
   KINTER  =     0    interpolate to denser k-point grid
   CSHIFT  =0.1000    complex shift for real part using Kramers Kronig
   OMEGAMAX=  -1.0    maximum frequency
   DEG_THRESHOLD= 0.2000000E-02 threshold for treating states as degnerate
   RTIME   =   -0.100 relaxation time in fs
  (WPLASMAI=    0.000 imaginary part of plasma frequency in eV, 0.658/RTIME)
   DFIELD  = 0.0000000 0.0000000 0.0000000 field for delta impulse in time
 
 Orbital magnetization related:
   ORBITALMAG=     F  switch on orbital magnetization
   LCHIMAG   =     F  perturbation theory with respect to B field
   DQ        =  0.001000  dq finite difference perturbation B field
   LLRAUG    =     F  two centre corrections for induced B field



--------------------------------------------------------------------------------------------------------


 conjugate gradient relaxation of ions
 charge density and potential will be updated during run
 non-spin polarized calculation
 Variant of blocked Davidson
 Davidson routine will perform the subspace rotation
 perform sub-space diagonalisation
    after iterative eigenvector-optimisation
 modified Broyden-mixing scheme, WC =      100.0
 initial mixing is a Kerker type mixing with AMIX =  0.4000 and BMIX =      1.0000
 Hartree-type preconditioning will be used
 using additional bands           10
 real space projection scheme for non local part
 use partial core corrections
 calculate Harris-corrections to forces 
   (improved forces if not selfconsistent)
 use gradient corrections 
 use of overlap-Matrix (Vanderbilt PP)
 Gauss-broadening in eV      SIGMA  =   0.05


--------------------------------------------------------------------------------------------------------


  energy-cutoff  :      300.00
  volume of cell :      374.10
      direct lattice vectors                 reciprocal lattice vectors
     6.589573760  0.000000000  0.000000000     0.151754884  0.000000000  0.000000000
     0.000000000  6.869532370  0.000000000     0.000000000  0.145570316  0.000000000
     0.000000000  0.000000000  8.264280290     0.000000000  0.000000000  0.121002672

  length of vectors
     6.589573760  6.869532370  8.264280290     0.151754884  0.145570316  0.121002672


 
 k-points in units of 2pi/SCALE and weight: pymatgen with grid density = 807 / numbe
   0.00000000  0.00000000  0.00000000       0.037
   0.05058496  0.00000000  0.00000000       0.074
   0.00000000  0.04852344  0.00000000       0.074
   0.05058496  0.04852344  0.00000000       0.148
   0.00000000  0.00000000  0.04033422       0.074
   0.05058496  0.00000000  0.04033422       0.148
   0.00000000  0.04852344  0.04033422       0.148
   0.05058496  0.04852344  0.04033422       0.296
 
 k-points in reciprocal lattice and weights: pymatgen with grid density = 807 / numbe
   0.00000000  0.00000000  0.00000000       0.037
   0.33333333  0.00000000  0.00000000       0.074
   0.00000000  0.33333333  0.00000000       0.074
   0.33333333  0.33333333  0.00000000       0.148
   0.00000000  0.00000000  0.33333333       0.074
   0.33333333  0.00000000  0.33333333       0.148
   0.00000000  0.33333333  0.33333333       0.148
   0.33333333  0.33333333  0.33333333       0.296
 
 position of ions in fractional coordinates (direct lattice) 
   0.11960890  0.91360938  0.62158584
   0.61960890  0.08639062  0.37841416
   0.61960890  0.58639062  0.12158584
   0.11960890  0.41360938  0.87841416
   0.62273089  0.57334526  0.62580377
   0.12273089  0.42665474  0.37419623
   0.12273089  0.92665474  0.12580377
   0.62273089  0.07334526  0.87419623
   0.50583385  0.90660799  0.63443971
   0.00583385  0.09339201  0.36556029
   0.00583385  0.59339201  0.13443971
   0.50583385  0.40660799  0.86556029
   0.98982535  0.06671919  0.88119243
   0.48982635  0.93328081  0.11880757
   0.48982635  0.43328081  0.38119243
   0.98982535  0.56671919  0.61880757
 
 position of ions in cartesian coordinates  (Angst):
   0.78817167  6.27606921  5.13695961
   4.08295855  0.59346316  3.12732068
   4.08295855  4.02822935  1.00481946
   0.78817167  2.84130302  7.25946083
   4.10353113  3.93861382  5.17181776
   0.80874425  2.93091855  3.09246253
   0.80874425  6.36568473  1.03967762
   4.10353113  0.50384764  7.22460267
   3.33322946  6.22797293  5.24318759
   0.03844258  0.64155944  3.02109270
   0.03844258  4.07632562  1.11104745
   3.33322946  2.79320675  7.15323284
   6.52252715  0.45832964  7.28242123
   3.22774686  6.41120273  0.98185906
   3.22774686  2.97643655  3.15028109
   6.52252715  3.89309582  5.11399920
 


--------------------------------------------------------------------------------------------------------


 k-point  1 :   0.0000 0.0000 0.0000  plane waves:    4411
 k-point  2 :   0.3333 0.0000 0.0000  plane waves:    4424
 k-point  3 :   0.0000 0.3333 0.0000  plane waves:    4412
 k-point  4 :   0.3333 0.3333 0.0000  plane waves:    4417
 k-point  5 :   0.0000 0.0000 0.3333  plane waves:    4436
 k-point  6 :   0.3333 0.0000 0.3333  plane waves:    4403
 k-point  7 :   0.0000 0.3333 0.3333  plane waves:    4416
 k-point  8 :   0.3333 0.3333 0.3333  plane waves:    4406

 maximum and minimum number of plane-waves per node :      4436     4403

 maximum number of plane-waves:      4436
 maximum index in each direction: 
   IXMAX=    9   IYMAX=    9   IZMAX=   11
   IXMIN=   -9   IYMIN=  -10   IZMIN=  -12


 serial   3D FFT for wavefunctions
 parallel 3D FFT for charge:
    minimum data exchange during FFTs selected (reduces bandwidth)


 total amount of memory used by VASP MPI-rank0    34524. kBytes
=======================================================================

   base      :      30000. kBytes
   nonlr-proj:        720. kBytes
   fftplans  :        365. kBytes
   grid      :       1638. kBytes
   one-center:         49. kBytes
   wavefun   :       1752. kBytes
 
     INWAV:  cpu time    0.0000: real time    0.0001
 Broyden mixing: mesh for mixing (old mesh)
   NGX = 19   NGY = 19   NGZ = 23
  (NGX  = 40   NGY  = 42   NGZ  = 50)
  gives a total of   8303 points

 initial charge density was supplied:
 charge density of overlapping atoms calculated
 number of electron      64.0000000 magnetization 
 keeping initial charge density in first step


--------------------------------------------------------------------------------------------------------


 Maximum index for non-local projection operator          597
 Maximum index for augmentation-charges          108 (set IRDMAX)


--------------------------------------------------------------------------------------------------------


 First call to EWALD:  gamma=   0.246
 Maximum number of real-space cells 3x 3x 2
 Maximum number of reciprocal cells 3x 3x 3

    FEWALD:  cpu time    0.0018: real time    0.0018


--------------------------------------- Iteration      1(   1)  ---------------------------------------


    POTLOK:  cpu time    0.0055: real time    0.0056
    SETDIJ:  cpu time    0.0903: real time    0.0903
     EDDAV:  cpu time    0.2530: real time    0.2543
       DOS:  cpu time    0.0006: real time    0.0006
    --------------------------------------------
      LOOP:  cpu time    0.3494: real time    0.3507

 eigenvalue-minimisations  :   672
 total energy-change (2. order) : 0.2125038E+03  (-0.1822431E+04)
 number of electron      64.0000000 magnetization 
 augmentation part       64.0000000 magnetization 

 Free energy of the ion-electron system (eV)
  ---------------------------------------------------
  alpha Z        PSCENC =        35.45757802
  Ewald energy   TEWEN  =     -2038.53216018
  -Hartree energ DENC   =      -429.53888833
  -exchange      EXHF   =         0.00000000
  -V(xc)+E(xc)   XCENC  =       -27.59543873
  PAW double counting   =      2035.32414679    -1859.74981981
  entropy T*S    EENTRO =        -0.01043094
  eigenvalues    EBANDS =        47.27527138
  atomic energy  EATOM  =      2449.87356359
  Solvation  Ediel_sol  =         0.00000000
  ---------------------------------------------------
  free energy    TOTEN  =       212.50382178 eV

  energy without entropy =      212.51425273  energy(sigma->0) =      212.50903726


--------------------------------------------------------------------------------------------------------




--------------------------------------- Iteration      1(   2)  ---------------------------------------


     EDDAV:  cpu time    0.3048: real time    0.3109
       DOS:  cpu time    0.0002: real time    0.0002
    --------------------------------------------
      LOOP:  cpu time    0.3050: real time    0.3111

 eigenvalue-minimisations  :   938
 total energy-change (2. order) :-0.2693388E+03  (-0.2641897E+03)
 number of electron      64.0000000 magnetization 
 augmentation part       64.0000000 magnetization 

 Free energy of the ion-electron system (eV)
  ---------------------------------------------------
  alpha Z        PSCENC =        35.45757802
  Ewald energy   TEWEN  =     -2038.53216018
  -Hartree energ DENC   =      -429.53888833
  -exchange      EXHF   =         0.00000000
  -V(xc)+E(xc)   XCENC  =       -27.59543873
  PAW double counting   =      2035.32414679    -1859.74981981
  entropy T*S    EENTRO =        -0.00000000
  eigenvalues    EBANDS =      -222.07397141
  atomic energy  EATOM  =      2449.87356359
  Solvation  Ediel_sol  =         0.00000000
  ---------------------------------------------------
  free energy    TOTEN  =       -56.83499006 eV

  energy without entropy =      -56.83499006  energy(sigma->0) =      -56.83499006


--------------------------------------------------------------------------------------------------------




--------------------------------------- Iteration      1(   3)  ---------------------------------------


     EDDAV:  cpu time    0.2896: real time    0.2927
       DOS:  cpu time    0.0002: real time    0.0002
    --------------------------------------------
      LOOP:  cpu time    0.2898: real time    0.2929

 eigenvalue-minimisations  :   868
 total energy-change (2. order) :-0.2046238E+02  (-0.2041298E+02)
 number of electron      64.0000000 magnetization 
 augmentation part       64.0000000 magnetization 

 Free energy of the ion-electron system (eV)
  ---------------------------------------------------
  alpha Z        PSCENC =        35.45757802
  Ewald energy   TEWEN  =     -2038.53216018
  -Hartree energ DENC   =      -429.53888833
  -exchange      EXHF   =         0.00000000
  -V(xc)+E(xc)   XCENC  =       -27.59543873
  PAW double counting   =      2035.32414679    -1859.74981981
  entropy T*S    EENTRO =        -0.00000000
  eigenvalues    EBANDS =      -242.53635161
  atomic energy  EATOM  =      2449.87356359
  Solvation  Ediel_sol  =         0.00000000
  ---------------------------------------------------
  free energy    TOTEN  =       -77.29737026 eV

  energy without entropy =      -77.29737026  energy(sigma->0) =      -77.29737026


--------------------------------------------------------------------------------------------------------




--------------------------------------- Iteration      1(   4)  ---------------------------------------


     EDDAV:  cpu time    0.2399: real time    0.2400
       DOS:  cpu time    0.0019: real time    0.0019
    --------------------------------------------
      LOOP:  cpu time    0.2418: real time    0.2419

 eigenvalue-minimisations  :   868
 total energy-change (2. order) :-0.2970650E+00  (-0.2968829E+00)
 number of electron      64.0000000 magnetization 
 augmentation part       64.0000000 magnetization 

 Free energy of the ion-electron system (eV)
  ---------------------------------------------------
  alpha Z        PSCENC =        35.45757802
  Ewald energy   TEWEN  =     -2038.53216018
  -Hartree energ DENC   =      -429.53888833
  -exchange      EXHF   =         0.00000000
  -V(xc)+E(xc)   XCENC  =       -27.59543873
  PAW double counting   =      2035.32414679    -1859.74981981
  entropy T*S    EENTRO =        -0.00000000
  eigenvalues    EBANDS =      -242.83341660
  atomic energy  EATOM  =      2449.87356359
  Solvation  Ediel_sol  =         0.00000000
  ---------------------------------------------------
  free energy    TOTEN  =       -77.59443525 eV

  energy without entropy =      -77.59443525  energy(sigma->0) =      -77.59443525


--------------------------------------------------------------------------------------------------------




--------------------------------------- Iteration      1(   5)  ---------------------------------------


     EDDAV:  cpu time    0.2330: real time    0.2355
       DOS:  cpu time    0.0002: real time    0.0003
    CHARGE:  cpu time    0.0097: real time    0.0100
    MIXING:  cpu time    0.0005: real time    0.0005
    --------------------------------------------
      LOOP:  cpu time    0.2435: real time    0.2462

 eigenvalue-minimisations  :   868
 total energy-change (2. order) :-0.7144587E-02  (-0.7144044E-02)
 number of electron      64.0000393 magnetization 
 augmentation part       -6.9403700 magnetization 

 Broyden mixing:
  rms(total) = 0.11999E+01    rms(broyden)= 0.11998E+01
  rms(prec ) = 0.16683E+01
  weight for this iteration     100.00

 Free energy of the ion-electron system (eV)
  ---------------------------------------------------
  alpha Z        PSCENC =        35.45757802
  Ewald energy   TEWEN  =     -2038.53216018
  -Hartree energ DENC   =      -429.53888833
  -exchange      EXHF   =         0.00000000
  -V(xc)+E(xc)   XCENC  =       -27.59543873
  PAW double counting   =      2035.32414679    -1859.74981981
  entropy T*S    EENTRO =        -0.00000000
  eigenvalues    EBANDS =      -242.84056119
  atomic energy  EATOM  =      2449.87356359
  Solvation  Ediel_sol  =         0.00000000
  ---------------------------------------------------
  free energy    TOTEN  =       -77.60157984 eV

  energy without entropy =      -77.60157984  energy(sigma->0) =      -77.60157984


--------------------------------------------------------------------------------------------------------




--------------------------------------- Iteration      1(   6)  ---------------------------------------


    POTLOK:  cpu time    0.0039: real time    0.0040
    SETDIJ:  cpu time    0.0868: real time    0.0873
     EDDAV:  cpu time    0.2915: real time    0.2917
       DOS:  cpu time    0.0002: real time    0.0002
    CHARGE:  cpu time    0.0106: real time    0.0106
    MIXING:  cpu time    0.0004: real time    0.0004
    --------------------------------------------
      LOOP:  cpu time    0.3934: real time    0.3943

 eigenvalue-minimisations  :   826
 total energy-change (2. order) : 0.2892085E+01  (-0.6990486E+00)
 number of electron      64.0000382 magnetization 
 augmentation part       -6.7181295 magnetization 

 Broyden mixing:
  rms(total) = 0.97223E+00    rms(broyden)= 0.97221E+00
  rms(prec ) = 0.10651E+01
  weight for this iteration     100.00

 eigenvalues of (default mixing * dielectric matrix)
  average eigenvalue GAMMA=   1.3660
  1.3660

 Free energy of the ion-electron system (eV)
  ---------------------------------------------------
  alpha Z        PSCENC =        35.45757802
  Ewald energy   TEWEN  =     -2038.53216018
  -Hartree energ DENC   =      -461.69728165
  -exchange      EXHF   =         0.00000000
  -V(xc)+E(xc)   XCENC  =       -24.66913566
  PAW double counting   =      2845.99764132    -2671.50916943
  entropy T*S    EENTRO =        -0.00000000
  eigenvalues    EBANDS =      -209.63053062
  atomic energy  EATOM  =      2449.87356359
  Solvation  Ediel_sol  =         0.00000000
  ---------------------------------------------------
  free energy    TOTEN  =       -74.70949460 eV

  energy without entropy =      -74.70949460  energy(sigma->0) =      -74.70949460


--------------------------------------------------------------------------------------------------------




--------------------------------------- Iteration      1(   7)  ---------------------------------------


    POTLOK:  cpu time    0.0058: real time    0.0060
    SETDIJ:  cpu time    0.0886: real time    0.0886
     EDDAV:  cpu time    0.2722: real time    0.2785
       DOS:  cpu time    0.0002: real time    0.0002
    CHARGE:  cpu time    0.0109: real time    0.0111
    MIXING:  cpu time    0.0005: real time    0.0005
    --------------------------------------------
      LOOP:  cpu time    0.3782: real time    0.3848

 eigenvalue-minimisations  :   896
 total energy-change (2. order) : 0.1240337E+00  (-0.1202342E+00)
 number of electron      64.0000375 magnetization 
 augmentation part       -6.6177063 magnetization 

 Broyden mixing:
  rms(total) = 0.54197E+00    rms(broyden)= 0.54196E+00
  rms(prec ) = 0.57050E+00
  weight for this iteration     100.00

 eigenvalues of (default mixing * dielectric matrix)
  average eigenvalue GAMMA=   1.8166
  1.2908  2.3425

 Free energy of the ion-electron system (eV)
  ---------------------------------------------------
  alpha Z        PSCENC =        35.45757802
  Ewald energy   TEWEN  =     -2038.53216018
  -Hartree energ DENC   =      -475.61579000
  -exchange      EXHF   =         0.00000000
  -V(xc)+E(xc)   XCENC  =       -23.07501240
  PAW double counting   =      3884.96093166    -3710.85595447
  entropy T*S    EENTRO =        -0.00000000
  eigenvalues    EBANDS =      -196.79861709
  atomic energy  EATOM  =      2449.87356359
  Solvation  Ediel_sol  =         0.00000000
  ---------------------------------------------------
  free energy    TOTEN  =       -74.58546087 eV

  energy without entropy =      -74.58546087  energy(sigma->0) =      -74.58546087


--------------------------------------------------------------------------------------------------------




--------------------------------------- Iteration      1(   8)  ---------------------------------------


    POTLOK:  cpu time    0.0042: real time    0.0044
    SETDIJ:  cpu time    0.0895: real time    0.0895
     EDDAV:  cpu time    0.2809: real time    0.2810
       DOS:  cpu time    0.0002: real time    0.0002
    CHARGE:  cpu time    0.0110: real time    0.0110
    MIXING:  cpu time    0.0006: real time    0.0006
    --------------------------------------------
      LOOP:  cpu time    0.3864: real time    0.3866

 eigenvalue-minimisations  :   868
 total energy-change (2. order) :-0.4027613E-01  (-0.1093075E-01)
 number of electron      64.0000376 magnetization 
 augmentation part       -6.6365323 magnetization 

 Broyden mixing:
  rms(total) = 0.50233E-01    rms(broyden)= 0.50232E-01
  rms(prec ) = 0.67221E-01
  weight for this iteration     100.00

 eigenvalues of (default mixing * dielectric matrix)
  average eigenvalue GAMMA=   1.5697
  2.3423  1.1834  1.1834

 Free energy of the ion-electron system (eV)
  ---------------------------------------------------
  alpha Z        PSCENC =        35.45757802
  Ewald energy   TEWEN  =     -2038.53216018
  -Hartree energ DENC   =      -477.74610728
  -exchange      EXHF   =         0.00000000
  -V(xc)+E(xc)   XCENC  =       -22.40351628
  PAW double counting   =      4926.60600373    -4752.45529850
  entropy T*S    EENTRO =        -0.00000000
  eigenvalues    EBANDS =      -195.42580010
  atomic energy  EATOM  =      2449.87356359
  Solvation  Ediel_sol  =         0.00000000
  ---------------------------------------------------
  free energy    TOTEN  =       -74.62573700 eV

  energy without entropy =      -74.62573700  energy(sigma->0) =      -74.62573700


--------------------------------------------------------------------------------------------------------




--------------------------------------- Iteration      1(   9)  ---------------------------------------


    POTLOK:  cpu time    0.0049: real time    0.0051
    SETDIJ:  cpu time    0.0900: real time    0.0900
     EDDAV:  cpu time    0.2888: real time    0.2890
       DOS:  cpu time    0.0002: real time    0.0002
    CHARGE:  cpu time    0.0108: real time    0.0108
    MIXING:  cpu time    0.0004: real time    0.0004
    --------------------------------------------
      LOOP:  cpu time    0.3950: real time    0.3954

 eigenvalue-minimisations  :   896
 total energy-change (2. order) :-0.3776269E-02  (-0.1535240E-02)
 number of electron      64.0000376 magnetization 
 augmentation part       -6.6326982 magnetization 

 Broyden mixing:
  rms(total) = 0.23534E-01    rms(broyden)= 0.23532E-01
  rms(prec ) = 0.31949E-01
  weight for this iteration     100.00

 eigenvalues of (default mixing * dielectric matrix)
  average eigenvalue GAMMA=   1.5584
  2.4568  1.3891  1.1938  1.1938

 Free energy of the ion-electron system (eV)
  ---------------------------------------------------
  alpha Z        PSCENC =        35.45757802
  Ewald energy   TEWEN  =     -2038.53216018
  -Hartree energ DENC   =      -479.42181689
  -exchange      EXHF   =         0.00000000
  -V(xc)+E(xc)   XCENC  =       -22.23422462
  PAW double counting   =      4937.00789099    -4762.89258470
  entropy T*S    EENTRO =        -0.00000000
  eigenvalues    EBANDS =      -193.88775948
  atomic energy  EATOM  =      2449.87356359
  Solvation  Ediel_sol  =         0.00000000
  ---------------------------------------------------
  free energy    TOTEN  =       -74.62951327 eV

  energy without entropy =      -74.62951327  energy(sigma->0) =      -74.62951327


--------------------------------------------------------------------------------------------------------




--------------------------------------- Iteration      1(  10)  ---------------------------------------


    POTLOK:  cpu time    0.0043: real time    0.0045
    SETDIJ:  cpu time    0.0869: real time    0.0871
     EDDAV:  cpu time    0.2290: real time    0.2326
       DOS:  cpu time    0.0002: real time    0.0002
    CHARGE:  cpu time    0.0095: real time    0.0101
    MIXING:  cpu time    0.0005: real time    0.0005
    --------------------------------------------
      LOOP:  cpu time    0.3303: real time    0.3349

 eigenvalue-minimisations  :   854
 total energy-change (2. order) :-0.3954797E-02  (-0.2772987E-03)
 number of electron      64.0000376 magnetization 
 augmentation part       -6.6325684 magnetization 

 Broyden mixing:
  rms(total) = 0.19035E-01    rms(broyden)= 0.19035E-01
  rms(prec ) = 0.21074E-01
  weight for this iteration     100.00

 eigenvalues of (default mixing * dielectric matrix)
  average eigenvalue GAMMA=   1.7398
  2.9648  2.4633  1.1936  1.1936  0.8837

 Free energy of the ion-electron system (eV)
  ---------------------------------------------------
  alpha Z        PSCENC =        35.45757802
  Ewald energy   TEWEN  =     -2038.53216018
  -Hartree energ DENC   =      -479.88900116
  -exchange      EXHF   =         0.00000000
  -V(xc)+E(xc)   XCENC  =       -22.16825545
  PAW double counting   =      4941.59118776    -4767.46272647
  entropy T*S    EENTRO =        -0.00000000
  eigenvalues    EBANDS =      -193.50365418
  atomic energy  EATOM  =      2449.87356359
  Solvation  Ediel_sol  =         0.00000000
  ---------------------------------------------------
  free energy    TOTEN  =       -74.63346807 eV

  energy without entropy =      -74.63346807  energy(sigma->0) =      -74.63346807


--------------------------------------------------------------------------------------------------------




--------------------------------------- Iteration      1(  11)  ---------------------------------------


    POTLOK:  cpu time    0.0037: real time    0.0038
    SETDIJ:  cpu time    0.0869: real time    0.0873
     EDDAV:  cpu time    0.2990: real time    0.2990
       DOS:  cpu time    0.0002: real time    0.0002
    CHARGE:  cpu time    0.0104: real time    0.0104
    MIXING:  cpu time    0.0005: real time    0.0005
    --------------------------------------------
      LOOP:  cpu time    0.4007: real time    0.4011

 eigenvalue-minimisations  :   896
 total energy-change (2. order) :-0.1253277E-02  (-0.1446949E-03)
 number of electron      64.0000376 magnetization 
 augmentation part       -6.6319655 magnetization 

 Broyden mixing:
  rms(total) = 0.59610E-02    rms(broyden)= 0.59609E-02
  rms(prec ) = 0.63941E-02
  weight for this iteration     100.00

 eigenvalues of (default mixing * dielectric matrix)
  average eigenvalue GAMMA=   1.6847
  2.8903  2.4876  1.3613  1.0319  1.1686  1.1686

 Free energy of the ion-electron system (eV)
  ---------------------------------------------------
  alpha Z        PSCENC =        35.45757802
  Ewald energy   TEWEN  =     -2038.53216018
  -Hartree energ DENC   =      -480.35168398
  -exchange      EXHF   =         0.00000000
  -V(xc)+E(xc)   XCENC  =       -22.12611315
  PAW double counting   =      4904.94905349    -4730.81473694
  entropy T*S    EENTRO =        -0.00000000
  eigenvalues    EBANDS =      -193.09022219
  atomic energy  EATOM  =      2449.87356359
  Solvation  Ediel_sol  =         0.00000000
  ---------------------------------------------------
  free energy    TOTEN  =       -74.63472134 eV

  energy without entropy =      -74.63472134  energy(sigma->0) =      -74.63472134


--------------------------------------------------------------------------------------------------------




--------------------------------------- Iteration      1(  12)  ---------------------------------------


    POTLOK:  cpu time    0.0109: real time    0.0110
    SETDIJ:  cpu time    0.0876: real time    0.0877
     EDDAV:  cpu time    0.1527: real time    0.1527
       DOS:  cpu time    0.0001: real time    0.0001
    --------------------------------------------
      LOOP:  cpu time    0.2513: real time    0.2515

 eigenvalue-minimisations  :   658
 total energy-change (2. order) :-0.3694931E-04  (-0.6289956E-05)
 number of electron      64.0000376 magnetization 
 augmentation part       -6.6319655 magnetization 

 Free energy of the ion-electron system (eV)
  ---------------------------------------------------
  alpha Z        PSCENC =        35.45757802
  Ewald energy   TEWEN  =     -2038.53216018
  -Hartree energ DENC   =      -480.44099363
  -exchange      EXHF   =         0.00000000
  -V(xc)+E(xc)   XCENC  =       -22.11971878
  PAW double counting   =      4905.86026540    -4731.72780329
  entropy T*S    EENTRO =        -0.00000000
  eigenvalues    EBANDS =      -193.00548942
  atomic energy  EATOM  =      2449.87356359
  Solvation  Ediel_sol  =         0.00000000
  ---------------------------------------------------
  free energy    TOTEN  =       -74.63475829 eV

  energy without entropy =      -74.63475829  energy(sigma->0) =      -74.63475829


--------------------------------------------------------------------------------------------------------




 average (electrostatic) potential at core
  the test charge radii are     0.9748  1.0406  0.9698
  (the norm of the test charge is              1.0000)
       1 -27.5779       2 -27.5780       3 -27.5780       4 -27.5779       5 -78.8764
       6 -78.8763       7 -78.8763       8 -78.8764       9 -88.7078      10 -88.7078
      11 -88.7078      12 -88.7078      13 -88.7102      14 -88.7102      15 -88.7102
      16 -88.7102
 
 
 
 E-fermi :   1.1802     XC(G=0):  -7.9235     alpha+bet : -8.5716


 k-point     1 :       0.0000    0.0000    0.0000
  band No.  band energies     occupation 
      1     -10.6244      2.00000
      2     -10.0874      2.00000
      3     -10.0686      2.00000
      4      -9.7858      2.00000
      5      -9.7463      2.00000
      6      -9.6787      2.00000
      7      -9.6683      2.00000
      8      -9.6382      2.00000
      9      -3.6791      2.00000
     10      -3.2041      2.00000
     11      -2.8458      2.00000
     12      -1.7983      2.00000
     13      -1.7443      2.00000
     14      -1.5529      2.00000
     15      -1.5437      2.00000
     16      -1.5047      2.00000
     17      -1.0491      2.00000
     18      -0.9268      2.00000
     19      -0.8263      2.00000
     20      -0.5177      2.00000
     21      -0.1687      2.00000
     22      -0.1277      2.00000
     23      -0.0205      2.00000
     24       0.0169      2.00000
     25       0.0492      2.00000
     26       0.0693      2.00000
     27       0.5260      2.00000
     28       0.6062      2.00000
     29       0.6880      2.00000
     30       0.7458      2.00000
     31       0.8243      2.00000
     32       0.9064      2.00000
     33       3.9667      0.00000
     34       4.8147      0.00000
     35       5.2085      0.00000
     36       5.2189      0.00000
     37       5.8910      0.00000
     38       5.8992      0.00000
     39       5.9609      0.00000
     40       6.6932      0.00000
     41       7.1836      0.00000
     42       7.3217      0.00000

 k-point     2 :       0.3333    0.0000    0.0000
  band No.  band energies     occupation 
      1     -10.4838      2.00000
      2     -10.1888      2.00000
      3      -9.9850      2.00000
      4      -9.7972      2.00000
      5      -9.7739      2.00000
      6      -9.7238      2.00000
      7      -9.7187      2.00000
      8      -9.6763      2.00000
      9      -3.6433      2.00000
     10      -3.2543      2.00000
     11      -2.8822      2.00000
     12      -2.3810      2.00000
     13      -1.4270      2.00000
     14      -1.3896      2.00000
     15      -1.3631      2.00000
     16      -1.0290      2.00000
     17      -0.9341      2.00000
     18      -0.8786      2.00000
     19      -0.6547      2.00000
     20      -0.6040      2.00000
     21      -0.3806      2.00000
     22      -0.2180      2.00000
     23      -0.0973      2.00000
     24      -0.0166      2.00000
     25       0.2302      2.00000
     26       0.3109      2.00000
     27       0.3279      2.00000
     28       0.4909      2.00000
     29       0.6793      2.00000
     30       0.7008      2.00000
     31       0.7733      2.00000
     32       0.8302      2.00000
     33       4.6099      0.00000
     34       4.6395      0.00000
     35       4.7241      0.00000
     36       5.1422      0.00000
     37       5.8447      0.00000
     38       6.0011      0.00000
     39       6.2875      0.00000
     40       6.3274      0.00000
     41       6.7390      0.00000
     42       6.7929      0.00000

 k-point     3 :       0.0000    0.3333    0.0000
  band No.  band energies     occupation 
      1     -10.4968      2.00000
      2     -10.2200      2.00000
      3      -9.9914      2.00000
      4      -9.8504      2.00000
      5      -9.7522      2.00000
      6      -9.6861      2.00000
      7      -9.6769      2.00000
      8      -9.6647      2.00000
      9      -3.5224      2.00000
     10      -3.2809      2.00000
     11      -2.6733      2.00000
     12      -2.3229      2.00000
     13      -1.6847      2.00000
     14      -1.5894      2.00000
     15      -1.4988      2.00000
     16      -1.3653      2.00000
     17      -0.8106      2.00000
     18      -0.7952      2.00000
     19      -0.6505      2.00000
     20      -0.3899      2.00000
     21      -0.3126      2.00000
     22      -0.1320      2.00000
     23      -0.1082      2.00000
     24      -0.0685      2.00000
     25       0.1693      2.00000
     26       0.2190      2.00000
     27       0.3861      2.00000
     28       0.5336      2.00000
     29       0.6443      2.00000
     30       0.6738      2.00000
     31       0.7279      2.00000
     32       0.7749      2.00000
     33       4.4876      0.00000
     34       4.9404      0.00000
     35       5.0125      0.00000
     36       5.1066      0.00000
     37       5.6934      0.00000
     38       5.8658      0.00000
     39       6.2936      0.00000
     40       6.4852      0.00000
     41       6.5487      0.00000
     42       6.7680      0.00000

 k-point     4 :       0.3333    0.3333    0.0000
  band No.  band energies     occupation 
      1     -10.3631      2.00000
      2     -10.1052      2.00000
      3     -10.0883      2.00000
      4      -9.8833      2.00000
      5      -9.7813      2.00000
      6      -9.7470      2.00000
      7      -9.7188      2.00000
      8      -9.7039      2.00000
      9      -3.4608      2.00000
     10      -3.0943      2.00000
     11      -3.0759      2.00000
     12      -2.7060      2.00000
     13      -1.3382      2.00000
     14      -1.3281      2.00000
     15      -1.2040      2.00000
     16      -1.0142      2.00000
     17      -0.9633      2.00000
     18      -0.6344      2.00000
     19      -0.5240      2.00000
     20      -0.3788      2.00000
     21      -0.3260      2.00000
     22      -0.2893      2.00000
     23      -0.0524      2.00000
     24      -0.0245      2.00000
     25       0.1857      2.00000
     26       0.2194      2.00000
     27       0.3282      2.00000
     28       0.3875      2.00000
     29       0.5431      2.00000
     30       0.6314      2.00000
     31       0.6650      2.00000
     32       0.7299      2.00000
     33       4.5985      0.00000
     34       4.7197      0.00000
     35       4.8588      0.00000
     36       5.0172      0.00000
     37       5.7929      0.00000
     38       5.8061      0.00000
     39       6.0614      0.00000
     40       6.1441      0.00000
     41       6.3344      0.00000
     42       6.6144      0.00000

 k-point     5 :       0.0000    0.0000    0.3333
  band No.  band energies     occupation 
      1     -10.5416      2.00000
      2     -10.3278      2.00000
      3      -9.8796      2.00000
      4      -9.7693      2.00000
      5      -9.7340      2.00000
      6      -9.7093      2.00000
      7      -9.6958      2.00000
      8      -9.6485      2.00000
      9      -3.5614      2.00000
     10      -3.3464      2.00000
     11      -2.5847      2.00000
     12      -2.1792      2.00000
     13      -1.7136      2.00000
     14      -1.5988      2.00000
     15      -1.2298      2.00000
     16      -1.2042      2.00000
     17      -1.1620      2.00000
     18      -0.8464      2.00000
     19      -0.7780      2.00000
     20      -0.7341      2.00000
     21      -0.2861      2.00000
     22      -0.1717      2.00000
     23      -0.1184      2.00000
     24       0.0554      2.00000
     25       0.1535      2.00000
     26       0.1854      2.00000
     27       0.3793      2.00000
     28       0.3890      2.00000
     29       0.5435      2.00000
     30       0.6453      2.00000
     31       0.7485      2.00000
     32       0.8186      2.00000
     33       4.4676      0.00000
     34       4.9329      0.00000
     35       5.4209      0.00000
     36       5.6443      0.00000
     37       5.7531      0.00000
     38       5.9392      0.00000
     39       6.4033      0.00000
     40       6.4758      0.00000
     41       6.8087      0.00000
     42       7.2871      0.00000

 k-point     6 :       0.3333    0.0000    0.3333
  band No.  band energies     occupation 
      1     -10.4154      2.00000
      2     -10.2625      2.00000
      3      -9.9729      2.00000
      4      -9.8625      2.00000
      5      -9.7609      2.00000
      6      -9.7168      2.00000
      7      -9.6929      2.00000
      8      -9.6735      2.00000
      9      -3.5453      2.00000
     10      -3.3700      2.00000
     11      -2.6376      2.00000
     12      -2.3923      2.00000
     13      -1.5188      2.00000
     14      -1.4267      2.00000
     15      -1.1583      2.00000
     16      -1.1255      2.00000
     17      -0.9532      2.00000
     18      -0.8784      2.00000
     19      -0.5716      2.00000
     20      -0.5243      2.00000
     21      -0.4343      2.00000
     22      -0.3465      2.00000
     23      -0.1994      2.00000
     24      -0.0002      2.00000
     25       0.0800      2.00000
     26       0.1850      2.00000
     27       0.3970      2.00000
     28       0.4427      2.00000
     29       0.5629      2.00000
     30       0.6886      2.00000
     31       0.7055      2.00000
     32       0.7469      2.00000
     33       4.8258      0.00000
     34       4.9152      0.00000
     35       5.1306      0.00000
     36       5.3814      0.00000
     37       6.0534      0.00000
     38       6.1361      0.00000
     39       6.3058      0.00000
     40       6.4423      0.00000
     41       6.6552      0.00000
     42       6.9534      0.00000

 k-point     7 :       0.0000    0.3333    0.3333
  band No.  band energies     occupation 
      1     -10.4313      2.00000
      2     -10.2885      2.00000
      3      -9.9750      2.00000
      4      -9.8912      2.00000
      5      -9.7416      2.00000
      6      -9.7010      2.00000
      7      -9.6659      2.00000
      8      -9.6546      2.00000
      9      -3.4263      2.00000
     10      -3.3089      2.00000
     11      -2.5050      2.00000
     12      -2.3181      2.00000
     13      -1.7058      2.00000
     14      -1.5335      2.00000
     15      -1.4534      2.00000
     16      -1.3716      2.00000
     17      -0.9730      2.00000
     18      -0.8998      2.00000
     19      -0.6039      2.00000
     20      -0.4701      2.00000
     21      -0.3808      2.00000
     22      -0.1698      2.00000
     23      -0.1522      2.00000
     24      -0.0774      2.00000
     25       0.0964      2.00000
     26       0.2571      2.00000
     27       0.3538      2.00000
     28       0.4674      2.00000
     29       0.5577      2.00000
     30       0.6514      2.00000
     31       0.7308      2.00000
     32       0.7765      2.00000
     33       4.7394      0.00000
     34       4.9870      0.00000
     35       5.2637      0.00000
     36       5.4224      0.00000
     37       5.9247      0.00000
     38       6.0846      0.00000
     39       6.2462      0.00000
     40       6.4997      0.00000
     41       6.7023      0.00000
     42       6.9352      0.00000

 k-point     8 :       0.3333    0.3333    0.3333
  band No.  band energies     occupation 
      1     -10.3081      2.00000
      2     -10.1909      2.00000
      3     -10.0066      2.00000
      4      -9.9173      2.00000
      5      -9.7986      2.00000
      6      -9.7671      2.00000
      7      -9.7134      2.00000
      8      -9.7021      2.00000
      9      -3.3668      2.00000
     10      -3.2285      2.00000
     11      -2.8120      2.00000
     12      -2.6534      2.00000
     13      -1.4075      2.00000
     14      -1.2831      2.00000
     15      -1.1527      2.00000
     16      -1.0417      2.00000
     17      -0.8863      2.00000
     18      -0.7868      2.00000
     19      -0.6157      2.00000
     20      -0.4688      2.00000
     21      -0.3924      2.00000
     22      -0.3126      2.00000
     23      -0.1715      2.00000
     24      -0.1404      2.00000
     25       0.0524      2.00000
     26       0.1391      2.00000
     27       0.3375      2.00000
     28       0.4431      2.00000
     29       0.5771      2.00000
     30       0.6186      2.00000
     31       0.6824      2.00000
     32       0.7698      2.00000
     33       4.7528      0.00000
     34       4.9186      0.00000
     35       5.0882      0.00000
     36       5.2642      0.00000
     37       5.8003      0.00000
     38       6.0446      0.00000
     39       6.1217      0.00000
     40       6.3366      0.00000
     41       6.5686      0.00000
     42       6.6427      0.00000


--------------------------------------------------------------------------------------------------------


 soft charge-density along one line, spin component           1
         0         1         2         3         4         5         6         7         8         9
 total charge-density along one line
 
 pseudopotential strength for first ion, spin component:           1
  1.165   5.259   0.001  -0.000   0.000
  5.259  22.647   0.002  -0.001   0.000
  0.001   0.002  -0.402  -0.000   0.001
 -0.000  -0.001  -0.000  -0.401  -0.000
  0.000   0.000   0.001  -0.000  -0.402
 total augmentation occupancy for first ion, spin component:           1
  0.725  -0.014  -0.011   0.005   0.002
 -0.014   0.000   0.000  -0.000  -0.000
 -0.011   0.000   0.056  -0.001   0.002
  0.005  -0.000  -0.001   0.058  -0.000
  0.002  -0.000   0.002  -0.000   0.056


------------------------ aborting loop because EDIFF is reached ----------------------------------------


 


 total charge     
 
# of ion       s       p       d       tot
------------------------------------------
    1        0.073   0.122   0.000   0.196
    2        0.073   0.123   0.000   0.195
    3        0.073   0.123   0.000   0.195
    4        0.073   0.123   0.000   0.196
    5        0.365   0.301   0.000   0.666
    6        0.366   0.300   0.000   0.666
    7        0.366   0.301   0.000   0.666
    8        0.365   0.301   0.000   0.666
    9        1.320   2.414   0.000   3.734
   10        1.320   2.413   0.000   3.733
   11        1.320   2.412   0.000   3.732
   12        1.320   2.413   0.000   3.733
   13        1.319   2.418   0.000   3.737
   14        1.319   2.418   0.000   3.737
   15        1.319   2.419   0.000   3.738
   16        1.319   2.418   0.000   3.737
--------------------------------------------------
tot         12.310  21.017   0.000  33.327
 
    CHARGE:  cpu time    0.0087: real time    0.0087
    FORLOC:  cpu time    0.0005: real time    0.0005
    FORNL :  cpu time    0.0336: real time    0.0337
    STRESS:  cpu time    0.1268: real time    0.1269
    FORCOR:  cpu time    0.0039: real time    0.0039
    FORHAR:  cpu time    0.0012: real time    0.0012
    MIXING:  cpu time    0.0004: real time    0.0004
    OFIELD:  cpu time    0.0000: real time    0.0000

  FORCE on cell =-STRESS in cart. coord.  units (eV):
  Direction    XX          YY          ZZ          XY          YZ          ZX
  --------------------------------------------------------------------------------------
  Alpha Z    35.45758    35.45758    35.45758
  Ewald    -665.10358  -688.58152  -684.84990    -0.00010    -0.00000    -0.00000
  Hartree   167.99490   161.56464   150.85476     0.00001    -0.00000    -0.00000
  E(xc)    -209.66879  -209.77482  -209.75789    -0.00000     0.00000    -0.00000
  Local    -563.61574  -536.59294  -524.71711     0.00004     0.00000    -0.00000
  n-local   653.39076   653.62613   654.24006    -0.09580    -0.09979    -0.04871
  augment  -140.79369  -141.06595  -140.64374    -0.00000    -0.00000    -0.00000
  Kinetic   704.77230   709.12701   701.78452    -0.35639     0.03356     0.01009
  Fock        0.00000     0.00000     0.00000     0.00000     0.00000     0.00000
  -------------------------------------------------------------------------------------
  Total     -17.56626   -16.23988   -17.63172     0.00000     0.00000     0.00000
  in kB     -75.23159   -69.55106   -75.51197     0.00000     0.00000     0.00000
  external pressure =      -73.43 kB  Pullay stress =        0.00 kB


 VOLUME and BASIS-vectors are now :
 -----------------------------------------------------------------------------
  energy-cutoff  :      300.00
  volume of cell :      374.10
      direct lattice vectors                 reciprocal lattice vectors
     6.589573760  0.000000000  0.000000000     0.151754884  0.000000000  0.000000000
     0.000000000  6.869532370  0.000000000     0.000000000  0.145570316  0.000000000
     0.000000000  0.000000000  8.264280290     0.000000000  0.000000000  0.121002672

  length of vectors
     6.589573760  6.869532370  8.264280290     0.151754884  0.145570316  0.121002672


 FORCES acting on ions
    electron-ion (+dipol)            ewald-force                    non-local-force                 convergence-correction
 -----------------------------------------------------------------------------------------------
   -.128E+00 -.132E+01 0.572E+00   0.151E+00 0.116E+01 -.491E+00   -.267E-01 0.122E+00 -.579E-01   -.609E-04 0.469E-04 0.200E-04
   -.128E+00 0.132E+01 -.572E+00   0.151E+00 -.116E+01 0.491E+00   -.267E-01 -.122E+00 0.579E-01   -.586E-04 -.469E-04 -.199E-04
   -.128E+00 0.132E+01 0.572E+00   0.151E+00 -.116E+01 -.491E+00   -.267E-01 -.122E+00 -.579E-01   -.586E-04 -.469E-04 0.199E-04
   -.128E+00 -.132E+01 -.572E+00   0.151E+00 0.116E+01 0.491E+00   -.267E-01 0.122E+00 0.579E-01   -.609E-04 0.469E-04 -.200E-04
   -.105E+01 -.141E+00 -.945E+00   0.888E+00 0.206E+00 0.817E+00   0.106E+00 -.279E-01 0.967E-01   0.472E-04 0.325E-03 0.823E-04
   -.105E+01 0.141E+00 0.945E+00   0.888E+00 -.205E+00 -.817E+00   0.106E+00 0.279E-01 -.967E-01   0.362E-04 -.325E-03 -.825E-04
   -.105E+01 0.141E+00 -.945E+00   0.888E+00 -.205E+00 0.817E+00   0.106E+00 0.279E-01 0.967E-01   0.362E-04 -.325E-03 0.825E-04
   -.105E+01 -.141E+00 0.945E+00   0.888E+00 0.206E+00 -.817E+00   0.106E+00 -.279E-01 -.967E-01   0.472E-04 0.325E-03 -.823E-04
   0.143E+02 -.121E+02 0.201E+02   -.162E+02 0.135E+02 -.225E+02   0.253E+01 -.173E+01 0.309E+01   -.439E-02 0.327E-02 -.622E-02
   0.143E+02 0.121E+02 -.201E+02   -.162E+02 -.135E+02 0.225E+02   0.253E+01 0.173E+01 -.309E+01   -.443E-02 -.327E-02 0.622E-02
   0.143E+02 0.121E+02 0.201E+02   -.162E+02 -.135E+02 -.225E+02   0.253E+01 0.173E+01 0.309E+01   -.443E-02 -.327E-02 -.622E-02
   0.143E+02 -.121E+02 -.201E+02   -.162E+02 0.135E+02 0.225E+02   0.253E+01 -.173E+01 -.309E+01   -.439E-02 0.327E-02 0.622E-02
   -.132E+02 -.878E+01 0.205E+02   0.152E+02 0.998E+01 -.230E+02   -.250E+01 -.150E+01 0.323E+01   0.349E-02 0.171E-02 -.651E-02
   -.132E+02 0.878E+01 -.205E+02   0.152E+02 -.998E+01 0.230E+02   -.250E+01 0.150E+01 -.323E+01   0.353E-02 -.171E-02 0.651E-02
   -.132E+02 0.878E+01 0.205E+02   0.152E+02 -.998E+01 -.230E+02   -.250E+01 0.150E+01 0.323E+01   0.353E-02 -.171E-02 -.651E-02
   -.132E+02 -.878E+01 -.205E+02   0.152E+02 0.998E+01 0.230E+02   -.250E+01 -.150E+01 -.323E+01   0.349E-02 0.171E-02 0.651E-02
 -----------------------------------------------------------------------------------------------
   -.414E+00 0.699E-04 0.170E-03   0.000E+00 -.355E-14 -.711E-14   0.457E+00 -.666E-15 -.444E-15   -.365E-02 -.387E-06 0.373E-13
 
 
 POSITION                                       TOTAL-FORCE (eV/Angst)
 -----------------------------------------------------------------------------------
      0.78817      6.27607      5.13696        -0.006676     -0.033935      0.023067
      4.08296      0.59346      3.12732        -0.006676      0.033935     -0.023067
      4.08296      4.02823      1.00482        -0.006676      0.033935      0.023067
      0.78817      2.84130      7.25946        -0.006676     -0.033935     -0.023067
      4.10353      3.93861      5.17182        -0.053872      0.036788     -0.031487
      0.80874      2.93092      3.09246        -0.053872     -0.036788      0.031487
      0.80874      6.36568      1.03968        -0.053872     -0.036788     -0.031487
      4.10353      0.50385      7.22460        -0.053872      0.036788      0.031487
      3.33323      6.22797      5.24319         0.615664     -0.392034      0.687574
      0.03844      0.64156      3.02109         0.615664      0.392034     -0.687574
      0.03844      4.07633      1.11105         0.615664      0.392034      0.687574
      3.33323      2.79321      7.15323         0.615664     -0.392034     -0.687574
      6.52253      0.45833      7.28242        -0.555116     -0.299931      0.727318
      3.22775      6.41120      0.98186        -0.555116      0.299931     -0.727318
      3.22775      2.97644      3.15028        -0.555116      0.299931      0.727318
      6.52253      3.89310      5.11400        -0.555116     -0.299931     -0.727318
 -----------------------------------------------------------------------------------
    total drift:                                0.038973      0.000069      0.000170


--------------------------------------------------------------------------------------------------------



  FREE ENERGIE OF THE ION-ELECTRON SYSTEM (eV)
  ---------------------------------------------------
  free  energy   TOTEN  =       -74.63475829 eV

  energy  without entropy=      -74.63475829  energy(sigma->0) =      -74.63475829
 


--------------------------------------------------------------------------------------------------------


    POTLOK:  cpu time    0.0947: real time    0.0947


--------------------------------------------------------------------------------------------------------




--------------------------------------------------------------------------------------------------------


    WAVPRE:  cpu time    0.0043: real time    0.0046
    FEWALD:  cpu time    0.0004: real time    0.0004
    GENKIN:  cpu time    0.0038: real time    0.0038
    ORTHCH:  cpu time    0.0215: real time    0.0215
     LOOP+:  cpu time    4.3559: real time    4.3831


--------------------------------------- Iteration      2(   1)  ---------------------------------------


    POTLOK:  cpu time    0.0052: real time    0.0054
    SETDIJ:  cpu time    0.0902: real time    0.0902
     EDDAV:  cpu time    0.2851: real time    0.2854
       DOS:  cpu time    0.0003: real time    0.0003
    CHARGE:  cpu time    0.0101: real time    0.0101
    MIXING:  cpu time    0.0003: real time    0.0003
    --------------------------------------------
      LOOP:  cpu time    0.3912: real time    0.3917

 eigenvalue-minimisations  :   812
 total energy-change (2. order) :-0.7758641E+00  (-0.5087135E+00)
 number of electron      64.0000166 magnetization 
 augmentation part       -6.5179883 magnetization 

 Broyden mixing:
  rms(total) = 0.37946E+00    rms(broyden)= 0.37932E+00
  rms(prec ) = 0.46873E+00
  weight for this iteration     100.00

 Free energy of the ion-electron system (eV)
  ---------------------------------------------------
  alpha Z        PSCENC =        36.58057761
  Ewald energy   TEWEN  =     -2057.49912682
  -Hartree energ DENC   =      -487.35433054
  -exchange      EXHF   =         0.00000000
  -V(xc)+E(xc)   XCENC  =       -20.68854864
  PAW double counting   =      4904.86637400    -4730.73296067
  entropy T*S    EENTRO =        -0.00000000
  eigenvalues    EBANDS =      -170.45613395
  atomic energy  EATOM  =      2449.87356359
  Solvation  Ediel_sol  =         0.00000000
  ---------------------------------------------------
  free energy    TOTEN  =       -75.41058541 eV

  energy without entropy =      -75.41058541  energy(sigma->0) =      -75.41058541


--------------------------------------------------------------------------------------------------------




--------------------------------------- Iteration      2(   2)  ---------------------------------------


    POTLOK:  cpu time    0.0047: real time    0.0048
    SETDIJ:  cpu time    0.0897: real time    0.0898
     EDDAV:  cpu time    0.1793: real time    0.1794
       DOS:  cpu time    0.0001: real time    0.0001
    CHARGE:  cpu time    0.0095: real time    0.0095
    MIXING:  cpu time    0.0002: real time    0.0002
    --------------------------------------------
      LOOP:  cpu time    0.2835: real time    0.2838

 eigenvalue-minimisations  :   770
 total energy-change (2. order) : 0.1951919E+00  (-0.5341279E-01)
 number of electron      64.0000165 magnetization 
 augmentation part       -6.5796828 magnetization 

 Broyden mixing:
  rms(total) = 0.11615E+00    rms(broyden)= 0.11615E+00
  rms(prec ) = 0.14817E+00
  weight for this iteration     100.00

 eigenvalues of (default mixing * dielectric matrix)
  average eigenvalue GAMMA=   1.1535
  1.1535

 Free energy of the ion-electron system (eV)
  ---------------------------------------------------
  alpha Z        PSCENC =        36.58057761
  Ewald energy   TEWEN  =     -2057.49912682
  -Hartree energ DENC   =      -477.64005407
  -exchange      EXHF   =         0.00000000
  -V(xc)+E(xc)   XCENC  =       -21.25095346
  PAW double counting   =      5149.03693504    -4974.80272059
  entropy T*S    EENTRO =        -0.00000000
  eigenvalues    EBANDS =      -179.51361482
  atomic energy  EATOM  =      2449.87356359
  Solvation  Ediel_sol  =         0.00000000
  ---------------------------------------------------
  free energy    TOTEN  =       -75.21539352 eV

  energy without entropy =      -75.21539352  energy(sigma->0) =      -75.21539352


--------------------------------------------------------------------------------------------------------




--------------------------------------- Iteration      2(   3)  ---------------------------------------


    POTLOK:  cpu time    0.0033: real time    0.0035
    SETDIJ:  cpu time    0.0870: real time    0.0870
     EDDAV:  cpu time    0.2627: real time    0.2627
       DOS:  cpu time    0.0002: real time    0.0002
    CHARGE:  cpu time    0.0110: real time    0.0110
    MIXING:  cpu time    0.0005: real time    0.0005
    --------------------------------------------
      LOOP:  cpu time    0.3646: real time    0.3647

 eigenvalue-minimisations  :   882
 total energy-change (2. order) : 0.2140606E-01  (-0.9280487E-02)
 number of electron      64.0000166 magnetization 
 augmentation part       -6.6188342 magnetization 

 Broyden mixing:
  rms(total) = 0.61656E-01    rms(broyden)= 0.61650E-01
  rms(prec ) = 0.66699E-01
  weight for this iteration     100.00

 eigenvalues of (default mixing * dielectric matrix)
  average eigenvalue GAMMA=   1.0698
  1.0698  1.0698

 Free energy of the ion-electron system (eV)
  ---------------------------------------------------
  alpha Z        PSCENC =        36.58057761
  Ewald energy   TEWEN  =     -2057.49912682
  -Hartree energ DENC   =      -473.92056520
  -exchange      EXHF   =         0.00000000
  -V(xc)+E(xc)   XCENC  =       -21.41033645
  PAW double counting   =      5225.45639252    -5051.28237750
  entropy T*S    EENTRO =        -0.00000000
  eigenvalues    EBANDS =      -182.99211522
  atomic energy  EATOM  =      2449.87356359
  Solvation  Ediel_sol  =         0.00000000
[...]
     12      -1.6608      2.00000
     13      -1.1899      2.00000
     14      -0.9956      2.00000
     15      -0.9519      2.00000
     16      -0.7728      2.00000
     17      -0.1299      2.00000
     18      -0.0645      2.00000
     19       0.0574      2.00000
     20       0.3774      2.00000
     21       0.4800      2.00000
     22       0.5998      2.00000
     23       0.7278      2.00000
     24       0.7637      2.00000
     25       1.0293      2.00000
     26       1.0663      2.00000
     27       1.2937      2.00000
     28       1.4319      2.00000
     29       1.5706      2.00000
     30       1.6370      2.00000
     31       1.6795      2.00000
     32       1.7278      2.00000
     33       6.3341      0.00000
     34       6.4051      0.00000
     35       6.7482      0.00000
     36       6.9570      0.00000
     37       6.9731      0.00000
     38       7.1370      0.00000
     39       7.5348      0.00000
     40       7.8563      0.00000
     41       7.8952      0.00000
     42       8.1601      0.00000

 k-point     4 :       0.3333    0.3333    0.0000
  band No.  band energies     occupation 
      1      -9.8978      2.00000
      2      -9.5502      2.00000
      3      -9.5237      2.00000
      4      -9.2313      2.00000
      5      -9.0607      2.00000
      6      -9.0184      2.00000
      7      -8.9786      2.00000
      8      -8.9644      2.00000
      9      -2.9143      2.00000
     10      -2.4577      2.00000
     11      -2.4477      2.00000
     12      -2.0562      2.00000
     13      -0.7821      2.00000
     14      -0.7587      2.00000
     15      -0.6119      2.00000
     16      -0.3641      2.00000
     17      -0.3324      2.00000
     18       0.1335      2.00000
     19       0.2214      2.00000
     20       0.4107      2.00000
     21       0.4629      2.00000
     22       0.5137      2.00000
     23       0.7944      2.00000
     24       0.8042      2.00000
     25       1.0523      2.00000
     26       1.0734      2.00000
     27       1.2033      2.00000
     28       1.2500      2.00000
     29       1.4440      2.00000
     30       1.5540      2.00000
     31       1.5896      2.00000
     32       1.6798      2.00000
     33       6.0735      0.00000
     34       6.3114      0.00000
     35       6.5389      0.00000
     36       6.6084      0.00000
     37       7.0162      0.00000
     38       7.3389      0.00000
     39       7.3926      0.00000
     40       7.6092      0.00000
     41       7.6344      0.00000
     42       7.9467      0.00000

 k-point     5 :       0.0000    0.0000    0.3333
  band No.  band energies     occupation 
      1     -10.1326      2.00000
      2      -9.8517      2.00000
      3      -9.2194      2.00000
      4      -9.0445      2.00000
      5      -9.0024      2.00000
      6      -8.9664      2.00000
      7      -8.9541      2.00000
      8      -8.8936      2.00000
      9      -3.0533      2.00000
     10      -2.7875      2.00000
     11      -1.9368      2.00000
     12      -1.5907      2.00000
     13      -1.2099      2.00000
     14      -0.9558      2.00000
     15      -0.6157      2.00000
     16      -0.5792      2.00000
     17      -0.4417      2.00000
     18      -0.1464      2.00000
     19      -0.0525      2.00000
     20      -0.0317      2.00000
     21       0.4626      2.00000
     22       0.5911      2.00000
     23       0.7533      2.00000
     24       0.9468      2.00000
     25       1.0138      2.00000
     26       1.0725      2.00000
     27       1.2827      2.00000
     28       1.2842      2.00000
     29       1.4445      2.00000
     30       1.5197      2.00000
     31       1.6975      2.00000
     32       1.7439      2.00000
     33       6.4416      0.00000
     34       6.5294      0.00000
     35       6.7121      0.00000
     36       6.9825      0.00000
     37       7.5778      0.00000
     38       7.7024      0.00000
     39       7.7334      0.00000
     40       7.8254      0.00000
     41       8.1314      0.00000
     42       8.6620      0.00000

 k-point     6 :       0.3333    0.0000    0.3333
  band No.  band energies     occupation 
      1      -9.9680      2.00000
      2      -9.7674      2.00000
      3      -9.3467      2.00000
      4      -9.1901      2.00000
      5      -9.0365      2.00000
      6      -8.9757      2.00000
      7      -8.9503      2.00000
      8      -8.9268      2.00000
      9      -3.0348      2.00000
     10      -2.8124      2.00000
     11      -1.9166      2.00000
     12      -1.6572      2.00000
     13      -0.9943      2.00000
     14      -0.8594      2.00000
     15      -0.5491      2.00000
     16      -0.5206      2.00000
     17      -0.3236      2.00000
     18      -0.2018      2.00000
     19       0.1688      2.00000
     20       0.2178      2.00000
     21       0.3486      2.00000
     22       0.4263      2.00000
     23       0.6334      2.00000
     24       0.8604      2.00000
     25       0.9406      2.00000
     26       1.0471      2.00000
     27       1.3109      2.00000
     28       1.3451      2.00000
     29       1.4162      2.00000
     30       1.6070      2.00000
     31       1.6344      2.00000
     32       1.7185      2.00000
     33       6.4198      0.00000
     34       6.8957      0.00000
     35       6.9058      0.00000
     36       7.0310      0.00000
     37       7.3632      0.00000
     38       7.4550      0.00000
     39       7.7753      0.00000
     40       7.8056      0.00000
     41       7.8991      0.00000
     42       8.2440      0.00000

 k-point     7 :       0.0000    0.3333    0.3333
  band No.  band energies     occupation 
      1      -9.9901      2.00000
      2      -9.8031      2.00000
      3      -9.3522      2.00000
      4      -9.2306      2.00000
      5      -9.0093      2.00000
      6      -8.9533      2.00000
      7      -8.9087      2.00000
      8      -8.8950      2.00000
      9      -2.8737      2.00000
     10      -2.7373      2.00000
     11      -1.7624      2.00000
     12      -1.6034      2.00000
     13      -1.2106      2.00000
     14      -0.9939      2.00000
     15      -0.8790      2.00000
     16      -0.7825      2.00000
     17      -0.2789      2.00000
     18      -0.2355      2.00000
     19       0.1315      2.00000
     20       0.2747      2.00000
     21       0.4040      2.00000
     22       0.6352      2.00000
     23       0.6618      2.00000
     24       0.7788      2.00000
     25       0.8699      2.00000
     26       1.1105      2.00000
     27       1.2634      2.00000
     28       1.4009      2.00000
     29       1.4590      2.00000
     30       1.5628      2.00000
     31       1.6711      2.00000
     32       1.7289      2.00000
     33       6.4570      0.00000
     34       6.6778      0.00000
     35       6.9850      0.00000
     36       7.1982      0.00000
     37       7.3600      0.00000
     38       7.4083      0.00000
     39       7.5043      0.00000
     40       7.7437      0.00000
     41       8.1632      0.00000
     42       8.3494      0.00000

 k-point     8 :       0.3333    0.3333    0.3333
  band No.  band energies     occupation 
      1      -9.8265      2.00000
      2      -9.6710      2.00000
      3      -9.4072      2.00000
      4      -9.2804      2.00000
      5      -9.0861      2.00000
      6      -9.0453      2.00000
      7      -8.9725      2.00000
      8      -8.9592      2.00000
      9      -2.7928      2.00000
     10      -2.6238      2.00000
     11      -2.1171      2.00000
     12      -1.9494      2.00000
     13      -0.8432      2.00000
     14      -0.7073      2.00000
     15      -0.5494      2.00000
     16      -0.4347      2.00000
     17      -0.2315      2.00000
     18      -0.1115      2.00000
     19       0.1069      2.00000
     20       0.3248      2.00000
     21       0.3428      2.00000
     22       0.4902      2.00000
     23       0.6593      2.00000
     24       0.7046      2.00000
     25       0.8714      2.00000
     26       0.9744      2.00000
     27       1.2005      2.00000
     28       1.3373      2.00000
     29       1.5038      2.00000
     30       1.5413      2.00000
     31       1.6083      2.00000
     32       1.7278      2.00000
     33       6.2405      0.00000
     34       6.6166      0.00000
     35       6.7747      0.00000
     36       6.8952      0.00000
     37       7.1335      0.00000
     38       7.3948      0.00000
     39       7.5748      0.00000
     40       7.6863      0.00000
     41       8.0354      0.00000
     42       8.1236      0.00000


--------------------------------------------------------------------------------------------------------


 soft charge-density along one line, spin component           1
         0         1         2         3         4         5         6         7         8         9
 total charge-density along one line
 
 pseudopotential strength for first ion, spin component:           1
  1.173   5.262   0.000  -0.000   0.000
  5.262  22.550   0.001  -0.001   0.000
  0.000   0.001  -0.357  -0.000   0.001
 -0.000  -0.001  -0.000  -0.356  -0.000
  0.000   0.000   0.001  -0.000  -0.357
 total augmentation occupancy for first ion, spin component:           1
  0.877  -0.019  -0.013   0.006   0.003
 -0.019   0.000   0.000  -0.000  -0.000
 -0.013   0.000   0.071  -0.001   0.002
  0.006  -0.000  -0.001   0.075  -0.000
  0.003  -0.000   0.002  -0.000   0.071


------------------------ aborting loop because EDIFF is reached ----------------------------------------


 


 total charge     
 
# of ion       s       p       d       tot
------------------------------------------
    1        0.088   0.156   0.000   0.244
    2        0.087   0.157   0.000   0.244
    3        0.087   0.157   0.000   0.244
    4        0.087   0.157   0.000   0.244
    5        0.371   0.367   0.000   0.737
    6        0.372   0.366   0.000   0.738
    7        0.371   0.367   0.000   0.738
    8        0.371   0.367   0.000   0.738
    9        1.315   2.491   0.000   3.806
   10        1.315   2.490   0.000   3.805
   11        1.315   2.490   0.000   3.804
   12        1.315   2.490   0.000   3.804
   13        1.314   2.497   0.000   3.811
   14        1.314   2.497   0.000   3.811
   15        1.314   2.498   0.000   3.811
   16        1.314   2.497   0.000   3.811
--------------------------------------------------
tot         12.347  22.042   0.000  34.390
 
    CHARGE:  cpu time    0.0104: real time    0.0104
    FORLOC:  cpu time    0.0006: real time    0.0006
    FORNL :  cpu time    0.0384: real time    0.0394
    STRESS:  cpu time    0.1079: real time    0.1089
    FORCOR:  cpu time    0.0032: real time    0.0032
    FORHAR:  cpu time    0.0010: real time    0.0010
    MIXING:  cpu time    0.0003: real time    0.0003
    OFIELD:  cpu time    0.0000: real time    0.0000

  FORCE on cell =-STRESS in cart. coord.  units (eV):
  Direction    XX          YY          ZZ          XY          YZ          ZX
  --------------------------------------------------------------------------------------
  Alpha Z    41.08444    41.08444    41.08444
  Ewald    -694.20982  -716.69734  -718.42928    -0.00011    -0.00000     0.00000
  Hartree   157.43551   150.42040   138.71218     0.00001    -0.00000    -0.00000
  E(xc)    -214.01599  -214.13087  -214.18351    -0.00000     0.00000    -0.00000
  Local    -538.97508  -511.60856  -494.78429     0.00004    -0.00000    -0.00000
  n-local   664.92716   665.02865   666.34879    -0.07333    -0.08388    -0.03900
  augment  -140.21752  -140.36599  -140.20467    -0.00000     0.00000     0.00000
  Kinetic   723.78395   726.21949   722.16107    -0.39364     0.13340     0.07146
  Fock        0.00000     0.00000     0.00000     0.00000     0.00000     0.00000
  -------------------------------------------------------------------------------------
  Total      -0.18734    -0.04977     0.70473     0.00000     0.00000     0.00000
  in kB      -0.92966    -0.24698     3.49715     0.00000     0.00000     0.00000
  external pressure =        0.77 kB  Pullay stress =        0.00 kB


 VOLUME and BASIS-vectors are now :
 -----------------------------------------------------------------------------
  energy-cutoff  :      300.00
  volume of cell :      322.87
      direct lattice vectors                 reciprocal lattice vectors
     6.266128042  0.000000000  0.000000000     0.159588185  0.000000000  0.000000000
     0.000000000  6.557805104  0.000000000     0.000000000  0.152490046  0.000000000
     0.000000000  0.000000000  7.857120693     0.000000000  0.000000000  0.127273086

  length of vectors
     6.266128042  6.557805104  7.857120693     0.159588185  0.152490046  0.127273086


 FORCES acting on ions
    electron-ion (+dipol)            ewald-force                    non-local-force                 convergence-correction
 -----------------------------------------------------------------------------------------------
   -.160E+00 -.155E+01 0.550E+00   0.191E+00 0.140E+01 -.472E+00   -.386E-01 0.150E+00 -.655E-01   0.134E-05 0.193E-03 0.875E-05
   -.160E+00 0.155E+01 -.550E+00   0.191E+00 -.140E+01 0.472E+00   -.386E-01 -.150E+00 0.655E-01   0.135E-05 -.193E-03 -.875E-05
   -.160E+00 0.155E+01 0.550E+00   0.191E+00 -.140E+01 -.472E+00   -.386E-01 -.150E+00 -.655E-01   0.135E-05 -.193E-03 0.875E-05
   -.160E+00 -.155E+01 -.550E+00   0.191E+00 0.140E+01 0.472E+00   -.386E-01 0.150E+00 0.655E-01   0.134E-05 0.193E-03 -.875E-05
   -.946E+00 -.113E+01 -.111E+01   0.799E+00 0.104E+01 0.954E+00   0.148E+00 0.951E-01 0.173E+00   0.105E-03 0.577E-04 -.399E-04
   -.946E+00 0.113E+01 0.111E+01   0.800E+00 -.104E+01 -.954E+00   0.148E+00 -.951E-01 -.173E+00   0.105E-03 -.576E-04 0.399E-04
   -.946E+00 0.113E+01 -.111E+01   0.800E+00 -.104E+01 0.954E+00   0.148E+00 -.951E-01 0.173E+00   0.105E-03 -.576E-04 -.399E-04
   -.946E+00 -.113E+01 0.111E+01   0.799E+00 0.104E+01 -.954E+00   0.148E+00 0.951E-01 -.173E+00   0.105E-03 0.577E-04 0.399E-04
   0.180E+02 -.147E+02 0.256E+02   -.194E+02 0.157E+02 -.273E+02   0.138E+01 -.102E+01 0.176E+01   -.489E-02 0.392E-02 -.672E-02
   0.180E+02 0.147E+02 -.256E+02   -.194E+02 -.157E+02 0.273E+02   0.138E+01 0.102E+01 -.176E+01   -.489E-02 -.392E-02 0.672E-02
   0.180E+02 0.147E+02 0.256E+02   -.194E+02 -.157E+02 -.273E+02   0.138E+01 0.102E+01 0.176E+01   -.489E-02 -.392E-02 -.672E-02
   0.180E+02 -.147E+02 -.256E+02   -.194E+02 0.157E+02 0.273E+02   0.138E+01 -.102E+01 -.176E+01   -.489E-02 0.392E-02 0.672E-02
   -.170E+02 -.112E+02 0.262E+02   0.184E+02 0.121E+02 -.279E+02   -.142E+01 -.888E+00 0.177E+01   0.406E-02 0.238E-02 -.684E-02
   -.170E+02 0.112E+02 -.262E+02   0.184E+02 -.121E+02 0.279E+02   -.142E+01 0.888E+00 -.177E+01   0.406E-02 -.238E-02 0.684E-02
   -.170E+02 0.112E+02 0.262E+02   0.184E+02 -.121E+02 -.279E+02   -.142E+01 0.888E+00 0.177E+01   0.406E-02 -.238E-02 -.684E-02
   -.170E+02 -.112E+02 -.262E+02   0.184E+02 0.121E+02 0.279E+02   -.142E+01 -.888E+00 -.177E+01   0.406E-02 0.238E-02 0.684E-02
 -----------------------------------------------------------------------------------------------
   -.310E+00 0.102E-03 0.877E-04   0.355E-14 0.000E+00 0.355E-14   0.309E+00 0.000E+00 0.222E-15   -.291E-02 0.179E-07 0.389E-12
 
 
 POSITION                                       TOTAL-FORCE (eV/Angst)
 -----------------------------------------------------------------------------------
      0.74920      5.98981      4.88487        -0.007903      0.006075      0.012394
      3.88226      0.56800      2.97225        -0.007903     -0.006075     -0.012394
      3.88226      3.84690      0.95631        -0.007903     -0.006075      0.012394
      0.74920      2.71090      6.90081        -0.007903      0.006075     -0.012394
      3.89979      3.76148      4.91566         0.002570      0.005346      0.018415
      0.76673      2.79633      2.94146         0.002570     -0.005346     -0.018415
      0.76673      6.07523      0.98710         0.002570     -0.005346      0.018415
      3.89979      0.48257      6.87002         0.002570      0.005346     -0.018415
      3.19615      5.92841      5.01450        -0.002949     -0.044497      0.011141
      0.06309      0.62939      2.84262        -0.002949      0.044497     -0.011141
      0.06309      3.90829      1.08594        -0.002949      0.044497      0.011141
      3.19615      2.64951      6.77118        -0.002949     -0.044497     -0.011141
      6.17845      0.42457      6.95498         0.008282     -0.018924      0.007106
      3.04539      6.13324      0.90214         0.008282      0.018924     -0.007106
      3.04539      2.85433      3.02642         0.008282      0.018924      0.007106
      6.17845      3.70347      4.83070         0.008282     -0.018924     -0.007106
 -----------------------------------------------------------------------------------
    total drift:                               -0.003933      0.000102      0.000088


--------------------------------------------------------------------------------------------------------



  FREE ENERGIE OF THE ION-ELECTRON SYSTEM (eV)
  ---------------------------------------------------
  free  energy   TOTEN  =       -76.18384414 eV

  energy  without entropy=      -76.18384414  energy(sigma->0) =      -76.18384414
 
 d Force = 0.2823337E-03[-0.245E-03, 0.810E-03]  d Energy = 0.3934671E-02-0.365E-02
 d Force = 0.6003116E+00[ 0.598E+00, 0.603E+00]  d Ewald  =-0.4434770E+01 0.504E+01


--------------------------------------------------------------------------------------------------------


    POTLOK:  cpu time    0.0877: real time    0.0897


--------------------------------------------------------------------------------------------------------




--------------------------------------------------------------------------------------------------------


  
 reached required accuracy - stopping structural energy minimisation
     LOOP+:  cpu time    1.6205: real time    1.6544
    4ORBIT:  cpu time    0.0000: real time    0.0000
 


 total charge     
 
# of ion       s       p       d       tot
------------------------------------------
    1        0.088   0.156   0.000   0.244
    2        0.087   0.157   0.000   0.244
    3        0.087   0.157   0.000   0.244
    4        0.087   0.157   0.000   0.244
    5        0.371   0.367   0.000   0.737
    6        0.372   0.366   0.000   0.738
    7        0.371   0.367   0.000   0.738
    8        0.371   0.367   0.000   0.738
    9        1.315   2.491   0.000   3.806
   10        1.315   2.490   0.000   3.805
   11        1.315   2.490   0.000   3.804
   12        1.315   2.490   0.000   3.804
   13        1.314   2.497   0.000   3.811
   14        1.314   2.497   0.000   3.811
   15        1.314   2.498   0.000   3.811
   16        1.314   2.497   0.000   3.811
--------------------------------------------------
tot         12.347  22.042   0.000  34.390
 

 total amount of memory used by VASP MPI-rank0    34620. kBytes
=======================================================================

   base      :      30000. kBytes
   nonlr-proj:        816. kBytes
   fftplans  :        365. kBytes
   grid      :       1638. kBytes
   one-center:         49. kBytes
   wavefun   :       1752. kBytes
 
  
  
 General timing and accounting informations for this job:
 ========================================================
  
                  Total CPU time used (sec):       13.969
                            User time (sec):       13.648
                          System time (sec):        0.321
                         Elapsed time (sec):       14.079
  
                   Maximum memory used (kb):       62540.
                   Average memory used (kb):           0.
  
                          Minor page faults:        19411
                          Major page faults:            0
                 Voluntary context switches:          166
