PROCAR new format
# of k-points:    8         # of bands:   42         # of ions:   16

 k-point     1 :    0.00000000 0.00000000 0.00000000     weight = 0.03703704

band     1 # energy  -10.23938389 # occ.  2.00000000
 
ion      s      p      d    tot
    1  0.001  0.000  0.000  0.001
    2  0.001  0.000  0.000  0.001
    3  0.001  0.000  0.000  0.001
    4  0.001  0.000  0.000  0.001
    5  0.013  0.000  0.000  0.013
    6  0.013  0.000  0.000  0.013
    7  0.013  0.000  0.000  0.013
    8  0.013  0.000  0.000  0.013
    9  0.064  0.000  0.000  0.065
   10  0.064  0.000  0.000  0.065
   11  0.064  0.000  0.000  0.065
   12  0.064  0.000  0.000  0.065
   13  0.071  0.000  0.000  0.071
   14  0.071  0.000  0.000  0.071
   15  0.071  0.000  0.000  0.071
   16  0.071  0.000  0.000  0.071
tot    0.598  0.004  0.000  0.602
 
band     2 # energy   -9.52629046 # occ.  2.00000000
 
ion      s      p      d    tot
    1  0.000  0.001  0.000  0.001
    2  0.000  0.001  0.000  0.001
    3  0.000  0.001  0.000  0.001
    4  0.000  0.001  0.000  0.001
    5  0.009  0.001  0.000  0.010
    6  0.009  0.001  0.000  0.010
    7  0.009  0.001  0.000  0.010
    8  0.009  0.001  0.000  0.010
    9  0.001  0.000  0.000  0.001
   10  0.001  0.000  0.000  0.001
   11  0.001  0.000  0.000  0.001
   12  0.001  0.000  0.000  0.001
   13  0.148  0.001  0.000  0.149
   14  0.148  0.001  0.000  0.149
   15  0.148  0.001  0.000  0.149
   16  0.148  0.001  0.000  0.149
tot    0.629  0.015  0.000  0.644
 
band     3 # energy   -9.49159967 # occ.  2.00000000
 
ion      s      p      d    tot
    1  0.000  0.001  0.000  0.001
    2  0.000  0.001  0.000  0.001
    3  0.000  0.001  0.000  0.001
    4  0.000  0.001  0.000  0.001
    5  0.008  0.002  0.000  0.010
    6  0.008  0.002  0.000  0.010
    7  0.008  0.002  0.000  0.010
    8  0.008  0.002  0.000  0.010
    9  0.148  0.001  0.000  0.149
   10  0.148  0.001  0.000  0.149
   11  0.148  0.001  0.000  0.149
   12  0.148  0.001  0.000  0.149
   13  0.001  0.000  0.000  0.001
   14  0.001  0.000  0.000  0.001
   15  0.001  0.000  0.000  0.001
   16  0.001  0.000  0.000  0.001
tot    0.630  0.014  0.000  0.644
 
band     4 # energy   -9.06497822 # occ.  2.00000000
 
ion      s      p      d    tot
    1  0.001  0.001  0.000  0.002
    2  0.001  0.001  0.000  0.002
    3  0.001  0.001  0.000  0.002
    4  0.001  0.001  0.000  0.002
    5  0.000  0.004  0.000  0.004
    6  0.000  0.004  0.000  0.004
    7  0.000  0.004  0.000  0.004
    8  0.000  0.004  0.000  0.004
    9  0.001  0.000  0.000  0.001
   10  0.001  0.000  0.000  0.001
   11  0.001  0.000  0.000  0.001
   12  0.001  0.000  0.000  0.001
   13  0.161  0.000  0.000  0.162
   14  0.161  0.000  0.000  0.162
   15  0.161  0.000  0.000  0.162
   16  0.161  0.000  0.000  0.162
tot    0.654  0.018  0.000  0.672
 
band     5 # energy   -9.01867851 # occ.  2.00000000
 
ion      s      p      d    tot
    1  0.001  0.000  0.000  0.001
    2  0.001  0.000  0.000  0.001
    3  0.001  0.000  0.000  0.001
    4  0.001  0.000  0.000  0.001
    5  0.000  0.004  0.000  0.004
    6  0.000  0.004  0.000  0.004
    7  0.000  0.004  0.000  0.004
    8  0.000  0.004  0.000  0.004
    9  0.162  0.000  0.000  0.163
   10  0.162  0.000  0.000  0.163
   11  0.162  0.000  0.000  0.163
   12  0.162  0.000  0.000  0.163
   13  0.001  0.000  0.000  0.001
   14  0.001  0.000  0.000  0.001
   15  0.001  0.000  0.000  0.001
   16  0.001  0.000  0.000  0.001
tot    0.656  0.017  0.000  0.673
 
band     6 # energy   -8.92428936 # occ.  2.00000000
 
ion      s      p      d    tot
    1  0.000  0.001  0.000  0.001
    2  0.000  0.001  0.000  0.001
    3  0.000  0.001  0.000  0.001
    4  0.000  0.001  0.000  0.001
    5  0.000  0.004  0.000  0.004
    6  0.000  0.004  0.000  0.004
    7  0.000  0.004  0.000  0.004
    8  0.000  0.004  0.000  0.004
    9  0.110  0.000  0.000  0.110
   10  0.110  0.000  0.000  0.110
   11  0.110  0.000  0.000  0.110
   12  0.110  0.000  0.000  0.110
   13  0.056  0.000  0.000  0.056
   14  0.056  0.000  0.000  0.056
   15  0.056  0.000  0.000  0.056
   16  0.056  0.000  0.000  0.056
tot    0.662  0.021  0.000  0.683
 
band     7 # energy   -8.90622192 # occ.  2.00000000
 
ion      s      p      d    tot
    1  0.000  0.001  0.000  0.001
    2  0.000  0.001  0.000  0.001
    3  0.000  0.001  0.000  0.001
    4  0.000  0.001  0.000  0.001
    5  0.000  0.004  0.000  0.004
    6  0.000  0.004  0.000  0.004
    7  0.000  0.004  0.000  0.004
    8  0.000  0.004  0.000  0.004
    9  0.087  0.000  0.000  0.087
   10  0.087  0.000  0.000  0.087
   11  0.087  0.000  0.000  0.087
   12  0.087  0.000  0.000  0.087
   13  0.079  0.000  0.000  0.079
   14  0.079  0.000  0.000  0.079
   15  0.079  0.000  0.000  0.079
   16  0.079  0.000  0.000  0.079
tot    0.664  0.020  0.000  0.684
 
band     8 # energy   -8.88064390 # occ.  2.00000000
 
ion      s      p      d    tot
    1  0.000  0.001  0.000  0.001
    2  0.000  0.001  0.000  0.001
    3  0.000  0.001  0.000  0.001
    4  0.000  0.001  0.000  0.001
    5  0.000  0.004  0.000  0.004
    6  0.000  0.004  0.000  0.004
    7  0.000  0.004  0.000  0.004
    8  0.000  0.004  0.000  0.004
    9  0.055  0.000  0.000  0.056
   10  0.055  0.000  0.000  0.056
   11  0.055  0.000  0.000  0.056
   12  0.055  0.000  0.000  0.056
   13  0.111  0.000  0.000  0.111
   14  0.111  0.000  0.000  0.111
   15  0.111  0.000  0.000  0.111
   16  0.111  0.000  0.000  0.111
tot    0.664  0.021  0.000  0.685
 
band     9 # energy   -3.20603701 # occ.  2.00000000
 
ion      s      p      d    tot
    1  0.000  0.000  0.000  0.000
    2  0.000  0.000  0.000  0.000
    3  0.000  0.000  0.000  0.000
    4  0.000  0.000  0.000  0.000
    5  0.052  0.000  0.000  0.052
    6  0.052  0.000  0.000  0.052
    7  0.052  0.000  0.000  0.052
    8  0.052  0.000  0.000  0.052
    9  0.000  0.037  0.000  0.037
   10  0.000  0.037  0.000  0.037
   11  0.000  0.037  0.000  0.037
   12  0.000  0.037  0.000  0.037
   13  0.000  0.030  0.000  0.030
   14  0.000  0.030  0.000  0.030
   15  0.000  0.030  0.000  0.030
   16  0.000  0.030  0.000  0.030
tot    0.208  0.267  0.000  0.475
 
band    10 # energy   -2.64055053 # occ.  2.00000000
 
ion      s      p      d    tot
    1  0.000  0.002  0.000  0.002
    2  0.000  0.002  0.000  0.002
    3  0.000  0.002  0.000  0.002
    4  0.000  0.002  0.000  0.002
    5  0.030  0.005  0.000  0.035
    6  0.030  0.005  0.000  0.035
    7  0.030  0.005  0.000  0.035
    8  0.030  0.005  0.000  0.035
    9  0.007  0.015  0.000  0.022
   10  0.007  0.015  0.000  0.022
   11  0.007  0.015  0.000  0.022
   12  0.007  0.015  0.000  0.022
   13  0.001  0.054  0.000  0.055
   14  0.001  0.054  0.000  0.055
   15  0.001  0.054  0.000  0.055
   16  0.001  0.054  0.000  0.055
tot    0.156  0.303  0.000  0.459
 
band    11 # energy   -2.15529622 # occ.  2.00000000
 
ion      s      p      d    tot
    1  0.000  0.001  0.000  0.001
    2  0.000  0.001  0.000  0.001
    3  0.000  0.001  0.000  0.001
    4  0.000  0.001  0.000  0.001
    5  0.035  0.005  0.000  0.040
    6  0.035  0.005  0.000  0.040
    7  0.035  0.005  0.000  0.040
    8  0.035  0.005  0.000  0.040
    9  0.000  0.064  0.000  0.064
   10  0.000  0.064  0.000  0.064
   11  0.000  0.064  0.000  0.064
   12  0.000  0.064  0.000  0.064
   13  0.012  0.010  0.000  0.022
   14  0.012  0.010  0.000  0.022
   15  0.012  0.010  0.000  0.022
   16  0.012  0.010  0.000  0.022
tot    0.189  0.314  0.000  0.504
 
band    12 # energy   -1.25640831 # occ.  2.00000000
 
ion      s      p      d    tot
    1  0.001  0.002  0.000  0.003
    2  0.001  0.002  0.000  0.003
    3  0.001  0.002  0.000  0.003
    4  0.001  0.002  0.000  0.003
    5  0.001  0.017  0.000  0.018
    6  0.001  0.017  0.000  0.018
    7  0.001  0.017  0.000  0.018
    8  0.001  0.017  0.000  0.018
    9  0.001  0.026  0.000  0.027
   10  0.001  0.026  0.000  0.027
   11  0.001  0.026  0.000  0.027
   12  0.001  0.026  0.000  0.027
   13  0.000  0.061  0.000  0.061
   14  0.000  0.061  0.000  0.061
   15  0.000  0.061  0.000  0.061
   16  0.000  0.061  0.000  0.061
tot    0.010  0.422  0.000  0.433
 
band    13 # energy   -1.05375002 # occ.  2.00000000
 
ion      s      p      d    tot
    1  0.001  0.002  0.000  0.003
    2  0.001  0.002  0.000  0.003
    3  0.001  0.002  0.000  0.003
    4  0.001  0.002  0.000  0.003
    5  0.000  0.014  0.000  0.015
    6  0.000  0.014  0.000  0.015
    7  0.000  0.014  0.000  0.015
    8  0.000  0.014  0.000  0.015
    9  0.002  0.058  0.000  0.060
   10  0.002  0.058  0.000  0.060
   11  0.002  0.058  0.000  0.060
   12  0.002  0.058  0.000  0.060
   13  0.000  0.029  0.000  0.029
   14  0.000  0.029  0.000  0.029
   15  0.000  0.029  0.000  0.029
   16  0.000  0.029  0.000  0.029
tot    0.013  0.416  0.000  0.429
 
band    14 # energy   -1.02227471 # occ.  2.00000000
 
ion      s      p      d    tot
    1  0.001  0.002  0.000  0.003
    2  0.001  0.002  0.000  0.003
    3  0.001  0.002  0.000  0.003
    4  0.001  0.002  0.000  0.003
    5  0.000  0.015  0.000  0.015
    6  0.000  0.015  0.000  0.015
    7  0.000  0.015  0.000  0.015
    8  0.000  0.015  0.000  0.015
    9  0.000  0.036  0.000  0.036
   10  0.000  0.036  0.000  0.036
   11  0.000  0.036  0.000  0.036
   12  0.000  0.036  0.000  0.036
   13  0.002  0.051  0.000  0.053
   14  0.002  0.051  0.000  0.053
   15  0.002  0.051  0.000  0.053
   16  0.002  0.051  0.000  0.053
tot    0.013  0.418  0.000  0.432
 
band    15 # energy   -1.00012368 # occ.  2.00000000
 
ion      s      p      d    tot
    1  0.001  0.002  0.000  0.003
    2  0.001  0.002  0.000  0.003
    3  0.001  0.002  0.000  0.003
    4  0.001  0.002  0.000  0.003
    5  0.004  0.015  0.000  0.019
    6  0.004  0.015  0.000  0.019
    7  0.004  0.015  0.000  0.019
    8  0.004  0.015  0.000  0.019
    9  0.000  0.012  0.000  0.013
   10  0.000  0.012  0.000  0.013
   11  0.000  0.012  0.000  0.013
   12  0.000  0.012  0.000  0.013
   13  0.002  0.079  0.000  0.080
   14  0.002  0.079  0.000  0.080
   15  0.002  0.079  0.000  0.080
   16  0.002  0.079  0.000  0.080
tot    0.026  0.433  0.000  0.459
 
band    16 # energy   -0.84872272 # occ.  2.00000000
 
ion      s      p      d    tot
    1  0.006  0.000  0.000  0.006
    2  0.006  0.000  0.000  0.006
    3  0.006  0.000  0.000  0.006
    4  0.006  0.000  0.000  0.006
    5  0.022  0.004  0.000  0.027
    6  0.022  0.004  0.000  0.027
    7  0.022  0.004  0.000  0.027
    8  0.022  0.004  0.000  0.027
    9  0.005  0.055  0.000  0.060
   10  0.005  0.055  0.000  0.060
   11  0.005  0.055  0.000  0.060
   12  0.005  0.055  0.000  0.060
   13  0.004  0.028  0.000  0.032
   14  0.004  0.028  0.000  0.032
   15  0.004  0.028  0.000  0.032
   16  0.004  0.028  0.000  0.032
tot    0.147  0.353  0.000  0.500
 
band    17 # energy   -0.43147724 # occ.  2.00000000
 
ion      s      p      d    tot
    1  0.001  0.005  0.000  0.006
    2  0.001  0.005  0.000  0.006
    3  0.001  0.005  0.000  0.006
    4  0.001  0.005  0.000  0.006
    5  0.000  0.009  0.000  0.009
    6  0.000  0.009  0.000  0.009
    7  0.000  0.009  0.000  0.009
    8  0.000  0.009  0.000  0.009
    9  0.002  0.047  0.000  0.049
   10  0.002  0.047  0.000  0.049
   11  0.002  0.047  0.000  0.049
   12  0.002  0.047  0.000  0.049
   13  0.001  0.045  0.000  0.046
   14  0.001  0.045  0.000  0.046
   15  0.001  0.045  0.000  0.046
   16  0.001  0.045  0.000  0.046
tot    0.019  0.419  0.000  0.438
 
band    18 # energy   -0.22047525 # occ.  2.00000000
 
ion      s      p      d    tot
    1  0.006  0.000  0.000  0.006
    2  0.006  0.000  0.000  0.006
    3  0.006  0.000  0.000  0.006
    4  0.006  0.000  0.000  0.006
    5  0.006  0.009  0.000  0.014
    6  0.006  0.009  0.000  0.014
    7  0.006  0.009  0.000  0.014
    8  0.006  0.009  0.000  0.014
    9  0.004  0.034  0.000  0.038
   10  0.004  0.034  0.000  0.038
   11  0.004  0.034  0.000  0.038
   12  0.004  0.034  0.000  0.038
   13  0.000  0.061  0.000  0.061
   14  0.000  0.061  0.000  0.061
   15  0.000  0.061  0.000  0.061
   16  0.000  0.061  0.000  0.061
tot    0.062  0.416  0.000  0.477
 
band    19 # energy   -0.11969673 # occ.  2.00000000
 
ion      s      p      d    tot
    1  0.001  0.001  0.000  0.002
    2  0.001  0.001  0.000  0.002
    3  0.001  0.001  0.000  0.002
    4  0.001  0.001  0.000  0.002
    5  0.002  0.015  0.000  0.017
    6  0.002  0.015  0.000  0.017
    7  0.002  0.015  0.000  0.017
    8  0.002  0.015  0.000  0.017
    9  0.000  0.090  0.000  0.090
   10  0.000  0.090  0.000  0.090
   11  0.000  0.090  0.000  0.090
   12  0.000  0.090  0.000  0.090
   13  0.001  0.015  0.000  0.017
   14  0.001  0.015  0.000  0.017
   15  0.001  0.015  0.000  0.017
   16  0.001  0.015  0.000  0.017
tot    0.018  0.487  0.000  0.505
 
band    20 # energy    0.25951729 # occ.  2.00000000
 
ion      s      p      d    tot
    1  0.003  0.001  0.000  0.004
    2  0.003  0.001  0.000  0.004
    3  0.003  0.001  0.000  0.004
    4  0.003  0.001  0.000  0.004
    5  0.003  0.010  0.000  0.013
    6  0.003  0.010  0.000  0.013
    7  0.003  0.010  0.000  0.013
    8  0.003  0.010  0.000  0.013
    9  0.000  0.031  0.000  0.031
   10  0.000  0.031  0.000  0.031
   11  0.000  0.031  0.000  0.031
   12  0.000  0.031  0.000  0.031
   13  0.001  0.078  0.000  0.079
   14  0.001  0.078  0.000  0.079
   15  0.001  0.078  0.000  0.079
   16  0.001  0.078  0.000  0.079
tot    0.024  0.481  0.000  0.505
 
band    21 # energy    0.57911664 # occ.  2.00000000
 
ion      s      p      d    tot
    1  0.002  0.005  0.000  0.008
    2  0.002  0.005  0.000  0.008
    3  0.002  0.005  0.000  0.008
    4  0.002  0.005  0.000  0.008
    5  0.000  0.002  0.000  0.002
    6  0.000  0.002  0.000  0.002
    7  0.000  0.002  0.000  0.002
    8  0.000  0.002  0.000  0.002
    9  0.001  0.027  0.000  0.029
   10  0.001  0.027  0.000  0.028
   11  0.001  0.027  0.000  0.028
   12  0.001  0.027  0.000  0.029
   13  0.000  0.079  0.000  0.079
   14  0.000  0.079  0.000  0.079
   15  0.000  0.079  0.000  0.079
   16  0.000  0.079  0.000  0.079
tot    0.014  0.453  0.000  0.467
 
band    22 # energy    0.58364442 # occ.  2.00000000
 
ion      s      p      d    tot
    1  0.001  0.005  0.000  0.006
    2  0.001  0.005  0.000  0.006
    3  0.001  0.005  0.000  0.006
    4  0.001  0.005  0.000  0.006
    5  0.000  0.006  0.000  0.006
    6  0.000  0.006  0.000  0.006
    7  0.000  0.006  0.000  0.006
    8  0.000  0.006  0.000  0.006
    9  0.000  0.058  0.000  0.058
   10  0.000  0.058  0.000  0.058
   11  0.000  0.058  0.000  0.058
   12  0.000  0.058  0.000  0.058
   13  0.001  0.051  0.000  0.052
   14  0.001  0.051  0.000  0.052
   15  0.001  0.051  0.000  0.052
   16  0.001  0.051  0.000  0.052
tot    0.008  0.479  0.000  0.486
 
band    23 # energy    0.82950060 # occ.  2.00000000
 
ion      s      p      d    tot
    1  0.001  0.005  0.000  0.005
    2  0.001  0.005  0.000  0.005
    3  0.001  0.005  0.000  0.005
    4  0.001  0.005  0.000  0.005
    5  0.000  0.008  0.000  0.008
    6  0.000  0.008  0.000  0.008
    7  0.000  0.008  0.000  0.008
    8  0.000  0.008  0.000  0.008
    9  0.000  0.084  0.000  0.084
   10  0.000  0.084  0.000  0.084
   11  0.000  0.084  0.000  0.084
   12  0.000  0.084  0.000  0.084
   13  0.000  0.031  0.000  0.031
   14  0.000  0.031  0.000  0.031
   15  0.000  0.031  0.000  0.031
   16  0.000  0.031  0.000  0.031
tot    0.006  0.509  0.000  0.515
 
band    24 # energy    0.84249394 # occ.  2.00000000
 
ion      s      p      d    tot
    1  0.008  0.002  0.000  0.010
    2  0.008  0.002  0.000  0.010
    3  0.008  0.002  0.000  0.010
    4  0.008  0.002  0.000  0.010
    5  0.000  0.001  0.000  0.002
    6  0.000  0.001  0.000  0.002
    7  0.000  0.001  0.000  0.002
    8  0.000  0.001  0.000  0.002
    9  0.000  0.065  0.000  0.065
   10  0.000  0.065  0.000  0.065
   11  0.000  0.065  0.000  0.065
   12  0.000  0.065  0.000  0.065
   13  0.000  0.046  0.000  0.046
   14  0.000  0.046  0.000  0.046
   15  0.000  0.046  0.000  0.046
   16  0.000  0.046  0.000  0.046
tot    0.036  0.458  0.000  0.493
 
band    25 # energy    0.92032066 # occ.  2.00000000
 
ion      s      p      d    tot
    1  0.000  0.008  0.000  0.008
    2  0.000  0.008  0.000  0.008
    3  0.000  0.008  0.000  0.008
    4  0.000  0.008  0.000  0.008
    5  0.000  0.005  0.000  0.005
    6  0.000  0.005  0.000  0.005
    7  0.000  0.005  0.000  0.005
    8  0.000  0.005  0.000  0.005
    9  0.000  0.076  0.000  0.076
   10  0.000  0.076  0.000  0.076
   11  0.000  0.076  0.000  0.076
   12  0.000  0.076  0.000  0.076
   13  0.000  0.040  0.000  0.040
   14  0.000  0.040  0.000  0.040
   15  0.000  0.040  0.000  0.040
   16  0.000  0.040  0.000  0.040
tot    0.002  0.517  0.000  0.519
 
band    26 # energy    0.96936828 # occ.  2.00000000
 
ion      s      p      d    tot
    1  0.003  0.004  0.000  0.007
    2  0.003  0.004  0.000  0.007
    3  0.003  0.004  0.000  0.007
    4  0.003  0.004  0.000  0.007
    5  0.000  0.008  0.000  0.009
    6  0.000  0.008  0.000  0.009
    7  0.000  0.008  0.000  0.009
    8  0.000  0.008  0.000  0.009
    9  0.000  0.065  0.000  0.065
   10  0.000  0.065  0.000  0.065
   11  0.000  0.065  0.000  0.065
   12  0.000  0.065  0.000  0.065
   13  0.000  0.051  0.000  0.051
   14  0.000  0.051  0.000  0.051
   15  0.000  0.051  0.000  0.051
   16  0.000  0.051  0.000  0.051
tot    0.017  0.511  0.000  0.527
 
band    27 # energy    1.46639515 # occ.  2.00000000
 
ion      s      p      d    tot
    1  0.001  0.006  0.000  0.007
    2  0.001  0.006  0.000  0.007
    3  0.001  0.006  0.000  0.007
    4  0.001  0.006  0.000  0.007
    5  0.002  0.001  0.000  0.003
    6  0.002  0.001  0.000  0.003
    7  0.002  0.001  0.000  0.003
    8  0.002  0.001  0.000  0.003
    9  0.001  0.074  0.000  0.075
   10  0.001  0.074  0.000  0.075
   11  0.001  0.074  0.000  0.075
   12  0.001  0.074  0.000  0.075
   13  0.000  0.051  0.000  0.051
   14  0.000  0.051  0.000  0.051
   15  0.000  0.051  0.000  0.051
   16  0.000  0.051  0.000  0.051
tot    0.012  0.531  0.000  0.543
 
band    28 # energy    1.55384124 # occ.  2.00000000
 
ion      s      p      d    tot
    1  0.002  0.007  0.000  0.008
    2  0.002  0.007  0.000  0.008
    3  0.002  0.007  0.000  0.008
    4  0.002  0.007  0.000  0.008
    5  0.001  0.001  0.000  0.002
    6  0.001  0.001  0.000  0.002
    7  0.001  0.001  0.000  0.002
    8  0.001  0.001  0.000  0.002
    9  0.000  0.074  0.000  0.074
   10  0.000  0.074  0.000  0.074
   11  0.000  0.074  0.000  0.074
   12  0.000  0.074  0.000  0.074
   13  0.000  0.050  0.000  0.051
   14  0.000  0.050  0.000  0.051
   15  0.000  0.050  0.000  0.051
   16  0.000  0.050  0.000  0.051
tot    0.011  0.530  0.000  0.540
 
band    29 # energy    1.56990761 # occ.  2.00000000
 
ion      s      p      d    tot
    1  0.000  0.005  0.000  0.006
    2  0.000  0.005  0.000  0.006
    3  0.000  0.005  0.000  0.006
    4  0.000  0.005  0.000  0.006
    5  0.000  0.002  0.000  0.002
    6  0.000  0.002  0.000  0.002
    7  0.000  0.002  0.000  0.002
    8  0.000  0.002  0.000  0.002
    9  0.000  0.013  0.000  0.013
   10  0.000  0.013  0.000  0.013
   11  0.000  0.013  0.000  0.013
   12  0.000  0.013  0.000  0.013
   13  0.000  0.113  0.000  0.113
   14  0.000  0.113  0.000  0.113
   15  0.000  0.113  0.000  0.113
   16  0.000  0.113  0.000  0.113
tot    0.002  0.532  0.000  0.534
 
band    30 # energy    1.71148182 # occ.  2.00000000
 
ion      s      p      d    tot
    1  0.000  0.003  0.000  0.003
    2  0.000  0.003  0.000  0.003
    3  0.000  0.003  0.000  0.003
    4  0.000  0.003  0.000  0.003
    5  0.000  0.001  0.000  0.001
    6  0.000  0.001  0.000  0.001
    7  0.000  0.001  0.000  0.001
    8  0.000  0.001  0.000  0.001
    9  0.000  0.072  0.000  0.072
   10  0.000  0.072  0.000  0.072
   11  0.000  0.072  0.000  0.072
   12  0.000  0.072  0.000  0.072
   13  0.000  0.063  0.000  0.063
   14  0.000  0.063  0.000  0.063
   15  0.000  0.063  0.000  0.063
   16  0.000  0.063  0.000  0.063
tot    0.000  0.558  0.000  0.559
 
band    31 # energy    1.79247971 # occ.  2.00000000
 
ion      s      p      d    tot
    1  0.000  0.002  0.000  0.002
    2  0.000  0.002  0.000  0.002
    3  0.000  0.002  0.000  0.002
    4  0.000  0.002  0.000  0.002
    5  0.000  0.002  0.000  0.002
    6  0.000  0.002  0.000  0.002
    7  0.000  0.002  0.000  0.002
    8  0.000  0.002  0.000  0.002
    9  0.000  0.076  0.000  0.076
   10  0.000  0.076  0.000  0.076
   11  0.000  0.076  0.000  0.076
   12  0.000  0.076  0.000  0.076
   13  0.000  0.060  0.000  0.060
   14  0.000  0.060  0.000  0.060
   15  0.000  0.060  0.000  0.060
   16  0.000  0.060  0.000  0.060
tot    0.001  0.561  0.000  0.561
 
band    32 # energy    1.85075220 # occ.  2.00000000
 
ion      s      p      d    tot
    1  0.000  0.002  0.000  0.002
    2  0.000  0.002  0.000  0.002
    3  0.000  0.002  0.000  0.002
    4  0.000  0.002  0.000  0.002
    5  0.000  0.001  0.000  0.001
    6  0.000  0.001  0.000  0.001
    7  0.000  0.001  0.000  0.001
    8  0.000  0.001  0.000  0.001
    9  0.000  0.059  0.000  0.060
   10  0.000  0.059  0.000  0.060
   11  0.000  0.059  0.000  0.060
   12  0.000  0.059  0.000  0.060
   13  0.000  0.077  0.000  0.077
   14  0.000  0.077  0.000  0.077
   15  0.000  0.077  0.000  0.077
   16  0.000  0.077  0.000  0.077
tot    0.000  0.560  0.000  0.560
 
band    33 # energy    5.97302148 # occ.  0.00000000
 
ion      s      p      d    tot
    1  0.008  0.000  0.000  0.009
    2  0.008  0.000  0.000  0.009
    3  0.008  0.000  0.000  0.009
    4  0.008  0.000  0.000  0.009
    5  0.029  0.000  0.000  0.029
    6  0.029  0.000  0.000  0.029
    7  0.029  0.000  0.000  0.029
    8  0.029  0.000  0.000  0.029
    9  0.029  0.009  0.000  0.038
   10  0.029  0.009  0.000  0.038
   11  0.029  0.009  0.000  0.038
   12  0.029  0.009  0.000  0.038
   13  0.027  0.008  0.000  0.035
   14  0.027  0.008  0.000  0.035
   15  0.027  0.008  0.000  0.035
   16  0.027  0.008  0.000  0.035
tot    0.373  0.070  0.000  0.443
 
band    34 # energy    6.54949792 # occ.  0.00000000
 
ion      s      p      d    tot
    1  0.004  0.003  0.000  0.007
    2  0.004  0.003  0.000  0.007
    3  0.004  0.003  0.000  0.007
    4  0.004  0.003  0.000  0.007
    5  0.010  0.016  0.000  0.026
    6  0.010  0.016  0.000  0.026
    7  0.010  0.016  0.000  0.026
    8  0.010  0.016  0.000  0.026
    9  0.001  0.008  0.000  0.009
   10  0.001  0.008  0.000  0.009
   11  0.001  0.008  0.000  0.009
   12  0.001  0.008  0.000  0.009
   13  0.002  0.008  0.000  0.011
   14  0.002  0.008  0.000  0.011
   15  0.002  0.008  0.000  0.011
   16  0.002  0.008  0.000  0.011
tot    0.070  0.139  0.000  0.209
 
band    35 # energy    6.64997171 # occ.  0.00000000
 
ion      s      p      d    tot
    1  0.006  0.002  0.000  0.008
    2  0.006  0.002  0.000  0.008
    3  0.006  0.002  0.000  0.008
    4  0.006  0.002  0.000  0.008
    5  0.038  0.003  0.000  0.042
    6  0.038  0.003  0.000  0.042
    7  0.038  0.003  0.000  0.042
    8  0.038  0.003  0.000  0.042
    9  0.015  0.012  0.000  0.027
   10  0.015  0.012  0.000  0.027
   11  0.015  0.012  0.000  0.027
   12  0.015  0.012  0.000  0.027
   13  0.005  0.016  0.000  0.021
   14  0.005  0.016  0.000  0.021
   15  0.005  0.016  0.000  0.021
   16  0.005  0.016  0.000  0.021
tot    0.259  0.134  0.000  0.393
 
band    36 # energy    6.96171451 # occ.  0.00000000
 
ion      s      p      d    tot
    1  0.000  0.007  0.000  0.007
    2  0.000  0.007  0.000  0.007
    3  0.000  0.007  0.000  0.007
    4  0.000  0.007  0.000  0.007
    5  0.000  0.015  0.000  0.015
    6  0.000  0.015  0.000  0.015
    7  0.000  0.015  0.000  0.015
    8  0.000  0.015  0.000  0.015
    9  0.000  0.010  0.000  0.010
   10  0.000  0.010  0.000  0.010
   11  0.000  0.010  0.000  0.010
   12  0.000  0.010  0.000  0.010
   13  0.000  0.001  0.000  0.001
   14  0.000  0.001  0.000  0.001
   15  0.000  0.001  0.000  0.001
   16  0.000  0.001  0.000  0.001
tot    0.002  0.134  0.000  0.136
 
band    37 # energy    6.99003535 # occ.  0.00000000
 
ion      s      p      d    tot
    1  0.000  0.006  0.000  0.007
    2  0.000  0.006  0.000  0.007
    3  0.000  0.006  0.000  0.007
    4  0.000  0.006  0.000  0.007
    5  0.000  0.011  0.000  0.011
    6  0.000  0.011  0.000  0.011
    7  0.000  0.011  0.000  0.011
    8  0.000  0.011  0.000  0.011
    9  0.003  0.013  0.000  0.016
   10  0.003  0.013  0.000  0.016
   11  0.003  0.013  0.000  0.016
   12  0.003  0.013  0.000  0.016
   13  0.001  0.009  0.000  0.011
   14  0.001  0.009  0.000  0.011
   15  0.001  0.009  0.000  0.011
   16  0.001  0.009  0.000  0.011
tot    0.018  0.158  0.000  0.176
 
band    38 # energy    7.03266136 # occ.  0.00000000
 
ion      s      p      d    tot
    1  0.003  0.007  0.000  0.010
    2  0.003  0.007  0.000  0.010
    3  0.003  0.007  0.000  0.010
    4  0.003  0.007  0.000  0.010
    5  0.008  0.013  0.000  0.021
    6  0.008  0.013  0.000  0.021
    7  0.008  0.013  0.000  0.021
    8  0.008  0.013  0.000  0.021
    9  0.001  0.007  0.000  0.008
   10  0.001  0.007  0.000  0.008
   11  0.001  0.007  0.000  0.008
   12  0.001  0.007  0.000  0.008
   13  0.000  0.004  0.000  0.004
   14  0.000  0.004  0.000  0.004
   15  0.000  0.004  0.000  0.004
   16  0.000  0.004  0.000  0.004
tot    0.045  0.126  0.000  0.171
 
band    39 # energy    7.23885040 # occ.  0.00000000
 
ion      s      p      d    tot
    1  0.002  0.001  0.000  0.003
    2  0.002  0.001  0.000  0.003
    3  0.002  0.001  0.000  0.003
    4  0.002  0.001  0.000  0.003
    5  0.042  0.005  0.000  0.047
    6  0.042  0.005  0.000  0.047
    7  0.042  0.005  0.000  0.047
    8  0.042  0.005  0.000  0.047
    9  0.003  0.022  0.000  0.025
   10  0.003  0.022  0.000  0.025
   11  0.003  0.022  0.000  0.025
   12  0.003  0.022  0.000  0.025
   13  0.013  0.017  0.000  0.030
   14  0.013  0.017  0.000  0.030
   15  0.013  0.017  0.000  0.030
   16  0.013  0.017  0.000  0.030
tot    0.241  0.181  0.000  0.421
 
band    40 # energy    8.10463775 # occ.  0.00000000
 
ion      s      p      d    tot
    1  0.000  0.003  0.000  0.003
    2  0.000  0.003  0.000  0.003
    3  0.000  0.003  0.000  0.003
    4  0.000  0.003  0.000  0.003
    5  0.000  0.040  0.000  0.040
    6  0.000  0.040  0.000  0.040
    7  0.000  0.040  0.000  0.040
    8  0.000  0.040  0.000  0.040
    9  0.004  0.008  0.000  0.013
   10  0.004  0.008  0.000  0.013
   11  0.004  0.008  0.000  0.013
   12  0.004  0.008  0.000  0.013
   13  0.005  0.004  0.000  0.008
   14  0.005  0.004  0.000  0.008
   15  0.005  0.004  0.000  0.008
   16  0.005  0.004  0.000  0.008
tot    0.036  0.219  0.000  0.255
 
band    41 # energy    8.63418753 # occ.  0.00000000
 
ion      s      p      d    tot
    1  0.000  0.002  0.000  0.003
    2  0.000  0.002  0.000  0.003
    3  0.000  0.002  0.000  0.003
    4  0.000  0.002  0.000  0.003
    5  0.000  0.025  0.000  0.025
    6  0.000  0.025  0.000  0.025
    7  0.000  0.025  0.000  0.025
    8  0.000  0.025  0.000  0.025
    9  0.004  0.012  0.000  0.016
   10  0.004  0.012  0.000  0.016
   11  0.004  0.012  0.000  0.016
   12  0.004  0.012  0.000  0.016
   13  0.006  0.014  0.000  0.020
   14  0.006  0.014  0.000  0.020
   15  0.006  0.014  0.000  0.020
   16  0.006  0.014  0.000  0.020
tot    0.040  0.212  0.000  0.252
 
band    42 # energy    8.69928713 # occ.  0.00000000
 
ion      s      p      d    tot
    1  0.001  0.017  0.000  0.018
    2  0.001  0.017  0.000  0.018
    3  0.001  0.017  0.000  0.018
    4  0.001  0.017  0.000  0.018
    5  0.002  0.033  0.000  0.034
    6  0.002  0.033  0.000  0.035
    7  0.002  0.033  0.000  0.034
    8  0.002  0.033  0.000  0.035
    9  0.001  0.003  0.000  0.004
   10  0.001  0.003  0.000  0.004
   11  0.001  0.003  0.000  0.004
   12  0.001  0.003  0.000  0.004
   13  0.002  0.002  0.000  0.004
   14  0.002  0.002  0.000  0.004
   15  0.002  0.002  0.000  0.004
   16  0.002  0.002  0.000  0.004
tot    0.024  0.217  0.000  0.241
 

 k-point     2 :    0.33333333 0.00000000 0.00000000     weight = 0.07407407

band     1 # energy  -10.05603960 # occ.  2.00000000
 
ion      s      p      d    tot
    1  0.001  0.000  0.000  0.001
    2  0.001  0.000  0.000  0.001
    3  0.001  0.000  0.000  0.001
    4  0.001  0.000  0.000  0.001
    5  0.012  0.000  0.000  0.012
    6  0.012  0.000  0.000  0.012
    7  0.012  0.000  0.000  0.012
    8  0.012  0.000  0.000  0.012
    9  0.072  0.001  0.000  0.073
   10  0.072  0.001  0.000  0.073
   11  0.072  0.001  0.000  0.073
   12  0.072  0.001  0.000  0.073
   13  0.066  0.001  0.000  0.066
   14  0.066  0.001  0.000  0.066
   15  0.066  0.001  0.000  0.066
   16  0.066  0.001  0.000  0.066
tot    0.604  0.007  0.000  0.611
 
band     2 # energy   -9.66152208 # occ.  2.00000000
 
ion      s      p      d    tot
    1  0.000  0.001  0.000  0.001
    2  0.000  0.001  0.000  0.001
    3  0.000  0.001  0.000  0.001
    4  0.000  0.001  0.000  0.001
    5  0.010  0.001  0.000  0.011
    6  0.010  0.001  0.000  0.011
    7  0.010  0.001  0.000  0.011
    8  0.010  0.001  0.000  0.011
    9  0.109  0.001  0.000  0.110
   10  0.109  0.001  0.000  0.110
   11  0.109  0.001  0.000  0.110
   12  0.109  0.001  0.000  0.110
   13  0.036  0.001  0.000  0.037
   14  0.036  0.001  0.000  0.037
   15  0.036  0.001  0.000  0.037
   16  0.036  0.001  0.000  0.037
tot    0.622  0.012  0.000  0.634
 
band     3 # energy   -9.37936739 # occ.  2.00000000
 
ion      s      p      d    tot
    1  0.000  0.001  0.000  0.001
    2  0.000  0.001  0.000  0.001
    3  0.000  0.001  0.000  0.001
    4  0.000  0.001  0.000  0.001
    5  0.007  0.002  0.000  0.009
    6  0.007  0.002  0.000  0.009
    7  0.007  0.002  0.000  0.009
    8  0.007  0.002  0.000  0.009
    9  0.001  0.000  0.000  0.001