<?xml version="1.0" encoding="ISO-8859-1"?>
<modeling>
 <generator>
  <i name="program" type="string">vasp </i>
  <i name="version" type="string">5.4.4.18Apr17-6-g9f103f2a35  </i>
  <i name="subversion" type="string">(build Oct 27 2022 13:04:57) complex            parallel </i>
  <i name="platform" type="string">LinuxIFC </i>
  <i name="date" type="string">2024 07 03 </i>
  <i name="time" type="string">22:42:40 </i>
 </generator>
 <incar>
  <i type="string" name="SYSTEM"> CIS</i>
  <i type="int" name="ISTART">     0</i>
  <i type="string" name="PREC">medium</i>
  <i type="int" name="ICHARG">     2</i>
  <i type="int" name="IBRION">     2</i>
  <i name="EDIFF">      0.00010000</i>
  <i name="EDIFFG">     -0.05000000</i>
  <i type="int" name="NSW">    99</i>
  <i type="int" name="ISIF">     3</i>
  <i name="ENCUT">    300.00000000</i>
  <i name="POTIM">      0.10000000</i>
  <i type="string" name="LREAL"> Auto</i>
  <i type="int" name="ISMEAR">     0</i>
  <i name="SIGMA">      0.05000000</i>
  <i type="int" name="LMAXMIX">     4</i>
  <i type="logical" name="LWAVE"> F  </i>
  <i type="logical" name="LCHARG"> F  </i>
  <i type="int" name="LORBIT">    10</i>
  <i type="logical" name="LASPH"> T  </i>
  <v type="int" name="KPOINT_BSE">    -1     0     0     0</v>
  <i type="logical" name="LASPH"> T  </i>
 </incar>
 <structure name="primitive_cell" >
  <crystal>
   <varray name="basis" >
    <v>       6.58957376       0.00000000       0.00000000 </v>
    <v>       0.00000000       6.86953237       0.00000000 </v>
    <v>       0.00000000       0.00000000       8.26428029 </v>
   </varray>
   <i name="volume">    374.10157459 </i>
   <varray name="rec_basis" >
    <v>       0.15175488       0.00000000       0.00000000 </v>
    <v>       0.00000000       0.14557032       0.00000000 </v>
    <v>       0.00000000       0.00000000       0.12100267 </v>
   </varray>
  </crystal>
  <varray name="positions" >
   <v>       0.11960890      -0.08639062      -0.37841416 </v>
   <v>      -0.01017465      -0.43328081      -0.38119243 </v>
   <v>      -0.01017465       0.06671919      -0.11880757 </v>
   <v>      -0.49416615      -0.09339201      -0.36556029 </v>
   <v>       0.00583385       0.09339201       0.36556029 </v>
   <v>       0.12273089       0.42665474       0.37419623 </v>
   <v>      -0.37726911      -0.42665474      -0.37419623 </v>
   <v>      -0.37726911       0.07334526      -0.12580377 </v>
   <v>       0.11960890       0.41360938      -0.12158584 </v>
   <v>      -0.38039110       0.08639062       0.37841416 </v>
   <v>       0.12273089      -0.07334526       0.12580377 </v>
   <v>       0.48982635       0.43328081       0.38119243 </v>
   <v>       0.00583385      -0.40660799       0.13443971 </v>
   <v>      -0.49416615       0.40660799      -0.13443971 </v>
   <v>       0.48982635      -0.06671919       0.11880757 </v>
   <v>      -0.38039110      -0.41360938       0.12158584 </v>
  </varray>
 </structure>
 <varray name="primitive_index" >
  <v type="int" >        1 </v>
  <v type="int" >       16 </v>
  <v type="int" >       13 </v>
  <v type="int" >        9 </v>
  <v type="int" >       10 </v>
  <v type="int" >        6 </v>
  <v type="int" >        5 </v>
  <v type="int" >        8 </v>
  <v type="int" >        4 </v>
  <v type="int" >        2 </v>
  <v type="int" >        7 </v>
  <v type="int" >       15 </v>
  <v type="int" >       11 </v>
  <v type="int" >       12 </v>
  <v type="int" >       14 </v>
  <v type="int" >        3 </v>
 </varray>
 <kpoints>
  <generation param="Monkhorst-Pack">
   <v type="int" name="divisions">       3        3        3 </v>
   <v name="usershift">      0.00000000       0.00000000       0.00000000 </v>
   <v name="genvec1">      0.33333333       0.00000000       0.00000000 </v>
   <v name="genvec2">      0.00000000       0.33333333       0.00000000 </v>
   <v name="genvec3">      0.00000000       0.00000000       0.33333333 </v>
   <v name="shift">      0.00000000       0.00000000       0.00000000 </v>
  </generation>
  <varray name="kpointlist" >
   <v>       0.00000000       0.00000000       0.00000000 </v>
   <v>       0.33333333       0.00000000       0.00000000 </v>
   <v>       0.00000000       0.33333333       0.00000000 </v>
   <v>       0.33333333       0.33333333       0.00000000 </v>
   <v>       0.00000000       0.00000000       0.33333333 </v>
   <v>       0.33333333       0.00000000       0.33333333 </v>
   <v>       0.00000000       0.33333333       0.33333333 </v>
   <v>       0.33333333       0.33333333       0.33333333 </v>
  </varray>
  <varray name="weights" >
   <v>       0.03703704 </v>
   <v>       0.07407407 </v>
   <v>       0.07407407 </v>
   <v>       0.14814815 </v>
   <v>       0.07407407 </v>
   <v>       0.14814815 </v>
   <v>       0.14814815 </v>
   <v>       0.29629630 </v>
  </varray>
 </kpoints>
 <parameters>
  <separator name="general" >
   <i type="string" name="SYSTEM">CIS</i>
   <i type="logical" name="LCOMPAT"> F  </i>
  </separator>
  <separator name="electronic" >
   <i type="string" name="PREC">medium</i>
   <i name="ENMAX">    300.00000000</i>
   <i name="ENAUG">    335.09200000</i>
   <i name="EDIFF">      0.00010000</i>
   <i type="int" name="IALGO">    38</i>
   <i type="int" name="IWAVPR">    11</i>
   <i type="int" name="NBANDS">    42</i>
   <i name="NELECT">     64.00000000</i>
   <i type="int" name="TURBO">     0</i>
   <i type="int" name="IRESTART">     0</i>
   <i type="int" name="NREBOOT">     0</i>
   <i type="int" name="NMIN">     0</i>
   <i name="EREF">      0.00000000</i>
   <separator name="electronic smearing" >
    <i type="int" name="ISMEAR">     0</i>
    <i name="SIGMA">      0.05000000</i>
    <i name="KSPACING">      0.50000000</i>
    <i type="logical" name="KGAMMA"> T  </i>
   </separator>
   <separator name="electronic projectors" >
    <i type="logical" name="LREAL"> T  </i>
    <v name="ROPT">     -0.00200000     -0.00200000     -0.00200000</v>
    <i type="int" name="LMAXPAW">  -100</i>
    <i type="int" name="LMAXMIX">     4</i>
    <i type="logical" name="NLSPLINE"> F  </i>
   </separator>
   <separator name="electronic startup" >
    <i type="int" name="ISTART">     0</i>
    <i type="int" name="ICHARG">     2</i>
    <i type="int" name="INIWAV">     1</i>
   </separator>
   <separator name="electronic spin" >
    <i type="int" name="ISPIN">     1</i>
    <i type="logical" name="LNONCOLLINEAR"> F  </i>
    <v name="MAGMOM">      1.00000000      1.00000000      1.00000000      1.00000000      1.00000000      1.00000000      1.00000000      1.00000000      1.00000000      1.00000000      1.00000000      1.00000000      1.00000000      1.00000000      1.00000000      1.00000000</v>
    <i name="NUPDOWN">     -1.00000000</i>
    <i type="logical" name="LSORBIT"> F  </i>
    <v name="SAXIS">      0.00000000      0.00000000      1.00000000</v>
    <i type="logical" name="LSPIRAL"> F  </i>
    <v name="QSPIRAL">      0.00000000      0.00000000      0.00000000</v>
    <i type="logical" name="LZEROZ"> F  </i>
   </separator>
   <separator name="electronic exchange-correlation" >
    <i type="logical" name="LASPH"> T  </i>
    <i type="logical" name="LMETAGGA"> F  </i>
   </separator>
   <separator name="electronic convergence" >
    <i type="int" name="NELM">    60</i>
    <i type="int" name="NELMDL">    -5</i>
    <i type="int" name="NELMIN">     2</i>
    <i name="ENINI">    300.00000000</i>
    <separator name="electronic convergence detail" >
     <i type="logical" name="LDIAG"> T  </i>
     <i type="logical" name="LSUBROT"> F  </i>
     <i name="WEIMIN">      0.00100000</i>
     <i name="EBREAK">      0.00000060</i>
     <i name="DEPER">      0.30000000</i>
     <i type="int" name="NRMM">     4</i>
     <i name="TIME">      0.40000000</i>
    </separator>
   </separator>
   <separator name="electronic mixer" >
    <i name="AMIX">      0.40000000</i>
    <i name="BMIX">      1.00000000</i>
    <i name="AMIN">      0.10000000</i>
    <i name="AMIX_MAG">      1.60000000</i>
    <i name="BMIX_MAG">      1.00000000</i>
    <separator name="electronic mixer details" >
     <i type="int" name="IMIX">     4</i>
     <i type="logical" name="MIXFIRST"> F  </i>
     <i type="int" name="MAXMIX">   -45</i>
     <i name="WC">    100.00000000</i>
     <i type="int" name="INIMIX">     1</i>
     <i type="int" name="MIXPRE">     1</i>
     <i type="int" name="MREMOVE">     5</i>
    </separator>
   </separator>
   <separator name="electronic dipolcorrection" >
    <i type="logical" name="LDIPOL"> F  </i>
    <i type="logical" name="LMONO"> F  </i>
    <i type="int" name="IDIPOL">     0</i>
    <i name="EPSILON">      1.00000000</i>
    <v name="DIPOL">   -100.00000000   -100.00000000   -100.00000000</v>
    <i name="EFIELD">      0.00000000</i>
   </separator>
  </separator>
  <separator name="grids" >
   <i type="int" name="NGX">    28</i>
   <i type="int" name="NGY">    30</i>
   <i type="int" name="NGZ">    36</i>
   <i type="int" name="NGXF">    40</i>
   <i type="int" name="NGYF">    42</i>
   <i type="int" name="NGZF">    50</i>
   <i type="logical" name="ADDGRID"> F  </i>
  </separator>
  <separator name="ionic" >
   <i type="int" name="NSW">    99</i>
   <i type="int" name="IBRION">     2</i>
   <i type="int" name="MDALGO">     0</i>
   <i type="int" name="ISIF">     3</i>
   <i name="PSTRESS">      0.00000000</i>
   <i name="EDIFFG">     -0.05000000</i>
   <i type="int" name="NFREE">     1</i>
   <i name="POTIM">      0.10000000</i>
   <i name="SMASS">     -3.00000000</i>
   <i name="SCALEE">      1.00000000</i>
  </separator>
  <separator name="ionic md" >
   <i name="TEBEG">      0.00010000</i>
   <i name="TEEND">      0.00010000</i>
   <i type="int" name="NBLOCK">     1</i>
   <i type="int" name="KBLOCK">    99</i>
   <i type="int" name="NPACO">   256</i>
   <i name="APACO">     16.00000000</i>
  </separator>
  <separator name="symmetry" >
   <i type="int" name="ISYM">     2</i>
   <i name="SYMPREC">      0.00001000</i>
  </separator>
  <separator name="dos" >
   <i type="int" name="LORBIT">    10</i>
   <v name="RWIGS">     -1.00000000     -1.00000000     -1.00000000</v>
   <i type="int" name="NEDOS">   301</i>
   <i name="EMIN">     10.00000000</i>
   <i name="EMAX">    -10.00000000</i>
   <i name="EFERMI">      0.00000000</i>
  </separator>
  <separator name="writing" >
   <i type="int" name="NWRITE">     2</i>
   <i type="logical" name="LWAVE"> F  </i>
   <i type="logical" name="LDOWNSAMPLE"> F  </i>
   <i type="logical" name="LCHARG"> F  </i>
   <i type="logical" name="LPARD"> F  </i>
   <i type="logical" name="LVTOT"> F  </i>
   <i type="logical" name="LVHAR"> F  </i>
   <i type="logical" name="LELF"> F  </i>
   <i type="logical" name="LOPTICS"> F  </i>
   <v name="STM">      0.00000000      0.00000000      0.00000000      0.00000000      0.00000000      0.00000000      0.00000000</v>
  </separator>
  <separator name="performance" >
   <i type="int" name="NPAR">    14</i>
   <i type="int" name="NSIM">     4</i>
   <i type="int" name="NBLK">    -1</i>
   <i type="logical" name="LPLANE"> T  </i>
   <i type="logical" name="LSCALAPACK"> T  </i>
   <i type="logical" name="LSCAAWARE"> F  </i>
   <i type="logical" name="LSCALU"> F  </i>
   <i type="logical" name="LASYNC"> F  </i>
   <i type="logical" name="LORBITALREAL"> F  </i>
  </separator>
  <separator name="miscellaneous" >
   <i type="int" name="IDIOT">     3</i>
   <i type="int" name="ISPECIAL">     0</i>
   <i type="logical" name="LMUSIC"> F  </i>
   <v name="POMASS">      7.01000000     26.98100000     32.06600000</v>
   <v name="DARWINR">      0.00000000      0.00000000      0.00000000</v>
   <v name="DARWINV">      1.00000000      1.00000000      1.00000000</v>
   <i type="logical" name="LCORR"> T  </i>
  </separator>
  <i type="logical" name="GGA_COMPAT"> T  </i>
  <i type="logical" name="LBERRY"> F  </i>
  <i type="int" name="ICORELEVEL">     0</i>
  <i type="logical" name="LDAU"> F  </i>
  <i type="int" name="I_CONSTRAINED_M">     0</i>
  <separator name="electronic exchange-correlation" >
   <i type="string" name="GGA">--</i>
   <i type="int" name="VOSKOWN">     0</i>
   <i type="logical" name="LHFCALC"> F  </i>
   <i type="string" name="PRECFOCK"></i>
   <i type="logical" name="LSYMGRAD"> F  </i>
   <i type="logical" name="LHFONE"> F  </i>
   <i type="logical" name="LRHFCALC"> F  </i>
   <i type="logical" name="LTHOMAS"> F  </i>
   <i type="logical" name="LMODELHF"> F  </i>
   <i name="ENCUT4O">     -1.00000000</i>
   <i type="int" name="EXXOEP">     0</i>
   <i type="int" name="FOURORBIT">     0</i>
   <i name="AEXX">      0.00000000</i>
   <i name="HFALPHA">      0.00000000</i>
   <i name="MCALPHA">      0.00000000</i>
   <i name="ALDAX">      1.00000000</i>
   <i name="AGGAX">      1.00000000</i>
   <i name="ALDAC">      1.00000000</i>
   <i name="AGGAC">      1.00000000</i>
   <i type="int" name="NKREDX">     1</i>
   <i type="int" name="NKREDY">     1</i>
   <i type="int" name="NKREDZ">     1</i>
   <i type="logical" name="SHIFTRED"> F  </i>
   <i type="logical" name="ODDONLY"> F  </i>
   <i type="logical" name="EVENONLY"> F  </i>
   <i type="int" name="LMAXFOCK">     0</i>
   <i type="int" name="NMAXFOCKAE">     0</i>
   <i type="logical" name="LFOCKAEDFT"> F  </i>
   <i name="HFSCREEN">      0.00000000</i>
   <i name="HFSCREENC">      0.00000000</i>
   <i type="int" name="NBANDSGWLOW">     0</i>
  </separator>
  <separator name="vdW DFT" >
   <i type="logical" name="LUSE_VDW"> F  </i>
   <i name="Zab_VDW">     -0.84910000</i>
   <i name="PARAM1">      0.12340000</i>
   <i name="PARAM2">      1.00000000</i>
   <i name="PARAM3">      0.00000000</i>
  </separator>
  <separator name="model GW" >
   <i type="int" name="MODEL_GW">     0</i>
   <i name="MODEL_EPS0">     14.02880905</i>
   <i name="MODEL_ALPHA">      1.00000000</i>
  </separator>
  <separator name="linear response parameters" >
   <i type="logical" name="LEPSILON"> F  </i>
   <i type="logical" name="LRPA"> F  </i>
   <i type="logical" name="LNABLA"> F  </i>
   <i type="logical" name="LVEL"> F  </i>
   <i type="int" name="KINTER">     0</i>
   <i name="CSHIFT">      0.10000000</i>
   <i name="OMEGAMAX">     -1.00000000</i>
   <i name="DEG_THRESHOLD">      0.00200000</i>
   <i name="RTIME">     -0.10000000</i>
   <i name="WPLASMAI">      0.00000000</i>
   <v name="DFIELD">      0.00000000      0.00000000      0.00000000</v>
   <v name="WPLASMA">      0.00000000      0.00000000      0.00000000      0.00000000      0.00000000      0.00000000      0.00000000      0.00000000      0.00000000</v>
  </separator>
  <separator name="orbital magnetization" >
   <i type="logical" name="NUCIND"> F  </i>
   <v name="MAGPOS">      0.00000000      0.00000000      0.00000000</v>
   <i type="logical" name="LNICSALL"> T  </i>
   <i type="logical" name="ORBITALMAG"> F  </i>
   <i type="logical" name="LMAGBLOCH"> F  </i>
   <i type="logical" name="LCHIMAG"> F  </i>
   <i type="logical" name="LGAUGE"> T  </i>
   <i type="int" name="MAGATOM">     0</i>
   <v name="MAGDIPOL">      0.00000000      0.00000000      0.00000000</v>
   <v name="AVECCONST">      0.00000000      0.00000000      0.00000000</v>
  </separator>
  <separator name="response functions" >
   <i type="logical" name="LADDER"> F  </i>
   <i type="logical" name="LRPAFORCE"> F  </i>
   <i type="logical" name="LFXC"> F  </i>
   <i type="logical" name="LHARTREE"> T  </i>
   <i type="int" name="IBSE">     0</i>
   <v type="int" name="KPOINT">    -1     0     0     0</v>
   <i type="logical" name="LTCTE"> F  </i>
   <i type="logical" name="LTETE"> F  </i>
   <i type="logical" name="LTRIPLET"> F  </i>
   <i type="logical" name="LFXCEPS"> F  </i>
   <i type="logical" name="LFXHEG"> F  </i>
   <i type="int" name="NATURALO">     2</i>
   <i type="logical" name="L2ORDER"> F  </i>
   <i type="logical" name="LMP2LT"> F  </i>
   <i type="logical" name="LUSEW"> F  </i>
   <i name="ENCUTGW">     -2.00000000</i>
   <i name="ENCUTGWSOFT">     -2.00000000</i>
   <i name="ENCUTLF">     -1.00000000</i>
   <i type="int" name="LMAXMP2">    -1</i>
   <i name="SCISSOR">      0.00000000</i>
   <i type="int" name="NOMEGA">     0</i>
   <i type="int" name="NOMEGAR">     0</i>
   <i type="int" name="NBANDSGW">    -1</i>
   <i type="int" name="NBANDSO">    -1</i>
   <i type="int" name="NBANDSV">    -1</i>
   <i type="int" name="NELM">     1</i>
   <i type="int" name="NELMHF">     1</i>
   <i type="int" name="DIM">     3</i>
   <i type="int" name="ANTIRES">     0</i>
   <i name="OMEGAMAX">    -30.00000000</i>
   <i name="OMEGAMIN">    -30.00000000</i>
   <i name="OMEGATL">   -200.00000000</i>
   <i type="int" name="OMEGAGRID">   140</i>
   <i name="CSHIFT">     -0.10000000</i>
   <i type="logical" name="SELFENERGY"> F  </i>
   <i type="logical" name="LSPECTRAL"> F  </i>
   <i type="logical" name="LSPECTRALGW"> F  </i>
   <i type="logical" name="LSINGLES"> F  </i>
   <i type="logical" name="LFERMIGW"> F  </i>
   <i type="logical" name="ODDONLYGW"> F  </i>
   <i type="logical" name="EVENONLYGW"> F  </i>
   <i type="int" name="NKREDLFX">     1</i>
   <i type="int" name="NKREDLFY">     1</i>
   <i type="int" name="NKREDLFZ">     1</i>
   <i type="int" name="MAXMEM">  2800</i>
   <i type="int" name="TELESCOPE">     0</i>
   <i type="int" name="TAUPAR">     1</i>
   <i type="int" name="OMEGAPAR">    -1</i>
   <i name="LAMBDA">      1.00000000</i>
  </separator>
  <separator name="External order field" >
   <i name="OFIELD_KAPPA">      0.00000000</i>
   <v name="OFIELD_K">      0.00000000      0.00000000      0.00000000</v>
   <i name="OFIELD_Q6_NEAR">      0.00000000</i>
   <i name="OFIELD_Q6_FAR">      0.00000000</i>
   <i name="OFIELD_A">      0.00000000</i>
  </separator>
 </parameters>
 <atominfo>
  <atoms>      16 </atoms>
  <types>       3 </types>
  <array name="atoms" >
   <dimension dim="1">ion</dimension>
   <field type="string">element</field>
   <field type="int">atomtype</field>
   <set>
    <rc><c>Li</c><c>   1</c></rc>
    <rc><c>Li</c><c>   1</c></rc>
    <rc><c>Li</c><c>   1</c></rc>
    <rc><c>Li</c><c>   1</c></rc>
    <rc><c>Al</c><c>   2</c></rc>
    <rc><c>Al</c><c>   2</c></rc>
    <rc><c>Al</c><c>   2</c></rc>
    <rc><c>Al</c><c>   2</c></rc>
    <rc><c>S </c><c>   3</c></rc>
    <rc><c>S </c><c>   3</c></rc>
    <rc><c>S </c><c>   3</c></rc>
    <rc><c>S </c><c>   3</c></rc>
    <rc><c>S </c><c>   3</c></rc>
    <rc><c>S </c><c>   3</c></rc>
    <rc><c>S </c><c>   3</c></rc>
    <rc><c>S </c><c>   3</c></rc>
   </set>
  </array>
  <array name="atomtypes" >
   <dimension dim="1">type</dimension>
   <field type="int">atomspertype</field>
   <field type="string">element</field>
   <field>mass</field>
   <field>valence</field>
   <field type="string">pseudopotential</field>
   <set>
    <rc><c>   4</c><c>Li</c><c>      7.01000000</c><c>      1.00000000</c><c>  PAW_PBE Li 17Jan2003                  </c></rc>
    <rc><c>   4</c><c>Al</c><c>     26.98100000</c><c>      3.00000000</c><c>  PAW_PBE Al 04Jan2001                  </c></rc>
    <rc><c>   8</c><c>S </c><c>     32.06600000</c><c>      6.00000000</c><c>  PAW_PBE S 06Sep2000                   </c></rc>
   </set>
  </array>
 </atominfo>
 <structure name="initialpos" >
  <crystal>
   <varray name="basis" >
    <v>       6.58957376       0.00000000       0.00000000 </v>
    <v>       0.00000000       6.86953237       0.00000000 </v>
    <v>       0.00000000       0.00000000       8.26428029 </v>
   </varray>
   <i name="volume">    374.10157459 </i>
   <varray name="rec_basis" >
    <v>       0.15175488       0.00000000       0.00000000 </v>
    <v>       0.00000000       0.14557032       0.00000000 </v>
    <v>       0.00000000       0.00000000       0.12100267 </v>
   </varray>
  </crystal>
  <varray name="positions" >
   <v>       0.11960890       0.91360938       0.62158584 </v>
   <v>       0.61960890       0.08639062       0.37841416 </v>
   <v>       0.61960890       0.58639062       0.12158584 </v>
   <v>       0.11960890       0.41360938       0.87841416 </v>
   <v>       0.62273089       0.57334526       0.62580377 </v>
   <v>       0.12273089       0.42665474       0.37419623 </v>
   <v>       0.12273089       0.92665474       0.12580377 </v>
   <v>       0.62273089       0.07334526       0.87419623 </v>
   <v>       0.50583385       0.90660799       0.63443971 </v>
   <v>       0.00583385       0.09339201       0.36556029 </v>
   <v>       0.00583385       0.59339201       0.13443971 </v>
   <v>       0.50583385       0.40660799       0.86556029 </v>
   <v>       0.98982535       0.06671919       0.88119243 </v>
   <v>       0.48982635       0.93328081       0.11880757 </v>
   <v>       0.48982635       0.43328081       0.38119243 </v>
   <v>       0.98982535       0.56671919       0.61880757 </v>
  </varray>
 </structure>
 <calculation>
  <scstep>
   <time name="dav">    0.25    0.25</time>
   <time name="total">    0.35    0.35</time>
   <energy>
    <i name="alphaZ">     35.45757802 </i>
    <i name="ewald">  -2038.53216018 </i>
    <i name="hartreedc">   -429.53888833 </i>
    <i name="XCdc">    -27.59543873 </i>
    <i name="pawpsdc">   2035.32414679 </i>
    <i name="pawaedc">  -1859.74981981 </i>
    <i name="eentropy">     -0.01043094 </i>
    <i name="bandstr">     47.27527138 </i>
    <i name="atom">   2449.87356359 </i>
    <i name="e_fr_energy">    212.50382178 </i>
    <i name="e_wo_entrp">    212.51425273 </i>
    <i name="e_0_energy">    212.50903726 </i>
   </energy>
  </scstep>
  <scstep>
   <time name="dav">    0.30    0.31</time>
   <time name="total">    0.30    0.31</time>
   <energy>
    <i name="e_fr_energy">    -56.83499006 </i>
    <i name="e_wo_entrp">    -56.83499006 </i>
    <i name="e_0_energy">    -56.83499006 </i>
   </energy>
  </scstep>
  <scstep>
   <time name="dav">    0.29    0.29</time>
   <time name="total">    0.29    0.29</time>
   <energy>
    <i name="e_fr_energy">    -77.29737026 </i>
    <i name="e_wo_entrp">    -77.29737026 </i>
    <i name="e_0_energy">    -77.29737026 </i>
   </energy>
  </scstep>
  <scstep>
   <time name="dav">    0.24    0.24</time>
   <time name="total">    0.24    0.24</time>
   <energy>
    <i name="e_fr_energy">    -77.59443525 </i>
    <i name="e_wo_entrp">    -77.59443525 </i>
    <i name="e_0_energy">    -77.59443525 </i>
   </energy>
  </scstep>
  <scstep>
   <time name="dav">    0.23    0.24</time>
   <time name="total">    0.24    0.25</time>
   <energy>
    <i name="e_fr_energy">    -77.60157984 </i>
    <i name="e_wo_entrp">    -77.60157984 </i>
    <i name="e_0_energy">    -77.60157984 </i>
   </energy>
  </scstep>
  <scstep>
   <time name="dav">    0.29    0.29</time>
   <time name="total">    0.39    0.39</time>
   <energy>
    <i name="e_fr_energy">    -74.70949460 </i>
    <i name="e_wo_entrp">    -74.70949460 </i>
    <i name="e_0_energy">    -74.70949460 </i>
   </energy>
  </scstep>
  <scstep>
   <time name="dav">    0.27    0.28</time>
   <time name="total">    0.38    0.38</time>
   <energy>
    <i name="e_fr_energy">    -74.58546087 </i>
    <i name="e_wo_entrp">    -74.58546087 </i>
    <i name="e_0_energy">    -74.58546087 </i>
   </energy>
  </scstep>
  <scstep>
   <time name="dav">    0.28    0.28</time>
   <time name="total">    0.39    0.39</time>
   <energy>
    <i name="e_fr_energy">    -74.62573700 </i>
    <i name="e_wo_entrp">    -74.62573700 </i>
    <i name="e_0_energy">    -74.62573700 </i>
   </energy>
  </scstep>
  <scstep>
   <time name="dav">    0.29    0.29</time>
   <time name="total">    0.40    0.40</time>
   <energy>
    <i name="e_fr_energy">    -74.62951327 </i>
    <i name="e_wo_entrp">    -74.62951327 </i>
    <i name="e_0_energy">    -74.62951327 </i>
   </energy>
  </scstep>
  <scstep>
   <time name="dav">    0.23    0.23</time>
   <time name="total">    0.33    0.33</time>
   <energy>
    <i name="e_fr_energy">    -74.63346807 </i>
    <i name="e_wo_entrp">    -74.63346807 </i>
    <i name="e_0_energy">    -74.63346807 </i>
   </energy>
  </scstep>
  <scstep>
   <time name="dav">    0.30    0.30</time>
   <time name="total">    0.40    0.40</time>
   <energy>
    <i name="e_fr_energy">    -74.63472134 </i>
    <i name="e_wo_entrp">    -74.63472134 </i>
    <i name="e_0_energy">    -74.63472134 </i>
   </energy>
  </scstep>
  <scstep>
   <time name="dav">    0.15    0.15</time>
   <time name="total">    0.25    0.25</time>
   <energy>
    <i name="alphaZ">     35.45757802 </i>
    <i name="ewald">  -2038.53216018 </i>
    <i name="hartreedc">   -480.44099363 </i>
    <i name="XCdc">    -22.11971878 </i>
    <i name="pawpsdc">   4905.86026540 </i>
    <i name="pawaedc">  -4731.72780329 </i>
    <i name="eentropy">     -0.00000000 </i>
    <i name="bandstr">   -193.00548942 </i>
    <i name="atom">   2449.87356359 </i>
    <i name="e_fr_energy">    -74.63475829 </i>
    <i name="e_wo_entrp">    -74.63475829 </i>
    <i name="e_0_energy">    -74.63475829 </i>
   </energy>
  </scstep>
  <structure>
   <crystal>
    <varray name="basis" >
     <v>       6.58957376       0.00000000       0.00000000 </v>
     <v>       0.00000000       6.86953237       0.00000000 </v>
     <v>       0.00000000       0.00000000       8.26428029 </v>
    </varray>
    <i name="volume">    374.10157459 </i>
    <varray name="rec_basis" >
     <v>       0.15175488       0.00000000       0.00000000 </v>
     <v>       0.00000000       0.14557032       0.00000000 </v>
     <v>       0.00000000       0.00000000       0.12100267 </v>
    </varray>
   </crystal>
   <varray name="positions" >
    <v>       0.11960890       0.91360938       0.62158584 </v>
    <v>       0.61960890       0.08639062       0.37841416 </v>
    <v>       0.61960890       0.58639062       0.12158584 </v>
    <v>       0.11960890       0.41360938       0.87841416 </v>
    <v>       0.62273089       0.57334526       0.62580377 </v>
    <v>       0.12273089       0.42665474       0.37419623 </v>
    <v>       0.12273089       0.92665474       0.12580377 </v>
    <v>       0.62273089       0.07334526       0.87419623 </v>
    <v>       0.50583385       0.90660799       0.63443971 </v>
    <v>       0.00583385       0.09339201       0.36556029 </v>
    <v>       0.00583385       0.59339201       0.13443971 </v>
    <v>       0.50583385       0.40660799       0.86556029 </v>
    <v>       0.98982535       0.06671919       0.88119243 </v>
    <v>       0.48982635       0.93328081       0.11880757 </v>
    <v>       0.48982635       0.43328081       0.38119243 </v>
    <v>       0.98982535       0.56671919       0.61880757 </v>
   </varray>
  </structure>
  <varray name="forces" >
   <v>      -0.00667584      -0.03393467       0.02306687 </v>
   <v>      -0.00667584       0.03393467      -0.02306687 </v>
   <v>      -0.00667584       0.03393467       0.02306687 </v>
   <v>      -0.00667584      -0.03393467      -0.02306687 </v>
   <v>      -0.05387152       0.03678832      -0.03148705 </v>
   <v>      -0.05387152      -0.03678832       0.03148705 </v>
   <v>      -0.05387152      -0.03678832      -0.03148705 </v>
   <v>      -0.05387152       0.03678832       0.03148705 </v>
   <v>       0.61566370      -0.39203375       0.68757427 </v>
   <v>       0.61566370       0.39203375      -0.68757427 </v>
   <v>       0.61566370       0.39203375       0.68757427 </v>
   <v>       0.61566370      -0.39203375      -0.68757427 </v>
   <v>      -0.55511634      -0.29993136       0.72731832 </v>
   <v>      -0.55511634       0.29993136      -0.72731832 </v>
   <v>      -0.55511634       0.29993136       0.72731832 </v>
   <v>      -0.55511634      -0.29993136      -0.72731832 </v>
  </varray>
  <varray name="stress" >
   <v>     -75.23159067       0.00000000       0.00000000 </v>
   <v>       0.00000000     -69.55106384       0.00000000 </v>
   <v>       0.00000000       0.00000000     -75.51196966 </v>
  </varray>
  <energy>
   <i name="e_fr_energy">    -74.63475829 </i>
   <i name="e_wo_entrp">    -74.63475829 </i>
   <i name="e_0_energy">     -0.00000000 </i>
  </energy>
  <time name="totalsc">    4.36    4.38</time>
 </calculation>
 <calculation>
  <scstep>
   <time name="dav">    0.29    0.29</time>
   <time name="total">    0.39    0.39</time>
   <energy>
    <i name="alphaZ">     36.58057761 </i>
    <i name="ewald">  -2057.49912682 </i>
    <i name="hartreedc">   -487.35433054 </i>
    <i name="XCdc">    -20.68854864 </i>
    <i name="pawpsdc">   4904.86637400 </i>
    <i name="pawaedc">  -4730.73296067 </i>
    <i name="eentropy">     -0.00000000 </i>
    <i name="bandstr">   -170.45613395 </i>
    <i name="atom">   2449.87356359 </i>
    <i name="e_fr_energy">    -75.41058541 </i>
    <i name="e_wo_entrp">    -75.41058541 </i>
    <i name="e_0_energy">    -75.41058541 </i>
   </energy>
  </scstep>
  <scstep>
   <time name="dav">    0.18    0.18</time>
   <time name="total">    0.28    0.28</time>
   <energy>
    <i name="e_fr_energy">    -75.21539352 </i>
    <i name="e_wo_entrp">    -75.21539352 </i>
    <i name="e_0_energy">    -75.21539352 </i>
   </energy>
  </scstep>
  <scstep>
   <time name="dav">    0.26    0.26</time>
   <time name="total">    0.36    0.36</time>
   <energy>
    <i name="e_fr_energy">    -75.19398746 </i>
    <i name="e_wo_entrp">    -75.19398746 </i>
    <i name="e_0_energy">    -75.19398746 </i>
   </energy>
  </scstep>
  <scstep>
   <time name="dav">    0.29    0.30</time>
   <time name="total">    0.40    0.40</time>
   <energy>
    <i name="e_fr_energy">    -75.19273198 </i>
    <i name="e_wo_entrp">    -75.19273198 </i>
    <i name="e_0_energy">    -75.19273198 </i>
   </energy>
  </scstep>
  <scstep>
   <time name="dav">    0.24    0.24</time>
   <time name="total">    0.35    0.35</time>
   <energy>
    <i name="e_fr_energy">    -75.19171868 </i>
    <i name="e_wo_entrp">    -75.19171868 </i>
    <i name="e_0_energy">    -75.19171868 </i>
   </energy>
  </scstep>
  <scstep>
   <time name="dav">    0.23    0.23</time>
   <time name="total">    0.32    0.33</time>
   <energy>
    <i name="alphaZ">     36.58057761 </i>
    <i name="ewald">  -2057.49912682 </i>
    <i name="hartreedc">   -473.10417750 </i>
    <i name="XCdc">    -21.39148736 </i>
    <i name="pawpsdc">   5069.11047024 </i>
    <i name="pawaedc">  -4895.09508666 </i>
    <i name="eentropy">     -0.00000000 </i>
    <i name="bandstr">   -183.66646108 </i>
    <i name="atom">   2449.87356359 </i>
    <i name="e_fr_energy">    -75.19172798 </i>
    <i name="e_wo_entrp">    -75.19172798 </i>
    <i name="e_0_energy">    -75.19172798 </i>
   </energy>
  </scstep>
  <structure>
   <crystal>
    <varray name="basis" >
     <v>       6.51977018       0.00000000       0.00000000 </v>
     <v>       0.00000000       6.80225777       0.00000000 </v>
     <v>       0.00000000       0.00000000       8.17641022 </v>
    </varray>
    <i name="volume">    362.61690315 </i>
    <varray name="rec_basis" >
     <v>       0.15337964       0.00000000       0.00000000 </v>
     <v>       0.00000000       0.14701001       0.00000000 </v>
     <v>       0.00000000       0.00000000       0.12230306 </v>
    </varray>
   </crystal>
   <varray name="positions" >
    <v>       0.11959913       0.91356172       0.62161277 </v>
    <v>       0.61959913       0.08643828       0.37838723 </v>
    <v>       0.61959913       0.58643828       0.12161277 </v>
    <v>       0.11959913       0.41356172       0.87838723 </v>
    <v>       0.62265201       0.57339693       0.62576701 </v>
    <v>       0.12265201       0.42660307       0.37423299 </v>
    <v>       0.12265201       0.92660307       0.12576701 </v>
    <v>       0.62265201       0.07339693       0.87423299 </v>
    <v>       0.50673531       0.90605736       0.63524245 </v>
    <v>       0.00673531       0.09394264       0.36475755 </v>
    <v>       0.00673531       0.59394264       0.13524245 </v>
    <v>       0.50673531       0.40605736       0.86475755 </v>
    <v>       0.98901254       0.06629792       0.88204157 </v>
    <v>       0.48901354       0.93370208       0.11795843 </v>
    <v>       0.48901354       0.43370208       0.38204157 </v>
    <v>       0.98901254       0.56629792       0.61795843 </v>
   </varray>
  </structure>
  <varray name="forces" >
   <v>      -0.00805346      -0.02498297       0.02241984 </v>
   <v>      -0.00805346       0.02498297      -0.02241984 </v>
   <v>      -0.00805346       0.02498297       0.02241984 </v>
   <v>      -0.00805346      -0.02498297      -0.02241984 </v>
   <v>      -0.04422103       0.02817134      -0.02327885 </v>
   <v>      -0.04422103      -0.02817134       0.02327885 </v>
   <v>      -0.04422103      -0.02817134      -0.02327885 </v>
   <v>      -0.04422103       0.02817134       0.02327885 </v>
   <v>       0.50787289      -0.33524027       0.58679658 </v>
   <v>       0.50787289       0.33524027      -0.58679658 </v>
   <v>       0.50787289       0.33524027       0.58679658 </v>
   <v>       0.50787289      -0.33524027      -0.58679658 </v>
   <v>      -0.45559840      -0.26580323       0.59551479 </v>
   <v>      -0.45559840       0.26580323      -0.59551479 </v>
   <v>      -0.45559840       0.26580323       0.59551479 </v>
   <v>      -0.45559840      -0.26580323      -0.59551479 </v>
  </varray>
  <varray name="stress" >
   <v>     -63.67752839       0.00000000       0.00000000 </v>
   <v>       0.00000000     -59.54827251       0.00000000 </v>
   <v>       0.00000000       0.00000000     -63.36580336 </v>
  </varray>
  <energy>
   <i name="e_fr_energy">    -75.19172798 </i>
   <i name="e_wo_entrp">    -75.19172798 </i>
   <i name="e_0_energy">     -0.00000000 </i>
  </energy>
  <time name="totalsc">    2.52    2.54</time>
 </calculation>
 <calculation>
  <scstep>
   <time name="dav">    0.19    0.19</time>
   <time name="total">    0.29    0.30</time>
   <energy>
    <i name="alphaZ">     39.87270240 </i>
    <i name="ewald">  -2110.65103722 </i>
    <i name="hartreedc">   -492.22394152 </i>
    <i name="XCdc">    -17.38598748 </i>
    <i name="pawpsdc">   5063.58297903 </i>
    <i name="pawaedc">  -4889.56947178 </i>
    <i name="eentropy">     -0.00000000 </i>
    <i name="bandstr">   -121.23707670 </i>
    <i name="atom">   2449.87356359 </i>
    <i name="e_fr_energy">    -77.73826967 </i>
    <i name="e_wo_entrp">    -77.73826967 </i>
    <i name="e_0_energy">    -77.73826967 </i>
   </energy>
  </scstep>
  <scstep>
   <time name="dav">    0.27    0.27</time>
   <time name="total">    0.37    0.37</time>
   <energy>
    <i name="e_fr_energy">    -76.30681960 </i>
    <i name="e_wo_entrp">    -76.30681960 </i>
    <i name="e_0_energy">    -76.30681960 </i>
   </energy>
  </scstep>
  <scstep>
   <time name="dav">    0.27    0.27</time>
   <time name="total">    0.37    0.37</time>
   <energy>
    <i name="e_fr_energy">    -76.12988946 </i>
    <i name="e_wo_entrp">    -76.12988946 </i>
    <i name="e_0_energy">    -76.12988946 </i>
   </energy>
  </scstep>
  <scstep>
   <time name="dav">    0.20    0.20</time>
   <time name="total">    0.30    0.30</time>
   <energy>
    <i name="e_fr_energy">    -76.12343242 </i>
    <i name="e_wo_entrp">    -76.12343242 </i>
    <i name="e_0_energy">    -76.12343242 </i>
   </energy>
  </scstep>
  <scstep>
   <time name="dav">    0.24    0.24</time>
   <time name="total">    0.34    0.34</time>
   <energy>
    <i name="e_fr_energy">    -76.11367605 </i>
    <i name="e_wo_entrp">    -76.11367605 </i>
    <i name="e_0_energy">    -76.11367605 </i>
   </energy>
  </scstep>
  <scstep>
   <time name="dav">    0.26    0.26</time>
   <time name="total">    0.35    0.35</time>
   <energy>
    <i name="alphaZ">     39.87270240 </i>
    <i name="ewald">  -2110.65103722 </i>
    <i name="hartreedc">   -453.22848953 </i>
    <i name="XCdc">    -19.30258184 </i>
    <i name="pawpsdc">   5571.18565258 </i>
    <i name="pawaedc">  -5397.54264194 </i>
    <i name="eentropy">     -0.00000000 </i>
    <i name="bandstr">   -156.32084427 </i>
    <i name="atom">   2449.87356359 </i>
    <i name="e_fr_energy">    -76.11367623 </i>
    <i name="e_wo_entrp">    -76.11367623 </i>
    <i name="e_0_energy">    -76.11367623 </i>
   </energy>
  </scstep>
  <structure>
   <crystal>
    <varray name="basis" >
     <v>       6.33058781       0.00000000       0.00000000 </v>
     <v>       0.00000000       6.61992949       0.00000000 </v>
     <v>       0.00000000       0.00000000       7.93826387 </v>
    </varray>
    <i name="volume">    332.67711922 </i>
    <varray name="rec_basis" >
     <v>       0.15796321       0.00000000       0.00000000 </v>
     <v>       0.00000000       0.15105901       0.00000000 </v>
     <v>       0.00000000       0.00000000       0.12597213 </v>
    </varray>
   </crystal>
   <varray name="positions" >
    <v>       0.11957235       0.91343126       0.62168654 </v>
    <v>       0.61957235       0.08656874       0.37831346 </v>
    <v>       0.61957235       0.58656874       0.12168654 </v>
    <v>       0.11957235       0.41343126       0.87831346 </v>
    <v>       0.62243594       0.57353835       0.62566631 </v>
    <v>       0.12243594       0.42646165       0.37433369 </v>
    <v>       0.12243594       0.92646165       0.12566631 </v>
    <v>       0.62243594       0.07353835       0.87433369 </v>
    <v>       0.50920462       0.90455029       0.63744143 </v>
    <v>       0.00920462       0.09544971       0.36255857 </v>
    <v>       0.00920462       0.59544971       0.13744143 </v>
    <v>       0.50920462       0.40455029       0.86255857 </v>
    <v>       0.98678608       0.06514491       0.88436766 </v>
    <v>       0.48678708       0.93485509       0.11563234 </v>
    <v>       0.48678708       0.43485509       0.38436766 </v>
    <v>       0.98678608       0.56514491       0.61563234 </v>
   </varray>
  </structure>
  <varray name="forces" >
   <v>      -0.01425966      -0.00261305       0.01552309 </v>
   <v>      -0.01425966       0.00261305      -0.01552309 </v>
   <v>      -0.01425966       0.00261305       0.01552309 </v>
   <v>      -0.01425966      -0.00261305      -0.01552309 </v>
   <v>      -0.01497121       0.00107138       0.00602821 </v>
   <v>      -0.01497121      -0.00107138      -0.00602821 </v>
   <v>      -0.01497121      -0.00107138       0.00602821 </v>
   <v>      -0.01497121       0.00107138      -0.00602821 </v>
   <v>       0.16058098      -0.13428418       0.19472040 </v>
   <v>       0.16058098       0.13428418      -0.19472040 </v>
   <v>       0.16058098       0.13428418       0.19472040 </v>
   <v>       0.16058098      -0.13428418      -0.19472040 </v>
   <v>      -0.13135011      -0.07916871       0.19503259 </v>
   <v>      -0.13135011       0.07916871      -0.19503259 </v>
   <v>      -0.13135011       0.07916871       0.19503259 </v>
   <v>      -0.13135011      -0.07916871      -0.19503259 </v>
  </varray>
  <varray name="stress" >
   <v>     -21.54665239       0.00000000       0.00000000 </v>
   <v>       0.00000000     -19.48480079       0.00000000 </v>
   <v>       0.00000000       0.00000000     -18.44209772 </v>
  </varray>
  <energy>
   <i name="e_fr_energy">    -76.11367623 </i>
   <i name="e_wo_entrp">    -76.11367623 </i>
   <i name="e_0_energy">     -0.00000000 </i>
  </energy>
  <time name="totalsc">    2.44    2.44</time>
 </calculation>
 <calculation>
  <scstep>
   <time name="dav">    0.26    0.26</time>
   <time name="total">    0.36    0.36</time>
   <energy>
    <i name="alphaZ">     41.37665235 </i>
    <i name="ewald">  -2133.76812805 </i>
    <i name="hartreedc">   -461.25579610 </i>
    <i name="XCdc">    -17.56585626 </i>
    <i name="pawpsdc">   5560.05978602 </i>
    <i name="pawaedc">  -5386.42014484 </i>
    <i name="eentropy">     -0.00000000 </i>
    <i name="bandstr">   -128.77198719 </i>
    <i name="atom">   2449.87356359 </i>
    <i name="e_fr_energy">    -76.47191047 </i>
    <i name="e_wo_entrp">    -76.47191047 </i>
    <i name="e_0_energy">    -76.47191047 </i>
   </energy>
  </scstep>
  <scstep>
   <time name="dav">    0.23    0.23</time>
   <time name="total">    0.33    0.33</time>
   <energy>
    <i name="e_fr_energy">    -76.21621610 </i>
    <i name="e_wo_entrp">    -76.21621610 </i>
    <i name="e_0_energy">    -76.21621610 </i>
   </energy>
  </scstep>
  <scstep>
   <time name="dav">    0.27    0.27</time>
   <time name="total">    0.37    0.37</time>
   <energy>
    <i name="e_fr_energy">    -76.18245722 </i>
    <i name="e_wo_entrp">    -76.18245722 </i>
    <i name="e_0_energy">    -76.18245722 </i>
   </energy>
  </scstep>
  <scstep>
   <time name="dav">    0.25    0.25</time>
   <time name="total">    0.35    0.35</time>
   <energy>
    <i name="e_fr_energy">    -76.18127509 </i>
    <i name="e_wo_entrp">    -76.18127509 </i>
    <i name="e_0_energy">    -76.18127509 </i>
   </energy>
  </scstep>
  <scstep>
   <time name="dav">    0.28    0.28</time>
   <time name="total">    0.39    0.39</time>
   <energy>
    <i name="e_fr_energy">    -76.17989986 </i>
    <i name="e_wo_entrp">    -76.17989986 </i>
    <i name="e_0_energy">    -76.17989986 </i>
   </energy>
  </scstep>
  <scstep>
   <time name="dav">    0.23    0.23</time>
   <time name="total">    0.32    0.32</time>
   <energy>
    <i name="alphaZ">     41.37665235 </i>
    <i name="ewald">  -2133.76812805 </i>
    <i name="hartreedc">   -444.91838668 </i>
    <i name="XCdc">    -18.36897716 </i>
    <i name="pawpsdc">   5824.80414026 </i>
    <i name="pawaedc">  -5651.34377887 </i>
    <i name="eentropy">     -0.00000000 </i>
    <i name="bandstr">   -143.83499491 </i>
    <i name="atom">   2449.87356359 </i>
    <i name="e_fr_energy">    -76.17990946 </i>
    <i name="e_wo_entrp">    -76.17990946 </i>
    <i name="e_0_energy">    -76.17990946 </i>
   </energy>
  </scstep>
  <structure>
   <crystal>
    <varray name="basis" >
     <v>       6.25096236       0.00000000       0.00000000 </v>
     <v>       0.00000000       6.54318887       0.00000000 </v>
     <v>       0.00000000       0.00000000       7.83802984 </v>
    </varray>
    <i name="volume">    320.58504050 </i>
    <varray name="rec_basis" >
     <v>       0.15997537       0.00000000       0.00000000 </v>
     <v>       0.00000000       0.15283068       0.00000000 </v>
     <v>       0.00000000       0.00000000       0.12758308 </v>
    </varray>
   </crystal>
   <varray name="positions" >
    <v>       0.11956074       0.91337485       0.62171852 </v>
    <v>       0.61956074       0.08662515       0.37828148 </v>
    <v>       0.61956074       0.58662515       0.12171852 </v>
    <v>       0.11956074       0.41337485       0.87828148 </v>
    <v>       0.62234228       0.57359952       0.62562265 </v>
    <v>       0.12234228       0.42640048       0.37437735 </v>
    <v>       0.12234228       0.92640048       0.12562265 </v>
    <v>       0.62234228       0.07359952       0.87437735 </v>
    <v>       0.51027499       0.90389850       0.63839473 </v>
    <v>       0.01027499       0.09610150       0.36160527 </v>
    <v>       0.01027499       0.59610150       0.13839473 </v>
    <v>       0.51027499       0.40389850       0.86160527 </v>
    <v>       0.98582097       0.06464626       0.88537606 </v>
    <v>       0.48582197       0.93535374       0.11462394 </v>
    <v>       0.48582197       0.43535374       0.38537606 </v>
    <v>       0.98582097       0.56464626       0.61462394 </v>
   </varray>
  </structure>
  <varray name="forces" >
   <v>      -0.01018225       0.00545333       0.01204224 </v>
   <v>      -0.01018225      -0.00545333      -0.01204224 </v>
   <v>      -0.01018225      -0.00545333       0.01204224 </v>
   <v>      -0.01018225       0.00545333      -0.01204224 </v>
   <v>       0.00419152       0.00648832       0.02141575 </v>
   <v>       0.00419152      -0.00648832      -0.02141575 </v>
   <v>       0.00419152      -0.00648832       0.02141575 </v>
   <v>       0.00419152       0.00648832      -0.02141575 </v>
   <v>      -0.03505850      -0.02208242      -0.03512658 </v>
   <v>      -0.03505850       0.02208242       0.03512658 </v>
   <v>      -0.03505850       0.02208242      -0.03512658 </v>
   <v>      -0.03505850      -0.02208242       0.03512658 </v>
   <v>       0.04104923       0.00884544      -0.04578450 </v>
   <v>       0.04104923      -0.00884544       0.04578450 </v>
   <v>       0.04104923      -0.00884544      -0.04578450 </v>
   <v>       0.04104923       0.00884544       0.04578450 </v>
  </varray>
  <varray name="stress" >
   <v>       3.31809630       0.00000000       0.00000000 </v>
   <v>       0.00000000       3.85869562       0.00000000 </v>
   <v>       0.00000000       0.00000000       7.75924232 </v>
  </varray>
  <energy>
   <i name="e_fr_energy">    -76.17990946 </i>
   <i name="e_wo_entrp">    -76.17990946 </i>
   <i name="e_0_energy">     -0.00000000 </i>
  </energy>
  <time name="totalsc">    2.53    2.53</time>
 </calculation>
 <calculation>
  <scstep>
   <time name="dav">    0.16    0.17</time>
   <time name="total">    0.27    0.28</time>
   <energy>
    <i name="alphaZ">     41.08444348 </i>
    <i name="ewald">  -2129.33335849 </i>
    <i name="hartreedc">   -443.37857447 </i>
    <i name="XCdc">    -18.70190964 </i>
    <i name="pawpsdc">   5820.04143768 </i>
    <i name="pawaedc">  -5646.58272769 </i>
    <i name="eentropy">     -0.00000000 </i>
    <i name="bandstr">   -149.19731919 </i>
    <i name="atom">   2449.87356359 </i>
    <i name="e_fr_energy">    -76.19444472 </i>
    <i name="e_wo_entrp">    -76.19444472 </i>
    <i name="e_0_energy">    -76.19444472 </i>
   </energy>
  </scstep>
  <scstep>
   <time name="dav">    0.21    0.21</time>
   <time name="total">    0.31    0.31</time>
   <energy>
    <i name="e_fr_energy">    -76.18516767 </i>
    <i name="e_wo_entrp">    -76.18516767 </i>
    <i name="e_0_energy">    -76.18516767 </i>
   </energy>
  </scstep>
  <scstep>
   <time name="dav">    0.30    0.30</time>
   <time name="total">    0.40    0.40</time>
   <energy>
    <i name="e_fr_energy">    -76.18391777 </i>
    <i name="e_wo_entrp">    -76.18391777 </i>
    <i name="e_0_energy">    -76.18391777 </i>
   </energy>
  </scstep>
  <scstep>
   <time name="dav">    0.21    0.22</time>
   <time name="total">    0.30    0.31</time>
   <energy>
    <i name="alphaZ">     41.08444348 </i>
    <i name="ewald">  -2129.33335849 </i>
    <i name="hartreedc">   -446.31410865 </i>
    <i name="XCdc">    -18.55096622 </i>
    <i name="pawpsdc">   5739.93606311 </i>
    <i name="pawaedc">  -5566.46479478 </i>
    <i name="eentropy">     -0.00000000 </i>
    <i name="bandstr">   -146.41468620 </i>
    <i name="atom">   2449.87356359 </i>
    <i name="e_fr_energy">    -76.18384414 </i>
    <i name="e_wo_entrp">    -76.18384414 </i>
    <i name="e_0_energy">    -76.18384414 </i>
   </energy>
  </scstep>
  <structure>
   <crystal>
    <varray name="basis" >
     <v>       6.26612804       0.00000000       0.00000000 </v>
     <v>       0.00000000       6.55780510       0.00000000 </v>
     <v>       0.00000000       0.00000000       7.85712069 </v>
    </varray>
    <i name="volume">    322.86516854 </i>
    <varray name="rec_basis" >
     <v>       0.15958818       0.00000000       0.00000000 </v>
     <v>       0.00000000       0.15249005       0.00000000 </v>
     <v>       0.00000000       0.00000000       0.12727309 </v>
    </varray>
   </crystal>
   <varray name="positions" >
    <v>       0.11956298       0.91338572       0.62171235 </v>
    <v>       0.61956298       0.08661428       0.37828765 </v>
    <v>       0.61956298       0.58661428       0.12171235 </v>
    <v>       0.11956298       0.41338572       0.87828765 </v>
    <v>       0.62236035       0.57358773       0.62563107 </v>
    <v>       0.12236035       0.42641227       0.37436893 </v>
    <v>       0.12236035       0.92641227       0.12563107 </v>
    <v>       0.62236035       0.07358773       0.87436893 </v>
    <v>       0.51006853       0.90402410       0.63821084 </v>
    <v>       0.01006853       0.09597590       0.36178916 </v>
    <v>       0.01006853       0.59597590       0.13821084 </v>
    <v>       0.51006853       0.40402410       0.86178916 </v>
    <v>       0.98600713       0.06474235       0.88518154 </v>
    <v>       0.48600813       0.93525765       0.11481846 </v>
    <v>       0.48600813       0.43525765       0.38518154 </v>
    <v>       0.98600713       0.56474235       0.61481846 </v>
   </varray>
  </structure>
  <varray name="forces" >
   <v>      -0.00790258       0.00607492       0.01239447 </v>
   <v>      -0.00790258      -0.00607492      -0.01239447 </v>
   <v>      -0.00790258      -0.00607492       0.01239447 </v>
   <v>      -0.00790258       0.00607492      -0.01239447 </v>
   <v>       0.00256978       0.00534563       0.01841506 </v>
   <v>       0.00256978      -0.00534563      -0.01841506 </v>
   <v>       0.00256978      -0.00534563       0.01841506 </v>
   <v>       0.00256978       0.00534563      -0.01841506 </v>
   <v>      -0.00294891      -0.04449699       0.01114061 </v>
   <v>      -0.00294891       0.04449699      -0.01114061 </v>
   <v>      -0.00294891       0.04449699       0.01114061 </v>
   <v>      -0.00294891      -0.04449699      -0.01114061 </v>
   <v>       0.00828170      -0.01892405       0.00710640 </v>
   <v>       0.00828170       0.01892405      -0.00710640 </v>
   <v>       0.00828170       0.01892405       0.00710640 </v>
   <v>       0.00828170      -0.01892405      -0.00710640 </v>
  </varray>
  <varray name="stress" >
   <v>      -0.92965732       0.00000000       0.00000000 </v>
   <v>       0.00000000      -0.24698013       0.00000000 </v>
   <v>       0.00000000       0.00000000       3.49714911 </v>
  </varray>
  <energy>
   <i name="e_fr_energy">    -76.18384414 </i>
   <i name="e_wo_entrp">    -76.18384414 </i>
   <i name="e_0_energy">     -0.00000000 </i>
  </energy>
  <time name="totalsc">    1.62    1.65</time>
  <eigenvalues>
   <array>
    <dimension dim="1">band</dimension>
    <dimension dim="2">kpoint</dimension>
    <dimension dim="3">spin</dimension>
    <field>eigene</field>
    <field>occ</field>
    <set>
     <set comment="spin 1">
      <set comment="kpoint 1">
       <r>  -10.2394    1.0000 </r>
       <r>   -9.5263    1.0000 </r>
       <r>   -9.4916    1.0000 </r>
       <r>   -9.0650    1.0000 </r>
       <r>   -9.0187    1.0000 </r>
       <r>   -8.9243    1.0000 </r>
       <r>   -8.9062    1.0000 </r>
       <r>   -8.8806    1.0000 </r>
       <r>   -3.2060    1.0000 </r>
       <r>   -2.6406    1.0000 </r>
       <r>   -2.1553    1.0000 </r>
       <r>   -1.2564    1.0000 </r>
       <r>   -1.0538    1.0000 </r>
       <r>   -1.0223    1.0000 </r>
       <r>   -1.0001    1.0000 </r>
       <r>   -0.8487    1.0000 </r>
       <r>   -0.4315    1.0000 </r>
       <r>   -0.2205    1.0000 </r>
       <r>   -0.1197    1.0000 </r>
       <r>    0.2595    1.0000 </r>
       <r>    0.5791    1.0000 </r>
       <r>    0.5836    1.0000 </r>
       <r>    0.8295    1.0000 </r>
       <r>    0.8425    1.0000 </r>
       <r>    0.9203    1.0000 </r>
       <r>    0.9694    1.0000 </r>
       <r>    1.4664    1.0000 </r>
       <r>    1.5538    1.0000 </r>
       <r>    1.5699    1.0000 </r>
       <r>    1.7115    1.0000 </r>
       <r>    1.7925    1.0000 </r>
       <r>    1.8508    1.0000 </r>
       <r>    5.9730    0.0000 </r>
       <r>    6.5495    0.0000 </r>
       <r>    6.6500    0.0000 </r>
       <r>    6.9617    0.0000 </r>
       <r>    6.9900    0.0000 </r>
       <r>    7.0327    0.0000 </r>
       <r>    7.2389    0.0000 </r>
       <r>    8.1046    0.0000 </r>
       <r>    8.6342    0.0000 </r>
       <r>    8.6993    0.0000 </r>
      </set>
      <set comment="kpoint 2">
       <r>  -10.0560    1.0000 </r>
       <r>   -9.6615    1.0000 </r>
       <r>   -9.3794    1.0000 </r>
       <r>   -9.0821    1.0000 </r>
       <r>   -9.0673    1.0000 </r>
       <r>   -8.9909    1.0000 </r>
       <r>   -8.9759    1.0000 </r>
       <r>   -8.9332    1.0000 </r>
       <r>   -3.1586    1.0000 </r>
       <r>   -2.6688    1.0000 </r>
       <r>   -2.1980    1.0000 </r>
       <r>   -1.6639    1.0000 </r>
       <r>   -0.8695    1.0000 </r>
       <r>   -0.8358    1.0000 </r>
       <r>   -0.8350    1.0000 </r>
       <r>   -0.3865    1.0000 </r>
       <r>   -0.2953    1.0000 </r>
       <r>   -0.2149    1.0000 </r>
       <r>    0.0207    1.0000 </r>
       <r>    0.2179    1.0000 </r>
       <r>    0.3258    1.0000 </r>
       <r>    0.5894    1.0000 </r>
       <r>    0.7462    1.0000 </r>
       <r>    0.9088    1.0000 </r>
       <r>    1.0915    1.0000 </r>
       <r>    1.2250    1.0000 </r>
       <r>    1.2271    1.0000 </r>
       <r>    1.4010    1.0000 </r>
       <r>    1.5940    1.0000 </r>
       <r>    1.6188    1.0000 </r>
       <r>    1.7369    1.0000 </r>
       <r>    1.7583    1.0000 </r>
       <r>    6.0674    0.0000 </r>
       <r>    6.5192    0.0000 </r>
       <r>    6.6364    0.0000 </r>
       <r>    6.6809    0.0000 </r>
       <r>    7.1202    0.0000 </r>
       <r>    7.2811    0.0000 </r>
       <r>    7.5429    0.0000 </r>
       <r>    7.7573    0.0000 </r>
       <r>    8.0829    0.0000 </r>
       <r>    8.2159    0.0000 </r>
      </set>
      <set comment="kpoint 3">
       <r>  -10.0747    1.0000 </r>
       <r>   -9.7092    1.0000 </r>
       <r>   -9.3800    1.0000 </r>
       <r>   -9.1684    1.0000 </r>
       <r>   -9.0214    1.0000 </r>
       <r>   -8.9337    1.0000 </r>
       <r>   -8.9225    1.0000 </r>
       <r>   -8.9158    1.0000 </r>
       <r>   -2.9942    1.0000 </r>
       <r>   -2.7062    1.0000 </r>
       <r>   -1.9522    1.0000 </r>
       <r>   -1.6608    1.0000 </r>
       <r>   -1.1899    1.0000 </r>
       <r>   -0.9956    1.0000 </r>
       <r>   -0.9519    1.0000 </r>
       <r>   -0.7728    1.0000 </r>
       <r>   -0.1299    1.0000 </r>
       <r>   -0.0645    1.0000 </r>
       <r>    0.0574    1.0000 </r>
       <r>    0.3774    1.0000 </r>
       <r>    0.4800    1.0000 </r>
       <r>    0.5998    1.0000 </r>
       <r>    0.7278    1.0000 </r>
       <r>    0.7637    1.0000 </r>
       <r>    1.0293    1.0000 </r>
       <r>    1.0663    1.0000 </r>
       <r>    1.2937    1.0000 </r>
       <r>    1.4319    1.0000 </r>
       <r>    1.5706    1.0000 </r>
       <r>    1.6370    1.0000 </r>
       <r>    1.6795    1.0000 </r>
       <r>    1.7278    1.0000 </r>
       <r>    6.3341    0.0000 </r>
       <r>    6.4051    0.0000 </r>
       <r>    6.7482    0.0000 </r>
       <r>    6.9570    0.0000 </r>
       <r>    6.9731    0.0000 </r>
       <r>    7.1370    0.0000 </r>
       <r>    7.5348    0.0000 </r>
       <r>    7.8563    0.0000 </r>
       <r>    7.8952    0.0000 </r>
       <r>    8.1601    0.0000 </r>
      </set>
      <set comment="kpoint 4">
       <r>   -9.8978    1.0000 </r>
       <r>   -9.5502    1.0000 </r>
       <r>   -9.5237    1.0000 </r>
       <r>   -9.2313    1.0000 </r>
       <r>   -9.0607    1.0000 </r>
       <r>   -9.0184    1.0000 </r>
       <r>   -8.9786    1.0000 </r>
       <r>   -8.9644    1.0000 </r>
       <r>   -2.9143    1.0000 </r>
       <r>   -2.4577    1.0000 </r>
       <r>   -2.4477    1.0000 </r>
       <r>   -2.0562    1.0000 </r>
       <r>   -0.7821    1.0000 </r>
       <r>   -0.7587    1.0000 </r>
       <r>   -0.6119    1.0000 </r>
       <r>   -0.3641    1.0000 </r>
       <r>   -0.3324    1.0000 </r>
       <r>    0.1335    1.0000 </r>
       <r>    0.2214    1.0000 </r>
       <r>    0.4107    1.0000 </r>
       <r>    0.4629    1.0000 </r>
       <r>    0.5137    1.0000 </r>
       <r>    0.7944    1.0000 </r>
       <r>    0.8042    1.0000 </r>
       <r>    1.0523    1.0000 </r>
       <r>    1.0734    1.0000 </r>
       <r>    1.2033    1.0000 </r>
       <r>    1.2500    1.0000 </r>
       <r>    1.4440    1.0000 </r>
       <r>    1.5540    1.0000 </r>
       <r>    1.5896    1.0000 </r>
       <r>    1.6798    1.0000 </r>
       <r>    6.0735    0.0000 </r>
       <r>    6.3114    0.0000 </r>
       <r>    6.5389    0.0000 </r>
       <r>    6.6084    0.0000 </r>
       <r>    7.0162    0.0000 </r>
       <r>    7.3389    0.0000 </r>
       <r>    7.3926    0.0000 </r>
       <r>    7.6092    0.0000 </r>
       <r>    7.6344    0.0000 </r>
       <r>    7.9467    0.0000 </r>
      </set>
      <set comment="kpoint 5">
       <r>  -10.1326    1.0000 </r>
       <r>   -9.8517    1.0000 </r>
       <r>   -9.2194    1.0000 </r>
       <r>   -9.0445    1.0000 </r>
       <r>   -9.0024    1.0000 </r>
       <r>   -8.9664    1.0000 </r>
       <r>   -8.9541    1.0000 </r>
       <r>   -8.8936    1.0000 </r>
       <r>   -3.0533    1.0000 </r>
       <r>   -2.7875    1.0000 </r>
       <r>   -1.9368    1.0000 </r>
       <r>   -1.5907    1.0000 </r>
       <r>   -1.2099    1.0000 </r>
       <r>   -0.9558    1.0000 </r>
       <r>   -0.6157    1.0000 </r>
       <r>   -0.5792    1.0000 </r>
       <r>   -0.4417    1.0000 </r>
       <r>   -0.1464    1.0000 </r>
       <r>   -0.0525    1.0000 </r>
       <r>   -0.0317    1.0000 </r>
       <r>    0.4626    1.0000 </r>
       <r>    0.5911    1.0000 </r>
       <r>    0.7533    1.0000 </r>
       <r>    0.9468    1.0000 </r>
       <r>    1.0138    1.0000 </r>
       <r>    1.0725    1.0000 </r>
       <r>    1.2827    1.0000 </r>
       <r>    1.2842    1.0000 </r>
       <r>    1.4445    1.0000 </r>
       <r>    1.5197    1.0000 </r>
       <r>    1.6975    1.0000 </r>
       <r>    1.7439    1.0000 </r>
       <r>    6.4416    0.0000 </r>
       <r>    6.5294    0.0000 </r>
       <r>    6.7121    0.0000 </r>
       <r>    6.9825    0.0000 </r>
       <r>    7.5778    0.0000 </r>
       <r>    7.7024    0.0000 </r>
       <r>    7.7334    0.0000 </r>
       <r>    7.8254    0.0000 </r>
       <r>    8.1314    0.0000 </r>
       <r>    8.6620    0.0000 </r>
      </set>
      <set comment="kpoint 6">
       <r>   -9.9680    1.0000 </r>
       <r>   -9.7674    1.0000 </r>
       <r>   -9.3467    1.0000 </r>
       <r>   -9.1901    1.0000 </r>
       <r>   -9.0365    1.0000 </r>
       <r>   -8.9757    1.0000 </r>
       <r>   -8.9503    1.0000 </r>
       <r>   -8.9268    1.0000 </r>
       <r>   -3.0348    1.0000 </r>
       <r>   -2.8124    1.0000 </r>
       <r>   -1.9166    1.0000 </r>
       <r>   -1.6572    1.0000 </r>
       <r>   -0.9943    1.0000 </r>
       <r>   -0.8594    1.0000 </r>
       <r>   -0.5491    1.0000 </r>
       <r>   -0.5206    1.0000 </r>
       <r>   -0.3236    1.0000 </r>
       <r>   -0.2018    1.0000 </r>
       <r>    0.1688    1.0000 </r>
       <r>    0.2178    1.0000 </r>
       <r>    0.3486    1.0000 </r>
       <r>    0.4263    1.0000 </r>
       <r>    0.6334    1.0000 </r>
       <r>    0.8604    1.0000 </r>
       <r>    0.9406    1.0000 </r>
       <r>    1.0471    1.0000 </r>
       <r>    1.3109    1.0000 </r>
       <r>    1.3451    1.0000 </r>
       <r>    1.4162    1.0000 </r>
       <r>    1.6070    1.0000 </r>
       <r>    1.6344    1.0000 </r>
       <r>    1.7185    1.0000 </r>
       <r>    6.4198    0.0000 </r>
       <r>    6.8957    0.0000 </r>
       <r>    6.9058    0.0000 </r>
       <r>    7.0310    0.0000 </r>
       <r>    7.3632    0.0000 </r>
       <r>    7.4550    0.0000 </r>
       <r>    7.7753    0.0000 </r>
       <r>    7.8056    0.0000 </r>
       <r>    7.8991    0.0000 </r>
       <r>    8.2440    0.0000 </r>
      </set>
      <set comment="kpoint 7">
       <r>   -9.9901    1.0000 </r>
       <r>   -9.8031    1.0000 </r>
       <r>   -9.3522    1.0000 </r>
       <r>   -9.2306    1.0000 </r>
       <r>   -9.0093    1.0000 </r>
       <r>   -8.9533    1.0000 </r>
       <r>   -8.9087    1.0000 </r>
       <r>   -8.8950    1.0000 </r>
       <r>   -2.8737    1.0000 </r>
       <r>   -2.7373    1.0000 </r>
       <r>   -1.7624    1.0000 </r>
       <r>   -1.6034    1.0000 </r>
       <r>   -1.2106    1.0000 </r>
       <r>   -0.9939    1.0000 </r>
       <r>   -0.8790    1.0000 </r>
       <r>   -0.7825    1.0000 </r>
       <r>   -0.2789    1.0000 </r>
       <r>   -0.2355    1.0000 </r>
       <r>    0.1315    1.0000 </r>
       <r>    0.2747    1.0000 </r>
       <r>    0.4040    1.0000 </r>
       <r>    0.6352    1.0000 </r>
       <r>    0.6618    1.0000 </r>
       <r>    0.7788    1.0000 </r>
       <r>    0.8699    1.0000 </r>
       <r>    1.1105    1.0000 </r>
       <r>    1.2634    1.0000 </r>
       <r>    1.4009    1.0000 </r>
       <r>    1.4590    1.0000 </r>
       <r>    1.5628    1.0000 </r>
       <r>    1.6711    1.0000 </r>
       <r>    1.7289    1.0000 </r>
       <r>    6.4570    0.0000 </r>
       <r>    6.6778    0.0000 </r>
       <r>    6.9850    0.0000 </r>
       <r>    7.1982    0.0000 </r>
       <r>    7.3600    0.0000 </r>
       <r>    7.4083    0.0000 </r>
       <r>    7.5043    0.0000 </r>
       <r>    7.7437    0.0000 </r>
       <r>    8.1632    0.0000 </r>
       <r>    8.3494    0.0000 </r>
      </set>
      <set comment="kpoint 8">
       <r>   -9.8265    1.0000 </r>
       <r>   -9.6710    1.0000 </r>
       <r>   -9.4072    1.0000 </r>
       <r>   -9.2804    1.0000 </r>
       <r>   -9.0861    1.0000 </r>
       <r>   -9.0453    1.0000 </r>
       <r>   -8.9725    1.0000 </r>
       <r>   -8.9592    1.0000 </r>
       <r>   -2.7928    1.0000 </r>
       <r>   -2.6238    1.0000 </r>
       <r>   -2.1171    1.0000 </r>
       <r>   -1.9494    1.0000 </r>
       <r>   -0.8432    1.0000 </r>
       <r>   -0.7073    1.0000 </r>
       <r>   -0.5494    1.0000 </r>
       <r>   -0.4347    1.0000 </r>
       <r>   -0.2315    1.0000 </r>
       <r>   -0.1115    1.0000 </r>
       <r>    0.1069    1.0000 </r>
       <r>    0.3248    1.0000 </r>
       <r>    0.3428    1.0000 </r>
       <r>    0.4902    1.0000 </r>
       <r>    0.6593    1.0000 </r>
       <r>    0.7046    1.0000 </r>
       <r>    0.8714    1.0000 </r>
       <r>    0.9744    1.0000 </r>
       <r>    1.2005    1.0000 </r>
       <r>    1.3373    1.0000 </r>
       <r>    1.5038    1.0000 </r>
       <r>    1.5413    1.0000 </r>
       <r>    1.6083    1.0000 </r>
       <r>    1.7278    1.0000 </r>
       <r>    6.2405    0.0000 </r>
       <r>    6.6166    0.0000 </r>
       <r>    6.7747    0.0000 </r>
       <r>    6.8952    0.0000 </r>
       <r>    7.1335    0.0000 </r>
       <r>    7.3948    0.0000 </r>
       <r>    7.5748    0.0000 </r>
       <r>    7.6863    0.0000 </r>
       <r>    8.0354    0.0000 </r>
       <r>    8.1236    0.0000 </r>
      </set>
     </set>
    </set>
   </array>
  </eigenvalues>
  <separator name="orbital magnetization" >
   <v name="MAGDIPOLOUT">      0.00000000      0.00000000      0.00000000</v>
  </separator>
  <dos>
   <i name="efermi">      2.08140528 </i>
   <total>
    <array>
     <dimension dim="1">gridpoints</dimension>
     <dimension dim="2">spin</dimension>
     <field>energy</field>
     <field>total</field>
     <field>integrated</field>
     <set>
      <set comment="spin 1">
       <r>   -11.1863     0.0000     0.0000 </r>
       <r>   -11.1169     0.0000     0.0000 </r>
       <r>   -11.0474     0.0000     0.0000 </r>
       <r>   -10.9780     0.0000     0.0000 </r>
       <r>   -10.9086     0.0000     0.0000 </r>
       <r>   -10.8391     0.0000     0.0000 </r>
       <r>   -10.7697     0.0000     0.0000 </r>
       <r>   -10.7002     0.0000     0.0000 </r>
       <r>   -10.6308     0.0000     0.0000 </r>
       <r>   -10.5613     0.0000     0.0000 </r>
       <r>   -10.4919     0.0000     0.0000 </r>
       <r>   -10.4225     0.0000     0.0000 </r>
       <r>   -10.3530     0.0007     0.0000 </r>
       <r>   -10.2836     0.1120     0.0078 </r>
       <r>   -10.2141     0.7232     0.0581 </r>
       <r>   -10.1447     1.0725     0.1325 </r>
       <r>   -10.0752     2.8991     0.3338 </r>
       <r>   -10.0058     4.4523     0.6430 </r>
       <r>    -9.9364     6.2873     1.0796 </r>
       <r>    -9.8669     5.8448     1.4855 </r>
       <r>    -9.7975    10.8995     2.2424 </r>
       <r>    -9.7280     7.6655     2.7747 </r>
       <r>    -9.6586     8.0522     3.3338 </r>
       <r>    -9.5892     4.8837     3.6730 </r>
       <r>    -9.5197     5.9825     4.0884 </r>
       <r>    -9.4503     4.8920     4.4281 </r>
       <r>    -9.3808     9.4593     5.0850 </r>
       <r>    -9.3114    11.4280     5.8786 </r>
       <r>    -9.2419    11.0870     6.6485 </r>
       <r>    -9.1725    11.1009     7.4193 </r>
       <r>    -9.1031     7.9517     7.9715 </r>
       <r>    -9.0336    25.5403     9.7451 </r>
       <r>    -8.9642    42.0742    12.6668 </r>
       <r>    -8.8947    38.3483    15.3298 </r>
       <r>    -8.8253     9.3409    15.9784 </r>
       <r>    -8.7559     0.3103    16.0000 </r>
       <r>    -8.6864     0.0006    16.0000 </r>
       <r>    -8.6170     0.0000    16.0000 </r>
       <r>    -8.5475     0.0000    16.0000 </r>
       <r>    -8.4781     0.0000    16.0000 </r>
       <r>    -8.4086     0.0000    16.0000 </r>
       <r>    -8.3392     0.0000    16.0000 </r>
       <r>    -8.2698     0.0000    16.0000 </r>
       <r>    -8.2003     0.0000    16.0000 </r>
       <r>    -8.1309     0.0000    16.0000 </r>
       <r>    -8.0614     0.0000    16.0000 </r>
       <r>    -7.9920     0.0000    16.0000 </r>
       <r>    -7.9226     0.0000    16.0000 </r>
       <r>    -7.8531     0.0000    16.0000 </r>
       <r>    -7.7837     0.0000    16.0000 </r>
       <r>    -7.7142     0.0000    16.0000 </r>
       <r>    -7.6448     0.0000    16.0000 </r>
       <r>    -7.5753     0.0000    16.0000 </r>
       <r>    -7.5059     0.0000    16.0000 </r>
       <r>    -7.4365     0.0000    16.0000 </r>
       <r>    -7.3670     0.0000    16.0000 </r>
       <r>    -7.2976     0.0000    16.0000 </r>
       <r>    -7.2281     0.0000    16.0000 </r>
       <r>    -7.1587     0.0000    16.0000 </r>
       <r>    -7.0893     0.0000    16.0000 </r>
       <r>    -7.0198     0.0000    16.0000 </r>
       <r>    -6.9504     0.0000    16.0000 </r>
       <r>    -6.8809     0.0000    16.0000 </r>
       <r>    -6.8115     0.0000    16.0000 </r>
       <r>    -6.7420     0.0000    16.0000 </r>
       <r>    -6.6726     0.0000    16.0000 </r>
       <r>    -6.6032     0.0000    16.0000 </r>
       <r>    -6.5337     0.0000    16.0000 </r>
       <r>    -6.4643     0.0000    16.0000 </r>
       <r>    -6.3948     0.0000    16.0000 </r>
       <r>    -6.3254     0.0000    16.0000 </r>
       <r>    -6.2560     0.0000    16.0000 </r>
       <r>    -6.1865     0.0000    16.0000 </r>
       <r>    -6.1171     0.0000    16.0000 </r>
       <r>    -6.0476     0.0000    16.0000 </r>
       <r>    -5.9782     0.0000    16.0000 </r>
       <r>    -5.9087     0.0000    16.0000 </r>
       <r>    -5.8393     0.0000    16.0000 </r>
       <r>    -5.7699     0.0000    16.0000 </r>
       <r>    -5.7004     0.0000    16.0000 </r>
       <r>    -5.6310     0.0000    16.0000 </r>
       <r>    -5.5615     0.0000    16.0000 </r>
       <r>    -5.4921     0.0000    16.0000 </r>
       <r>    -5.4226     0.0000    16.0000 </r>
       <r>    -5.3532     0.0000    16.0000 </r>
       <r>    -5.2838     0.0000    16.0000 </r>
       <r>    -5.2143     0.0000    16.0000 </r>
       <r>    -5.1449     0.0000    16.0000 </r>
       <r>    -5.0754     0.0000    16.0000 </r>
       <r>    -5.0060     0.0000    16.0000 </r>
       <r>    -4.9366     0.0000    16.0000 </r>
       <r>    -4.8671     0.0000    16.0000 </r>
       <r>    -4.7977     0.0000    16.0000 </r>
       <r>    -4.7282     0.0000    16.0000 </r>
       <r>    -4.6588     0.0000    16.0000 </r>
       <r>    -4.5893     0.0000    16.0000 </r>
       <r>    -4.5199     0.0000    16.0000 </r>
       <r>    -4.4505     0.0000    16.0000 </r>
       <r>    -4.3810     0.0000    16.0000 </r>
       <r>    -4.3116     0.0000    16.0000 </r>
       <r>    -4.2421     0.0000    16.0000 </r>
       <r>    -4.1727     0.0000    16.0000 </r>
       <r>    -4.1033     0.0000    16.0000 </r>
       <r>    -4.0338     0.0000    16.0000 </r>
       <r>    -3.9644     0.0000    16.0000 </r>
       <r>    -3.8949     0.0000    16.0000 </r>
       <r>    -3.8255     0.0000    16.0000 </r>
       <r>    -3.7560     0.0000    16.0000 </r>
       <r>    -3.6866     0.0000    16.0000 </r>
       <r>    -3.6172     0.0000    16.0000 </r>
       <r>    -3.5477     0.0000    16.0000 </r>
       <r>    -3.4783     0.0000    16.0000 </r>
       <r>    -3.4088     0.0000    16.0000 </r>
       <r>    -3.3394     0.0001    16.0000 </r>
       <r>    -3.2700     0.0393    16.0027 </r>
       <r>    -3.2005     0.8117    16.0591 </r>
       <r>    -3.1311     1.9090    16.1917 </r>
       <r>    -3.0616     2.3162    16.3525 </r>
       <r>    -2.9922     5.1224    16.7082 </r>
       <r>    -2.9227     3.5736    16.9564 </r>
       <r>    -2.8533     6.0793    17.3785 </r>
       <r>    -2.7839    10.4683    18.1055 </r>
       <r>    -2.7144     9.0204    18.7319 </r>
       <r>    -2.6450     6.5720    19.1882 </r>
       <r>    -2.5755     6.6448    19.6497 </r>
       <r>    -2.5061     1.3499    19.7434 </r>
       <r>    -2.4367     5.1754    20.1028 </r>
       <r>    -2.3672     2.7155    20.2914 </r>
       <r>    -2.2978     0.0761    20.2966 </r>
       <r>    -2.2283     0.4397    20.3272 </r>
       <r>    -2.1589     2.9118    20.5294 </r>
       <r>    -2.0894     7.2296    21.0314 </r>
       <r>    -2.0200     5.0176    21.3798 </r>
       <r>    -1.9506     7.1126    21.8738 </r>
       <r>    -1.8811     9.2817    22.5183 </r>
       <r>    -1.8117     1.4117    22.6163 </r>
       <r>    -1.7422     2.7990    22.8107 </r>
       <r>    -1.6728     4.2733    23.1074 </r>
       <r>    -1.6033     7.8150    23.6501 </r>
       <r>    -1.5339     3.7497    23.9105 </r>
       <r>    -1.4645     0.2216    23.9259 </r>
       <r>    -1.3950     0.0006    23.9259 </r>
       <r>    -1.3256     0.0306    23.9281 </r>
       <r>    -1.2561     1.1968    24.0112 </r>
       <r>    -1.1867     5.7479    24.4103 </r>
       <r>    -1.1173     2.6013    24.5909 </r>
       <r>    -1.0478     1.6904    24.7083 </r>
       <r>    -0.9784     9.3766    25.3594 </r>
       <r>    -0.9089     8.4378    25.9454 </r>
       <r>    -0.8395    14.8752    26.9783 </r>
       <r>    -0.7700    16.4395    28.1199 </r>
       <r>    -0.7006    11.4115    28.9124 </r>
       <r>    -0.6312     6.0376    29.3316 </r>
       <r>    -0.5617    10.4629    30.0582 </r>
       <r>    -0.4923    12.0794    30.8970 </r>
       <r>    -0.4228     9.0211    31.5234 </r>
       <r>    -0.3534    10.1618    32.2291 </r>
       <r>    -0.2840    11.7715    33.0465 </r>
       <r>    -0.2145    15.1266    34.0969 </r>
       <r>    -0.1451    11.3751    34.8869 </r>
       <r>    -0.0756    10.6609    35.6272 </r>
       <r>    -0.0062     6.1724    36.0558 </r>
       <r>     0.0633     4.4956    36.3680 </r>
       <r>     0.1327    11.5598    37.1707 </r>
       <r>     0.2021    12.3301    38.0269 </r>
       <r>     0.2716    11.0062    38.7912 </r>
       <r>     0.3410    16.0262    39.9041 </r>
       <r>     0.4105    17.7542    41.1370 </r>
       <r>     0.4799    16.1183    42.2563 </r>
       <r>     0.5493    12.3028    43.1106 </r>
       <r>     0.6188    11.1389    43.8841 </r>
       <r>     0.6882    18.7038    45.1829 </r>
       <r>     0.7577    15.3624    46.2497 </r>
       <r>     0.8271    15.1736    47.3034 </r>
       <r>     0.8966    16.5922    48.4556 </r>
       <r>     0.9660    13.9788    49.4263 </r>
       <r>     1.0354    13.9947    50.3981 </r>
       <r>     1.1049    15.7938    51.4949 </r>
       <r>     1.1743     8.1915    52.0637 </r>
       <r>     1.2438    15.1764    53.1176 </r>
       <r>     1.3132    16.9605    54.2954 </r>
       <r>     1.3826    15.4842    55.3706 </r>
       <r>     1.4521    16.1227    56.4902 </r>
       <r>     1.5215    17.9446    57.7363 </r>
       <r>     1.5910    25.9495    59.5383 </r>
       <r>     1.6604    24.3634    61.2301 </r>
       <r>     1.7299    23.2626    62.8455 </r>
       <r>     1.7993    14.3221    63.8401 </r>
       <r>     1.8687     1.9575    63.9760 </r>
       <r>     1.9382     0.3383    63.9995 </r>
       <r>     2.0076     0.0072    64.0000 </r>
       <r>     2.0771     0.0000    64.0000 </r>
       <r>     2.1465     0.0000    64.0000 </r>
       <r>     2.2159     0.0000    64.0000 </r>
       <r>     2.2854     0.0000    64.0000 </r>
       <r>     2.3548     0.0000    64.0000 </r>
       <r>     2.4243     0.0000    64.0000 </r>
       <r>     2.4937     0.0000    64.0000 </r>
       <r>     2.5632     0.0000    64.0000 </r>
       <r>     2.6326     0.0000    64.0000 </r>
       <r>     2.7020     0.0000    64.0000 </r>
       <r>     2.7715     0.0000    64.0000 </r>
       <r>     2.8409     0.0000    64.0000 </r>
       <r>     2.9104     0.0000    64.0000 </r>
       <r>     2.9798     0.0000    64.0000 </r>
       <r>     3.0493     0.0000    64.0000 </r>
       <r>     3.1187     0.0000    64.0000 </r>
       <r>     3.1881     0.0000    64.0000 </r>
       <r>     3.2576     0.0000    64.0000 </r>
       <r>     3.3270     0.0000    64.0000 </r>
       <r>     3.3965     0.0000    64.0000 </r>
       <r>     3.4659     0.0000    64.0000 </r>
       <r>     3.5353     0.0000    64.0000 </r>
       <r>     3.6048     0.0000    64.0000 </r>
       <r>     3.6742     0.0000    64.0000 </r>
       <r>     3.7437     0.0000    64.0000 </r>
       <r>     3.8131     0.0000    64.0000 </r>
       <r>     3.8826     0.0000    64.0000 </r>
       <r>     3.9520     0.0000    64.0000 </r>
       <r>     4.0214     0.0000    64.0000 </r>
       <r>     4.0909     0.0000    64.0000 </r>
       <r>     4.1603     0.0000    64.0000 </r>
       <r>     4.2298     0.0000    64.0000 </r>
       <r>     4.2992     0.0000    64.0000 </r>
       <r>     4.3686     0.0000    64.0000 </r>
       <r>     4.4381     0.0000    64.0000 </r>
       <r>     4.5075     0.0000    64.0000 </r>
       <r>     4.5770     0.0000    64.0000 </r>
       <r>     4.6464     0.0000    64.0000 </r>
       <r>     4.7159     0.0000    64.0000 </r>
       <r>     4.7853     0.0000    64.0000 </r>
       <r>     4.8547     0.0000    64.0000 </r>
       <r>     4.9242     0.0000    64.0000 </r>
       <r>     4.9936     0.0000    64.0000 </r>
       <r>     5.0631     0.0000    64.0000 </r>
       <r>     5.1325     0.0000    64.0000 </r>
       <r>     5.2019     0.0000    64.0000 </r>
       <r>     5.2714     0.0000    64.0000 </r>
       <r>     5.3408     0.0000    64.0000 </r>
       <r>     5.4103     0.0000    64.0000 </r>
       <r>     5.4797     0.0000    64.0000 </r>
       <r>     5.5492     0.0000    64.0000 </r>
       <r>     5.6186     0.0000    64.0000 </r>
       <r>     5.6880     0.0000    64.0000 </r>
       <r>     5.7575     0.0000    64.0000 </r>
       <r>     5.8269     0.0000    64.0000 </r>
       <r>     5.8964     0.0161    64.0011 </r>
       <r>     5.9658     0.4403    64.0317 </r>
       <r>     6.0352     1.5517    64.1394 </r>
       <r>     6.1047     4.3425    64.4410 </r>
       <r>     6.1741     1.3631    64.5357 </r>
       <r>     6.2436     4.4478    64.8445 </r>
       <r>     6.3130     6.4849    65.2948 </r>
       <r>     6.3825     4.8302    65.6303 </r>
       <r>     6.4519     7.6736    66.1631 </r>
       <r>     6.5213     7.4700    66.6819 </r>
       <r>     6.5908     9.2224    67.3223 </r>
       <r>     6.6602    12.8675    68.2158 </r>
       <r>     6.7297     8.9587    68.8379 </r>
       <r>     6.7991     8.1156    69.4015 </r>
       <r>     6.8685     5.6986    69.7972 </r>
       <r>     6.9380    13.3623    70.7251 </r>
       <r>     7.0074    13.4678    71.6603 </r>
       <r>     7.0769     9.2052    72.2996 </r>
       <r>     7.1463     8.6671    72.9014 </r>
       <r>     7.2158     7.2554    73.4052 </r>
       <r>     7.2852     3.6207    73.6567 </r>
       <r>     7.3546     9.0831    74.2874 </r>
       <r>     7.4241    18.0271    75.5393 </r>
       <r>     7.4935     9.2140    76.1791 </r>
       <r>     7.5630    10.1180    76.8817 </r>
       <r>     7.6324    12.7963    77.7703 </r>
       <r>     7.7019    11.0494    78.5376 </r>
       <r>     7.7713    12.1660    79.3824 </r>
       <r>     7.8407     9.4489    80.0386 </r>
       <r>     7.9102     7.2020    80.5387 </r>
       <r>     7.9796     5.7832    80.9403 </r>
       <r>     8.0491     6.4627    81.3891 </r>
       <r>     8.1185    10.0542    82.0872 </r>
       <r>     8.1879    11.3927    82.8784 </r>
       <r>     8.2574     5.8540    83.2849 </r>
       <r>     8.3268     2.8362    83.4818 </r>
       <r>     8.3963     2.7996    83.6762 </r>
       <r>     8.4657     0.3934    83.7036 </r>
       <r>     8.5352     0.0052    83.7039 </r>
       <r>     8.6046     0.3271    83.7266 </r>
       <r>     8.6740     2.2027    83.8796 </r>
       <r>     8.7435     1.5976    83.9905 </r>
       <r>     8.8129     0.1356    84.0000 </r>
       <r>     8.8824     0.0007    84.0000 </r>
       <r>     8.9518     0.0000    84.0000 </r>
       <r>     9.0212     0.0000    84.0000 </r>
       <r>     9.0907     0.0000    84.0000 </r>
       <r>     9.1601     0.0000    84.0000 </r>
       <r>     9.2296     0.0000    84.0000 </r>
       <r>     9.2990     0.0000    84.0000 </r>
       <r>     9.3685     0.0000    84.0000 </r>
       <r>     9.4379     0.0000    84.0000 </r>
       <r>     9.5073     0.0000    84.0000 </r>
       <r>     9.5768     0.0000    84.0000 </r>
       <r>     9.6462     0.0000    84.0000 </r>
      </set>
     </set>
    </array>
   </total>
   <partial>
    <array>
     <dimension dim="1">gridpoints</dimension>
     <dimension dim="2">spin</dimension>
     <dimension dim="3">ion</dimension>
     <field>energy</field>
     <field>  s  </field>
     <field>  p  </field>
     <field>  d  </field>
     <set>
      <set comment="ion 1">
       <set comment="spin 1">
        <r>   -11.1863     0.0000     0.0000     0.0000 </r>
        <r>   -11.1169     0.0000     0.0000     0.0000 </r>
        <r>   -11.0474     0.0000     0.0000     0.0000 </r>
        <r>   -10.9780     0.0000     0.0000     0.0000 </r>
        <r>   -10.9086     0.0000     0.0000     0.0000 </r>
        <r>   -10.8391     0.0000     0.0000     0.0000 </r>
        <r>   -10.7697     0.0000     0.0000     0.0000 </r>
        <r>   -10.7002     0.0000     0.0000     0.0000 </r>
        <r>   -10.6308     0.0000     0.0000     0.0000 </r>
        <r>   -10.5613     0.0000     0.0000     0.0000 </r>
        <r>   -10.4919     0.0000     0.0000     0.0000 </r>
        <r>   -10.4225     0.0000     0.0000     0.0000 </r>
        <r>   -10.3530     0.0000     0.0000     0.0000 </r>
        <r>   -10.2836     0.0002     0.0000     0.0000 </r>
        <r>   -10.2141     0.0010     0.0000     0.0000 </r>
        <r>   -10.1447     0.0013     0.0002     0.0000 </r>
        <r>   -10.0752     0.0033     0.0006     0.0000 </r>
        <r>   -10.0058     0.0043     0.0012     0.0000 </r>
        <r>    -9.9364     0.0050     0.0023     0.0000 </r>
        <r>    -9.8669     0.0042     0.0025     0.0000 </r>
        <r>    -9.7975     0.0055     0.0061     0.0000 </r>
        <r>    -9.7280     0.0026     0.0053     0.0000 </r>
        <r>    -9.6586     0.0014     0.0071     0.0000 </r>
        <r>    -9.5892     0.0008     0.0043     0.0000 </r>
        <r>    -9.5197     0.0011     0.0043     0.0000 </r>
        <r>    -9.4503     0.0009     0.0031     0.0000 </r>
        <r>    -9.3808     0.0027     0.0038     0.0000 </r>
[...]
        <r>  0.0006  0.0452  0.0000 </r>
       </set>
       <set comment="band 17">
        <r>  0.0004  0.0038  0.0000 </r>
        <r>  0.0029  0.0010  0.0000 </r>
        <r>  0.0060  0.0032  0.0000 </r>
        <r>  0.0015  0.0028  0.0000 </r>
        <r>  0.0006  0.0045  0.0000 </r>
        <r>  0.0025  0.0218  0.0000 </r>
        <r>  0.0010  0.0091  0.0000 </r>
        <r>  0.0023  0.0018  0.0000 </r>
        <r>  0.0009  0.0143  0.0000 </r>
        <r>  0.0036  0.0778  0.0000 </r>
        <r>  0.0006  0.0813  0.0000 </r>
        <r>  0.0001  0.0390  0.0000 </r>
        <r>  0.0039  0.0481  0.0000 </r>
        <r>  0.0015  0.0245  0.0000 </r>
        <r>  0.0008  0.0684  0.0000 </r>
        <r>  0.0006  0.0265  0.0000 </r>
       </set>
       <set comment="band 18">
        <r>  0.0007  0.0012  0.0000 </r>
        <r>  0.0065  0.0015  0.0000 </r>
        <r>  0.0036  0.0006  0.0000 </r>
        <r>  0.0039  0.0016  0.0000 </r>
        <r>  0.0004  0.0074  0.0000 </r>
        <r>  0.0011  0.0038  0.0000 </r>
        <r>  0.0003  0.0149  0.0000 </r>
        <r>  0.0010  0.0158  0.0000 </r>
        <r>  0.0004  0.0653  0.0000 </r>
        <r>  0.0006  0.0953  0.0000 </r>
        <r>  0.0026  0.0117  0.0000 </r>
        <r>  0.0001  0.0438  0.0000 </r>
        <r>  0.0002  0.0725  0.0000 </r>
        <r>  0.0006  0.0506  0.0000 </r>
        <r>  0.0020  0.0237  0.0000 </r>
        <r>  0.0009  0.0381  0.0000 </r>
       </set>
       <set comment="band 19">
        <r>  0.0042  0.0028  0.0000 </r>
        <r>  0.0035  0.0045  0.0000 </r>
        <r>  0.0029  0.0025  0.0000 </r>
        <r>  0.0027  0.0007  0.0000 </r>
        <r>  0.0008  0.0059  0.0000 </r>
        <r>  0.0020  0.0075  0.0000 </r>
        <r>  0.0029  0.0026  0.0000 </r>
        <r>  0.0019  0.0086  0.0000 </r>
        <r>  0.0018  0.0371  0.0000 </r>
        <r>  0.0032  0.0232  0.0000 </r>
        <r>  0.0019  0.0643  0.0000 </r>
        <r>  0.0015  0.0382  0.0000 </r>
        <r>  0.0027  0.0291  0.0000 </r>
        <r>  0.0022  0.0931  0.0000 </r>
        <r>  0.0015  0.0364  0.0000 </r>
        <r>  0.0011  0.0770  0.0000 </r>
       </set>
       <set comment="band 20">
        <r>  0.0013  0.0016  0.0000 </r>
        <r>  0.0003  0.0054  0.0000 </r>
        <r>  0.0023  0.0059  0.0000 </r>
        <r>  0.0044  0.0023  0.0000 </r>
        <r>  0.0021  0.0094  0.0000 </r>
        <r>  0.0027  0.0022  0.0000 </r>
        <r>  0.0011  0.0094  0.0000 </r>
        <r>  0.0020  0.0099  0.0000 </r>
        <r>  0.0000  0.0595  0.0000 </r>
        <r>  0.0003  0.0602  0.0000 </r>
        <r>  0.0001  0.0646  0.0000 </r>
        <r>  0.0008  0.0436  0.0000 </r>
        <r>  0.0003  0.0278  0.0000 </r>
        <r>  0.0010  0.0703  0.0000 </r>
        <r>  0.0031  0.0806  0.0000 </r>
        <r>  0.0025  0.0135  0.0000 </r>
       </set>
       <set comment="band 21">
        <r>  0.0027  0.0038  0.0000 </r>
        <r>  0.0008  0.0011  0.0000 </r>
        <r>  0.0001  0.0043  0.0000 </r>
        <r>  0.0016  0.0028  0.0000 </r>
        <r>  0.0003  0.0104  0.0000 </r>
        <r>  0.0009  0.0174  0.0000 </r>
        <r>  0.0015  0.0107  0.0000 </r>
        <r>  0.0005  0.0049  0.0000 </r>
        <r>  0.0019  0.0385  0.0000 </r>
        <r>  0.0005  0.0608  0.0000 </r>
        <r>  0.0001  0.0702  0.0000 </r>
        <r>  0.0016  0.0866  0.0000 </r>
        <r>  0.0014  0.0669  0.0000 </r>
        <r>  0.0002  0.0078  0.0000 </r>
        <r>  0.0010  0.0321  0.0000 </r>
        <r>  0.0003  0.0645  0.0000 </r>
       </set>
       <set comment="band 22">
        <r>  0.0058  0.0019  0.0000 </r>
        <r>  0.0035  0.0008  0.0000 </r>
        <r>  0.0028  0.0015  0.0000 </r>
        <r>  0.0034  0.0015  0.0000 </r>
        <r>  0.0006  0.0087  0.0000 </r>
        <r>  0.0000  0.0062  0.0000 </r>
        <r>  0.0007  0.0079  0.0000 </r>
        <r>  0.0008  0.0155  0.0000 </r>
        <r>  0.0010  0.1239  0.0000 </r>
        <r>  0.0003  0.0232  0.0000 </r>
        <r>  0.0001  0.0332  0.0000 </r>
        <r>  0.0003  0.0769  0.0000 </r>
        <r>  0.0002  0.0709  0.0000 </r>
        <r>  0.0001  0.0599  0.0000 </r>
        <r>  0.0003  0.0174  0.0000 </r>
        <r>  0.0001  0.0442  0.0000 </r>
       </set>
       <set comment="band 23">
        <r>  0.0002  0.0013  0.0000 </r>
        <r>  0.0011  0.0027  0.0000 </r>
        <r>  0.0061  0.0029  0.0000 </r>
        <r>  0.0045  0.0053  0.0000 </r>
        <r>  0.0013  0.0134  0.0000 </r>
        <r>  0.0006  0.0021  0.0000 </r>
        <r>  0.0001  0.0064  0.0000 </r>
        <r>  0.0001  0.0093  0.0000 </r>
        <r>  0.0004  0.0380  0.0000 </r>
        <r>  0.0001  0.0227  0.0000 </r>
        <r>  0.0004  0.0338  0.0000 </r>
        <r>  0.0006  0.0860  0.0000 </r>
        <r>  0.0003  0.0882  0.0000 </r>
        <r>  0.0000  0.0512  0.0000 </r>
        <r>  0.0006  0.0634  0.0000 </r>
        <r>  0.0003  0.0709  0.0000 </r>
       </set>
       <set comment="band 24">
        <r>  0.0034  0.0036  0.0000 </r>
        <r>  0.0068  0.0042  0.0000 </r>
        <r>  0.0011  0.0006  0.0000 </r>
        <r>  0.0008  0.0026  0.0000 </r>
        <r>  0.0014  0.0075  0.0000 </r>
        <r>  0.0004  0.0125  0.0000 </r>
        <r>  0.0005  0.0085  0.0000 </r>
        <r>  0.0006  0.0064  0.0000 </r>
        <r>  0.0019  0.0361  0.0000 </r>
        <r>  0.0000  0.0279  0.0000 </r>
        <r>  0.0002  0.0097  0.0000 </r>
        <r>  0.0000  0.0280  0.0000 </r>
        <r>  0.0000  0.0390  0.0000 </r>
        <r>  0.0004  0.0637  0.0000 </r>
        <r>  0.0004  0.1196  0.0000 </r>
        <r>  0.0011  0.1341  0.0000 </r>
       </set>
       <set comment="band 25">
        <r>  0.0018  0.0024  0.0000 </r>
        <r>  0.0008  0.0077  0.0000 </r>
        <r>  0.0010  0.0048  0.0000 </r>
        <r>  0.0007  0.0020  0.0000 </r>
        <r>  0.0002  0.0114  0.0000 </r>
        <r>  0.0006  0.0027  0.0000 </r>
        <r>  0.0004  0.0037  0.0000 </r>
        <r>  0.0001  0.0085  0.0000 </r>
        <r>  0.0011  0.0650  0.0000 </r>
        <r>  0.0009  0.0348  0.0000 </r>
        <r>  0.0004  0.0660  0.0000 </r>
        <r>  0.0005  0.0237  0.0000 </r>
        <r>  0.0006  0.0267  0.0000 </r>
        <r>  0.0011  0.0997  0.0000 </r>
        <r>  0.0011  0.0901  0.0000 </r>
        <r>  0.0005  0.0500  0.0000 </r>
       </set>
       <set comment="band 26">
        <r>  0.0004  0.0083  0.0000 </r>
        <r>  0.0003  0.0013  0.0000 </r>
        <r>  0.0003  0.0021  0.0000 </r>
        <r>  0.0001  0.0055  0.0000 </r>
        <r>  0.0004  0.0019  0.0000 </r>
        <r>  0.0003  0.0091  0.0000 </r>
        <r>  0.0001  0.0130  0.0000 </r>
        <r>  0.0005  0.0031  0.0000 </r>
        <r>  0.0006  0.0217  0.0000 </r>
        <r>  0.0012  0.1266  0.0000 </r>
        <r>  0.0015  0.1053  0.0000 </r>
        <r>  0.0004  0.0339  0.0000 </r>
        <r>  0.0010  0.0900  0.0000 </r>
        <r>  0.0008  0.0283  0.0000 </r>
        <r>  0.0005  0.0181  0.0000 </r>
        <r>  0.0008  0.0407  0.0000 </r>
       </set>
       <set comment="band 27">
        <r>  0.0018  0.0038  0.0000 </r>
        <r>  0.0013  0.0038  0.0000 </r>
        <r>  0.0022  0.0044  0.0000 </r>
        <r>  0.0009  0.0064  0.0000 </r>
        <r>  0.0004  0.0037  0.0000 </r>
        <r>  0.0001  0.0034  0.0000 </r>
        <r>  0.0002  0.0018  0.0000 </r>
        <r>  0.0006  0.0042  0.0000 </r>
        <r>  0.0002  0.1324  0.0000 </r>
        <r>  0.0001  0.0167  0.0000 </r>
        <r>  0.0003  0.0617  0.0000 </r>
        <r>  0.0002  0.0718  0.0000 </r>
        <r>  0.0003  0.0414  0.0000 </r>
        <r>  0.0003  0.0617  0.0000 </r>
        <r>  0.0003  0.0284  0.0000 </r>
        <r>  0.0014  0.0628  0.0000 </r>
       </set>
       <set comment="band 28">
        <r>  0.0033  0.0077  0.0000 </r>
        <r>  0.0003  0.0054  0.0000 </r>
        <r>  0.0003  0.0061  0.0000 </r>
        <r>  0.0036  0.0033  0.0000 </r>
        <r>  0.0002  0.0008  0.0000 </r>
        <r>  0.0001  0.0018  0.0000 </r>
        <r>  0.0001  0.0017  0.0000 </r>
        <r>  0.0002  0.0029  0.0000 </r>
        <r>  0.0001  0.0200  0.0000 </r>
        <r>  0.0000  0.1365  0.0000 </r>
        <r>  0.0002  0.0617  0.0000 </r>
        <r>  0.0004  0.0894  0.0000 </r>
        <r>  0.0002  0.0795  0.0000 </r>
        <r>  0.0007  0.0379  0.0000 </r>
        <r>  0.0004  0.0319  0.0000 </r>
        <r>  0.0000  0.0276  0.0000 </r>
       </set>
       <set comment="band 29">
        <r>  0.0009  0.0065  0.0000 </r>
        <r>  0.0008  0.0026  0.0000 </r>
        <r>  0.0008  0.0057  0.0000 </r>
        <r>  0.0001  0.0097  0.0000 </r>
        <r>  0.0003  0.0013  0.0000 </r>
        <r>  0.0006  0.0029  0.0000 </r>
        <r>  0.0003  0.0029  0.0000 </r>
        <r>  0.0002  0.0011  0.0000 </r>
        <r>  0.0003  0.0348  0.0000 </r>
        <r>  0.0002  0.0241  0.0000 </r>
        <r>  0.0011  0.0749  0.0000 </r>
        <r>  0.0001  0.0486  0.0000 </r>
        <r>  0.0002  0.1157  0.0000 </r>
        <r>  0.0002  0.0193  0.0000 </r>
        <r>  0.0002  0.0726  0.0000 </r>
        <r>  0.0001  0.1099  0.0000 </r>
       </set>
       <set comment="band 30">
        <r>  0.0005  0.0029  0.0000 </r>
        <r>  0.0002  0.0074  0.0000 </r>
        <r>  0.0006  0.0075  0.0000 </r>
        <r>  0.0006  0.0072  0.0000 </r>
        <r>  0.0001  0.0026  0.0000 </r>
        <r>  0.0002  0.0007  0.0000 </r>
        <r>  0.0004  0.0014  0.0000 </r>
        <r>  0.0002  0.0018  0.0000 </r>
        <r>  0.0003  0.0351  0.0000 </r>
        <r>  0.0001  0.0633  0.0000 </r>
        <r>  0.0000  0.0394  0.0000 </r>
        <r>  0.0005  0.1007  0.0000 </r>
        <r>  0.0001  0.0293  0.0000 </r>
        <r>  0.0002  0.1027  0.0000 </r>
        <r>  0.0001  0.0928  0.0000 </r>
        <r>  0.0000  0.0389  0.0000 </r>
       </set>
       <set comment="band 31">
        <r>  0.0011  0.0077  0.0000 </r>
        <r>  0.0009  0.0049  0.0000 </r>
        <r>  0.0004  0.0059  0.0000 </r>
        <r>  0.0004  0.0063  0.0000 </r>
        <r>  0.0005  0.0010  0.0000 </r>
        <r>  0.0000  0.0015  0.0000 </r>
        <r>  0.0001  0.0014  0.0000 </r>
        <r>  0.0001  0.0011  0.0000 </r>
        <r>  0.0000  0.0837  0.0000 </r>
        <r>  0.0005  0.0523  0.0000 </r>
        <r>  0.0001  0.0152  0.0000 </r>
        <r>  0.0000  0.0804  0.0000 </r>
        <r>  0.0001  0.0906  0.0000 </r>
        <r>  0.0000  0.0551  0.0000 </r>
        <r>  0.0002  0.0686  0.0000 </r>
        <r>  0.0001  0.0591  0.0000 </r>
       </set>
       <set comment="band 32">
        <r>  0.0000  0.0050  0.0000 </r>
        <r>  0.0006  0.0101  0.0000 </r>
        <r>  0.0009  0.0070  0.0000 </r>
        <r>  0.0007  0.0043  0.0000 </r>
        <r>  0.0001  0.0004  0.0000 </r>
        <r>  0.0003  0.0013  0.0000 </r>
        <r>  0.0003  0.0009  0.0000 </r>
        <r>  0.0002  0.0009  0.0000 </r>
        <r>  0.0001  0.0911  0.0000 </r>
        <r>  0.0003  0.0800  0.0000 </r>
        <r>  0.0000  0.1117  0.0000 </r>
        <r>  0.0001  0.0187  0.0000 </r>
        <r>  0.0002  0.0134  0.0000 </r>
        <r>  0.0002  0.0866  0.0000 </r>
        <r>  0.0002  0.0570  0.0000 </r>
        <r>  0.0001  0.0541  0.0000 </r>
       </set>
       <set comment="band 33">
        <r>  0.0001  0.0055  0.0000 </r>
        <r>  0.0003  0.0058  0.0000 </r>
        <r>  0.0014  0.0056  0.0000 </r>
        <r>  0.0001  0.0056  0.0000 </r>
        <r>  0.0459  0.0066  0.0000 </r>
        <r>  0.0005  0.0140  0.0000 </r>
        <r>  0.0014  0.0168  0.0000 </r>
        <r>  0.0476  0.0073  0.0000 </r>
        <r>  0.0160  0.0077  0.0000 </r>
        <r>  0.0006  0.0045  0.0000 </r>
        <r>  0.0021  0.0029  0.0000 </r>
        <r>  0.0035  0.0151  0.0000 </r>
        <r>  0.0097  0.0036  0.0000 </r>
        <r>  0.0021  0.0070  0.0000 </r>
        <r>  0.0085  0.0115  0.0000 </r>
        <r>  0.0067  0.0022  0.0000 </r>
       </set>
       <set comment="band 34">
        <r>  0.0004  0.0064  0.0000 </r>
        <r>  0.0009  0.0016  0.0000 </r>
        <r>  0.0011  0.0042  0.0000 </r>
        <r>  0.0006  0.0025  0.0000 </r>
        <r>  0.0145  0.0061  0.0000 </r>
        <r>  0.0032  0.0162  0.0000 </r>
        <r>  0.0584  0.0067  0.0000 </r>
        <r>  0.0230  0.0137  0.0000 </r>
        <r>  0.0009  0.0114  0.0000 </r>
        <r>  0.0049  0.0142  0.0000 </r>
        <r>  0.0138  0.0112  0.0000 </r>
        <r>  0.0057  0.0044  0.0000 </r>
        <r>  0.0080  0.0178  0.0000 </r>
        <r>  0.0111  0.0100  0.0000 </r>
        <r>  0.0032  0.0045  0.0000 </r>
        <r>  0.0022  0.0086  0.0000 </r>
       </set>
       <set comment="band 35">
        <r>  0.0002  0.0028  0.0000 </r>
        <r>  0.0008  0.0035  0.0000 </r>
        <r>  0.0000  0.0026  0.0000 </r>
        <r>  0.0012  0.0008  0.0000 </r>
        <r>  0.0041  0.0215  0.0000 </r>
        <r>  0.0939  0.0031  0.0000 </r>
        <r>  0.0154  0.0071  0.0000 </r>
        <r>  0.0115  0.0052  0.0000 </r>
        <r>  0.0008  0.0097  0.0000 </r>
        <r>  0.0200  0.0175  0.0000 </r>
        <r>  0.0027  0.0254  0.0000 </r>
        <r>  0.0040  0.0058  0.0000 </r>
        <r>  0.0000  0.0061  0.0000 </r>
        <r>  0.0035  0.0062  0.0000 </r>
        <r>  0.0170  0.0208  0.0000 </r>
        <r>  0.0107  0.0158  0.0000 </r>
       </set>
       <set comment="band 36">
        <r>  0.0009  0.0069  0.0000 </r>
        <r>  0.0003  0.0044  0.0000 </r>
        <r>  0.0003  0.0051  0.0000 </r>
        <r>  0.0015  0.0060  0.0000 </r>
        <r>  0.0413  0.0148  0.0000 </r>
        <r>  0.0094  0.0163  0.0000 </r>
        <r>  0.0200  0.0063  0.0000 </r>
        <r>  0.0176  0.0103  0.0000 </r>
        <r>  0.0026  0.0090  0.0000 </r>
        <r>  0.0027  0.0050  0.0000 </r>
        <r>  0.0019  0.0133  0.0000 </r>
        <r>  0.0083  0.0168  0.0000 </r>
        <r>  0.0100  0.0011  0.0000 </r>
        <r>  0.0051  0.0171  0.0000 </r>
        <r>  0.0067  0.0037  0.0000 </r>
        <r>  0.0136  0.0138  0.0000 </r>
       </set>
       <set comment="band 37">
        <r>  0.0001  0.0029  0.0000 </r>
        <r>  0.0069  0.0023  0.0000 </r>
        <r>  0.0011  0.0037  0.0000 </r>
        <r>  0.0008  0.0039  0.0000 </r>
        <r>  0.0011  0.0088  0.0000 </r>
        <r>  0.0025  0.0201  0.0000 </r>
        <r>  0.0077  0.0377  0.0000 </r>
        <r>  0.0019  0.0234  0.0000 </r>
        <r>  0.0032  0.0058  0.0000 </r>
        <r>  0.0060  0.0175  0.0000 </r>
        <r>  0.0035  0.0056  0.0000 </r>
        <r>  0.0010  0.0116  0.0000 </r>
        <r>  0.0031  0.0114  0.0000 </r>
        <r>  0.0193  0.0020  0.0000 </r>
        <r>  0.0032  0.0093  0.0000 </r>
        <r>  0.0019  0.0092  0.0000 </r>
       </set>
       <set comment="band 38">
        <r>  0.0015  0.0022  0.0000 </r>
        <r>  0.0007  0.0044  0.0000 </r>
        <r>  0.0028  0.0037  0.0000 </r>
        <r>  0.0007  0.0059  0.0000 </r>
        <r>  0.0204  0.0223  0.0000 </r>
        <r>  0.0052  0.0141  0.0000 </r>
        <r>  0.0329  0.0128  0.0000 </r>
        <r>  0.0013  0.0138  0.0000 </r>
        <r>  0.0062  0.0174  0.0000 </r>
        <r>  0.0029  0.0099  0.0000 </r>
        <r>  0.0083  0.0082  0.0000 </r>
        <r>  0.0108  0.0043  0.0000 </r>
        <r>  0.0050  0.0170  0.0000 </r>
        <r>  0.0004  0.0120  0.0000 </r>
        <r>  0.0021  0.0053  0.0000 </r>
        <r>  0.0058  0.0028  0.0000 </r>
       </set>
       <set comment="band 39">
        <r>  0.0006  0.0033  0.0000 </r>
        <r>  0.0032  0.0070  0.0000 </r>
        <r>  0.0016  0.0081  0.0000 </r>
        <r>  0.0040  0.0065  0.0000 </r>
        <r>  0.0073  0.0134  0.0000 </r>
        <r>  0.0169  0.0139  0.0000 </r>
        <r>  0.0171  0.0033  0.0000 </r>
        <r>  0.0128  0.0088  0.0000 </r>
        <r>  0.0004  0.0110  0.0000 </r>
        <r>  0.0006  0.0147  0.0000 </r>
        <r>  0.0097  0.0197  0.0000 </r>
        <r>  0.0073  0.0111  0.0000 </r>
        <r>  0.0001  0.0099  0.0000 </r>
        <r>  0.0034  0.0040  0.0000 </r>
        <r>  0.0026  0.0069  0.0000 </r>
        <r>  0.0014  0.0184  0.0000 </r>
       </set>
       <set comment="band 40">
        <r>  0.0012  0.0053  0.0000 </r>
        <r>  0.0005  0.0045  0.0000 </r>
        <r>  0.0002  0.0079  0.0000 </r>
        <r>  0.0004  0.0039  0.0000 </r>
        <r>  0.0050  0.0181  0.0000 </r>
        <r>  0.0249  0.0047  0.0000 </r>
        <r>  0.0015  0.0065  0.0000 </r>
        <r>  0.0089  0.0336  0.0000 </r>
        <r>  0.0043  0.0084  0.0000 </r>
        <r>  0.0024  0.0090  0.0000 </r>
        <r>  0.0019  0.0092  0.0000 </r>
        <r>  0.0088  0.0099  0.0000 </r>
        <r>  0.0094  0.0115  0.0000 </r>
        <r>  0.0059  0.0153  0.0000 </r>
        <r>  0.0012  0.0103  0.0000 </r>
        <r>  0.0017  0.0143  0.0000 </r>
       </set>
       <set comment="band 41">
        <r>  0.0054  0.0064  0.0000 </r>
        <r>  0.0001  0.0074  0.0000 </r>
        <r>  0.0001  0.0051  0.0000 </r>
        <r>  0.0004  0.0158  0.0000 </r>
        <r>  0.0005  0.0134  0.0000 </r>
        <r>  0.0033  0.0099  0.0000 </r>
        <r>  0.0076  0.0120  0.0000 </r>
        <r>  0.0198  0.0081  0.0000 </r>
        <r>  0.0114  0.0104  0.0000 </r>
        <r>  0.0000  0.0032  0.0000 </r>
        <r>  0.0089  0.0139  0.0000 </r>
        <r>  0.0008  0.0135  0.0000 </r>
        <r>  0.0061  0.0133  0.0000 </r>
        <r>  0.0002  0.0300  0.0000 </r>
        <r>  0.0016  0.0093  0.0000 </r>
        <r>  0.0050  0.0060  0.0000 </r>
       </set>
       <set comment="band 42">
        <r>  0.0015  0.0083  0.0000 </r>
        <r>  0.0001  0.0124  0.0000 </r>
        <r>  0.0068  0.0027  0.0000 </r>
        <r>  0.0016  0.0081  0.0000 </r>
        <r>  0.0018  0.0158  0.0000 </r>
        <r>  0.0083  0.0152  0.0000 </r>
        <r>  0.0085  0.0124  0.0000 </r>
        <r>  0.0126  0.0113  0.0000 </r>
        <r>  0.0000  0.0198  0.0000 </r>
        <r>  0.0084  0.0161  0.0000 </r>
        <r>  0.0041  0.0061  0.0000 </r>
        <r>  0.0076  0.0025  0.0000 </r>
        <r>  0.0041  0.0168  0.0000 </r>
        <r>  0.0030  0.0141  0.0000 </r>
        <r>  0.0027  0.0084  0.0000 </r>
        <r>  0.0085  0.0174  0.0000 </r>
       </set>
      </set>
     </set>
    </set>
   </array>
  </projected>
 </calculation>
 <structure name="finalpos" >
  <crystal>
   <varray name="basis" >
    <v>       6.26612804       0.00000000       0.00000000 </v>
    <v>       0.00000000       6.55780510       0.00000000 </v>
    <v>       0.00000000       0.00000000       7.85712069 </v>
   </varray>
   <i name="volume">    322.86516854 </i>
   <varray name="rec_basis" >
    <v>       0.15958818       0.00000000       0.00000000 </v>
    <v>       0.00000000       0.15249005       0.00000000 </v>
    <v>       0.00000000       0.00000000       0.12727309 </v>
   </varray>
  </crystal>
  <varray name="positions" >
   <v>       0.11956298       0.91338572       0.62171235 </v>
   <v>       0.61956298       0.08661428       0.37828765 </v>
   <v>       0.61956298       0.58661428       0.12171235 </v>
   <v>       0.11956298       0.41338572       0.87828765 </v>
   <v>       0.62236035       0.57358773       0.62563107 </v>
   <v>       0.12236035       0.42641227       0.37436893 </v>
   <v>       0.12236035       0.92641227       0.12563107 </v>
   <v>       0.62236035       0.07358773       0.87436893 </v>
   <v>       0.51006853       0.90402410       0.63821084 </v>
   <v>       0.01006853       0.09597590       0.36178916 </v>
   <v>       0.01006853       0.59597590       0.13821084 </v>
   <v>       0.51006853       0.40402410       0.86178916 </v>
   <v>       0.98600713       0.06474235       0.88518154 </v>
   <v>       0.48600813       0.93525765       0.11481846 </v>
   <v>       0.48600813       0.43525765       0.38518154 </v>
   <v>       0.98600713       0.56474235       0.61481846 </v>
  </varray>
 </structure>
</modeling>
