CIS                                     
           1
     6.589574    0.000000    0.000000
     0.000000    6.869532    0.000000
     0.000000    0.000000    8.264280
   Li   Al   S 
   4   4   8
Direct configuration=     1
   0.11960890  0.91360938  0.62158584
   0.61960890  0.08639062  0.37841416
   0.61960890  0.58639062  0.12158584
   0.11960890  0.41360938  0.87841416
   0.62273089  0.57334526  0.62580377
   0.12273089  0.42665474  0.37419623
   0.12273089  0.92665474  0.12580377
   0.62273089  0.07334526  0.87419623
   0.50583385  0.90660799  0.63443971
   0.00583385  0.09339201  0.36556029
   0.00583385  0.59339201  0.13443971
   0.50583385  0.40660799  0.86556029
   0.98982535  0.06671919  0.88119243
   0.48982635  0.93328081  0.11880757
   0.48982635  0.43328081  0.38119243
   0.98982535  0.56671919  0.61880757
CIS                                     
           1
     6.519770    0.000000    0.000000
     0.000000    6.802258    0.000000
     0.000000    0.000000    8.176410
   Li   Al   S 
   4   4   8
Direct configuration=     2
   0.11959913  0.91356172  0.62161277
   0.61959913  0.08643828  0.37838723
   0.61959913  0.58643828  0.12161277
   0.11959913  0.41356172  0.87838723
   0.62265201  0.57339693  0.62576701
   0.12265201  0.42660307  0.37423299
   0.12265201  0.92660307  0.12576701
   0.62265201  0.07339693  0.87423299
   0.50673531  0.90605736  0.63524245
   0.00673531  0.09394264  0.36475755
   0.00673531  0.59394264  0.13524245
   0.50673531  0.40605736  0.86475755
   0.98901254  0.06629792  0.88204157
   0.48901354  0.93370208  0.11795843
   0.48901354  0.43370208  0.38204157
   0.98901254  0.56629792  0.61795843
CIS                                     
           1
     6.330588    0.000000    0.000000
     0.000000    6.619929    0.000000
     0.000000    0.000000    7.938264
   Li   Al   S 
   4   4   8
Direct configuration=     3
   0.11957235  0.91343126  0.62168654
   0.61957235  0.08656874  0.37831346
   0.61957235  0.58656874  0.12168654
   0.11957235  0.41343126  0.87831346
   0.62243594  0.57353835  0.62566631
   0.12243594  0.42646165  0.37433369
   0.12243594  0.92646165  0.12566631
   0.62243594  0.07353835  0.87433369
   0.50920462  0.90455029  0.63744143
   0.00920462  0.09544971  0.36255857
   0.00920462  0.59544971  0.13744143
   0.50920462  0.40455029  0.86255857
   0.98678608  0.06514491  0.88436766
   0.48678708  0.93485509  0.11563234
   0.48678708  0.43485509  0.38436766
   0.98678608  0.56514491  0.61563234
CIS                                     
           1
     6.250962    0.000000    0.000000
     0.000000    6.543189    0.000000
     0.000000    0.000000    7.838030
   Li   Al   S 
   4   4   8
Direct configuration=     4
   0.11956074  0.91337485  0.62171852
   0.61956074  0.08662515  0.37828148
   0.61956074  0.58662515  0.12171852
   0.11956074  0.41337485  0.87828148
   0.62234228  0.57359952  0.62562265
   0.12234228  0.42640048  0.37437735
   0.12234228  0.92640048  0.12562265
   0.62234228  0.07359952  0.87437735
   0.51027499  0.90389850  0.63839473
   0.01027499  0.09610150  0.36160527
   0.01027499  0.59610150  0.13839473
   0.51027499  0.40389850  0.86160527
   0.98582097  0.06464626  0.88537606
   0.48582197  0.93535374  0.11462394
   0.48582197  0.43535374  0.38537606
   0.98582097  0.56464626  0.61462394
CIS                                     
           1
     6.266128    0.000000    0.000000
     0.000000    6.557805    0.000000
     0.000000    0.000000    7.857121
   Li   Al   S 
   4   4   8
Direct configuration=     5
   0.11956298  0.91338572  0.62171235
   0.61956298  0.08661428  0.37828765
   0.61956298  0.58661428  0.12171235
   0.11956298  0.41338572  0.87828765
   0.62236035  0.57358773  0.62563107
   0.12236035  0.42641227  0.37436893
   0.12236035  0.92641227  0.12563107
   0.62236035  0.07358773  0.87436893
   0.51006853  0.90402410  0.63821084
   0.01006853  0.09597590  0.36178916
   0.01006853  0.59597590  0.13821084
   0.51006853  0.40402410  0.86178916
   0.98600713  0.06474235  0.88518154
   0.48600813  0.93525765  0.11481846
   0.48600813  0.43525765  0.38518154
   0.98600713  0.56474235  0.61481846
