  18  18   1   0
  0.1931881E+02  0.3522639E-09  0.9849915E-09  0.1076016E-08  0.1000000E-15
  1.000000000000000E-004
  CAR 
 CIS                                     
      6.55216436    -11.61678754  301      2.55878014      1.00000000
    -11.617  0.0000E+00  0.0000E+00
    -11.556  0.0000E+00  0.0000E+00
    -11.496  0.0000E+00  0.0000E+00
    -11.435  0.0000E+00  0.0000E+00
    -11.375  0.0000E+00  0.0000E+00
    -11.314  0.0000E+00  0.0000E+00
    -11.253  0.0000E+00  0.0000E+00
    -11.193  0.0000E+00  0.0000E+00
    -11.132  0.0000E+00  0.0000E+00
    -11.072  0.1975E-15  0.1196E-16
    -11.011  0.4792E-10  0.2902E-11
    -10.951  0.6574E-06  0.3982E-07
    -10.890  0.5390E-03  0.3269E-04
    -10.829  0.2945E-01  0.1816E-02
    -10.769  0.1322E+00  0.9821E-02
    -10.708  0.6997E-01  0.1406E-01
    -10.648  0.1585E+00  0.2366E-01
    -10.587  0.3671E+00  0.4589E-01
    -10.527  0.5344E+00  0.7825E-01
    -10.466  0.5146E+00  0.1094E+00
    -10.406  0.1837E+00  0.1205E+00
    -10.345  0.1098E-01  0.1212E+00
    -10.284  0.6242E-04  0.1212E+00
    -10.224  0.2479E-07  0.1212E+00
    -10.163  0.5973E-12  0.1212E+00
    -10.103  0.6881E-12  0.1212E+00
    -10.042  0.1648E-07  0.1212E+00
     -9.982  0.2380E-04  0.1212E+00
     -9.921  0.2428E-02  0.1214E+00
     -9.860  0.2637E-01  0.1230E+00
     -9.800  0.5605E-01  0.1264E+00
     -9.739  0.2720E-01  0.1280E+00
     -9.679  0.2582E-01  0.1296E+00
     -9.618  0.4059E-01  0.1320E+00
     -9.558  0.6664E-01  0.1361E+00
     -9.497  0.7637E-01  0.1407E+00
     -9.437  0.4737E-01  0.1436E+00
     -9.376  0.3900E-01  0.1459E+00
     -9.315  0.3507E-01  0.1480E+00
     -9.255  0.4647E-01  0.1509E+00
     -9.194  0.5980E-01  0.1545E+00
     -9.134  0.1318E+00  0.1625E+00
     -9.073  0.1305E+00  0.1704E+00
     -9.013  0.1330E+00  0.1784E+00
     -8.952  0.1379E+00  0.1868E+00
     -8.891  0.1767E+00  0.1975E+00
     -8.831  0.1851E+00  0.2087E+00
     -8.770  0.1374E+00  0.2170E+00
     -8.710  0.1765E+00  0.2277E+00
     -8.649  0.3507E+00  0.2489E+00
     -8.589  0.4244E+00  0.2746E+00
     -8.528  0.2724E+00  0.2911E+00
     -8.468  0.1264E+00  0.2988E+00
     -8.407  0.2321E+00  0.3128E+00
     -8.346  0.1564E+00  0.3223E+00
     -8.286  0.1519E-01  0.3232E+00
     -8.225  0.1560E-03  0.3232E+00
     -8.165  0.1226E-06  0.3232E+00
     -8.104  0.6177E-11  0.3232E+00
     -8.044  0.1852E-16  0.3232E+00
     -7.983  0.0000E+00  0.3232E+00
     -7.922  0.0000E+00  0.3232E+00
     -7.862  0.0000E+00  0.3232E+00
     -7.801  0.0000E+00  0.3232E+00
     -7.741  0.0000E+00  0.3232E+00
     -7.680  0.0000E+00  0.3232E+00
     -7.620  0.0000E+00  0.3232E+00
     -7.559  0.0000E+00  0.3232E+00
     -7.498  0.0000E+00  0.3232E+00
     -7.438  0.0000E+00  0.3232E+00
     -7.377  0.0000E+00  0.3232E+00
     -7.317  0.0000E+00  0.3232E+00
     -7.256  0.0000E+00  0.3232E+00
     -7.196  0.0000E+00  0.3232E+00
     -7.135  0.0000E+00  0.3232E+00
     -7.075  0.0000E+00  0.3232E+00
     -7.014  0.0000E+00  0.3232E+00
     -6.953  0.0000E+00  0.3232E+00
     -6.893  0.0000E+00  0.3232E+00
     -6.832  0.0000E+00  0.3232E+00
     -6.772  0.0000E+00  0.3232E+00
     -6.711  0.0000E+00  0.3232E+00
     -6.651  0.0000E+00  0.3232E+00
     -6.590  0.0000E+00  0.3232E+00
     -6.529  0.0000E+00  0.3232E+00
     -6.469  0.0000E+00  0.3232E+00
     -6.408  0.0000E+00  0.3232E+00
     -6.348  0.0000E+00  0.3232E+00
     -6.287  0.0000E+00  0.3232E+00
     -6.227  0.0000E+00  0.3232E+00
     -6.166  0.0000E+00  0.3232E+00
     -6.106  0.0000E+00  0.3232E+00
     -6.045  0.0000E+00  0.3232E+00
     -5.984  0.0000E+00  0.3232E+00
     -5.924  0.0000E+00  0.3232E+00
     -5.863  0.0000E+00  0.3232E+00
     -5.803  0.0000E+00  0.3232E+00
     -5.742  0.0000E+00  0.3232E+00
     -5.682  0.0000E+00  0.3232E+00
     -5.621  0.0000E+00  0.3232E+00
     -5.560  0.0000E+00  0.3232E+00
     -5.500  0.0000E+00  0.3232E+00
     -5.439  0.0000E+00  0.3232E+00
     -5.379  0.0000E+00  0.3232E+00
     -5.318  0.0000E+00  0.3232E+00
     -5.258  0.0000E+00  0.3232E+00
     -5.197  0.0000E+00  0.3232E+00
     -5.137  0.0000E+00  0.3232E+00
     -5.076  0.0000E+00  0.3232E+00
     -5.015  0.0000E+00  0.3232E+00
     -4.955  0.0000E+00  0.3232E+00
     -4.894  0.0000E+00  0.3232E+00
     -4.834  0.0000E+00  0.3232E+00
     -4.773  0.0000E+00  0.3232E+00
     -4.713  0.0000E+00  0.3232E+00
     -4.652  0.0000E+00  0.3232E+00
     -4.591  0.0000E+00  0.3232E+00
     -4.531  0.0000E+00  0.3232E+00
     -4.470  0.0000E+00  0.3232E+00
     -4.410  0.0000E+00  0.3232E+00
     -4.349  0.0000E+00  0.3232E+00
     -4.289  0.0000E+00  0.3232E+00
     -4.228  0.0000E+00  0.3232E+00
     -4.168  0.0000E+00  0.3232E+00
     -4.107  0.0000E+00  0.3232E+00
     -4.046  0.0000E+00  0.3232E+00
     -3.986  0.0000E+00  0.3232E+00
     -3.925  0.0000E+00  0.3232E+00
     -3.865  0.0000E+00  0.3232E+00
     -3.804  0.0000E+00  0.3232E+00
     -3.744  0.0000E+00  0.3232E+00
     -3.683  0.0000E+00  0.3232E+00
     -3.622  0.0000E+00  0.3232E+00
     -3.562  0.0000E+00  0.3232E+00
     -3.501  0.0000E+00  0.3232E+00
     -3.441  0.0000E+00  0.3232E+00
     -3.380  0.0000E+00  0.3232E+00
     -3.320  0.0000E+00  0.3232E+00
     -3.259  0.0000E+00  0.3232E+00
     -3.199  0.0000E+00  0.3232E+00
     -3.138  0.0000E+00  0.3232E+00
     -3.077  0.0000E+00  0.3232E+00
     -3.017  0.0000E+00  0.3232E+00
     -2.956  0.0000E+00  0.3232E+00
     -2.896  0.0000E+00  0.3232E+00
     -2.835  0.0000E+00  0.3232E+00
     -2.775  0.0000E+00  0.3232E+00
     -2.714  0.0000E+00  0.3232E+00
     -2.653  0.0000E+00  0.3232E+00
     -2.593  0.0000E+00  0.3232E+00
     -2.532  0.0000E+00  0.3232E+00
     -2.472  0.0000E+00  0.3232E+00
     -2.411  0.0000E+00  0.3232E+00
     -2.351  0.0000E+00  0.3232E+00
     -2.290  0.0000E+00  0.3232E+00
     -2.229  0.0000E+00  0.3232E+00
     -2.169  0.0000E+00  0.3232E+00
     -2.108  0.0000E+00  0.3232E+00
     -2.048  0.0000E+00  0.3232E+00
     -1.987  0.0000E+00  0.3232E+00
     -1.927  0.0000E+00  0.3232E+00
     -1.866  0.2567E-13  0.3232E+00
     -1.806  0.1352E-08  0.3232E+00
     -1.745  0.4201E-05  0.3232E+00
     -1.684  0.8626E-03  0.3233E+00
     -1.624  0.1577E-01  0.3242E+00
     -1.563  0.5731E-01  0.3277E+00
     -1.503  0.1048E+00  0.3341E+00
     -1.442  0.7307E-01  0.3385E+00
     -1.382  0.5825E-01  0.3420E+00
     -1.321  0.7200E-01  0.3464E+00
     -1.260  0.1127E+00  0.3532E+00
     -1.200  0.1088E+00  0.3598E+00
     -1.139  0.7610E-01  0.3644E+00
     -1.079  0.6571E-01  0.3684E+00
     -1.018  0.7048E-01  0.3726E+00
     -0.958  0.1016E+00  0.3788E+00
     -0.897  0.1502E+00  0.3879E+00
     -0.837  0.2097E+00  0.4006E+00
     -0.776  0.2390E+00  0.4151E+00
     -0.715  0.1708E+00  0.4254E+00
     -0.655  0.1245E+00  0.4330E+00
     -0.594  0.1626E+00  0.4428E+00
     -0.534  0.1501E+00  0.4519E+00
     -0.473  0.1464E+00  0.4608E+00
     -0.413  0.1201E+00  0.4680E+00
     -0.352  0.7296E-01  0.4725E+00
     -0.291  0.1266E+00  0.4801E+00
     -0.231  0.1159E+00  0.4871E+00
     -0.170  0.1008E+00  0.4932E+00
     -0.110  0.6318E-01  0.4971E+00
     -0.049  0.1268E+00  0.5048E+00
      0.011  0.1666E+00  0.5148E+00
      0.072  0.1339E+00  0.5230E+00
      0.132  0.1143E+00  0.5299E+00
      0.193  0.1473E+00  0.5388E+00
      0.254  0.2175E+00  0.5520E+00
      0.314  0.2074E+00  0.5645E+00
      0.375  0.2312E+00  0.5785E+00
      0.435  0.2013E+00  0.5907E+00
      0.496  0.2731E+00  0.6073E+00
      0.556  0.2567E+00  0.6228E+00
      0.617  0.2450E+00  0.6376E+00
      0.678  0.3148E+00  0.6567E+00
      0.738  0.2946E+00  0.6746E+00
      0.799  0.2514E+00  0.6898E+00
      0.859  0.2381E+00  0.7042E+00
      0.920  0.2277E+00  0.7180E+00
      0.980  0.2642E+00  0.7340E+00
      1.041  0.3175E+00  0.7532E+00
      1.101  0.2998E+00  0.7714E+00
      1.162  0.2507E+00  0.7866E+00
      1.223  0.1600E+00  0.7962E+00
      1.283  0.1425E+00  0.8049E+00
      1.344  0.1815E+00  0.8159E+00
      1.404  0.2259E+00  0.8295E+00
      1.465  0.1683E+00  0.8397E+00
      1.525  0.1586E+00  0.8493E+00
      1.586  0.1809E+00  0.8603E+00
      1.647  0.1254E+00  0.8679E+00
      1.707  0.1165E+00  0.8749E+00
      1.768  0.1300E+00  0.8828E+00
      1.828  0.1089E+00  0.8894E+00
      1.889  0.1154E+00  0.8964E+00
      1.949  0.8879E-01  0.9018E+00
      2.010  0.6899E-01  0.9060E+00
      2.070  0.8818E-01  0.9113E+00
      2.131  0.6719E-01  0.9154E+00
      2.192  0.4600E-01  0.9181E+00
      2.252  0.6182E-01  0.9219E+00
      2.313  0.6772E-01  0.9260E+00
      2.373  0.4631E-01  0.9288E+00
      2.434  0.8013E-02  0.9293E+00
      2.494  0.1429E-03  0.9293E+00
      2.555  0.1781E-06  0.9293E+00
      2.616  0.1342E-10  0.9293E+00
      2.676  0.5555E-16  0.9293E+00
      2.737  0.0000E+00  0.9293E+00
      2.797  0.0000E+00  0.9293E+00
      2.858  0.0000E+00  0.9293E+00
      2.918  0.0000E+00  0.9293E+00
      2.979  0.0000E+00  0.9293E+00
      3.040  0.0000E+00  0.9293E+00
      3.100  0.0000E+00  0.9293E+00
      3.161  0.0000E+00  0.9293E+00
      3.221  0.0000E+00  0.9293E+00
      3.282  0.0000E+00  0.9293E+00
      3.342  0.0000E+00  0.9293E+00
      3.403  0.0000E+00  0.9293E+00
      3.463  0.0000E+00  0.9293E+00
      3.524  0.0000E+00  0.9293E+00
      3.585  0.0000E+00  0.9293E+00
      3.645  0.0000E+00  0.9293E+00
      3.706  0.0000E+00  0.9293E+00
      3.766  0.0000E+00  0.9293E+00
      3.827  0.3865E-14  0.9293E+00
      3.887  0.3261E-09  0.9293E+00
      3.948  0.1642E-05  0.9293E+00
      4.009  0.5400E-03  0.9293E+00
      4.069  0.1395E-01  0.9302E+00
      4.130  0.4884E-01  0.9331E+00
      4.190  0.9225E-01  0.9387E+00
      4.251  0.7116E-01  0.9430E+00
      4.311  0.7516E-01  0.9476E+00
      4.372  0.8057E-01  0.9525E+00
      4.432  0.7286E-01  0.9569E+00
      4.493  0.1046E+00  0.9632E+00
      4.554  0.9943E-01  0.9692E+00
      4.614  0.1048E+00  0.9756E+00
      4.675  0.1083E+00  0.9821E+00
      4.735  0.1206E+00  0.9894E+00
      4.796  0.1192E+00  0.9967E+00
      4.856  0.1572E+00  0.1006E+01
      4.917  0.2130E+00  0.1019E+01
      4.978  0.2004E+00  0.1031E+01
      5.038  0.2223E+00  0.1045E+01
      5.099  0.1962E+00  0.1057E+01
      5.159  0.1434E+00  0.1065E+01
      5.220  0.1931E+00  0.1077E+01
      5.280  0.2127E+00  0.1090E+01
      5.341  0.1404E+00  0.1098E+01
      5.401  0.9754E-01  0.1104E+01
      5.462  0.1056E+00  0.1111E+01
      5.523  0.6938E-01  0.1115E+01
      5.583  0.7437E-01  0.1119E+01
      5.644  0.7039E-01  0.1124E+01
      5.704  0.7536E-01  0.1128E+01
      5.765  0.4637E-01  0.1131E+01
      5.825  0.5395E-02  0.1131E+01
      5.886  0.7808E-04  0.1131E+01
      5.947  0.9016E-07  0.1131E+01
      6.007  0.6576E-11  0.1131E+01
      6.068  0.2778E-16  0.1131E+01
      6.128  0.0000E+00  0.1131E+01
      6.189  0.0000E+00  0.1131E+01
      6.249  0.0000E+00  0.1131E+01
      6.310  0.0000E+00  0.1131E+01
      6.370  0.0000E+00  0.1131E+01
      6.431  0.0000E+00  0.1131E+01
      6.492  0.0000E+00  0.1131E+01
      6.552  0.0000E+00  0.1131E+01
      6.55216436    -11.61678754  301      2.55878014      1.00000000
    -11.617  0.0000E+00  0.0000E+00  0.0000E+00
    -11.556  0.0000E+00  0.0000E+00  0.0000E+00
    -11.496  0.0000E+00  0.0000E+00  0.0000E+00
    -11.435  0.0000E+00  0.0000E+00  0.0000E+00
    -11.375  0.0000E+00  0.0000E+00  0.0000E+00
    -11.314  0.0000E+00  0.0000E+00  0.0000E+00
    -11.253  0.0000E+00  0.0000E+00  0.0000E+00
    -11.193  0.0000E+00  0.0000E+00  0.0000E+00
    -11.132  0.0000E+00  0.0000E+00  0.0000E+00
    -11.072  0.6604E-18  0.9237E-14  0.2769E-18
    -11.011  0.1614E-12  0.2254E-08  0.6750E-13
    -10.951  0.2224E-08  0.3103E-04  0.9286E-09
    -10.890  0.1830E-05  0.2552E-01  0.7635E-06
    -10.829  0.1004E-03  0.1399E+01  0.4182E-04
    -10.769  0.4528E-03  0.6293E+01  0.1884E-03
    -10.708  0.3593E-03  0.3338E+01  0.1376E-03
    -10.648  0.1710E-02  0.7520E+01  0.5842E-03
    -10.587  0.1900E-02  0.1738E+02  0.7353E-03
    -10.527  0.5047E-03  0.2549E+02  0.5636E-03
    -10.466  0.5954E-03  0.2486E+02  0.6321E-03
    -10.406  0.2243E-03  0.8945E+01  0.2163E-03
    -10.345  0.8151E-05  0.5369E+00  0.1058E-04
    -10.284  0.2220E-07  0.3059E-02  0.5124E-07
    -10.224  0.4275E-11  0.1218E-05  0.1879E-10
    -10.163  0.6037E-16  0.2944E-10  0.4386E-15
    -10.103  0.2025E-13  0.1207E-11  0.4545E-15
    -10.042  0.4841E-09  0.2895E-07  0.1088E-10
     -9.982  0.6938E-06  0.4202E-04  0.1570E-07
     -9.921  0.6894E-04  0.4354E-02  0.1617E-05
     -9.860  0.7070E-03  0.4801E-01  0.1972E-04
     -9.800  0.1458E-02  0.9713E-01  0.5592E-04
     -9.739  0.6744E-03  0.4309E-01  0.3276E-04
     -9.679  0.1149E-03  0.3811E-01  0.2888E-04
     -9.618  0.2328E-03  0.5080E-01  0.6369E-04
     -9.558  0.6137E-03  0.5875E-01  0.1568E-03
     -9.497  0.7438E-03  0.6486E-01  0.1709E-03
     -9.437  0.3363E-03  0.3068E-01  0.9382E-04
     -9.376  0.1266E-03  0.2058E-01  0.9047E-04
     -9.315  0.2135E-03  0.1376E-01  0.8334E-04
     -9.255  0.5700E-03  0.2190E-01  0.9867E-04
     -9.194  0.4966E-03  0.1782E-01  0.1493E-03
     -9.134  0.8557E-03  0.3052E-01  0.3263E-03
     -9.073  0.1147E-02  0.3734E-01  0.3012E-03
     -9.013  0.3161E-02  0.7709E-01  0.4946E-03
     -8.952  0.2862E-02  0.8557E-01  0.6144E-03
     -8.891  0.2729E-02  0.8693E-01  0.8873E-03
     -8.831  0.3621E-02  0.1049E+00  0.1144E-02
     -8.770  0.3101E-02  0.6646E-01  0.1031E-02
     -8.710  0.4723E-02  0.8877E-01  0.1879E-02
     -8.649  0.8033E-02  0.2313E+00  0.4259E-02
     -8.589  0.6620E-02  0.3019E+00  0.6168E-02
     -8.528  0.2931E-02  0.1603E+00  0.4057E-02
     -8.468  0.1090E-02  0.6493E-01  0.2077E-02
     -8.407  0.2333E-02  0.1226E+00  0.4258E-02
     -8.346  0.1194E-02  0.6933E-01  0.2950E-02
     -8.286  0.7624E-04  0.5451E-02  0.2915E-03
     -8.225  0.5135E-06  0.4786E-04  0.2986E-05
     -8.165  0.2963E-09  0.3475E-07  0.2315E-08
     -8.104  0.1232E-13  0.1698E-11  0.1146E-12
     -8.044  0.3104E-19  0.5066E-17  0.3280E-18
     -7.983  0.0000E+00  0.0000E+00  0.0000E+00
     -7.922  0.0000E+00  0.0000E+00  0.0000E+00
     -7.862  0.0000E+00  0.0000E+00  0.0000E+00
     -7.801  0.0000E+00  0.0000E+00  0.0000E+00
     -7.741  0.0000E+00  0.0000E+00  0.0000E+00
     -7.680  0.0000E+00  0.0000E+00  0.0000E+00
     -7.620  0.0000E+00  0.0000E+00  0.0000E+00
     -7.559  0.0000E+00  0.0000E+00  0.0000E+00
     -7.498  0.0000E+00  0.0000E+00  0.0000E+00
     -7.438  0.0000E+00  0.0000E+00  0.0000E+00
     -7.377  0.0000E+00  0.0000E+00  0.0000E+00
     -7.317  0.0000E+00  0.0000E+00  0.0000E+00
     -7.256  0.0000E+00  0.0000E+00  0.0000E+00
     -7.196  0.0000E+00  0.0000E+00  0.0000E+00
     -7.135  0.0000E+00  0.0000E+00  0.0000E+00
     -7.075  0.0000E+00  0.0000E+00  0.0000E+00
     -7.014  0.0000E+00  0.0000E+00  0.0000E+00
     -6.953  0.0000E+00  0.0000E+00  0.0000E+00
     -6.893  0.0000E+00  0.0000E+00  0.0000E+00
     -6.832  0.0000E+00  0.0000E+00  0.0000E+00
     -6.772  0.0000E+00  0.0000E+00  0.0000E+00
     -6.711  0.0000E+00  0.0000E+00  0.0000E+00
     -6.651  0.0000E+00  0.0000E+00  0.0000E+00
     -6.590  0.0000E+00  0.0000E+00  0.0000E+00
     -6.529  0.0000E+00  0.0000E+00  0.0000E+00
     -6.469  0.0000E+00  0.0000E+00  0.0000E+00
     -6.408  0.0000E+00  0.0000E+00  0.0000E+00
     -6.348  0.0000E+00  0.0000E+00  0.0000E+00
     -6.287  0.0000E+00  0.0000E+00  0.0000E+00
     -6.227  0.0000E+00  0.0000E+00  0.0000E+00
     -6.166  0.0000E+00  0.0000E+00  0.0000E+00
     -6.106  0.0000E+00  0.0000E+00  0.0000E+00
     -6.045  0.0000E+00  0.0000E+00  0.0000E+00
     -5.984  0.0000E+00  0.0000E+00  0.0000E+00
     -5.924  0.0000E+00  0.0000E+00  0.0000E+00
     -5.863  0.0000E+00  0.0000E+00  0.0000E+00
     -5.803  0.0000E+00  0.0000E+00  0.0000E+00
     -5.742  0.0000E+00  0.0000E+00  0.0000E+00
     -5.682  0.0000E+00  0.0000E+00  0.0000E+00
     -5.621  0.0000E+00  0.0000E+00  0.0000E+00
     -5.560  0.0000E+00  0.0000E+00  0.0000E+00
     -5.500  0.0000E+00  0.0000E+00  0.0000E+00
     -5.439  0.0000E+00  0.0000E+00  0.0000E+00
     -5.379  0.0000E+00  0.0000E+00  0.0000E+00
     -5.318  0.0000E+00  0.0000E+00  0.0000E+00
     -5.258  0.0000E+00  0.0000E+00  0.0000E+00
     -5.197  0.0000E+00  0.0000E+00  0.0000E+00
     -5.137  0.0000E+00  0.0000E+00  0.0000E+00
     -5.076  0.0000E+00  0.0000E+00  0.0000E+00
     -5.015  0.0000E+00  0.0000E+00  0.0000E+00
     -4.955  0.0000E+00  0.0000E+00  0.0000E+00
     -4.894  0.0000E+00  0.0000E+00  0.0000E+00
     -4.834  0.0000E+00  0.0000E+00  0.0000E+00
     -4.773  0.0000E+00  0.0000E+00  0.0000E+00
     -4.713  0.0000E+00  0.0000E+00  0.0000E+00
     -4.652  0.0000E+00  0.0000E+00  0.0000E+00
     -4.591  0.0000E+00  0.0000E+00  0.0000E+00
     -4.531  0.0000E+00  0.0000E+00  0.0000E+00
     -4.470  0.0000E+00  0.0000E+00  0.0000E+00
     -4.410  0.0000E+00  0.0000E+00  0.0000E+00
     -4.349  0.0000E+00  0.0000E+00  0.0000E+00
     -4.289  0.0000E+00  0.0000E+00  0.0000E+00
     -4.228  0.0000E+00  0.0000E+00  0.0000E+00
     -4.168  0.0000E+00  0.0000E+00  0.0000E+00
     -4.107  0.0000E+00  0.0000E+00  0.0000E+00
     -4.046  0.0000E+00  0.0000E+00  0.0000E+00
     -3.986  0.0000E+00  0.0000E+00  0.0000E+00
     -3.925  0.0000E+00  0.0000E+00  0.0000E+00
     -3.865  0.0000E+00  0.0000E+00  0.0000E+00
     -3.804  0.0000E+00  0.0000E+00  0.0000E+00
     -3.744  0.0000E+00  0.0000E+00  0.0000E+00
     -3.683  0.0000E+00  0.0000E+00  0.0000E+00
     -3.622  0.0000E+00  0.0000E+00  0.0000E+00
     -3.562  0.0000E+00  0.0000E+00  0.0000E+00
     -3.501  0.0000E+00  0.0000E+00  0.0000E+00
     -3.441  0.0000E+00  0.0000E+00  0.0000E+00
     -3.380  0.0000E+00  0.0000E+00  0.0000E+00
     -3.320  0.0000E+00  0.0000E+00  0.0000E+00
     -3.259  0.0000E+00  0.0000E+00  0.0000E+00
     -3.199  0.0000E+00  0.0000E+00  0.0000E+00
     -3.138  0.0000E+00  0.0000E+00  0.0000E+00
     -3.077  0.0000E+00  0.0000E+00  0.0000E+00
     -3.017  0.0000E+00  0.0000E+00  0.0000E+00
     -2.956  0.0000E+00  0.0000E+00  0.0000E+00
     -2.896  0.0000E+00  0.0000E+00  0.0000E+00
     -2.835  0.0000E+00  0.0000E+00  0.0000E+00
     -2.775  0.0000E+00  0.0000E+00  0.0000E+00
     -2.714  0.0000E+00  0.0000E+00  0.0000E+00
     -2.653  0.0000E+00  0.0000E+00  0.0000E+00
     -2.593  0.0000E+00  0.0000E+00  0.0000E+00
     -2.532  0.0000E+00  0.0000E+00  0.0000E+00
     -2.472  0.0000E+00  0.0000E+00  0.0000E+00
     -2.411  0.0000E+00  0.0000E+00  0.0000E+00
     -2.351  0.0000E+00  0.0000E+00  0.0000E+00
     -2.290  0.0000E+00  0.0000E+00  0.0000E+00
     -2.229  0.0000E+00  0.0000E+00  0.0000E+00
     -2.169  0.0000E+00  0.0000E+00  0.0000E+00
     -2.108  0.0000E+00  0.0000E+00  0.0000E+00
     -2.048  0.0000E+00  0.0000E+00  0.0000E+00
     -1.987  0.0000E+00  0.0000E+00  0.0000E+00
     -1.927  0.0000E+00  0.0000E+00  0.0000E+00
     -1.866  0.4968E-15  0.1541E-14  0.2751E-15
     -1.806  0.2614E-10  0.8120E-10  0.1449E-10
     -1.745  0.8074E-07  0.2525E-06  0.4497E-07
     -1.684  0.1623E-04  0.5197E-04  0.9221E-05
     -1.624  0.2749E-03  0.9384E-03  0.1757E-03
     -1.563  0.7929E-03  0.2875E-02  0.8605E-03
     -1.503  0.1415E-02  0.4304E-02  0.1907E-02
     -1.442  0.1749E-02  0.3900E-02  0.1533E-02
     -1.382  0.1873E-02  0.5527E-02  0.1432E-02
     -1.321  0.2592E-02  0.5873E-02  0.2205E-02
     -1.260  0.8869E-02  0.9773E-02  0.3192E-02
     -1.200  0.7707E-02  0.9914E-02  0.2794E-02
     -1.139  0.4101E-02  0.5690E-02  0.2137E-02
     -1.079  0.2782E-02  0.3645E-02  0.1910E-02
     -1.018  0.5551E-02  0.8556E-02  0.2812E-02
     -0.958  0.1417E-01  0.2063E-01  0.5229E-02
     -0.897  0.1436E-01  0.2675E-01  0.7499E-02
     -0.837  0.2798E-01  0.3581E-01  0.8287E-02
     -0.776  0.4505E-01  0.4186E-01  0.1015E-01
     -0.715  0.3328E-01  0.2651E-01  0.8866E-02
     -0.655  0.1193E-01  0.1509E-01  0.6966E-02
     -0.594  0.1659E-01  0.2361E-01  0.8535E-02
     -0.534  0.2899E-01  0.2851E-01  0.7375E-02
     -0.473  0.3845E-01  0.4020E-01  0.7097E-02
     -0.413  0.3786E-01  0.3238E-01  0.5298E-02
     -0.352  0.1890E-01  0.2181E-01  0.3738E-02
     -0.291  0.2504E-01  0.4724E-01  0.6809E-02
     -0.231  0.1995E-01  0.4473E-01  0.8026E-02
     -0.170  0.1024E-01  0.3944E-01  0.1046E-01
     -0.110  0.4546E-02  0.2525E-01  0.7291E-02
     -0.049  0.1393E-01  0.4267E-01  0.1134E-01
      0.011  0.2084E-01  0.6022E-01  0.1482E-01
      0.072  0.2370E-01  0.4270E-01  0.1142E-01
      0.132  0.1671E-01  0.3363E-01  0.8260E-02
      0.193  0.1809E-01  0.5174E-01  0.1244E-01
      0.254  0.2241E-01  0.7754E-01  0.2247E-01
      0.314  0.1867E-01  0.6391E-01  0.2210E-01
      0.375  0.1843E-01  0.5799E-01  0.2465E-01
      0.435  0.1791E-01  0.4639E-01  0.2094E-01
      0.496  0.2668E-01  0.5783E-01  0.3018E-01
      0.556  0.1960E-01  0.6402E-01  0.3302E-01
      0.617  0.1864E-01  0.6037E-01  0.2836E-01
      0.678  0.2135E-01  0.7062E-01  0.3808E-01
      0.738  0.1726E-01  0.7869E-01  0.3689E-01
      0.799  0.1150E-01  0.5331E-01  0.2751E-01
      0.859  0.1846E-01  0.4618E-01  0.2743E-01
      0.920  0.1800E-01  0.4007E-01  0.3205E-01
      0.980  0.1675E-01  0.3519E-01  0.3620E-01
      1.041  0.2140E-01  0.6337E-01  0.3637E-01
      1.101  0.2133E-01  0.6627E-01  0.4133E-01
      1.162  0.1921E-01  0.6325E-01  0.4310E-01
      1.223  0.1496E-01  0.4373E-01  0.3207E-01
      1.283  0.1714E-01  0.3164E-01  0.2795E-01
      1.344  0.1314E-01  0.3575E-01  0.2726E-01
      1.404  0.1750E-01  0.5064E-01  0.2942E-01
      1.465  0.9114E-02  0.3238E-01  0.2187E-01
      1.525  0.4941E-02  0.1489E-01  0.2342E-01
      1.586  0.1099E-01  0.1825E-01  0.2233E-01
      1.647  0.7508E-02  0.1622E-01  0.1658E-01
      1.707  0.2746E-02  0.1873E-01  0.1772E-01
      1.768  0.2447E-02  0.2346E-01  0.1867E-01
      1.828  0.1918E-02  0.1763E-01  0.1572E-01
      1.889  0.2522E-02  0.1735E-01  0.1169E-01
      1.949  0.4584E-02  0.1554E-01  0.1002E-01
      2.010  0.8934E-02  0.1517E-01  0.1199E-01
      2.070  0.7735E-02  0.1457E-01  0.1427E-01
      2.131  0.5541E-02  0.1133E-01  0.9653E-02
      2.192  0.3169E-02  0.9184E-02  0.5130E-02
      2.252  0.2591E-02  0.1399E-01  0.5028E-02
      2.313  0.2938E-02  0.1585E-01  0.5320E-02
      2.373  0.1172E-02  0.6398E-02  0.2801E-02
      2.434  0.1490E-03  0.5612E-03  0.3557E-03
      2.494  0.2486E-05  0.7359E-05  0.5746E-05
      2.555  0.3017E-08  0.8426E-08  0.7097E-08
      2.616  0.2226E-12  0.6169E-12  0.5405E-12
      2.676  0.8926E-18  0.2483E-17  0.2282E-17
      2.737  0.0000E+00  0.0000E+00  0.0000E+00
      2.797  0.0000E+00  0.0000E+00  0.0000E+00
      2.858  0.0000E+00  0.0000E+00  0.0000E+00
      2.918  0.0000E+00  0.0000E+00  0.0000E+00
      2.979  0.0000E+00  0.0000E+00  0.0000E+00
      3.040  0.0000E+00  0.0000E+00  0.0000E+00
      3.100  0.0000E+00  0.0000E+00  0.0000E+00
      3.161  0.0000E+00  0.0000E+00  0.0000E+00
      3.221  0.0000E+00  0.0000E+00  0.0000E+00
      3.282  0.0000E+00  0.0000E+00  0.0000E+00
      3.342  0.0000E+00  0.0000E+00  0.0000E+00
      3.403  0.0000E+00  0.0000E+00  0.0000E+00
      3.463  0.0000E+00  0.0000E+00  0.0000E+00
      3.524  0.0000E+00  0.0000E+00  0.0000E+00
      3.585  0.0000E+00  0.0000E+00  0.0000E+00
      3.645  0.0000E+00  0.0000E+00  0.0000E+00
      3.706  0.0000E+00  0.0000E+00  0.0000E+00
      3.766  0.0000E+00  0.0000E+00  0.0000E+00
      3.827  0.2020E-15  0.7838E-15  0.1093E-14
      3.887  0.1853E-10  0.6516E-10  0.9232E-10
      3.948  0.1074E-06  0.3190E-06  0.4660E-06
      4.009  0.4319E-04  0.9988E-04  0.1538E-03
      4.069  0.1471E-02  0.2368E-02  0.3977E-02
      4.130  0.8823E-02  0.6359E-02  0.1288E-01
      4.190  0.2327E-01  0.7869E-02  0.1799E-01
      4.251  0.1552E-01  0.6687E-02  0.1107E-01
      4.311  0.1073E-01  0.9878E-02  0.7606E-02
      4.372  0.9424E-02  0.1170E-01  0.7540E-02
      4.432  0.6595E-02  0.1371E-01  0.1169E-01
      4.493  0.1260E-01  0.1567E-01  0.1929E-01
      4.554  0.1516E-01  0.1489E-01  0.1519E-01
      4.614  0.1097E-01  0.1057E-01  0.1305E-01
      4.675  0.6850E-02  0.1340E-01  0.1481E-01
      4.735  0.4273E-02  0.1835E-01  0.1547E-01
      4.796  0.6905E-02  0.1185E-01  0.1368E-01
      4.856  0.1486E-01  0.1576E-01  0.2366E-01
      4.917  0.1750E-01  0.2187E-01  0.2688E-01
      4.978  0.1251E-01  0.1819E-01  0.2431E-01
      5.038  0.1609E-01  0.1781E-01  0.3341E-01
      5.099  0.1225E-01  0.1895E-01  0.2675E-01
      5.159  0.1019E-01  0.1462E-01  0.1814E-01
      5.220  0.2065E-01  0.1750E-01  0.2695E-01
      5.280  0.2947E-01  0.2101E-01  0.3366E-01
      5.341  0.1733E-01  0.1580E-01  0.1929E-01
      5.401  0.7206E-02  0.1031E-01  0.1179E-01
      5.462  0.4268E-02  0.1229E-01  0.1303E-01
      5.523  0.1687E-02  0.7921E-02  0.4984E-02
      5.583  0.1283E-02  0.8059E-02  0.4152E-02
      5.644  0.1844E-02  0.4996E-02  0.4448E-02
      5.704  0.2188E-02  0.2906E-02  0.3769E-02
      5.765  0.1400E-02  0.1616E-02  0.1946E-02
      5.825  0.2076E-03  0.1578E-03  0.1776E-03
      5.886  0.3517E-05  0.1909E-05  0.2107E-05
      5.947  0.4298E-08  0.2024E-08  0.2226E-08
      6.007  0.3189E-12  0.1434E-12  0.1575E-12
      6.068  0.1356E-17  0.5984E-18  0.6566E-18
      6.128  0.0000E+00  0.0000E+00  0.0000E+00
      6.189  0.0000E+00  0.0000E+00  0.0000E+00
      6.249  0.0000E+00  0.0000E+00  0.0000E+00
      6.310  0.0000E+00  0.0000E+00  0.0000E+00
      6.370  0.0000E+00  0.0000E+00  0.0000E+00
      6.431  0.0000E+00  0.0000E+00  0.0000E+00
      6.492  0.0000E+00  0.0000E+00  0.0000E+00
      6.552  0.0000E+00  0.0000E+00  0.0000E+00
      6.55216436    -11.61678754  301      2.55878014      1.00000000
    -11.617  0.0000E+00  0.0000E+00  0.0000E+00
    -11.556  0.0000E+00  0.0000E+00  0.0000E+00
    -11.496  0.0000E+00  0.0000E+00  0.0000E+00
    -11.435  0.0000E+00  0.0000E+00  0.0000E+00
    -11.375  0.0000E+00  0.0000E+00  0.0000E+00
    -11.314  0.0000E+00  0.0000E+00  0.0000E+00
    -11.253  0.0000E+00  0.0000E+00  0.0000E+00
    -11.193  0.0000E+00  0.0000E+00  0.0000E+00
    -11.132  0.0000E+00  0.0000E+00  0.0000E+00
    -11.072  0.6844E-18  0.9579E-14  0.2873E-18
    -11.011  0.1654E-12  0.2311E-08  0.6923E-13
    -10.951  0.2263E-08  0.3160E-04  0.9464E-09
    -10.890  0.1851E-05  0.2583E-01  0.7733E-06
    -10.829  0.1009E-03  0.1407E+01  0.4211E-04
    -10.769  0.4530E-03  0.6298E+01  0.1887E-03
    -10.708  0.3594E-03  0.3330E+01  0.1378E-03
    -10.648  0.1713E-02  0.7538E+01  0.5858E-03
    -10.587  0.1893E-02  0.1740E+02  0.7346E-03
    -10.527  0.5039E-03  0.2552E+02  0.5641E-03
    -10.466  0.5954E-03  0.2484E+02  0.6319E-03
    -10.406  0.2229E-03  0.8903E+01  0.2152E-03
    -10.345  0.8038E-05  0.5316E+00  0.1047E-04
    -10.284  0.2173E-07  0.3011E-02  0.5042E-07
    -10.224  0.4154E-11  0.1192E-05  0.1838E-10
    -10.163  0.5833E-16  0.2862E-10  0.4262E-15
    -10.103  0.2023E-13  0.1205E-11  0.4541E-15
    -10.042  0.4836E-09  0.2890E-07  0.1087E-10
     -9.982  0.6931E-06  0.4195E-04  0.1569E-07
     -9.921  0.6887E-04  0.4347E-02  0.1616E-05
     -9.860  0.7063E-03  0.4794E-01  0.1971E-04
     -9.800  0.1457E-02  0.9699E-01  0.5591E-04
     -9.739  0.6736E-03  0.4303E-01  0.3275E-04
     -9.679  0.1144E-03  0.3805E-01  0.2881E-04
     -9.618  0.2321E-03  0.5070E-01  0.6359E-04
     -9.558  0.6123E-03  0.5862E-01  0.1567E-03
     -9.497  0.7423E-03  0.6474E-01  0.1708E-03
     -9.437  0.3354E-03  0.3061E-01  0.9364E-04
     -9.376  0.1259E-03  0.2051E-01  0.9028E-04
     -9.315  0.2129E-03  0.1372E-01  0.8313E-04
     -9.255  0.5695E-03  0.2187E-01  0.9836E-04
     -9.194  0.4963E-03  0.1779E-01  0.1489E-03
     -9.134  0.8549E-03  0.3043E-01  0.3254E-03
     -9.073  0.1144E-02  0.3718E-01  0.3000E-03
     -9.013  0.3156E-02  0.7687E-01  0.4932E-03
     -8.952  0.2856E-02  0.8533E-01  0.6124E-03
     -8.891  0.2734E-02  0.8691E-01  0.8857E-03
     -8.831  0.3627E-02  0.1048E+00  0.1142E-02
     -8.770  0.3082E-02  0.6627E-01  0.1026E-02
     -8.710  0.4702E-02  0.8840E-01  0.1871E-02
     -8.649  0.8030E-02  0.2306E+00  0.4248E-02
     -8.589  0.6627E-02  0.3018E+00  0.6165E-02
     -8.528  0.2940E-02  0.1606E+00  0.4065E-02
     -8.468  0.1094E-02  0.6511E-01  0.2081E-02
     -8.407  0.2341E-02  0.1228E+00  0.4259E-02
     -8.346  0.1199E-02  0.6954E-01  0.2956E-02
     -8.286  0.7662E-04  0.5477E-02  0.2926E-03
     -8.225  0.5167E-06  0.4816E-04  0.3001E-05
     -8.165  0.2985E-09  0.3499E-07  0.2327E-08
     -8.104  0.1242E-13  0.1711E-11  0.1152E-12
     -8.044  0.3133E-19  0.5103E-17  0.3297E-18
     -7.983  0.0000E+00  0.0000E+00  0.0000E+00
     -7.922  0.0000E+00  0.0000E+00  0.0000E+00
     -7.862  0.0000E+00  0.0000E+00  0.0000E+00
     -7.801  0.0000E+00  0.0000E+00  0.0000E+00
     -7.741  0.0000E+00  0.0000E+00  0.0000E+00
     -7.680  0.0000E+00  0.0000E+00  0.0000E+00
     -7.620  0.0000E+00  0.0000E+00  0.0000E+00
     -7.559  0.0000E+00  0.0000E+00  0.0000E+00
     -7.498  0.0000E+00  0.0000E+00  0.0000E+00
     -7.438  0.0000E+00  0.0000E+00  0.0000E+00
     -7.377  0.0000E+00  0.0000E+00  0.0000E+00
     -7.317  0.0000E+00  0.0000E+00  0.0000E+00
     -7.256  0.0000E+00  0.0000E+00  0.0000E+00
     -7.196  0.0000E+00  0.0000E+00  0.0000E+00
     -7.135  0.0000E+00  0.0000E+00  0.0000E+00
     -7.075  0.0000E+00  0.0000E+00  0.0000E+00
     -7.014  0.0000E+00  0.0000E+00  0.0000E+00
     -6.953  0.0000E+00  0.0000E+00  0.0000E+00
     -6.893  0.0000E+00  0.0000E+00  0.0000E+00
     -6.832  0.0000E+00  0.0000E+00  0.0000E+00
     -6.772  0.0000E+00  0.0000E+00  0.0000E+00
     -6.711  0.0000E+00  0.0000E+00  0.0000E+00
     -6.651  0.0000E+00  0.0000E+00  0.0000E+00
     -6.590  0.0000E+00  0.0000E+00  0.0000E+00
     -6.529  0.0000E+00  0.0000E+00  0.0000E+00
     -6.469  0.0000E+00  0.0000E+00  0.0000E+00
     -6.408  0.0000E+00  0.0000E+00  0.0000E+00
     -6.348  0.0000E+00  0.0000E+00  0.0000E+00
     -6.287  0.0000E+00  0.0000E+00  0.0000E+00
     -6.227  0.0000E+00  0.0000E+00  0.0000E+00