Automatically generated mesh
      12
Reciprocal lattice
    0.08333333333333    0.25000000000000    0.25000000000000             2
    0.25000000000000    0.25000000000000    0.25000000000000             2
    0.41666666666667    0.25000000000000    0.25000000000000             2
   -0.41666666666667    0.25000000000000    0.25000000000000             2
   -0.25000000000000    0.25000000000000    0.25000000000000             2
   -0.08333333333333    0.25000000000000    0.25000000000000             2
    0.08333333333333   -0.25000000000000    0.25000000000000             2
    0.25000000000000   -0.25000000000000    0.25000000000000             2
    0.41666666666667   -0.25000000000000    0.25000000000000             2
   -0.41666666666667   -0.25000000000000    0.25000000000000             2
   -0.25000000000000   -0.25000000000000    0.25000000000000             2
   -0.08333333333333   -0.25000000000000    0.25000000000000             2
