       N       E                     dE             d eps       ncg     rms          rms(c)
DAV:   1     0.780460198884E+03    0.78046E+03   -0.23033E+04  1344   0.999E+02
DAV:   2     0.994773298553E+02   -0.68098E+03   -0.67039E+03  1540   0.339E+02
DAV:   3    -0.104274439465E+03   -0.20375E+03   -0.20006E+03  2352   0.165E+02
DAV:   4    -0.122308364146E+03   -0.18034E+02   -0.17987E+02  2142   0.573E+01
DAV:   5    -0.122738527429E+03   -0.43016E+00   -0.42957E+00  2198   0.125E+01    0.415E+01
DAV:   6    -0.110853071695E+03    0.11885E+02   -0.38554E+01  2044   0.343E+01    0.196E+01
DAV:   7    -0.109841639050E+03    0.10114E+01   -0.41386E+00  2072   0.121E+01    0.702E+00
DAV:   8    -0.109716035654E+03    0.12560E+00   -0.89800E-01  2156   0.490E+00    0.186E+00
DAV:   9    -0.109706628228E+03    0.94074E-02   -0.17408E-01  2086   0.269E+00    0.119E+00
DAV:  10    -0.109704962114E+03    0.16661E-02   -0.23595E-02  2184   0.946E-01    0.847E-01
DAV:  11    -0.109703935743E+03    0.10264E-02   -0.21393E-02  2170   0.717E-01    0.318E-01
DAV:  12    -0.109704056441E+03   -0.12070E-03   -0.16512E-03  2128   0.212E-01    0.308E-01
DAV:  13    -0.109704020213E+03    0.36229E-04   -0.11920E-03  2030   0.137E-01    0.128E-01
DAV:  14    -0.109704159595E+03   -0.13938E-03   -0.59286E-04  1652   0.112E-01    0.690E-02
DAV:  15    -0.109704183171E+03   -0.23576E-04   -0.89143E-05  1176   0.559E-02
   1 F= -.10970418E+03 E0= -.10970418E+03  d E =-.109704E+03
       N       E                     dE             d eps       ncg     rms          rms(c)
DAV:   1    -0.113805843162E+03   -0.41017E+01   -0.34480E+01  1764   0.231E+01    0.907E+00
DAV:   2    -0.112444880734E+03    0.13610E+01   -0.67556E+00  2156   0.148E+01    0.609E+00
DAV:   3    -0.112290462828E+03    0.15442E+00   -0.33652E-01  1918   0.329E+00    0.296E+00
DAV:   4    -0.112239629049E+03    0.50834E-01   -0.14128E-01  2002   0.170E+00    0.114E+00
DAV:   5    -0.112239204833E+03    0.42422E-03   -0.82663E-03  2030   0.499E-01    0.940E-01
DAV:   6    -0.112238188012E+03    0.10168E-02   -0.42739E-03  2114   0.356E-01    0.264E-01
DAV:   7    -0.112238022419E+03    0.16559E-03   -0.13284E-03  2072   0.205E-01    0.130E-01
DAV:   8    -0.112237964660E+03    0.57758E-04   -0.83147E-05  1176   0.525E-02
   2 F= -.11223796E+03 E0= -.11223796E+03  d E =-.253378E+01
       N       E                     dE             d eps       ncg     rms          rms(c)
DAV:   1    -0.115629808845E+03   -0.33918E+01   -0.48224E+01  1778   0.267E+01    0.990E+00
DAV:   2    -0.113745871125E+03    0.18839E+01   -0.99718E+00  2142   0.170E+01    0.616E+00
DAV:   3    -0.113530562494E+03    0.21531E+00   -0.50074E-01  1862   0.443E+00    0.298E+00
DAV:   4    -0.113455757267E+03    0.74805E-01   -0.22124E-01  2002   0.195E+00    0.125E+00
DAV:   5    -0.113455372033E+03    0.38523E-03   -0.11599E-02  2184   0.591E-01    0.112E+00
DAV:   6    -0.113454018636E+03    0.13534E-02   -0.52955E-03  2184   0.371E-01    0.350E-01
DAV:   7    -0.113453618334E+03    0.40030E-03   -0.22057E-03  2184   0.256E-01    0.202E-01
DAV:   8    -0.113453510578E+03    0.10776E-03   -0.13501E-04  1176   0.663E-02    0.154E-01
DAV:   9    -0.113453481112E+03    0.29466E-04   -0.91598E-04  2016   0.988E-02
   3 F= -.11345348E+03 E0= -.11345348E+03  d E =-.374930E+01
       N       E                     dE             d eps       ncg     rms          rms(c)
DAV:   1    -0.113597972001E+03   -0.14446E+00   -0.22332E+00  1736   0.567E+00    0.219E+00
DAV:   2    -0.113512310934E+03    0.85661E-01   -0.49607E-01  2156   0.382E+00    0.125E+00
DAV:   3    -0.113501942861E+03    0.10368E-01   -0.27568E-02  1904   0.105E+00    0.585E-01
DAV:   4    -0.113498328343E+03    0.36145E-02   -0.96695E-03  2002   0.428E-01    0.286E-01
DAV:   5    -0.113498259233E+03    0.69110E-04   -0.45809E-04  1484   0.129E-01
   4 F= -.11349826E+03 E0= -.11349826E+03  d E =-.379408E+01
       N       E                     dE             d eps       ncg     rms          rms(c)
DAV:   1    -0.113502522371E+03   -0.41940E-02   -0.79522E-02  1778   0.103E+00    0.412E-01
DAV:   2    -0.113499162008E+03    0.33604E-02   -0.19343E-02  2156   0.743E-01    0.239E-01
DAV:   3    -0.113498733668E+03    0.42834E-03   -0.10803E-03  1932   0.207E-01    0.113E-01
DAV:   4    -0.113498560583E+03    0.17309E-03   -0.29209E-04  1316   0.855E-02    0.600E-02
DAV:   5    -0.113498556394E+03    0.41886E-05   -0.73576E-05   952   0.640E-02
   5 F= -.11349856E+03 E0= -.11349856E+03  d E =-.379437E+01
       N       E                     dE             d eps       ncg     rms          rms(c)
DAV:   1    -0.113498783564E+03   -0.22298E-03   -0.34737E-03  1820   0.244E-01    0.105E-01
DAV:   2    -0.113498653302E+03    0.13026E-03   -0.46844E-04  1232   0.133E-01    0.664E-02
DAV:   3    -0.113498638904E+03    0.14398E-04   -0.13297E-04   840   0.777E-02
   6 F= -.11349864E+03 E0= -.11349864E+03  d E =-.379446E+01
       N       E                     dE             d eps       ncg     rms          rms(c)
DAV:   1    -0.113499108542E+03   -0.45524E-03   -0.12207E-02  1806   0.446E-01    0.157E-01
DAV:   2    -0.113498644727E+03    0.46381E-03   -0.26531E-03  2170   0.276E-01    0.965E-02
DAV:   3    -0.113498584785E+03    0.59942E-04   -0.98234E-05   910   0.767E-02
   7 F= -.11349858E+03 E0= -.11349858E+03  d E =-.379440E+01
       N       E                     dE             d eps       ncg     rms          rms(c)
DAV:   1    -0.113533680103E+03   -0.35035E-01   -0.16528E-01  1344   0.143E+00    0.238E-01
DAV:   2    -0.113534073871E+03   -0.39377E-03   -0.15066E-02  2184   0.574E-01    0.138E-01
DAV:   3    -0.113533753296E+03    0.32057E-03   -0.80173E-04  1974   0.145E-01    0.996E-02
DAV:   4    -0.113533589501E+03    0.16380E-03   -0.16567E-04  1190   0.724E-02    0.482E-02
DAV:   5    -0.113533539672E+03    0.49828E-04   -0.30646E-04  1400   0.816E-02
   8 F= -.11353354E+03 E0= -.11353354E+03  d E =-.349549E-01
       N       E                     dE             d eps       ncg     rms          rms(c)
DAV:   1    -0.113591646585E+03   -0.58057E-01   -0.14767E+00  1344   0.432E+00    0.743E-01
DAV:   2    -0.113595204248E+03   -0.35577E-02   -0.14031E-01  2184   0.173E+00    0.393E-01
DAV:   3    -0.113592334200E+03    0.28700E-02   -0.79951E-03  2170   0.459E-01    0.290E-01
DAV:   4    -0.113591099130E+03    0.12351E-02   -0.20162E-03  2184   0.201E-01    0.149E-01
DAV:   5    -0.113590546279E+03    0.55285E-03   -0.10156E-03  2044   0.136E-01    0.779E-02
DAV:   6    -0.113590508382E+03    0.37897E-04   -0.14115E-04  1176   0.734E-02
   9 F= -.11359051E+03 E0= -.11359051E+03  d E =-.919236E-01
       N       E                     dE             d eps       ncg     rms          rms(c)
DAV:   1    -0.113593844186E+03   -0.32979E-02   -0.13600E-01  1358   0.130E+00    0.236E-01
DAV:   2    -0.113594303485E+03   -0.45930E-03   -0.13524E-02  2184   0.527E-01    0.120E-01
DAV:   3    -0.113594035436E+03    0.26805E-03   -0.60012E-04  1750   0.132E-01    0.874E-02
DAV:   4    -0.113593902532E+03    0.13290E-03   -0.17613E-04  1204   0.684E-02    0.408E-02
DAV:   5    -0.113593860299E+03    0.42233E-04   -0.20710E-04  1204   0.779E-02
  10 F= -.11359386E+03 E0= -.11359386E+03  d E =-.952755E-01
       N       E                     dE             d eps       ncg     rms          rms(c)
DAV:   1    -0.113599735855E+03   -0.58333E-02   -0.20464E-01  1372   0.147E+00    0.258E-01
DAV:   2    -0.113601705708E+03   -0.19699E-02   -0.25596E-02  2156   0.872E-01    0.145E-01
DAV:   3    -0.113601593764E+03    0.11194E-03   -0.53846E-04  1708   0.156E-01    0.112E-01
DAV:   4    -0.113601492326E+03    0.10144E-03   -0.17905E-04  1176   0.619E-02    0.609E-02
DAV:   5    -0.113601473759E+03    0.18567E-04   -0.14130E-04  1134   0.655E-02
  11 F= -.11360147E+03 E0= -.11360147E+03  d E =-.761346E-02
       N       E                     dE             d eps       ncg     rms          rms(c)
DAV:   1    -0.113599445052E+03    0.20473E-02   -0.18289E+00  1344   0.440E+00    0.802E-01
DAV:   2    -0.113616703540E+03   -0.17258E-01   -0.22477E-01  2114   0.265E+00    0.422E-01
DAV:   3    -0.113615806176E+03    0.89736E-03   -0.55319E-03  2184   0.470E-01    0.330E-01
DAV:   4    -0.113615083920E+03    0.72226E-03   -0.14313E-03  1960   0.138E-01    0.217E-01
DAV:   5    -0.113614911450E+03    0.17247E-03   -0.10211E-03  2184   0.132E-01    0.604E-02
DAV:   6    -0.113614895645E+03    0.15805E-04   -0.88862E-05  1176   0.550E-02
  12 F= -.11361490E+03 E0= -.11361490E+03  d E =-.210353E-01
       N       E                     dE             d eps       ncg     rms          rms(c)
DAV:   1    -0.113540256130E+03    0.74655E-01   -0.73762E+00  1344   0.884E+00    0.166E+00
DAV:   2    -0.113612844776E+03   -0.72589E-01   -0.92469E-01  2044   0.525E+00    0.816E-01
DAV:   3    -0.113609340262E+03    0.35045E-02   -0.24873E-02  2184   0.998E-01    0.671E-01
DAV:   4    -0.113606545003E+03    0.27953E-02   -0.53842E-03  2044   0.269E-01    0.444E-01
DAV:   5    -0.113605757704E+03    0.78730E-03   -0.41346E-03  2184   0.265E-01    0.119E-01
DAV:   6    -0.113605722356E+03    0.35347E-04   -0.63386E-04  1792   0.119E-01
  13 F= -.11360572E+03 E0= -.11360572E+03  d E =-.118621E-01
       N       E                     dE             d eps       ncg     rms          rms(c)
DAV:   1    -0.113587263596E+03    0.18494E-01   -0.34736E+00  1344   0.604E+00    0.106E+00
DAV:   2    -0.113620814293E+03   -0.33551E-01   -0.43168E-01  2044   0.366E+00    0.603E-01
DAV:   3    -0.113619099882E+03    0.17144E-02   -0.11943E-02  2184   0.695E-01    0.475E-01
DAV:   4    -0.113617657882E+03    0.14420E-02   -0.25596E-03  1932   0.184E-01    0.330E-01
DAV:   5    -0.113617260416E+03    0.39747E-03   -0.24404E-03  2184   0.194E-01    0.919E-02
DAV:   6    -0.113617247927E+03    0.12489E-04   -0.17776E-04  1176   0.813E-02
  14 F= -.11361725E+03 E0= -.11361725E+03  d E =-.233876E-01
       N       E                     dE             d eps       ncg     rms          rms(c)
DAV:   1    -0.113625177087E+03   -0.79167E-02   -0.56826E-01  1358   0.257E+00    0.526E-01
DAV:   2    -0.113626143970E+03   -0.96688E-03   -0.77170E-02  2128   0.144E+00    0.360E-01
DAV:   3    -0.113625192670E+03    0.95130E-03   -0.19444E-03  2030   0.299E-01    0.248E-01
DAV:   4    -0.113624616614E+03    0.57606E-03   -0.20329E-03  1946   0.147E-01    0.113E-01
DAV:   5    -0.113624612993E+03    0.36214E-05   -0.21783E-04  1372   0.820E-02
  15 F= -.11362461E+03 E0= -.11362461E+03  d E =-.736507E-02
       N       E                     dE             d eps       ncg     rms          rms(c)
DAV:   1    -0.113629598240E+03   -0.49816E-02   -0.15279E+00  1358   0.422E+00    0.904E-01
DAV:   2    -0.113631668110E+03   -0.20699E-02   -0.21048E-01  2114   0.237E+00    0.567E-01
DAV:   3    -0.113629006525E+03    0.26616E-02   -0.57060E-03  2184   0.508E-01    0.373E-01
DAV:   4    -0.113627560074E+03    0.14465E-02   -0.46454E-03  1932   0.218E-01    0.177E-01
DAV:   5    -0.113627524056E+03    0.36017E-04   -0.66082E-04  1876   0.130E-01
  16 F= -.11362752E+03 E0= -.11362752E+03  d E =-.102761E-01
       N       E                     dE             d eps       ncg     rms          rms(c)
DAV:   1    -0.113628459194E+03   -0.89912E-03   -0.59955E-01  1344   0.245E+00    0.434E-01
DAV:   2    -0.113633867970E+03   -0.54088E-02   -0.64224E-02  2086   0.139E+00    0.217E-01
DAV:   3    -0.113633606141E+03    0.26183E-03   -0.13387E-03  2170   0.241E-01    0.171E-01
DAV:   4    -0.113633369091E+03    0.23705E-03   -0.61863E-04  1638   0.878E-02    0.105E-01
DAV:   5    -0.113633349933E+03    0.19158E-04   -0.23229E-04  1386   0.716E-02
  17 F= -.11363335E+03 E0= -.11363335E+03  d E =-.582588E-02
       N       E                     dE             d eps       ncg     rms          rms(c)
DAV:   1    -0.113600481557E+03    0.32888E-01   -0.44387E+00  1344   0.667E+00    0.119E+00
DAV:   2    -0.113641882596E+03   -0.41401E-01   -0.48081E-01  2086   0.378E+00    0.572E-01
DAV:   3    -0.113639889981E+03    0.19926E-02   -0.94566E-03  2170   0.653E-01    0.442E-01
DAV:   4    -0.113638174800E+03    0.17152E-02   -0.50089E-03  1806   0.243E-01    0.270E-01
DAV:   5    -0.113638141867E+03    0.32934E-04   -0.18767E-03  2170   0.179E-01    0.860E-02
DAV:   6    -0.113638109466E+03    0.32401E-04   -0.17075E-04  1218   0.603E-02
  18 F= -.11363811E+03 E0= -.11363811E+03  d E =-.105854E-01
       N       E                     dE             d eps       ncg     rms          rms(c)
DAV:   1    -0.113644923313E+03   -0.67814E-02   -0.28857E-01  1512   0.184E+00    0.409E-01
DAV:   2    -0.113644739873E+03    0.18344E-03   -0.37992E-02  2184   0.104E+00    0.283E-01
DAV:   3    -0.113644287669E+03    0.45220E-03   -0.10526E-03  2016   0.207E-01    0.189E-01
DAV:   4    -0.113643986330E+03    0.30134E-03   -0.73136E-04  1680   0.105E-01    0.719E-02
DAV:   5    -0.113643963730E+03    0.22601E-04   -0.11144E-04  1176   0.681E-02
  19 F= -.11364396E+03 E0= -.11364396E+03  d E =-.585426E-02
       N       E                     dE             d eps       ncg     rms          rms(c)
DAV:   1    -0.113646276698E+03   -0.22904E-02   -0.23470E-01  1498   0.166E+00    0.369E-01
DAV:   2    -0.113646195437E+03    0.81261E-04   -0.31425E-02  2184   0.946E-01    0.246E-01
DAV:   3    -0.113645799585E+03    0.39585E-03   -0.87746E-04  1988   0.192E-01    0.163E-01
DAV:   4    -0.113645549722E+03    0.24986E-03   -0.60978E-04  1680   0.973E-02    0.655E-02
DAV:   5    -0.113645528435E+03    0.21286E-04   -0.92699E-05  1176   0.611E-02
  20 F= -.11364553E+03 E0= -.11364553E+03  d E =-.741897E-02
       N       E                     dE             d eps       ncg     rms          rms(c)
DAV:   1    -0.113648455688E+03   -0.29060E-02   -0.42572E-01  1344   0.216E+00    0.441E-01
DAV:   2    -0.113650529491E+03   -0.20738E-02   -0.64132E-02  2100   0.133E+00    0.306E-01
DAV:   3    -0.113650052461E+03    0.47703E-03   -0.17164E-03  2100   0.268E-01    0.209E-01
DAV:   4    -0.113649711652E+03    0.34081E-03   -0.94584E-04  1792   0.112E-01    0.940E-02
DAV:   5    -0.113649695884E+03    0.15768E-04   -0.23347E-04  1386   0.886E-02
  21 F= -.11364970E+03 E0= -.11364970E+03  d E =-.416745E-02
       N       E                     dE             d eps       ncg     rms          rms(c)
DAV:   1    -0.113649812434E+03   -0.10078E-03   -0.49842E-02  1414   0.746E-01    0.161E-01
DAV:   2    -0.113650010273E+03   -0.19784E-03   -0.72747E-03  2100   0.433E-01    0.104E-01
DAV:   3    -0.113649946195E+03    0.64078E-04   -0.15495E-04  1246   0.923E-02
  22 F= -.11364995E+03 E0= -.11364995E+03  d E =-.441776E-02
       N       E                     dE             d eps       ncg     rms          rms(c)
DAV:   1    -0.113650840484E+03   -0.83021E-03   -0.91773E-02  1372   0.103E+00    0.185E-01
DAV:   2    -0.113651474997E+03   -0.63451E-03   -0.12423E-02  2184   0.565E-01    0.111E-01
DAV:   3    -0.113651322202E+03    0.15279E-03   -0.28360E-04  1344   0.125E-01    0.768E-02
DAV:   4    -0.113651226373E+03    0.95829E-04   -0.40282E-04  1400   0.839E-02
  23 F= -.11365123E+03 E0= -.11365123E+03  d E =-.128018E-02
       N       E                     dE             d eps       ncg     rms          rms(c)
DAV:   1    -0.113650799518E+03    0.52268E-03   -0.17877E-01  1372   0.144E+00    0.261E-01
DAV:   2    -0.113652011761E+03   -0.12122E-02   -0.24307E-02  2184   0.781E-01    0.150E-01
DAV:   3    -0.113651716984E+03    0.29478E-03   -0.68148E-04  1862   0.174E-01    0.110E-01
DAV:   4    -0.113651544004E+03    0.17298E-03   -0.31777E-04  1246   0.791E-02    0.523E-02
DAV:   5    -0.113651512721E+03    0.31284E-04   -0.18462E-04  1176   0.911E-02
  24 F= -.11365151E+03 E0= -.11365151E+03  d E =-.156653E-02
       N       E                     dE             d eps       ncg     rms          rms(c)
DAV:   1    -0.113651879627E+03   -0.33562E-03   -0.63290E-02  1372   0.850E-01    0.176E-01
DAV:   2    -0.113652267096E+03   -0.38747E-03   -0.90846E-03  2156   0.504E-01    0.107E-01
DAV:   3    -0.113652188066E+03    0.79030E-04   -0.17394E-04  1176   0.107E-01
  25 F= -.11365219E+03 E0= -.11365219E+03  d E =-.675346E-03
       N       E                     dE             d eps       ncg     rms          rms(c)
DAV:   1    -0.113651779641E+03    0.48746E-03   -0.14822E-01  1344   0.128E+00    0.244E-01
DAV:   2    -0.113652673441E+03   -0.89380E-03   -0.20919E-02  2072   0.759E-01    0.158E-01
DAV:   3    -0.113652491485E+03    0.18196E-03   -0.58342E-04  1792   0.164E-01    0.114E-01
DAV:   4    -0.113652345923E+03    0.14556E-03   -0.23852E-04  1134   0.698E-02    0.504E-02
DAV:   5    -0.113652325793E+03    0.20129E-04   -0.13814E-04   994   0.729E-02
  26 F= -.11365233E+03 E0= -.11365233E+03  d E =-.813073E-03
       N       E                     dE             d eps       ncg     rms          rms(c)
DAV:   1    -0.113653002837E+03   -0.65691E-03   -0.10146E-01  1372   0.104E+00    0.199E-01
DAV:   2    -0.113653939538E+03   -0.93670E-03   -0.12230E-02  2184   0.597E-01    0.837E-02
DAV:   3    -0.113653869442E+03    0.70095E-04   -0.19497E-04  1218   0.106E-01
  27 F= -.11365387E+03 E0= -.11365387E+03  d E =-.154365E-02
       N       E                     dE             d eps       ncg     rms          rms(c)
DAV:   1    -0.113648450165E+03    0.54894E-02   -0.74858E-01  1344   0.281E+00    0.506E-01
DAV:   2    -0.113655607793E+03   -0.71576E-02   -0.91648E-02  2072   0.161E+00    0.253E-01
DAV:   3    -0.113655157340E+03    0.45045E-03   -0.24550E-03  2184   0.326E-01    0.216E-01
DAV:   4    -0.113654827329E+03    0.33001E-03   -0.64727E-04  1666   0.928E-02    0.134E-01
DAV:   5    -0.113654749484E+03    0.77845E-04   -0.50406E-04  1750   0.878E-02
  28 F= -.11365475E+03 E0= -.11365475E+03  d E =-.242369E-02
       N       E                     dE             d eps       ncg     rms          rms(c)
DAV:   1    -0.113654623156E+03    0.20417E-03   -0.29672E-02  1344   0.560E-01    0.831E-02
DAV:   2    -0.113654933900E+03   -0.31074E-03   -0.37952E-03  2016   0.325E-01    0.665E-02
DAV:   3    -0.113654915384E+03    0.18516E-04   -0.73042E-05   938   0.684E-02
  29 F= -.11365492E+03 E0= -.11365492E+03  d E =-.258959E-02
       N       E                     dE             d eps       ncg     rms          rms(c)
DAV:   1    -0.113655689868E+03   -0.75597E-03   -0.17280E-01  1386   0.143E+00    0.275E-01
DAV:   2    -0.113656303684E+03   -0.61382E-03   -0.22597E-02  2114   0.787E-01    0.181E-01
DAV:   3    -0.113656107339E+03    0.19634E-03   -0.55743E-04  1652   0.161E-01    0.121E-01
DAV:   4    -0.113655974445E+03    0.13289E-03   -0.40007E-04  1400   0.864E-02    0.447E-02
DAV:   5    -0.113655978957E+03   -0.45120E-05   -0.82198E-05   882   0.564E-02
  30 F= -.11365598E+03 E0= -.11365598E+03  d E =-.106357E-02
       N       E                     dE             d eps       ncg     rms          rms(c)
DAV:   1    -0.113655972980E+03    0.14652E-05   -0.41692E-02  1428   0.702E-01    0.132E-01
DAV:   2    -0.113656080457E+03   -0.10748E-03   -0.52236E-03  2170   0.385E-01    0.821E-02
DAV:   3    -0.113656033231E+03    0.47226E-04   -0.94236E-05  1176   0.773E-02
  31 F= -.11365603E+03 E0= -.11365603E+03  d E =-.111785E-02
       N       E                     dE             d eps       ncg     rms          rms(c)
DAV:   1    -0.113656523566E+03   -0.44311E-03   -0.14474E-01  1344   0.126E+00    0.211E-01
DAV:   2    -0.113657737623E+03   -0.12141E-02   -0.17040E-02  2184   0.701E-01    0.118E-01
DAV:   3    -0.113657614218E+03    0.12340E-03   -0.30559E-04  1316   0.125E-01    0.865E-02
DAV:   4    -0.113657518567E+03    0.95651E-04   -0.46400E-04  1540   0.875E-02
  32 F= -.11365752E+03 E0= -.11365752E+03  d E =-.148534E-02
