 vasp.5.4.4.18Apr17-6-g9f103f2a35 (build Oct 27 2022 13:04:57) complex          
  
 executed on             LinuxIFC date 2024.06.29  12:35:17
 running on   14 total cores
 distrk:  each k-point on   14 cores,    1 groups
 distr:  one band on NCORES_PER_BAND=   1 cores,   14 groups


--------------------------------------------------------------------------------------------------------


 INCAR:
 POTCAR:    PAW_PBE K_pv 17Jan2003                
 POTCAR:    PAW_PBE Sc 04Feb2005                  
 POTCAR:    PAW_PBE S 06Sep2000                   

 ----------------------------------------------------------------------------- 
|                                                                             |
|           W    W    AA    RRRRR   N    N  II  N    N   GGGG   !!!           |
|           W    W   A  A   R    R  NN   N  II  NN   N  G    G  !!!           |
|           W    W  A    A  R    R  N N  N  II  N N  N  G       !!!           |
|           W WW W  AAAAAA  RRRRR   N  N N  II  N  N N  G  GGG   !            |
|           WW  WW  A    A  R   R   N   NN  II  N   NN  G    G                |
|           W    W  A    A  R    R  N    N  II  N    N   GGGG   !!!           |
|                                                                             |
|      For optimal performance we recommend to set                            |
|        NCORE= 4 - approx SQRT( number of cores)                             |
|      NCORE specifies how many cores store one orbital (NPAR=cpu/NCORE).     |
|      This setting can  greatly improve the performance of VASP for DFT.     |
|      The default,   NCORE=1            might be grossly inefficient         |
|      on modern multi-core architectures or massively parallel machines.     |
|      Do your own testing !!!!                                               |
|      Unfortunately you need to use the default for GW and RPA calculations. |
|      (for HF NCORE is supported but not extensively tested yet)             |
|                                                                             |
 ----------------------------------------------------------------------------- 

 POTCAR:    PAW_PBE K_pv 17Jan2003                
   VRHFIN =K:  p6s1                                                             
   LEXCH  = PE                                                                  
   EATOM  =   450.4813 eV,   33.1094 Ry                                         
                                                                                
   TITEL  = PAW_PBE K_pv 17Jan2003                                              
   LULTRA =        F    use ultrasoft PP ?                                      
   IUNSCR =        1    unscreen: 0-lin 1-nonlin 2-no                           
   RPACOR =    2.500    partial core radius                                     
   POMASS =   39.098; ZVAL   =    7.000    mass and valenz                      
   RCORE  =    3.100    outmost cutoff radius                                   
   RWIGS  =    4.300; RWIGS  =    2.275    wigner-seitz radius (au A)           
   ENMAX  =  116.731; ENMIN  =   87.548 eV                                      
   RCLOC  =    2.806    cutoff for local pot                                    
   LCOR   =        T    correct aug charges                                     
   LPAW   =        T    paw PP                                                  
   EAUG   =  291.424                                                            
   DEXC   =    0.000                                                            
   RMAX   =    3.171    core radius for proj-oper                               
   RAUG   =    1.300    factor for augmentation sphere                          
   RDEP   =    3.267    radius for radial grids                                 
   RDEPT  =    2.513    core radius for aug-charge                              
                                                                                
   Atomic configuration                                                         
    7 entries                                                                   
     n  l   j            E        occ.                                          
     1  0  0.50     -3522.0595   2.0000                                         
     2  0  0.50      -353.3851   2.0000                                         
     2  1  1.50      -280.0935   6.0000                                         
     3  0  0.50       -35.3419   2.0000                                         
     3  1  1.50       -18.8125   6.0000                                         
     4  0  0.50        -2.3190   1.0000                                         
     3  2  1.50        -1.3606   0.0000                                         
   Description                                                                  
     l       E           TYP  RCUT    TYP  RCUT                                 
     1    -18.8124623     23  3.000                                             
     1    -20.4087390     23  3.000                                             
     0     -2.3190215     23  3.100                                             
     0     20.4087390     23  3.100                                             
     2     -1.3605826     23  3.000                                             
  local pseudopotential read in
  partial core-charges read in
  partial kinetic energy density read in
  atomic valenz-charges read in
  non local Contribution for L=           1  read in
    real space projection operators read in
  non local Contribution for L=           1  read in
    real space projection operators read in
  non local Contribution for L=           0  read in
    real space projection operators read in
  non local Contribution for L=           0  read in
    real space projection operators read in
  non local Contribution for L=           2  read in
    real space projection operators read in
    PAW grid and wavefunctions read in
 
   number of l-projection  operators is LMAX  =           5
   number of lm-projection operators is LMMAX =          13
 
 POTCAR:    PAW_PBE Sc 04Feb2005                  
   VRHFIN =Sc: 3p4s3d                                                           
   LEXCH  = PE                                                                  
   EATOM  =    44.6420 eV,    3.2811 Ry                                         
                                                                                
   TITEL  = PAW_PBE Sc 04Feb2005                                                
   LULTRA =        F    use ultrasoft PP ?                                      
   IUNSCR =        1    unscreen: 0-lin 1-nonlin 2-no                           
   RPACOR =    2.000    partial core radius                                     
   POMASS =   44.956; ZVAL   =    3.000    mass and valenz                      
   RCORE  =    3.000    outmost cutoff radius                                   
   RWIGS  =    3.000; RWIGS  =    1.588    wigner-seitz radius (au A)           
   ENMAX  =  154.763; ENMIN  =  116.072 eV                                      
   RCLOC  =    1.776    cutoff for local pot                                    
   LCOR   =        T    correct aug charges                                     
   LPAW   =        T    paw PP                                                  
   EAUG   =  301.784                                                            
   DEXC   =    0.000                                                            
   RMAX   =    3.066    core radius for proj-oper                               
   RAUG   =    1.300    factor for augmentation sphere                          
   RDEP   =    3.011    radius for radial grids                                 
   RDEPT  =    2.461    core radius for aug-charge                              
                                                                                
   Atomic configuration                                                         
    9 entries                                                                   
     n  l   j            E        occ.                                          
     1  0  0.50     -4394.2533   2.0000                                         
     2  0  0.50      -471.0040   2.0000                                         
     2  1  1.50      -384.9788   6.0000                                         
     3  0  0.50       -52.1410   2.0000                                         
     3  1  1.50       -30.8841   6.0000                                         
     3  2  2.50        -1.3655   2.0000                                         
     4  0  0.50        -3.5584   1.0000                                         
     4  1  0.50        -2.7212   0.0000                                         
     4  3  2.50        -1.3606   0.0000                                         
   Description                                                                  
     l       E           TYP  RCUT    TYP  RCUT                                 
     2     -1.3655439     23  3.000                                             
     2     -2.7261265     23  3.000                                             
     0     -3.5583719     23  3.000                                             
     0     27.2116520     23  3.000                                             
     1     -5.4423304     23  3.000                                             
  local pseudopotential read in
  partial core-charges read in
  partial kinetic energy density read in
  atomic valenz-charges read in
  non local Contribution for L=           2  read in
    real space projection operators read in
  non local Contribution for L=           2  read in
    real space projection operators read in
  non local Contribution for L=           0  read in
    real space projection operators read in
  non local Contribution for L=           0  read in
    real space projection operators read in
  non local Contribution for L=           1  read in
    real space projection operators read in
    PAW grid and wavefunctions read in
 
   number of l-projection  operators is LMAX  =           5
   number of lm-projection operators is LMMAX =          15
 
 POTCAR:    PAW_PBE S 06Sep2000                   
   VRHFIN =S : s2p4                                                             
   LEXCH  = PE                                                                  
   EATOM  =   276.8230 eV,   20.3459 Ry                                         
                                                                                
   TITEL  = PAW_PBE S 06Sep2000                                                 
   LULTRA =        F    use ultrasoft PP ?                                      
   IUNSCR =        1    unscreen: 0-lin 1-nonlin 2-no                           
   RPACOR =    1.500    partial core radius                                     
   POMASS =   32.066; ZVAL   =    6.000    mass and valenz                      
   RCORE  =    1.900    outmost cutoff radius                                   
   RWIGS  =    2.200; RWIGS  =    1.164    wigner-seitz radius (au A)           
   ENMAX  =  258.689; ENMIN  =  194.016 eV                                      
   ICORE  =        2    local potential                                         
   LCOR   =        T    correct aug charges                                     
   LPAW   =        T    paw PP                                                  
   EAUG   =  335.092                                                            
   DEXC   =    0.000                                                            
   RMAX   =    1.942    core radius for proj-oper                               
   RAUG   =    1.300    factor for augmentation sphere                          
   RDEP   =    1.954    radius for radial grids                                 
   RDEPT  =    1.744    core radius for aug-charge                              
                                                                                
   Atomic configuration                                                         
    6 entries                                                                   
     n  l   j            E        occ.                                          
     1  0  0.50     -2405.8406   2.0000                                         
     2  0  0.50      -211.7007   2.0000                                         
     2  1  1.50      -156.4958   6.0000                                         
     3  0  0.50       -17.2562   2.0000                                         
     3  1  0.50        -7.0085   4.0000                                         
     3  2  1.50        -6.8029   0.0000                                         
   Description                                                                  
     l       E           TYP  RCUT    TYP  RCUT                                 
     0    -17.2561641     23  1.900                                             
     0    -15.8743224     23  1.900                                             
     1     -7.0085400     23  1.900                                             
     1     -2.7779785     23  1.900                                             
     2     -6.8029130     23  1.900                                             
  local pseudopotential read in
  partial core-charges read in
  partial kinetic energy density read in
  atomic valenz-charges read in
  non local Contribution for L=           0  read in
    real space projection operators read in
  non local Contribution for L=           0  read in
    real space projection operators read in
  non local Contribution for L=           1  read in
    real space projection operators read in
  non local Contribution for L=           1  read in
    real space projection operators read in
    PAW grid and wavefunctions read in
 
   number of l-projection  operators is LMAX  =           4
   number of lm-projection operators is LMMAX =           8
 
 Optimization of the real space projectors (new method)

 maximal supplied QI-value         = 12.09
 optimisation between [QCUT,QGAM] = [  8.83, 17.66] = [ 21.83, 87.31] Ry 
 Optimized for a Real-space Cutoff    1.69 Angstroem

   l    n(q)    QCUT    max X(q) W(low)/X(q) W(high)/X(q)  e(spline) 
   1      8     8.829    42.457    0.27E-03    0.59E-03    0.25E-06
   1      8     8.829    43.305    0.28E-03    0.61E-03    0.26E-06
   0      9     8.829    47.210    0.17E-02    0.12E-03    0.43E-06
   0      9     8.829    15.951    0.11E-02    0.76E-04    0.28E-06
   2      8     8.829     5.674    0.29E-03    0.69E-04    0.39E-07
 Optimization of the real space projectors (new method)

 maximal supplied QI-value         = 12.47
 optimisation between [QCUT,QGAM] = [  8.86, 17.71] = [ 21.96, 87.83] Ry 
 Optimized for a Real-space Cutoff    1.74 Angstroem

   l    n(q)    QCUT    max X(q) W(low)/X(q) W(high)/X(q)  e(spline) 
   2      8     8.855   127.680    0.85E-03    0.55E-03    0.13E-06
   2      8     8.855   113.778    0.85E-03    0.55E-03    0.13E-06
   0      9     8.855    22.778    0.87E-04    0.17E-03    0.16E-06
   0      9     8.855    11.292    0.61E-04    0.12E-03    0.12E-06
   1      9     8.855    11.256    0.72E-04    0.28E-04    0.22E-07
 Optimization of the real space projectors (new method)

 maximal supplied QI-value         = 19.84
 optimisation between [QCUT,QGAM] = [  8.73, 17.66] = [ 21.34, 87.33] Ry 
 Optimized for a Real-space Cutoff    1.22 Angstroem

   l    n(q)    QCUT    max X(q) W(low)/X(q) W(high)/X(q)  e(spline) 
   0      6     8.731   187.594    0.15E-02    0.56E-03    0.90E-07
   0      6     8.731   164.243    0.15E-02    0.56E-03    0.89E-07
   1      6     8.731    67.533    0.37E-03    0.20E-02    0.11E-06
   1      6     8.731    50.729    0.36E-03    0.19E-02    0.10E-06
  PAW_PBE K_pv 17Jan2003                :
 energy of atom  1       EATOM= -450.4813
 kinetic energy error for atom=    0.0008 (will be added to EATOM!!)
  PAW_PBE Sc 04Feb2005                  :
 energy of atom  2       EATOM=  -44.6420
 kinetic energy error for atom=    0.0004 (will be added to EATOM!!)
  PAW_PBE S 06Sep2000                   :
 energy of atom  3       EATOM= -276.8230
 kinetic energy error for atom=    0.0077 (will be added to EATOM!!)
 
 
 POSCAR: K2 Sc6 S10                              
  positions in direct lattice
  No initial velocities read in
 exchange correlation table for  LEXCH =        8
   RHO(1)=    0.500       N(1)  =     2000
   RHO(2)=  100.500       N(2)  =     4000
 


--------------------------------------------------------------------------------------------------------


 ion  position               nearest neighbor table
   1  0.745  0.334  0.174-  15 3.19  17 3.19  15 3.19  17 3.19  12 3.37   9 3.37  12 3.38  11 3.71
                             5 3.86   4 4.21   7 4.41   7 4.42   8 4.46   3 4.51   3 4.51   2 4.52
   2  0.255  0.666  0.826-  16 3.19  18 3.19  16 3.19  18 3.19  11 3.37  10 3.37  11 3.38  12 3.71
                             6 3.86   4 4.21   8 4.42   8 4.42   7 4.46   3 4.51   3 4.51   1 4.52
   3  0.500  0.000  1.000-   9 2.38  10 2.38  10 2.38   9 2.38  12 2.49  11 2.49   8 3.47   7 3.47
                             8 3.47   7 3.47   2 4.51   1 4.51   2 4.51   1 4.51
   4  0.500  0.500  0.500-  17 2.43  18 2.43  18 2.43  17 2.43  14 2.43  13 2.43   8 3.60   7 3.60
                             8 3.60   7 3.61   1 4.21   2 4.21
   5  0.836  0.940  0.389-  16 2.34  15 2.36  15 2.36   9 2.42  13 2.50  13 2.50   7 3.00   6 3.40
                             6 3.41   1 3.86
   6  0.164  0.060  0.611-  15 2.34  16 2.36  16 2.36  10 2.42  14 2.50  14 2.50   8 3.00   5 3.40
                             5 3.41   2 3.86
   7  0.021  0.732  0.225-  17 2.37  11 2.38  11 2.38   9 2.42  13 2.53  13 2.53   5 3.00   3 3.47
                             3 3.47   4 3.60   4 3.61   1 4.41   1 4.42   2 4.46
   8  0.979  0.268  0.775-  18 2.37  12 2.38  12 2.38  10 2.42  14 2.53  14 2.53   6 3.00   3 3.47
                             3 3.47   4 3.60   4 3.60   2 4.42   2 4.42   1 4.46
   9  0.927  0.993  0.152-   3 2.38   3 2.38   5 2.42   7 2.42   1 3.37
  10  0.073  0.007  0.848-   3 2.38   3 2.38   6 2.42   8 2.42   2 3.37
  11  0.597  0.732  0.074-   7 2.38   7 2.38   3 2.49   2 3.37   2 3.38   1 3.71
  12  0.403  0.268  0.926-   8 2.38   8 2.38   3 2.49   1 3.37   1 3.38   2 3.71
  13  0.427  0.756  0.389-   4 2.43   5 2.50   5 2.50   7 2.53   7 2.53
  14  0.573  0.244  0.611-   4 2.43   6 2.50   6 2.50   8 2.53   8 2.53
  15  0.256  0.104  0.382-   6 2.34   5 2.36   5 2.36   1 3.19   1 3.19
  16  0.743  0.896  0.618-   5 2.34   6 2.36   6 2.36   2 3.19   2 3.19
  17  0.083  0.487  0.347-   7 2.37   4 2.43   4 2.43   1 3.19   1 3.19
  18  0.917  0.513  0.653-   8 2.37   4 2.43   4 2.43   2 3.19   2 3.19
 
  LATTYP: Found a triclinic cell.
 ALAT       =    11.8574682033
 B/A-ratio  =     1.3714984827
 C/A-ratio  =     0.2970818413
 COS(alpha) =     0.0000774490
 COS(beta)  =     0.4456297909
 COS(gamma) =     0.7344375593
  
  Lattice vectors:
  
 A1 = (   2.9965195900,   5.2839992900,  10.1833086000)
 A2 = (  12.6871385200,   0.0006265700,  10.1737608900)
 A3 = (   0.0002148400,   3.5226384800,  -0.0000487600)


Analysis of symmetry for initial positions (statically):
=====================================================================
 Subroutine PRICEL returns:
 Original cell was already a primitive cell.
 

 Routine SETGRP: Setting up the symmetry group for a 
 triclinic supercell.


 Subroutine GETGRP returns: Found  1 space group operations
 (whereof  1 operations were pure point group operations)
 out of a pool of  2 trial point group operations.


The static configuration has the point symmetry C_1 .


Analysis of symmetry for dynamics (positions and initial velocities):
=====================================================================
 Subroutine PRICEL returns:
 Original cell was already a primitive cell.
 

 Routine SETGRP: Setting up the symmetry group for a 
 triclinic supercell.


 Subroutine GETGRP returns: Found  1 space group operations
 (whereof  1 operations were pure point group operations)
 out of a pool of  2 trial point group operations.


The dynamic configuration has the point symmetry C_1 .


 Subroutine INISYM returns: Found  1 space group operations
 (whereof  1 operations are pure point group operations),
 and found     1 'primitive' translations

 
 
 KPOINTS: pymatgen with grid density = 807 / numbe

Automatic generation of k-mesh.
Space group operators:
 irot       det(A)        alpha          n_x          n_y          n_z        tau_x        tau_y        tau_z
    1     1.000000     0.000001     1.000000     0.000000     0.000000     0.000000     0.000000     0.000000
 
 Subroutine IBZKPT returns following result:
 ===========================================
 
 Found     12 irreducible k-points:
 
 Following reciprocal coordinates:
            Coordinates               Weight
  0.083333  0.250000  0.250000      2.000000
  0.250000  0.250000  0.250000      2.000000
  0.416667  0.250000  0.250000      2.000000
 -0.416667  0.250000  0.250000      2.000000
 -0.250000  0.250000  0.250000      2.000000
 -0.083333  0.250000  0.250000      2.000000
  0.083333 -0.250000  0.250000      2.000000
  0.250000 -0.250000  0.250000      2.000000
  0.416667 -0.250000  0.250000      2.000000
 -0.416667 -0.250000  0.250000      2.000000
 -0.250000 -0.250000  0.250000      2.000000
 -0.083333 -0.250000  0.250000      2.000000
 
 Following cartesian coordinates:
            Coordinates               Weight
 -0.021510 -0.023655 -0.014129      2.000000
 -0.012903 -0.070969 -0.008478      2.000000
 -0.004295 -0.118282 -0.002827      2.000000
 -0.047333  0.118285 -0.031082      2.000000
 -0.038725  0.070972 -0.025431      2.000000
 -0.030118  0.023658 -0.019780      2.000000
  0.030069 -0.023659 -0.029305      2.000000
  0.038677 -0.070972 -0.023654      2.000000
  0.047284 -0.118286 -0.018003      2.000000
  0.004246  0.118282 -0.046258      2.000000
  0.012854  0.070968 -0.040607      2.000000
  0.021462  0.023655 -0.034956      2.000000
 


--------------------------------------------------------------------------------------------------------




 Dimension of arrays:
   k-points           NKPTS =     12   k-points in BZ     NKDIM =     12   number of bands    NBANDS=     56
   number of dos      NEDOS =    301   number of ions     NIONS =     18
   non local maximal  LDIM  =      5   non local SUM 2l+1 LMDIM =     15
   total plane-waves  NPLWV =  32256
   max r-space proj   IRMAX =   2103   max aug-charges    IRDMAX=   2942
   dimension x,y,z NGX =    16 NGY =   42 NGZ =   48
   dimension x,y,z NGXF=    24 NGYF=   60 NGZF=   64
   support grid    NGXF=    24 NGYF=   60 NGZF=   64
   ions per type =               2   6  10
   NGX,Y,Z   is equivalent  to a cutoff of   7.55,  7.09,  7.42 a.u.
   NGXF,Y,Z  is equivalent  to a cutoff of  11.33, 10.13,  9.89 a.u.

 SYSTEM =  CIS                                     
 POSCAR =  K2 Sc6 S10                              

 Startparameter for this run:
   NWRITE =      2    write-flag & timer
   PREC   = medium    normal or accurate (medium, high low for compatibility)
   ISTART =      0    job   : 0-new  1-cont  2-samecut
   ICHARG =      2    charge: 1-file 2-atom 10-const
   ISPIN  =      1    spin polarized calculation?
   LNONCOLLINEAR =      F non collinear calculations
   LSORBIT =      F    spin-orbit coupling
   INIWAV =      1    electr: 0-lowe 1-rand  2-diag
   LASPH  =      T    aspherical Exc in radial PAW
   METAGGA=      F    non-selfconsistent MetaGGA calc.

 Electronic Relaxation 1
   ENCUT  =  300.0 eV  22.05 Ry    4.70 a.u.   4.97 13.91 15.20*2*pi/ulx,y,z
   ENINI  =  300.0     initial cutoff
   ENAUG  =  335.1 eV  augmentation charge cutoff
   NELM   =     60;   NELMIN=  2; NELMDL= -5     # of ELM steps 
   EDIFF  = 0.1E-03   stopping-criterion for ELM
   LREAL  =      T    real-space projection
   NLSPLINE    = F    spline interpolate recip. space projectors
   LCOMPAT=      F    compatible to vasp.4.4
   GGA_COMPAT  = T    GGA compatible to vasp.4.4-vasp.4.6
   LMAXPAW     = -100 max onsite density
   LMAXMIX     =    4 max onsite mixed and CHGCAR
   VOSKOWN=      0    Vosko Wilk Nusair interpolation
   ROPT   =   -0.00200  -0.00200  -0.00200
 Ionic relaxation
   EDIFFG = -.5E-01   stopping-criterion for IOM
   NSW    =     99    number of steps for IOM
   NBLOCK =      1;   KBLOCK =     99    inner block; outer block 
   IBRION =      2    ionic relax: 0-MD 1-quasi-New 2-CG
   NFREE  =      1    steps in history (QN), initial steepest desc. (CG)
   ISIF   =      3    stress and relaxation
   IWAVPR =     11    prediction:  0-non 1-charg 2-wave 3-comb
   ISYM   =      2    0-nonsym 1-usesym 2-fastsym
   LCORR  =      T    Harris-Foulkes like correction to forces

   POTIM  = 0.1000    time-step for ionic-motion
   TEIN   =    0.0    initial temperature
   TEBEG  =    0.0;   TEEND  =   0.0 temperature during run
   SMASS  =  -3.00    Nose mass-parameter (am)
   estimated Nose-frequenzy (Omega)   =  0.10E-29 period in steps =****** mass=  -0.284E-27a.u.
   SCALEE = 1.0000    scale energy and forces
   NPACO  =    256;   APACO  = 16.0  distance and # of slots for P.C.
   PSTRESS=    0.0 pullay stress

  Mass of Ions in am
   POMASS =  39.10 44.96 32.07
  Ionic Valenz
   ZVAL   =   7.00  3.00  6.00
  Atomic Wigner-Seitz radii
   RWIGS  =  -1.00 -1.00 -1.00
  virtual crystal weights 
   VCA    =   1.00  1.00  1.00
   NELECT =      92.0000    total number of electrons
   NUPDOWN=      -1.0000    fix difference up-down

 DOS related values:
   EMIN   =  10.00;   EMAX   =-10.00  energy-range for DOS
   EFERMI =   0.00
   ISMEAR =     0;   SIGMA  =   0.05  broadening in eV -4-tet -1-fermi 0-gaus

 Electronic relaxation 2 (details)
   IALGO  =     38    algorithm
   LDIAG  =      T    sub-space diagonalisation (order eigenvalues)
   LSUBROT=      F    optimize rotation matrix (better conditioning)
   TURBO    =      0    0=normal 1=particle mesh
   IRESTART =      0    0=no restart 2=restart with 2 vectors
   NREBOOT  =      0    no. of reboots
   NMIN     =      0    reboot dimension
   EREF     =   0.00    reference energy to select bands
   IMIX   =      4    mixing-type and parameters
     AMIX     =   0.40;   BMIX     =  1.00
     AMIX_MAG =   1.60;   BMIX_MAG =  1.00
     AMIN     =   0.10
     WC   =   100.;   INIMIX=   1;  MIXPRE=   1;  MAXMIX= -45

 Intra band minimization:
   WEIMIN = 0.0010     energy-eigenvalue tresh-hold
   EBREAK =  0.45E-06  absolut break condition
   DEPER  =   0.30     relativ break condition  

   TIME   =   0.40     timestep for ELM

  volume/ion in A,a.u.               =      19.32       130.37
  Fermi-wavevector in a.u.,A,eV,Ry     =   1.050961  1.986028 15.027885  1.104518
  Thomas-Fermi vector in A             =   2.185985
 
 Write flags
   LWAVE        =      F    write WAVECAR
   LDOWNSAMPLE  =      F    k-point downsampling of WAVECAR
   LCHARG       =      F    write CHGCAR
   LVTOT        =      F    write LOCPOT, total local potential
   LVHAR        =      F    write LOCPOT, Hartree potential only
   LELF         =      F    write electronic localiz. function (ELF)
   LORBIT       =     10    0 simple, 1 ext, 2 COOP (PROOUT), +10 PAW based schemes


 Dipole corrections
   LMONO  =      F    monopole corrections only (constant potential shift)
   LDIPOL =      F    correct potential (dipole corrections)
   IDIPOL =      0    1-x, 2-y, 3-z, 4-all directions 
   EPSILON=  1.0000000 bulk dielectric constant

 Exchange correlation treatment:
   GGA     =    --    GGA type
   LEXCH   =     8    internal setting for exchange type
   VOSKOWN=      0    Vosko Wilk Nusair interpolation
   LHFCALC =     F    Hartree Fock is set to
   LHFONE  =     F    Hartree Fock one center treatment
   AEXX    =    0.0000 exact exchange contribution

 Linear response parameters
   LEPSILON=     F    determine dielectric tensor
   LRPA    =     F    only Hartree local field effects (RPA)
   LNABLA  =     F    use nabla operator in PAW spheres
   LVEL    =     F    velocity operator in full k-point grid
   LINTERFAST=   F  fast interpolation
   KINTER  =     0    interpolate to denser k-point grid
   CSHIFT  =0.1000    complex shift for real part using Kramers Kronig
   OMEGAMAX=  -1.0    maximum frequency
   DEG_THRESHOLD= 0.2000000E-02 threshold for treating states as degnerate
   RTIME   =   -0.100 relaxation time in fs
  (WPLASMAI=    0.000 imaginary part of plasma frequency in eV, 0.658/RTIME)
   DFIELD  = 0.0000000 0.0000000 0.0000000 field for delta impulse in time
 
 Orbital magnetization related:
   ORBITALMAG=     F  switch on orbital magnetization
   LCHIMAG   =     F  perturbation theory with respect to B field
   DQ        =  0.001000  dq finite difference perturbation B field
   LLRAUG    =     F  two centre corrections for induced B field



--------------------------------------------------------------------------------------------------------


 conjugate gradient relaxation of ions
 charge density and potential will be updated during run
 non-spin polarized calculation
 Variant of blocked Davidson
 Davidson routine will perform the subspace rotation
 perform sub-space diagonalisation
    after iterative eigenvector-optimisation
 modified Broyden-mixing scheme, WC =      100.0
 initial mixing is a Kerker type mixing with AMIX =  0.4000 and BMIX =      1.0000
 Hartree-type preconditioning will be used
 using additional bands           10
 real space projection scheme for non local part
 use partial core corrections
 calculate Harris-corrections to forces 
   (improved forces if not selfconsistent)
 use gradient corrections 
 use of overlap-Matrix (Vanderbilt PP)
 Gauss-broadening in eV      SIGMA  =   0.05


--------------------------------------------------------------------------------------------------------


  energy-cutoff  :      300.00
  volume of cell :      347.74
      direct lattice vectors                 reciprocal lattice vectors
    -0.000214840 -3.522638480  0.000048760     0.051645373 -0.283880804  0.033905443
    -9.691048610 -1.761904240  0.009645230    -0.103159020  0.000006712  0.030351880
    -2.996304750 -1.761360810-10.183357360    -0.000097460 -0.000001353 -0.098170531

  length of vectors
     3.522638487  9.849914860 10.760158046     0.290525617  0.107531484  0.098170579


 
 k-points in units of 2pi/SCALE and weight: pymatgen with grid density = 807 / numbe
  -0.02151034 -0.02365539 -0.01412921       0.083
  -0.01290278 -0.07096886 -0.00847830       0.083
  -0.00429521 -0.11828233 -0.00282739       0.083
  -0.04733303  0.11828501 -0.03108193       0.083
  -0.03872546  0.07097154 -0.02543102       0.083
  -0.03011790  0.02365807 -0.01978012       0.083
   0.03006917 -0.02365875 -0.02930515       0.083
   0.03867673 -0.07097222 -0.02365424       0.083
   0.04728430 -0.11828568 -0.01800333       0.083
   0.00424648  0.11828165 -0.04625787       0.083
   0.01285405  0.07096818 -0.04060696       0.083
   0.02146161  0.02365472 -0.03495606       0.083
 
 k-points in reciprocal lattice and weights: pymatgen with grid density = 807 / numbe
   0.08333333  0.25000000  0.25000000       0.083
   0.25000000  0.25000000  0.25000000       0.083
   0.41666667  0.25000000  0.25000000       0.083
  -0.41666667  0.25000000  0.25000000       0.083
  -0.25000000  0.25000000  0.25000000       0.083
  -0.08333333  0.25000000  0.25000000       0.083
   0.08333333 -0.25000000  0.25000000       0.083
   0.25000000 -0.25000000  0.25000000       0.083
   0.41666667 -0.25000000  0.25000000       0.083
  -0.41666667 -0.25000000  0.25000000       0.083
  -0.25000000 -0.25000000  0.25000000       0.083
  -0.08333333 -0.25000000  0.25000000       0.083
 
 position of ions in fractional coordinates (direct lattice) 
   0.74455108  0.33353700  0.17411992
   0.25534513  0.66647325  0.82590821
   0.50000113  0.00001793  0.99998361
   0.50002426  0.49997072  0.50000546
   0.83556095  0.93954560  0.38893368
   0.16443661  0.06047544  0.61108634
   0.02086149  0.73235058  0.22507608
   0.97915636  0.26764474  0.77491120
   0.92745563  0.99291975  0.15220777
   0.07256651  0.00708647  0.84776804
   0.59678182  0.73230746  0.07396941
   0.40324746  0.26768792  0.92599594
   0.42719923  0.75635984  0.38910314
   0.57283425  0.24362068  0.61089441
   0.25648594  0.10421613  0.38235747
   0.74348672  0.89580859  0.61767721
   0.08326070  0.48658975  0.34669514
   0.91674673  0.51338615  0.65330698
 
 position of ions in cartesian coordinates  (Angst):
  -3.75419958 -3.51713254 -1.76987202
  -8.93355221 -3.52847298 -8.40407771
  -2.99653682 -3.52268675-10.18316590
  -6.34351671 -3.52299525 -5.08688757
 -10.27072543 -5.28382107 -3.95154778
  -2.41710666 -1.76214619 -6.22231926
  -7.77164608 -1.76025927 -2.28496545
  -4.91583866 -5.28567649 -7.88856843
 -10.07869368 -5.28461321 -1.54036395
  -2.60886232 -1.76133666 -8.63305302
  -7.31859030 -3.52278904 -0.74616456
  -5.36882931 -3.52314846 -9.42714600
  -8.49588334 -3.52285308 -3.95506023
  -4.19148874 -3.52312975 -6.21857838
  -2.15567819 -1.76059555 -3.89266506
 -10.53223348 -5.28531631 -6.28135123
  -5.75438710 -1.76127712 -3.52582318
  -6.93295390 -5.28461385 -6.64786202
 


--------------------------------------------------------------------------------------------------------


 k-point  1 :   0.0833 0.2500 0.2500  plane waves:    4075
 k-point  2 :   0.2500 0.2500 0.2500  plane waves:    4100
 k-point  3 :   0.4167 0.2500 0.2500  plane waves:    4122
 k-point  4 :  -0.4167 0.2500 0.2500  plane waves:    4112
 k-point  5 :  -0.2500 0.2500 0.2500  plane waves:    4113
 k-point  6 :  -0.0833 0.2500 0.2500  plane waves:    4067
 k-point  7 :   0.0833-0.2500 0.2500  plane waves:    4087
 k-point  8 :   0.2500-0.2500 0.2500  plane waves:    4111
 k-point  9 :   0.4167-0.2500 0.2500  plane waves:    4119
 k-point 10 :  -0.4167-0.2500 0.2500  plane waves:    4130
 k-point 11 :  -0.2500-0.2500 0.2500  plane waves:    4103
 k-point 12 :  -0.0833-0.2500 0.2500  plane waves:    4082

 maximum and minimum number of plane-waves per node :      4130     4067

 maximum number of plane-waves:      4130
 maximum index in each direction: 
   IXMAX=    5   IYMAX=   14   IZMAX=   14
   IXMIN=   -5   IYMIN=  -14   IZMIN=  -15


 serial   3D FFT for wavefunctions
 parallel 3D FFT for charge:
    minimum data exchange during FFTs selected (reduces bandwidth)


 total amount of memory used by VASP MPI-rank0    38855. kBytes
=======================================================================

   base      :      30000. kBytes
   nonlr-proj:       3111. kBytes
   fftplans  :        424. kBytes
   grid      :       1804. kBytes
   one-center:        194. kBytes
   wavefun   :       3322. kBytes
 
     INWAV:  cpu time    0.0000: real time    0.0001
 Broyden mixing: mesh for mixing (old mesh)
   NGX =  9   NGY = 27   NGZ = 31
  (NGX  = 24   NGY  = 60   NGZ  = 64)
  gives a total of   7533 points

 initial charge density was supplied:
 charge density of overlapping atoms calculated
 number of electron      92.0000000 magnetization 
 keeping initial charge density in first step


--------------------------------------------------------------------------------------------------------


 Maximum index for non-local projection operator         2001
 Maximum index for augmentation-charges          300 (set IRDMAX)


--------------------------------------------------------------------------------------------------------


 First call to EWALD:  gamma=   0.252
 Maximum number of real-space cells 5x 2x 2
 Maximum number of reciprocal cells 2x 4x 4

    FEWALD:  cpu time    0.0114: real time    0.0114


--------------------------------------- Iteration      1(   1)  ---------------------------------------


    POTLOK:  cpu time    0.0053: real time    0.0053
    SETDIJ:  cpu time    0.3291: real time    0.3291
     EDDAV:  cpu time    0.5009: real time    0.5010
       DOS:  cpu time    0.0006: real time    0.0006
    --------------------------------------------
      LOOP:  cpu time    0.8359: real time    0.8361

 eigenvalue-minimisations  :  1344
 total energy-change (2. order) : 0.7804602E+03  (-0.2303321E+04)
 number of electron      92.0000000 magnetization 
 augmentation part       92.0000000 magnetization 

 Free energy of the ion-electron system (eV)
  ---------------------------------------------------
  alpha Z        PSCENC =       205.90008506
  Ewald energy   TEWEN  =     -3640.23555371
  -Hartree energ DENC   =      -568.02265906
  -exchange      EXHF   =         0.00000000
  -V(xc)+E(xc)   XCENC  =      -366.34317393
  PAW double counting   =      3613.73928768    -3042.45643016
  entropy T*S    EENTRO =        -0.01499274
  eigenvalues    EBANDS =       640.92983558
  atomic energy  EATOM  =      3936.96380017
  Solvation  Ediel_sol  =         0.00000000
  ---------------------------------------------------
  free energy    TOTEN  =       780.46019888 eV

  energy without entropy =      780.47519162  energy(sigma->0) =      780.46769525


--------------------------------------------------------------------------------------------------------




--------------------------------------- Iteration      1(   2)  ---------------------------------------


     EDDAV:  cpu time    0.6124: real time    0.6126
       DOS:  cpu time    0.0007: real time    0.0007
    --------------------------------------------
      LOOP:  cpu time    0.6131: real time    0.6133

 eigenvalue-minimisations  :  1540
 total energy-change (2. order) :-0.6809829E+03  (-0.6703941E+03)
 number of electron      92.0000000 magnetization 
 augmentation part       92.0000000 magnetization 

 Free energy of the ion-electron system (eV)
  ---------------------------------------------------
  alpha Z        PSCENC =       205.90008506
  Ewald energy   TEWEN  =     -3640.23555371
  -Hartree energ DENC   =      -568.02265906
  -exchange      EXHF   =         0.00000000
  -V(xc)+E(xc)   XCENC  =      -366.34317393
  PAW double counting   =      3613.73928768    -3042.45643016
  entropy T*S    EENTRO =        -0.01012726
  eigenvalues    EBANDS =       -40.05789893
  atomic energy  EATOM  =      3936.96380017
  Solvation  Ediel_sol  =         0.00000000
  ---------------------------------------------------
  free energy    TOTEN  =        99.47732986 eV

  energy without entropy =       99.48745712  energy(sigma->0) =       99.48239349


--------------------------------------------------------------------------------------------------------




--------------------------------------- Iteration      1(   3)  ---------------------------------------


     EDDAV:  cpu time    0.9558: real time    0.9560
       DOS:  cpu time    0.0003: real time    0.0003
    --------------------------------------------
      LOOP:  cpu time    0.9560: real time    0.9563

 eigenvalue-minimisations  :  2352
 total energy-change (2. order) :-0.2037518E+03  (-0.2000638E+03)
 number of electron      92.0000000 magnetization 
 augmentation part       92.0000000 magnetization 

 Free energy of the ion-electron system (eV)
  ---------------------------------------------------
  alpha Z        PSCENC =       205.90008506
  Ewald energy   TEWEN  =     -3640.23555371
  -Hartree energ DENC   =      -568.02265906
  -exchange      EXHF   =         0.00000000
  -V(xc)+E(xc)   XCENC  =      -366.34317393
  PAW double counting   =      3613.73928768    -3042.45643016
  entropy T*S    EENTRO =        -0.00000000
  eigenvalues    EBANDS =      -243.81979551
  atomic energy  EATOM  =      3936.96380017
  Solvation  Ediel_sol  =         0.00000000
  ---------------------------------------------------
  free energy    TOTEN  =      -104.27443946 eV

  energy without entropy =     -104.27443946  energy(sigma->0) =     -104.27443946


--------------------------------------------------------------------------------------------------------




--------------------------------------- Iteration      1(   4)  ---------------------------------------


     EDDAV:  cpu time    0.8236: real time    0.8238
       DOS:  cpu time    0.0002: real time    0.0002
    --------------------------------------------
      LOOP:  cpu time    0.8238: real time    0.8240

 eigenvalue-minimisations  :  2142
 total energy-change (2. order) :-0.1803392E+02  (-0.1798700E+02)
 number of electron      92.0000000 magnetization 
 augmentation part       92.0000000 magnetization 

 Free energy of the ion-electron system (eV)
  ---------------------------------------------------
  alpha Z        PSCENC =       205.90008506
  Ewald energy   TEWEN  =     -3640.23555371
  -Hartree energ DENC   =      -568.02265906
  -exchange      EXHF   =         0.00000000
  -V(xc)+E(xc)   XCENC  =      -366.34317393
  PAW double counting   =      3613.73928768    -3042.45643016
  entropy T*S    EENTRO =        -0.00000000
  eigenvalues    EBANDS =      -261.85372019
  atomic energy  EATOM  =      3936.96380017
  Solvation  Ediel_sol  =         0.00000000
  ---------------------------------------------------
  free energy    TOTEN  =      -122.30836415 eV

  energy without entropy =     -122.30836415  energy(sigma->0) =     -122.30836415


--------------------------------------------------------------------------------------------------------




--------------------------------------- Iteration      1(   5)  ---------------------------------------


     EDDAV:  cpu time    0.7787: real time    0.7886
       DOS:  cpu time    0.0002: real time    0.0003
    CHARGE:  cpu time    0.0151: real time    0.0151
    MIXING:  cpu time    0.0004: real time    0.0004
    --------------------------------------------
      LOOP:  cpu time    0.7944: real time    0.8044

 eigenvalue-minimisations  :  2198
 total energy-change (2. order) :-0.4301633E+00  (-0.4295727E+00)
 number of electron      92.0000272 magnetization 
 augmentation part       -0.1739231 magnetization 

 Broyden mixing:
  rms(total) = 0.41516E+01    rms(broyden)= 0.41515E+01
  rms(prec ) = 0.44938E+01
  weight for this iteration     100.00

 Free energy of the ion-electron system (eV)
  ---------------------------------------------------
  alpha Z        PSCENC =       205.90008506
  Ewald energy   TEWEN  =     -3640.23555371
  -Hartree energ DENC   =      -568.02265906
  -exchange      EXHF   =         0.00000000
  -V(xc)+E(xc)   XCENC  =      -366.34317393
  PAW double counting   =      3613.73928768    -3042.45643016
  entropy T*S    EENTRO =        -0.00000000
  eigenvalues    EBANDS =      -262.28388347
  atomic energy  EATOM  =      3936.96380017
  Solvation  Ediel_sol  =         0.00000000
  ---------------------------------------------------
  free energy    TOTEN  =      -122.73852743 eV

  energy without entropy =     -122.73852743  energy(sigma->0) =     -122.73852743


--------------------------------------------------------------------------------------------------------




--------------------------------------- Iteration      1(   6)  ---------------------------------------


    POTLOK:  cpu time    0.0056: real time    0.0068
    SETDIJ:  cpu time    0.1747: real time    0.1755
     EDDAV:  cpu time    0.9071: real time    0.9146
       DOS:  cpu time    0.0003: real time    0.0003
    CHARGE:  cpu time    0.0146: real time    0.0146
    MIXING:  cpu time    0.0005: real time    0.0005
    --------------------------------------------
      LOOP:  cpu time    1.1027: real time    1.1123

 eigenvalue-minimisations  :  2044
 total energy-change (2. order) : 0.1188546E+02  (-0.3855436E+01)
 number of electron      92.0000278 magnetization 
 augmentation part        1.7076300 magnetization 

 Broyden mixing:
  rms(total) = 0.19628E+01    rms(broyden)= 0.19628E+01
  rms(prec ) = 0.20355E+01
  weight for this iteration     100.00

 eigenvalues of (default mixing * dielectric matrix)
  average eigenvalue GAMMA=   1.5080
  1.5080

 Free energy of the ion-electron system (eV)
  ---------------------------------------------------
  alpha Z        PSCENC =       205.90008506
  Ewald energy   TEWEN  =     -3640.23555371
  -Hartree energ DENC   =      -614.07227545
  -exchange      EXHF   =         0.00000000
  -V(xc)+E(xc)   XCENC  =      -358.88995507
  PAW double counting   =      5106.72292462    -4538.06348066
  entropy T*S    EENTRO =        -0.00000000
  eigenvalues    EBANDS =      -209.17861665
  atomic energy  EATOM  =      3936.96380017
  Solvation  Ediel_sol  =         0.00000000
  ---------------------------------------------------
  free energy    TOTEN  =      -110.85307170 eV

  energy without entropy =     -110.85307170  energy(sigma->0) =     -110.85307170


--------------------------------------------------------------------------------------------------------




--------------------------------------- Iteration      1(   7)  ---------------------------------------


    POTLOK:  cpu time    0.0040: real time    0.0042
    SETDIJ:  cpu time    0.1697: real time    0.1701
     EDDAV:  cpu time    0.7532: real time    0.7554
       DOS:  cpu time    0.0002: real time    0.0002
    CHARGE:  cpu time    0.0133: real time    0.0133
    MIXING:  cpu time    0.0003: real time    0.0003
    --------------------------------------------
      LOOP:  cpu time    0.9407: real time    0.9435

 eigenvalue-minimisations  :  2072
 total energy-change (2. order) : 0.1011433E+01  (-0.4138559E+00)
 number of electron      92.0000284 magnetization 
 augmentation part        2.2255306 magnetization 

 Broyden mixing:
  rms(total) = 0.70157E+00    rms(broyden)= 0.70152E+00
  rms(prec ) = 0.73148E+00
  weight for this iteration     100.00

 eigenvalues of (default mixing * dielectric matrix)
  average eigenvalue GAMMA=   1.6311
  1.1944  2.0679

 Free energy of the ion-electron system (eV)
  ---------------------------------------------------
  alpha Z        PSCENC =       205.90008506
  Ewald energy   TEWEN  =     -3640.23555371
  -Hartree energ DENC   =      -629.92804240
  -exchange      EXHF   =         0.00000000
  -V(xc)+E(xc)   XCENC  =      -355.82340656
  PAW double counting   =      7327.59814127    -6760.76592652
  entropy T*S    EENTRO =        -0.00000000
  eigenvalues    EBANDS =      -193.55073637
  atomic energy  EATOM  =      3936.96380017
  Solvation  Ediel_sol  =         0.00000000
  ---------------------------------------------------
  free energy    TOTEN  =      -109.84163905 eV

  energy without entropy =     -109.84163905  energy(sigma->0) =     -109.84163905


--------------------------------------------------------------------------------------------------------




--------------------------------------- Iteration      1(   8)  ---------------------------------------


    POTLOK:  cpu time    0.0039: real time    0.0040
    SETDIJ:  cpu time    0.1669: real time    0.1671
     EDDAV:  cpu time    0.7132: real time    0.7153
       DOS:  cpu time    0.0003: real time    0.0003
    CHARGE:  cpu time    0.0163: real time    0.0164
    MIXING:  cpu time    0.0004: real time    0.0004
    --------------------------------------------
      LOOP:  cpu time    0.9011: real time    0.9036

 eigenvalue-minimisations  :  2156
 total energy-change (2. order) : 0.1256034E+00  (-0.8979977E-01)
 number of electron      92.0000281 magnetization 
 augmentation part        2.0715774 magnetization 

 Broyden mixing:
  rms(total) = 0.18553E+00    rms(broyden)= 0.18553E+00
  rms(prec ) = 0.20668E+00
  weight for this iteration     100.00

 eigenvalues of (default mixing * dielectric matrix)
  average eigenvalue GAMMA=   1.4674
  2.3725  1.1248  0.9050

 Free energy of the ion-electron system (eV)
  ---------------------------------------------------
  alpha Z        PSCENC =       205.90008506
  Ewald energy   TEWEN  =     -3640.23555371
  -Hartree energ DENC   =      -630.84906203
  -exchange      EXHF   =         0.00000000
  -V(xc)+E(xc)   XCENC  =      -355.08158877
  PAW double counting   =      8851.98754227    -8286.26608886
  entropy T*S    EENTRO =        -0.00000000
  eigenvalues    EBANDS =      -192.13516978
  atomic energy  EATOM  =      3936.96380017
  Solvation  Ediel_sol  =         0.00000000
  ---------------------------------------------------
  free energy    TOTEN  =      -109.71603565 eV

  energy without entropy =     -109.71603565  energy(sigma->0) =     -109.71603565


--------------------------------------------------------------------------------------------------------




--------------------------------------- Iteration      1(   9)  ---------------------------------------


    POTLOK:  cpu time    0.0042: real time    0.0065
    SETDIJ:  cpu time    0.1696: real time    0.1701
     EDDAV:  cpu time    0.8472: real time    0.8542
       DOS:  cpu time    0.0004: real time    0.0004
    CHARGE:  cpu time    0.0150: real time    0.0151
    MIXING:  cpu time    0.0004: real time    0.0004
    --------------------------------------------
      LOOP:  cpu time    1.0368: real time    1.0467

 eigenvalue-minimisations  :  2086
 total energy-change (2. order) : 0.9407426E-02  (-0.1740780E-01)
 number of electron      92.0000283 magnetization 
 augmentation part        2.1715653 magnetization 

 Broyden mixing:
  rms(total) = 0.11949E+00    rms(broyden)= 0.11948E+00
  rms(prec ) = 0.12765E+00
  weight for this iteration     100.00

 eigenvalues of (default mixing * dielectric matrix)
  average eigenvalue GAMMA=   1.3299
  2.2143  1.2824  0.9114  0.9114

 Free energy of the ion-electron system (eV)
  ---------------------------------------------------
  alpha Z        PSCENC =       205.90008506
  Ewald energy   TEWEN  =     -3640.23555371
  -Hartree energ DENC   =      -632.51763416
  -exchange      EXHF   =         0.00000000
  -V(xc)+E(xc)   XCENC  =      -354.61879956
  PAW double counting   =      9176.60528337    -8611.12589355
  entropy T*S    EENTRO =        -0.00000000
  eigenvalues    EBANDS =      -190.67791584
  atomic energy  EATOM  =      3936.96380017
  Solvation  Ediel_sol  =         0.00000000
  ---------------------------------------------------
  free energy    TOTEN  =      -109.70662823 eV

  energy without entropy =     -109.70662823  energy(sigma->0) =     -109.70662823


--------------------------------------------------------------------------------------------------------




--------------------------------------- Iteration      1(  10)  ---------------------------------------


    POTLOK:  cpu time    0.0051: real time    0.0052
    SETDIJ:  cpu time    0.1718: real time    0.1725
     EDDAV:  cpu time    0.7325: real time    0.7407
       DOS:  cpu time    0.0002: real time    0.0002
    CHARGE:  cpu time    0.0137: real time    0.0137
    MIXING:  cpu time    0.0004: real time    0.0004
    --------------------------------------------
      LOOP:  cpu time    0.9237: real time    0.9327

 eigenvalue-minimisations  :  2184
 total energy-change (2. order) : 0.1666114E-02  (-0.2359522E-02)
 number of electron      92.0000282 magnetization 
 augmentation part        2.1320038 magnetization 

 Broyden mixing:
  rms(total) = 0.84744E-01    rms(broyden)= 0.84743E-01
  rms(prec ) = 0.92231E-01
  weight for this iteration     100.00

 eigenvalues of (default mixing * dielectric matrix)
  average eigenvalue GAMMA=   1.5087
  2.4929  1.5457  1.5457  1.0937  0.8657

 Free energy of the ion-electron system (eV)
  ---------------------------------------------------
  alpha Z        PSCENC =       205.90008506
  Ewald energy   TEWEN  =     -3640.23555371
  -Hartree energ DENC   =      -632.02599864
  -exchange      EXHF   =         0.00000000
  -V(xc)+E(xc)   XCENC  =      -354.70840827
  PAW double counting   =      9121.40940515    -8555.93118613
  entropy T*S    EENTRO =        -0.00000000
  eigenvalues    EBANDS =      -191.07710573
  atomic energy  EATOM  =      3936.96380017
  Solvation  Ediel_sol  =         0.00000000
  ---------------------------------------------------
  free energy    TOTEN  =      -109.70496211 eV

  energy without entropy =     -109.70496211  energy(sigma->0) =     -109.70496211


--------------------------------------------------------------------------------------------------------




--------------------------------------- Iteration      1(  11)  ---------------------------------------


    POTLOK:  cpu time    0.0040: real time    0.0042
    SETDIJ:  cpu time    0.1689: real time    0.1699
     EDDAV:  cpu time    0.8231: real time    0.8284
       DOS:  cpu time    0.0003: real time    0.0003
    CHARGE:  cpu time    0.0141: real time    0.0142
    MIXING:  cpu time    0.0004: real time    0.0004
    --------------------------------------------
      LOOP:  cpu time    1.0108: real time    1.0173

 eigenvalue-minimisations  :  2170
 total energy-change (2. order) : 0.1026371E-02  (-0.2139296E-02)
 number of electron      92.0000283 magnetization 
 augmentation part        2.1575119 magnetization 

 Broyden mixing:
  rms(total) = 0.31834E-01    rms(broyden)= 0.31831E-01
  rms(prec ) = 0.34504E-01
  weight for this iteration     100.00

 eigenvalues of (default mixing * dielectric matrix)
  average eigenvalue GAMMA=   1.3980
  2.2790  2.2790  1.3309  0.9320  0.8425  0.7248

 Free energy of the ion-electron system (eV)
  ---------------------------------------------------
  alpha Z        PSCENC =       205.90008506
  Ewald energy   TEWEN  =     -3640.23555371
  -Hartree energ DENC   =      -632.98217699
  -exchange      EXHF   =         0.00000000
  -V(xc)+E(xc)   XCENC  =      -354.51000575
  PAW double counting   =      9211.35331028    -8645.96055985
  entropy T*S    EENTRO =        -0.00000000
  eigenvalues    EBANDS =      -190.23283495
  atomic energy  EATOM  =      3936.96380017
  Solvation  Ediel_sol  =         0.00000000
  ---------------------------------------------------
  free energy    TOTEN  =      -109.70393574 eV

  energy without entropy =     -109.70393574  energy(sigma->0) =     -109.70393574


--------------------------------------------------------------------------------------------------------




--------------------------------------- Iteration      1(  12)  ---------------------------------------


    POTLOK:  cpu time    0.0047: real time    0.0048
    SETDIJ:  cpu time    0.1698: real time    0.1705
     EDDAV:  cpu time    0.8481: real time    0.8554
       DOS:  cpu time    0.0003: real time    0.0004
    CHARGE:  cpu time    0.0152: real time    0.0153
    MIXING:  cpu time    0.0005: real time    0.0005
    --------------------------------------------
      LOOP:  cpu time    1.0385: real time    1.0469

 eigenvalue-minimisations  :  2128
 total energy-change (2. order) :-0.1206982E-03  (-0.1651189E-03)
 number of electron      92.0000283 magnetization 
 augmentation part        2.1580521 magnetization 

 Broyden mixing:
  rms(total) = 0.30800E-01    rms(broyden)= 0.30800E-01
  rms(prec ) = 0.32825E-01
  weight for this iteration     100.00

 eigenvalues of (default mixing * dielectric matrix)
  average eigenvalue GAMMA=   1.3757
  2.2703  2.2703  1.0442  1.0442  0.8333  1.0838  1.0838

 Free energy of the ion-electron system (eV)
  ---------------------------------------------------
  alpha Z        PSCENC =       205.90008506
  Ewald energy   TEWEN  =     -3640.23555371
  -Hartree energ DENC   =      -633.04864742
  -exchange      EXHF   =         0.00000000
  -V(xc)+E(xc)   XCENC  =      -354.50698366
  PAW double counting   =      9185.77811693    -8620.37658068
  entropy T*S    EENTRO =        -0.00000000
  eigenvalues    EBANDS =      -190.17829312
  atomic energy  EATOM  =      3936.96380017
  Solvation  Ediel_sol  =         0.00000000
  ---------------------------------------------------
  free energy    TOTEN  =      -109.70405644 eV

  energy without entropy =     -109.70405644  energy(sigma->0) =     -109.70405644


--------------------------------------------------------------------------------------------------------




--------------------------------------- Iteration      1(  13)  ---------------------------------------


    POTLOK:  cpu time    0.0042: real time    0.0043
    SETDIJ:  cpu time    0.1692: real time    0.1695
     EDDAV:  cpu time    0.7122: real time    0.7122
       DOS:  cpu time    0.0002: real time    0.0002
    CHARGE:  cpu time    0.0148: real time    0.0148
    MIXING:  cpu time    0.0005: real time    0.0005
    --------------------------------------------
      LOOP:  cpu time    0.9011: real time    0.9015

 eigenvalue-minimisations  :  2030
 total energy-change (2. order) : 0.3622851E-04  (-0.1191966E-03)
 number of electron      92.0000283 magnetization 
 augmentation part        2.1602112 magnetization 

 Broyden mixing:
  rms(total) = 0.12807E-01    rms(broyden)= 0.12806E-01
  rms(prec ) = 0.14354E-01
  weight for this iteration     100.00

 eigenvalues of (default mixing * dielectric matrix)
  average eigenvalue GAMMA=   1.4678
  2.4200  2.4200  1.5405  1.5405  1.2020  0.9256  0.9256  0.7681

 Free energy of the ion-electron system (eV)
  ---------------------------------------------------
  alpha Z        PSCENC =       205.90008506
  Ewald energy   TEWEN  =     -3640.23555371
  -Hartree energ DENC   =      -633.09960242
  -exchange      EXHF   =         0.00000000
  -V(xc)+E(xc)   XCENC  =      -354.50013368
  PAW double counting   =      9172.52635116    -8607.12075662
  entropy T*S    EENTRO =        -0.00000000
  eigenvalues    EBANDS =      -190.13821017
  atomic energy  EATOM  =      3936.96380017
  Solvation  Ediel_sol  =         0.00000000
  ---------------------------------------------------
  free energy    TOTEN  =      -109.70402021 eV

  energy without entropy =     -109.70402021  energy(sigma->0) =     -109.70402021


--------------------------------------------------------------------------------------------------------




--------------------------------------- Iteration      1(  14)  ---------------------------------------


    POTLOK:  cpu time    0.0046: real time    0.0066
    SETDIJ:  cpu time    0.1713: real time    0.1715
     EDDAV:  cpu time    0.6700: real time    0.6742
       DOS:  cpu time    0.0003: real time    0.0003
    CHARGE:  cpu time    0.0135: real time    0.0136
    MIXING:  cpu time    0.0005: real time    0.0005
    --------------------------------------------
      LOOP:  cpu time    0.8602: real time    0.8668

 eigenvalue-minimisations  :  1652
 total energy-change (2. order) :-0.1393825E-03  (-0.5928561E-04)
 number of electron      92.0000283 magnetization 
 augmentation part        2.1615658 magnetization 

 Broyden mixing:
  rms(total) = 0.69036E-02    rms(broyden)= 0.69031E-02
  rms(prec ) = 0.76474E-02
  weight for this iteration     100.00

 eigenvalues of (default mixing * dielectric matrix)
  average eigenvalue GAMMA=   1.4128
  2.4186  2.4186  1.4452  1.4452  1.0735  1.0735  1.0992  0.9259  0.8159

 Free energy of the ion-electron system (eV)
  ---------------------------------------------------
  alpha Z        PSCENC =       205.90008506
  Ewald energy   TEWEN  =     -3640.23555371
  -Hartree energ DENC   =      -633.20823081
  -exchange      EXHF   =         0.00000000
  -V(xc)+E(xc)   XCENC  =      -354.48917179
  PAW double counting   =      9156.77077401    -8591.36067140
  entropy T*S    EENTRO =        -0.00000000
  eigenvalues    EBANDS =      -190.04519112
  atomic energy  EATOM  =      3936.96380017
  Solvation  Ediel_sol  =         0.00000000
  ---------------------------------------------------
  free energy    TOTEN  =      -109.70415960 eV

  energy without entropy =     -109.70415960  energy(sigma->0) =     -109.70415960


--------------------------------------------------------------------------------------------------------




--------------------------------------- Iteration      1(  15)  ---------------------------------------


    POTLOK:  cpu time    0.0096: real time    0.0097
    SETDIJ:  cpu time    0.1836: real time    0.1849
     EDDAV:  cpu time    0.5617: real time    0.5652
       DOS:  cpu time    0.0002: real time    0.0002
    --------------------------------------------
      LOOP:  cpu time    0.7551: real time    0.7600

 eigenvalue-minimisations  :  1176
 total energy-change (2. order) :-0.2357572E-04  (-0.8914265E-05)
 number of electron      92.0000283 magnetization 
 augmentation part        2.1615658 magnetization 

 Free energy of the ion-electron system (eV)
  ---------------------------------------------------
  alpha Z        PSCENC =       205.90008506
  Ewald energy   TEWEN  =     -3640.23555371
  -Hartree energ DENC   =      -633.22507327
  -exchange      EXHF   =         0.00000000
  -V(xc)+E(xc)   XCENC  =      -354.48978504
  PAW double counting   =      9151.53251309    -8586.12063758
  entropy T*S    EENTRO =        -0.00000000
  eigenvalues    EBANDS =      -190.02953189
  atomic energy  EATOM  =      3936.96380017
  Solvation  Ediel_sol  =         0.00000000
  ---------------------------------------------------
  free energy    TOTEN  =      -109.70418317 eV

  energy without entropy =     -109.70418317  energy(sigma->0) =     -109.70418317


--------------------------------------------------------------------------------------------------------




 average (electrostatic) potential at core
  the test charge radii are     1.3383  1.3152  0.9698
  (the norm of the test charge is              1.0000)
       1  -9.8823       2  -9.8821       3 -41.4474       4 -41.3521       5 -41.3055
       6 -41.3044       7 -41.3835       8 -41.3830       9 -86.6500      10 -86.6504
      11 -86.4228      12 -86.4234      13 -86.8025      14 -86.8032      15 -86.3020
      16 -86.3018      17 -86.1712      18 -86.1713
 
 
 
 E-fermi :   3.9542     XC(G=0):  -9.8543     alpha+bet :-11.5288


 k-point     1 :       0.0833    0.2500    0.2500
  band No.  band energies     occupation 
      1      -9.5781      2.00000
      2      -9.4764      2.00000
      3      -9.4266      2.00000
      4      -9.4063      2.00000
      5      -9.2656      2.00000
      6      -9.2409      2.00000
      7      -9.2075      2.00000
      8      -8.8683      2.00000
      9      -8.6174      2.00000
     10      -8.1352      2.00000
     11      -8.0014      2.00000
     12      -7.8739      2.00000
     13      -7.7747      2.00000
     14      -7.6590      2.00000
     15      -7.5542      2.00000
     16      -7.3742      2.00000
     17      -1.0381      2.00000
     18      -0.6651      2.00000
     19      -0.1868      2.00000
     20      -0.0963      2.00000
     21       0.1191      2.00000
     22       0.2332      2.00000
     23       0.3496      2.00000
     24       0.7552      2.00000
     25       0.8848      2.00000
     26       0.9721      2.00000
     27       1.1261      2.00000
     28       1.1943      2.00000
     29       1.3619      2.00000
     30       1.4603      2.00000
     31       1.4827      2.00000
     32       1.6223      2.00000
     33       1.8275      2.00000
     34       1.9067      2.00000
     35       2.0094      2.00000
     36       2.0560      2.00000
     37       2.2469      2.00000
     38       2.2626      2.00000
     39       2.4089      2.00000
     40       2.6607      2.00000
     41       2.9170      2.00000
     42       3.1057      2.00000
     43       3.3981      2.00000
     44       3.4904      2.00000
     45       3.6495      2.00000
     46       3.7052      2.00000
     47       5.4395      0.00000
     48       5.6236      0.00000
     49       6.0720      0.00000
     50       6.2766      0.00000
     51       6.3777      0.00000
     52       6.4513      0.00000
     53       6.5384      0.00000
     54       6.6305      0.00000
     55       6.8307      0.00000
     56       7.0013      0.00000

 k-point     2 :       0.2500    0.2500    0.2500
  band No.  band energies     occupation 
      1      -9.5028      2.00000
      2      -9.4925      2.00000
      3      -9.4265      2.00000
      4      -9.3728      2.00000
      5      -9.3427      2.00000
      6      -9.3324      2.00000
      7      -8.9477      2.00000
      8      -8.5674      2.00000
      9      -8.3845      2.00000
     10      -8.0108      2.00000
     11      -7.9506      2.00000
     12      -7.7303      2.00000
     13      -7.6709      2.00000
     14      -7.5942      2.00000
     15      -7.5262      2.00000
     16      -7.3766      2.00000
     17      -0.5837      2.00000
     18      -0.2582      2.00000
     19      -0.1614      2.00000
     20      -0.0957      2.00000
     21      -0.0056      2.00000
     22       0.0369      2.00000
     23       0.1354      2.00000
     24       0.2182      2.00000
     25       0.3422      2.00000
     26       0.7389      2.00000
     27       0.8874      2.00000
     28       1.0194      2.00000
     29       1.0644      2.00000
     30       1.3368      2.00000
     31       1.4123      2.00000
     32       1.6148      2.00000
     33       1.6635      2.00000
     34       1.7445      2.00000
     35       1.8207      2.00000
     36       1.9100      2.00000
     37       2.0087      2.00000
     38       2.0919      2.00000
     39       2.1440      2.00000
     40       2.2899      2.00000
     41       2.3643      2.00000
     42       2.4998      2.00000
     43       2.9591      2.00000
     44       2.9993      2.00000
     45       3.0761      2.00000
     46       3.3813      2.00000
     47       5.8554      0.00000
     48       6.0281      0.00000
     49       6.1847      0.00000
     50       6.3740      0.00000
     51       6.5804      0.00000
     52       6.6819      0.00000
     53       6.8638      0.00000
     54       6.8943      0.00000
     55       7.0191      0.00000
     56       7.1125      0.00000

 k-point     3 :       0.4167    0.2500    0.2500
  band No.  band energies     occupation 
      1      -9.7101      2.00000
      2      -9.7084      2.00000
      3      -9.3449      2.00000
      4      -9.3280      2.00000
      5      -9.2638      2.00000
      6      -9.2606      2.00000
      7      -8.4233      2.00000
      8      -8.2528      2.00000
      9      -8.1839      2.00000
     10      -8.0708      2.00000
     11      -7.7212      2.00000
     12      -7.6338      2.00000
     13      -7.5965      2.00000
     14      -7.5259      2.00000
     15      -7.4200      2.00000
     16      -7.3837      2.00000
     17      -0.9661      2.00000
     18      -0.9255      2.00000
     19      -0.5764      2.00000
     20      -0.3808      2.00000
     21      -0.1112      2.00000
     22      -0.0675      2.00000
     23       0.1034      2.00000
     24       0.1198      2.00000
     25       0.5479      2.00000
     26       0.6446      2.00000
     27       0.7342      2.00000
     28       1.0106      2.00000
     29       1.0811      2.00000
     30       1.3056      2.00000
     31       1.4711      2.00000
     32       1.5498      2.00000
     33       1.5803      2.00000
     34       1.6776      2.00000
     35       1.7242      2.00000
     36       1.8192      2.00000
     37       1.9067      2.00000
     38       1.9752      2.00000
     39       2.1065      2.00000
     40       2.1411      2.00000
     41       2.2737      2.00000
     42       2.4057      2.00000
     43       2.4376      2.00000
     44       2.6883      2.00000
     45       2.7117      2.00000
     46       2.7361      2.00000
     47       5.2689      0.00000
     48       5.5688      0.00000
     49       6.0596      0.00000
     50       6.5097      0.00000
     51       6.6933      0.00000
     52       6.8776      0.00000
     53       6.9653      0.00000
     54       7.2514      0.00000
     55       7.2967      0.00000
     56       7.4929      0.00000

 k-point     4 :      -0.4167    0.2500    0.2500
  band No.  band energies     occupation 
      1      -9.7090      2.00000
      2      -9.7087      2.00000
      3      -9.3456      2.00000
      4      -9.3291      2.00000
      5      -9.2686      2.00000
      6      -9.2594      2.00000
      7      -8.4014      2.00000
      8      -8.2758      2.00000
      9      -8.1596      2.00000
     10      -8.0849      2.00000
     11      -7.6909      2.00000
     12      -7.6771      2.00000
     13      -7.5772      2.00000
     14      -7.5365      2.00000
     15      -7.4075      2.00000
     16      -7.3981      2.00000
     17      -0.9384      2.00000
     18      -0.8983      2.00000
     19      -0.6096      2.00000
     20      -0.3277      2.00000
     21      -0.1212      2.00000
     22      -0.0700      2.00000
     23       0.0578      2.00000
     24       0.1288      2.00000
     25       0.3952      2.00000
     26       0.6691      2.00000
     27       0.7661      2.00000
     28       0.9848      2.00000
     29       1.1999      2.00000
     30       1.2348      2.00000
     31       1.4948      2.00000
     32       1.5977      2.00000
     33       1.6326      2.00000
     34       1.6816      2.00000
     35       1.7189      2.00000
     36       1.7401      2.00000
     37       1.9422      2.00000
     38       1.9623      2.00000
     39       2.0367      2.00000
     40       2.1658      2.00000
     41       2.2439      2.00000
     42       2.3365      2.00000
     43       2.5537      2.00000
     44       2.6470      2.00000
     45       2.7356      2.00000
     46       2.7898      2.00000
     47       5.2699      0.00000
     48       5.6572      0.00000
     49       5.8879      0.00000
     50       6.6241      0.00000
     51       6.7010      0.00000
     52       6.7804      0.00000
     53       6.9807      0.00000
     54       7.1682      0.00000
     55       7.4013      0.00000
     56       7.4930      0.00000

 k-point     5 :      -0.2500    0.2500    0.2500
  band No.  band energies     occupation 
      1      -9.4944      2.00000
      2      -9.4932      2.00000
      3      -9.4301      2.00000
      4      -9.3959      2.00000
      5      -9.3529      2.00000
      6      -9.3237      2.00000
      7      -8.8534      2.00000
      8      -8.6490      2.00000
      9      -8.4002      2.00000
     10      -8.0344      2.00000
     11      -7.9004      2.00000
     12      -7.7456      2.00000
     13      -7.6700      2.00000
     14      -7.6209      2.00000
     15      -7.4927      2.00000
     16      -7.3677      2.00000
     17      -0.7088      2.00000
     18      -0.2907      2.00000
     19      -0.2569      2.00000
     20      -0.0794      2.00000
     21      -0.0074      2.00000
     22       0.0221      2.00000
     23       0.2567      2.00000
     24       0.3622      2.00000
     25       0.3934      2.00000
     26       0.7093      2.00000
     27       0.8093      2.00000
     28       1.1196      2.00000
     29       1.1579      2.00000
     30       1.3573      2.00000
     31       1.4441      2.00000
     32       1.5316      2.00000
     33       1.6050      2.00000
     34       1.7352      2.00000
     35       1.7915      2.00000
     36       1.9152      2.00000
     37       2.0647      2.00000
     38       2.0787      2.00000
     39       2.1898      2.00000
     40       2.3093      2.00000
     41       2.4069      2.00000
     42       2.5973      2.00000
     43       2.8400      2.00000
     44       2.9932      2.00000
     45       3.0188      2.00000
     46       3.1940      2.00000
     47       5.8279      0.00000
     48       5.9912      0.00000
     49       6.2468      0.00000
     50       6.4295      0.00000
     51       6.5998      0.00000
     52       6.6609      0.00000
     53       6.7409      0.00000
     54       6.9396      0.00000
     55       7.0651      0.00000
     56       7.1671      0.00000

 k-point     6 :      -0.0833    0.2500    0.2500
  band No.  band energies     occupation 
      1      -9.5801      2.00000
      2      -9.4997      2.00000
      3      -9.4267      2.00000
      4      -9.3975      2.00000
      5      -9.2470      2.00000
      6      -9.2411      2.00000
      7      -9.1711      2.00000
      8      -8.9053      2.00000
      9      -8.6305      2.00000
     10      -8.1418      2.00000
     11      -7.9861      2.00000
     12      -7.8777      2.00000
     13      -7.7921      2.00000
     14      -7.6542      2.00000
     15      -7.5408      2.00000
     16      -7.3629      2.00000
     17      -1.0649      2.00000
     18      -0.7226      2.00000
     19      -0.2528      2.00000
     20      -0.1178      2.00000
     21       0.1665      2.00000
     22       0.2220      2.00000
     23       0.3864      2.00000
     24       0.7957      2.00000
     25       0.9076      2.00000
     26       1.0465      2.00000
     27       1.1429      2.00000
     28       1.2660      2.00000
     29       1.3699      2.00000
     30       1.4791      2.00000
     31       1.5079      2.00000
     32       1.6189      2.00000
     33       1.8236      2.00000
     34       1.8954      2.00000
     35       2.0172      2.00000
     36       2.0769      2.00000
     37       2.1691      2.00000
     38       2.2652      2.00000
     39       2.4645      2.00000
     40       2.7139      2.00000
     41       2.8894      2.00000
     42       3.0697      2.00000
     43       3.2948      2.00000
     44       3.3559      2.00000
     45       3.6079      2.00000
     46       3.7170      2.00000
     47       5.4310      0.00000
     48       5.5953      0.00000
     49       6.0956      0.00000
     50       6.2730      0.00000
     51       6.3707      0.00000
     52       6.5042      0.00000
     53       6.5929      0.00000
     54       6.6700      0.00000
     55       6.8404      0.00000
     56       7.0131      0.00000

 k-point     7 :       0.0833   -0.2500    0.2500
  band No.  band energies     occupation 
      1      -9.5454      2.00000
      2      -9.4893      2.00000
      3      -9.4701      2.00000
      4      -9.3942      2.00000
      5      -9.2476      2.00000
      6      -9.2401      2.00000
      7      -9.1693      2.00000
      8      -8.9977      2.00000
      9      -8.4826      2.00000
     10      -8.1995      2.00000
     11      -7.9948      2.00000
     12      -7.8325      2.00000
     13      -7.7749      2.00000
     14      -7.7042      2.00000
     15      -7.5319      2.00000
     16      -7.3863      2.00000
     17      -0.9293      2.00000
     18      -0.6332      2.00000
     19      -0.3302      2.00000
     20      -0.1757      2.00000
     21      -0.0276      2.00000
     22       0.1855      2.00000
     23       0.5163      2.00000
     24       0.7503      2.00000
     25       0.8770      2.00000
     26       1.0024      2.00000
     27       1.1313      2.00000
     28       1.2360      2.00000
     29       1.2591      2.00000
     30       1.3481      2.00000
     31       1.5913      2.00000
     32       1.7111      2.00000
     33       1.8756      2.00000
     34       1.9565      2.00000
     35       2.0309      2.00000
     36       2.1374      2.00000
     37       2.2049      2.00000
     38       2.4544      2.00000
     39       2.5900      2.00000
     40       2.7698      2.00000
     41       2.8245      2.00000
     42       2.9445      2.00000
     43       3.2611      2.00000
     44       3.3444      2.00000
     45       3.5168      2.00000
     46       3.6552      2.00000
     47       5.4781      0.00000
     48       5.5963      0.00000
     49       6.0472      0.00000
     50       6.3392      0.00000
     51       6.3757      0.00000
     52       6.5040      0.00000
     53       6.5328      0.00000
     54       6.7537      0.00000
     55       6.8787      0.00000
     56       6.9608      0.00000

 k-point     8 :       0.2500   -0.2500    0.2500
  band No.  band energies     occupation 
      1      -9.5048      2.00000
      2      -9.4881      2.00000
      3      -9.4134      2.00000
      4      -9.4009      2.00000
      5      -9.3519      2.00000
      6      -9.3286      2.00000
      7      -8.8393      2.00000
      8      -8.7313      2.00000
      9      -8.2673      2.00000
     10      -8.0715      2.00000
     11      -7.9311      2.00000
     12      -7.7490      2.00000
     13      -7.6640      2.00000
     14      -7.6029      2.00000
     15      -7.4929      2.00000
     16      -7.3913      2.00000
     17      -0.5090      2.00000
     18      -0.4067      2.00000
     19      -0.2658      2.00000
     20      -0.2049      2.00000
     21       0.0224      2.00000
     22       0.1082      2.00000
     23       0.2098      2.00000
     24       0.2967      2.00000
     25       0.4480      2.00000
     26       0.7815      2.00000
     27       0.8718      2.00000
     28       1.0186      2.00000
     29       1.0752      2.00000
     30       1.3137      2.00000
     31       1.4318      2.00000
     32       1.6087      2.00000
     33       1.6507      2.00000
     34       1.7086      2.00000
     35       1.7475      2.00000
     36       1.8265      2.00000
     37       1.9470      2.00000
     38       2.0948      2.00000
     39       2.1966      2.00000
     40       2.3860      2.00000
     41       2.4830      2.00000
     42       2.5739      2.00000
     43       2.8803      2.00000
     44       3.0424      2.00000
     45       3.1409      2.00000
     46       3.1559      2.00000
     47       5.7642      0.00000
     48       5.8533      0.00000
     49       6.2828      0.00000
     50       6.3325      0.00000
     51       6.6266      0.00000
     52       6.6830      0.00000
     53       6.8512      0.00000
     54       6.9148      0.00000
     55       7.1678      0.00000
     56       7.2214      0.00000

 k-point     9 :       0.4167   -0.2500    0.2500
  band No.  band energies     occupation 
      1      -9.7102      2.00000
      2      -9.7080      2.00000
      3      -9.3426      2.00000
      4      -9.3318      2.00000
      5      -9.2669      2.00000
      6      -9.2608      2.00000
      7      -8.3893      2.00000
      8      -8.3127      2.00000
      9      -8.1150      2.00000
     10      -8.0954      2.00000
     11      -7.7402      2.00000
     12      -7.6354      2.00000
     13      -7.5788      2.00000
     14      -7.5352      2.00000
     15      -7.4075      2.00000
     16      -7.3998      2.00000
     17      -0.9705      2.00000
     18      -0.7618      2.00000
     19      -0.5375      2.00000
     20      -0.5322      2.00000
     21      -0.2100      2.00000
     22      -0.1795      2.00000
     23       0.0126      2.00000
     24       0.1432      2.00000
     25       0.5077      2.00000
     26       0.8294      2.00000
     27       0.9256      2.00000
     28       1.0886      2.00000
     29       1.1876      2.00000
     30       1.2820      2.00000
     31       1.4039      2.00000
     32       1.5114      2.00000
     33       1.5936      2.00000
     34       1.6525      2.00000
     35       1.7175      2.00000
     36       1.7351      2.00000
     37       1.9615      2.00000
     38       2.0119      2.00000
     39       2.0813      2.00000
     40       2.1826      2.00000
     41       2.1986      2.00000
     42       2.4229      2.00000
     43       2.4507      2.00000
     44       2.5612      2.00000
     45       2.6407      2.00000
     46       2.7194      2.00000
     47       5.3853      0.00000
     48       5.7559      0.00000
     49       6.1754      0.00000
     50       6.1976      0.00000
     51       6.5019      0.00000
     52       6.6723      0.00000
     53       7.1692      0.00000
     54       7.4548      0.00000
     55       7.5369      0.00000
     56       7.5665      0.00000

[...]
      2     -10.7901      2.00000
      3     -10.5424      2.00000
      4     -10.5370      2.00000
      5     -10.4685      2.00000
      6     -10.4668      2.00000
      7      -9.1749      2.00000
      8      -9.1009      2.00000
      9      -8.9405      2.00000
     10      -8.9172      2.00000
     11      -8.6687      2.00000
     12      -8.6098      2.00000
     13      -8.6008      2.00000
     14      -8.5546      2.00000
     15      -8.4307      2.00000
     16      -8.3963      2.00000
     17      -1.4972      2.00000
     18      -1.3658      2.00000
     19      -1.2288      2.00000
     20      -1.1430      2.00000
     21      -0.9324      2.00000
     22      -0.8394      2.00000
     23      -0.6054      2.00000
     24      -0.5544      2.00000
     25      -0.2766      2.00000
     26      -0.2153      2.00000
     27       0.1925      2.00000
     28       0.2322      2.00000
     29       0.2795      2.00000
     30       0.3689      2.00000
     31       0.5055      2.00000
     32       0.5109      2.00000
     33       0.6623      2.00000
     34       0.6925      2.00000
     35       0.7464      2.00000
     36       0.7839      2.00000
     37       0.8610      2.00000
     38       0.9363      2.00000
     39       0.9569      2.00000
     40       1.0003      2.00000
     41       1.1613      2.00000
     42       1.2624      2.00000
     43       1.3985      2.00000
     44       1.4163      2.00000
     45       1.4746      2.00000
     46       1.5470      2.00000
     47       4.1983      0.00000
     48       4.3916      0.00000
     49       4.6736      0.00000
     50       4.6903      0.00000
     51       4.9385      0.00000
     52       5.0326      0.00000
     53       5.4292      0.00000
     54       5.5580      0.00000
     55       5.5931      0.00000
     56       5.7263      0.00000

 k-point    11 :      -0.2500   -0.2500    0.2500
  band No.  band energies     occupation 
      1     -10.6513      2.00000
      2     -10.6461      2.00000
      3     -10.5821      2.00000
      4     -10.5674      2.00000
      5     -10.5126      2.00000
      6     -10.5047      2.00000
      7      -9.5220      2.00000
      8      -9.4567      2.00000
      9      -9.0272      2.00000
     10      -8.9410      2.00000
     11      -8.7716      2.00000
     12      -8.6587      2.00000
     13      -8.6429      2.00000
     14      -8.6145      2.00000
     15      -8.5511      2.00000
     16      -8.4121      2.00000
     17      -1.2689      2.00000
     18      -1.0456      2.00000
     19      -0.8710      2.00000
     20      -0.8133      2.00000
     21      -0.7539      2.00000
     22      -0.6413      2.00000
     23      -0.5344      2.00000
     24      -0.3494      2.00000
     25      -0.1345      2.00000
     26      -0.0031      2.00000
     27       0.0800      2.00000
     28       0.2038      2.00000
     29       0.2998      2.00000
     30       0.3515      2.00000
     31       0.4625      2.00000
     32       0.4985      2.00000
     33       0.6296      2.00000
     34       0.7472      2.00000
     35       0.7883      2.00000
     36       0.8637      2.00000
     37       0.9006      2.00000
     38       0.9150      2.00000
     39       0.9823      2.00000
     40       1.1793      2.00000
     41       1.3982      2.00000
     42       1.5030      2.00000
     43       1.6325      2.00000
     44       1.8478      2.00000
     45       1.9018      2.00000
     46       2.0274      2.00000
     47       4.4385      0.00000
     48       4.4941      0.00000
     49       4.7198      0.00000
     50       4.8490      0.00000
     51       4.9407      0.00000
     52       5.0957      0.00000
     53       5.2793      0.00000
     54       5.2905      0.00000
     55       5.3092      0.00000
     56       5.4647      0.00000

 k-point    12 :      -0.0833   -0.2500    0.2500
  band No.  band energies     occupation 
      1     -10.6232      2.00000
      2     -10.6140      2.00000
      3     -10.5618      2.00000
      4     -10.5426      2.00000
      5     -10.4902      2.00000
      6     -10.4895      2.00000
      7      -9.8063      2.00000
      8      -9.6848      2.00000
      9      -9.1650      2.00000
     10      -9.0416      2.00000
     11      -8.8523      2.00000
     12      -8.7498      2.00000
     13      -8.7003      2.00000
     14      -8.6761      2.00000
     15      -8.6107      2.00000
     16      -8.4348      2.00000
     17      -1.5340      2.00000
     18      -1.2048      2.00000
     19      -1.0345      2.00000
     20      -0.8428      2.00000
     21      -0.7534      2.00000
     22      -0.5058      2.00000
     23      -0.1913      2.00000
     24      -0.0373      2.00000
     25       0.0255      2.00000
     26       0.2154      2.00000
     27       0.3379      2.00000
     28       0.3616      2.00000
     29       0.4504      2.00000
     30       0.4888      2.00000
     31       0.6428      2.00000
     32       0.7739      2.00000
     33       0.8664      2.00000
     34       0.9675      2.00000
     35       1.0415      2.00000
     36       1.0840      2.00000
     37       1.1507      2.00000
     38       1.3344      2.00000
     39       1.3829      2.00000
     40       1.5837      2.00000
     41       1.6432      2.00000
     42       1.7205      2.00000
     43       1.9094      2.00000
     44       2.0824      2.00000
     45       2.1745      2.00000
     46       2.2969      2.00000
     47       4.1805      0.00000
     48       4.2879      0.00000
     49       4.6006      0.00000
     50       4.8528      0.00000
     51       4.8865      0.00000
     52       4.9259      0.00000
     53       4.9807      0.00000
     54       5.0810      0.00000
     55       5.1761      0.00000
     56       5.2546      0.00000


--------------------------------------------------------------------------------------------------------


 soft charge-density along one line, spin component           1
         0         1         2         3         4         5         6         7         8         9
 total charge-density along one line
 
 pseudopotential strength for first ion, spin component:           1
-16.211   0.000   0.000 -15.003   0.000   0.000  -0.000   0.000
  0.000 -16.165   0.016   0.000 -14.962   0.015   0.005  -0.010
  0.000   0.016 -16.167   0.000   0.015 -14.964  -0.002   0.005
-15.003   0.000   0.000 -13.888   0.000   0.000  -0.000   0.000
  0.000 -14.962   0.015   0.000 -13.850   0.013   0.004  -0.009
  0.000   0.015 -14.964   0.000   0.013 -13.852  -0.002   0.004
 -0.000   0.005  -0.002  -0.000   0.004  -0.002   1.006  -3.826
  0.000  -0.010   0.005   0.000  -0.009   0.004  -3.826  14.805
  0.006   0.000   0.000   0.006   0.000   0.000  -0.000   0.000
 -0.014   0.000   0.000  -0.013   0.000   0.000  -0.000   0.000
 -0.000  -0.013  -0.003  -0.000  -0.013  -0.002  -0.003   0.007
  0.000   0.007  -0.013   0.000   0.006  -0.012  -0.003   0.008
 -0.000   0.000   0.005  -0.000   0.000   0.005  -0.005   0.012
 total augmentation occupancy for first ion, spin component:           1
  2.970   0.008   0.011  -1.030  -0.008  -0.011  -0.003   0.000  -0.015   0.068  -0.001   0.001   0.000
  0.008   3.116   0.125  -0.008  -1.126  -0.111   0.182  -0.005   0.001  -0.002  -0.001  -0.043  -0.000
  0.011   0.125   3.033  -0.011  -0.111  -1.042  -0.071   0.002   0.000   0.001  -0.011   0.077  -0.009
 -1.030  -0.008  -0.011   1.097   0.008   0.011   0.003   0.000   0.011  -0.059   0.001  -0.001  -0.000
 -0.008  -1.126  -0.111   0.008   1.135   0.094  -0.196  -0.005  -0.001   0.002   0.009   0.038  -0.000
 -0.011  -0.111  -1.042   0.011   0.094   1.051   0.076   0.002  -0.000  -0.001   0.012  -0.069   0.007
 -0.003   0.182  -0.071   0.003  -0.196   0.076   0.382   0.010   0.001   0.001   0.005   0.008  -0.002
  0.000  -0.005   0.002   0.000  -0.005   0.002   0.010   0.000   0.000   0.000   0.000   0.000   0.000
 -0.015   0.001   0.000   0.011  -0.001  -0.000   0.001   0.000   0.019   0.003   0.000   0.000  -0.000
  0.068  -0.002   0.001  -0.059   0.002  -0.001   0.001   0.000   0.003   0.024   0.000   0.000  -0.000
 -0.001  -0.001  -0.011   0.001   0.009   0.012   0.005   0.000   0.000   0.000   0.007  -0.000  -0.003
  0.001  -0.043   0.077  -0.001   0.038  -0.069   0.008   0.000   0.000   0.000  -0.000   0.019  -0.000
  0.000  -0.000  -0.009  -0.000  -0.000   0.007  -0.002   0.000  -0.000  -0.000  -0.003  -0.000   0.009


------------------------ aborting loop because EDIFF is reached ----------------------------------------


 


 total charge     
 
# of ion       s       p       d       tot
------------------------------------------
    1        0.060   6.054   0.064   6.178
    2        0.060   6.054   0.064   6.178
    3        0.367   0.611   1.360   2.338
    4        0.358   0.589   1.321   2.268
    5        0.376   0.617   1.407   2.401
    6        0.376   0.617   1.407   2.401
    7        0.367   0.588   1.373   2.327
    8        0.367   0.588   1.373   2.328
    9        1.330   2.486   0.000   3.816
   10        1.330   2.486   0.000   3.816
   11        1.328   2.450   0.000   3.778
   12        1.328   2.450   0.000   3.778
   13        1.325   2.470   0.000   3.795
   14        1.325   2.470   0.000   3.795
   15        1.334   2.472   0.000   3.806
   16        1.334   2.472   0.000   3.806
   17        1.331   2.457   0.000   3.788
   18        1.331   2.457   0.000   3.788
--------------------------------------------------
tot         15.626  40.390   8.369  64.386
 
    CHARGE:  cpu time    0.0140: real time    0.0140
    FORLOC:  cpu time    0.0007: real time    0.0007
    FORNL :  cpu time    0.1328: real time    0.1328
    STRESS:  cpu time    0.4431: real time    0.4790
    FORCOR:  cpu time    0.0049: real time    0.0049
    FORHAR:  cpu time    0.0015: real time    0.0015
    MIXING:  cpu time    0.0003: real time    0.0003
    OFIELD:  cpu time    0.0000: real time    0.0000

  FORCE on cell =-STRESS in cart. coord.  units (eV):
  Direction    XX          YY          ZZ          XY          YZ          ZX
  --------------------------------------------------------------------------------------
  Alpha Z   175.24191   175.24191   175.24191
  Ewald   -1257.72916 -1059.79014 -1162.17346     0.18759     0.58342    11.29821
  Hartree   176.79825   288.22304   212.79352     0.22177     0.49948    14.37729
  E(xc)    -335.13510  -335.91157  -336.38524     0.00904     0.01988     0.18062
  Local    -346.06415  -651.52204  -478.78182    -0.42251    -1.10090   -25.66294
  n-local   729.34699   735.39552   739.44598    -0.14919    -0.07326    -0.56436
  augment  -124.05101  -125.17481  -124.42488    -0.00577     0.00261     0.34573
  Kinetic   981.81728   973.69609   974.53937     0.17010     0.04979    -0.05154
  Fock        0.00000     0.00000     0.00000     0.00000     0.00000     0.00000
  -------------------------------------------------------------------------------------
  Total       0.22502     0.15801     0.25537     0.01102    -0.01899    -0.07699
  in kB       0.88238     0.61961     1.00141     0.04322    -0.07445    -0.30190
  external pressure =        0.83 kB  Pullay stress =        0.00 kB


 VOLUME and BASIS-vectors are now :
 -----------------------------------------------------------------------------
  energy-cutoff  :      300.00
  volume of cell :      408.57
      direct lattice vectors                 reciprocal lattice vectors
     0.006281139 -3.721498403  0.001038455     0.048725502 -0.268617774  0.032095457
   -10.186056179 -1.843601655  0.034164583    -0.098049426 -0.000157544  0.028467830
    -3.122290290 -1.852498123-10.764101664    -0.000306502 -0.000026415 -0.092807938

  length of vectors
     3.721503849 10.351607352 11.359856098     0.274881432  0.102098639  0.092808448


 FORCES acting on ions
    electron-ion (+dipol)            ewald-force                    non-local-force                 convergence-correction
 -----------------------------------------------------------------------------------------------
   0.432E+02 0.194E+00 -.559E+02   -.426E+02 -.187E+00 0.546E+02   -.617E+00 -.580E-02 0.133E+01   0.365E-03 0.141E-04 -.477E-02
   -.432E+02 -.177E+00 0.559E+02   0.426E+02 0.171E+00 -.545E+02   0.617E+00 0.501E-02 -.133E+01   0.117E-03 -.147E-04 0.471E-02
   -.146E-01 0.910E-02 -.473E-03   0.152E-01 -.869E-02 0.203E-02   0.813E-03 -.128E-02 0.136E-02   -.520E-03 -.175E-04 -.839E-03
   0.766E-02 0.421E-04 -.250E-02   -.761E-02 -.567E-04 0.224E-02   0.292E-03 -.253E-04 -.247E-03   -.328E-03 0.240E-04 0.267E-03
   -.500E+01 -.180E+00 0.215E+01   0.428E+01 0.175E+00 -.230E+01   0.728E+00 0.195E-01 0.129E+00   0.871E-02 0.120E-02 0.603E-03
   0.497E+01 0.173E+00 -.217E+01   -.425E+01 -.168E+00 0.232E+01   -.724E+00 -.182E-01 -.125E+00   -.905E-02 -.141E-02 0.436E-03
   -.217E+02 -.362E+00 -.107E+02   0.221E+02 0.340E+00 0.111E+02   -.334E+00 0.337E-01 -.351E+00   0.166E-02 0.150E-02 -.275E-02
   0.218E+02 0.366E+00 0.107E+02   -.221E+02 -.343E+00 -.111E+02   0.334E+00 -.339E-01 0.352E+00   -.224E-02 -.146E-02 0.226E-02
   0.309E+02 -.103E+00 -.885E+01   -.313E+02 0.694E-01 0.931E+01   0.437E+00 0.416E-01 -.438E+00   0.342E-03 0.193E-03 0.328E-02
   -.310E+02 0.921E-01 0.888E+01   0.314E+02 -.596E-01 -.933E+01   -.439E+00 -.411E-01 0.432E+00   -.186E-02 -.252E-03 -.296E-02
   -.752E+02 0.176E+00 -.297E+02   0.753E+02 -.147E+00 0.294E+02   -.431E-01 -.346E-01 0.325E+00   -.491E-02 0.144E-04 0.281E-02
   0.752E+02 -.173E+00 0.298E+02   -.753E+02 0.145E+00 -.294E+02   0.353E-01 0.320E-01 -.332E+00   0.561E-02 0.677E-04 -.376E-02
   -.106E+02 0.261E+00 0.220E+02   0.109E+02 -.252E+00 -.229E+02   -.325E+00 -.315E-01 0.920E+00   0.911E-03 -.338E-03 -.699E-03
   0.106E+02 -.250E+00 -.220E+02   -.110E+02 0.243E+00 0.229E+02   0.322E+00 0.298E-01 -.917E+00   -.365E-03 0.408E-03 0.635E-03
   0.422E+02 0.148E+00 -.289E+02   -.422E+02 -.136E+00 0.285E+02   0.293E-01 -.294E-01 0.414E+00   -.743E-02 0.276E-04 0.720E-02
   -.422E+02 -.169E+00 0.289E+02   0.422E+02 0.158E+00 -.285E+02   -.370E-01 0.352E-01 -.420E+00   0.683E-02 0.813E-05 -.679E-02
   -.351E+02 -.129E-01 -.338E+02   0.351E+02 0.139E-01 0.340E+02   0.141E-01 0.371E-02 -.177E+00   0.243E-02 -.212E-03 -.253E-02
   0.351E+02 0.970E-02 0.338E+02   -.351E+02 -.111E-01 -.340E+02   -.158E-01 -.380E-02 0.178E+00   -.217E-02 0.192E-03 0.290E-02
 -----------------------------------------------------------------------------------------------
   0.102E-01 0.910E-03 0.483E-02   -.107E-12 -.148E-13 -.142E-13   -.168E-01 0.966E-03 -.616E-02   -.190E-02 -.507E-04 0.834E-06
 
 
 POSITION                                       TOTAL-FORCE (eV/Angst)
 -----------------------------------------------------------------------------------
     -3.87827     -3.71287     -1.91045         0.018699      0.000889     -0.005325
     -9.42359     -3.70437     -8.81836        -0.018388     -0.001488      0.006124
      0.00334     -1.86042      0.00032         0.001340     -0.000983      0.002154
     -6.65112     -3.70868     -5.36443         0.000493     -0.000117     -0.000167
    -10.78626     -5.56320     -4.19599         0.016029      0.014864     -0.021889
     -2.51650     -1.85530     -6.53292        -0.010888     -0.015015      0.025818
     -8.02105     -1.83903     -2.30948         0.008408      0.012383      0.008349
     -5.28095     -5.57826     -8.41961        -0.006645     -0.012289     -0.007596
    -10.54958     -5.57017     -1.64220         0.036061      0.008169      0.025270
     -2.75229     -1.84716     -9.08661        -0.036446     -0.008940     -0.026925
     -7.59843     -3.69479     -0.64443         0.016347     -0.005572      0.020882
     -5.70298     -3.72247    -10.08430        -0.019874      0.003728     -0.024288
     -8.89324     -3.69576     -4.07558        -0.008499     -0.023581     -0.013109
     -4.40895     -3.72190     -6.65352         0.009066      0.022763      0.015042
     -2.28855     -1.85889     -4.05313        -0.006041     -0.017969      0.022938
    -11.01405     -5.55967     -6.67542         0.000825      0.023927     -0.027905
     -5.94995     -1.84668     -3.70446         0.023516      0.004314     -0.021416
     -7.35199     -5.57074     -7.02455        -0.024001     -0.005083      0.022045
 -----------------------------------------------------------------------------------
    total drift:                               -0.008503      0.001826     -0.001328


--------------------------------------------------------------------------------------------------------



  FREE ENERGIE OF THE ION-ELECTRON SYSTEM (eV)
  ---------------------------------------------------
  free  energy   TOTEN  =      -113.65751857 eV

  energy  without entropy=     -113.65751857  energy(sigma->0) =     -113.65751857
 
 d Force = 0.1506061E-02[ 0.106E-02, 0.195E-02]  d Energy = 0.1485336E-02 0.207E-04
 d Force =-0.2484475E-01[-0.285E-01,-0.212E-01]  d Ewald  =-0.3066896E+00 0.282E+00


--------------------------------------------------------------------------------------------------------


    POTLOK:  cpu time    0.1640: real time    0.1725


--------------------------------------------------------------------------------------------------------


 Conjugate gradient step on ions:
 trial-energy change:   -0.001485  1 .order   -0.001561   -0.002073   -0.001048
  (g-gl).g = 0.292E-03      g.g   = 0.417E-03  gl.gl    = 0.487E-03
 g(Force)  = 0.349E-03   g(Stress)= 0.684E-04 ortho     = 0.146E-04
 gamma     =   0.59872
 trial     =   4.86897
 opt step  =   9.84566  (harmonic =   9.84566) maximal distance =0.00980263
 next E    =  -113.658129   (d E  =  -0.00210)


--------------------------------------------------------------------------------------------------------


  
 reached required accuracy - stopping structural energy minimisation
     LOOP+:  cpu time    4.6049: real time    4.6780
    4ORBIT:  cpu time    0.0000: real time    0.0000
 


 total charge     
 
# of ion       s       p       d       tot
------------------------------------------
    1        0.060   6.054   0.064   6.178
    2        0.060   6.054   0.064   6.178
    3        0.367   0.611   1.360   2.338
    4        0.358   0.589   1.321   2.268
    5        0.376   0.617   1.407   2.401
    6        0.376   0.617   1.407   2.401
    7        0.367   0.588   1.373   2.327
    8        0.367   0.588   1.373   2.328
    9        1.330   2.486   0.000   3.816
   10        1.330   2.486   0.000   3.816
   11        1.328   2.450   0.000   3.778
   12        1.328   2.450   0.000   3.778
   13        1.325   2.470   0.000   3.795
   14        1.325   2.470   0.000   3.795
   15        1.334   2.472   0.000   3.806
   16        1.334   2.472   0.000   3.806
   17        1.331   2.457   0.000   3.788
   18        1.331   2.457   0.000   3.788
--------------------------------------------------
tot         15.626  40.390   8.369  64.386
 

 total amount of memory used by VASP MPI-rank0    38855. kBytes
=======================================================================

   base      :      30000. kBytes
   nonlr-proj:       3111. kBytes
   fftplans  :        424. kBytes
   grid      :       1804. kBytes
   one-center:        194. kBytes
   wavefun   :       3322. kBytes
 
  
  
 General timing and accounting informations for this job:
 ========================================================
  
                  Total CPU time used (sec):      178.474
                            User time (sec):      174.285
                          System time (sec):        4.189
                         Elapsed time (sec):      179.446
  
                   Maximum memory used (kb):       74156.
                   Average memory used (kb):           0.
  
                          Minor page faults:        49335
                          Major page faults:            0
                 Voluntary context switches:          354
