PROCAR new format
# of k-points:   12         # of bands:   56         # of ions:   18

 k-point     1 :    0.08333333 0.25000000 0.25000000     weight = 0.08333333

band     1 # energy  -10.63487094 # occ.  2.00000000
 
ion      s      p      d    tot
    1  0.000  0.465  0.000  0.465
    2  0.000  0.466  0.000  0.466
    3  0.000  0.000  0.000  0.000
    4  0.000  0.000  0.000  0.000
    5  0.002  0.000  0.000  0.002
    6  0.002  0.000  0.000  0.002
    7  0.000  0.000  0.000  0.000
    8  0.000  0.000  0.000  0.000
    9  0.002  0.000  0.000  0.002
   10  0.002  0.000  0.000  0.002
   11  0.001  0.000  0.000  0.001
   12  0.001  0.000  0.000  0.001
   13  0.001  0.000  0.000  0.001
   14  0.001  0.000  0.000  0.001
   15  0.011  0.000  0.000  0.011
   16  0.011  0.000  0.000  0.011
   17  0.000  0.000  0.000  0.000
   18  0.000  0.000  0.000  0.000
tot    0.033  0.932  0.000  0.965
 
band     2 # energy  -10.60174121 # occ.  2.00000000
 
ion      s      p      d    tot
    1  0.000  0.479  0.000  0.479
    2  0.000  0.477  0.000  0.477
    3  0.000  0.000  0.000  0.000
    4  0.000  0.000  0.000  0.000
    5  0.000  0.000  0.000  0.001
    6  0.000  0.000  0.000  0.001
    7  0.000  0.000  0.000  0.000
    8  0.000  0.000  0.000  0.000
    9  0.001  0.000  0.000  0.001
   10  0.001  0.000  0.000  0.001
   11  0.000  0.000  0.000  0.000
   12  0.000  0.000  0.000  0.000
   13  0.000  0.000  0.000  0.000
   14  0.000  0.000  0.000  0.000
   15  0.007  0.000  0.000  0.007
   16  0.007  0.000  0.000  0.007
   17  0.000  0.000  0.000  0.000
   18  0.000  0.000  0.000  0.000
tot    0.017  0.957  0.000  0.975
 
band     3 # energy  -10.55884830 # occ.  2.00000000
 
ion      s      p      d    tot
    1  0.000  0.462  0.000  0.462
    2  0.000  0.472  0.000  0.472
    3  0.000  0.000  0.000  0.001
    4  0.000  0.000  0.000  0.001
    5  0.000  0.000  0.000  0.000
    6  0.000  0.000  0.000  0.000
    7  0.001  0.000  0.000  0.001
    8  0.001  0.000  0.000  0.001
    9  0.002  0.000  0.000  0.002
   10  0.002  0.000  0.000  0.002
   11  0.005  0.000  0.000  0.005
   12  0.005  0.000  0.000  0.005
   13  0.001  0.000  0.000  0.001
   14  0.001  0.000  0.000  0.001
   15  0.000  0.000  0.000  0.000
   16  0.000  0.000  0.000  0.000
   17  0.006  0.000  0.000  0.006
   18  0.006  0.000  0.000  0.006
tot    0.030  0.935  0.000  0.964
 
band     4 # energy  -10.54486292 # occ.  2.00000000
 
ion      s      p      d    tot
    1  0.000  0.480  0.000  0.480
    2  0.000  0.470  0.000  0.470
    3  0.000  0.000  0.000  0.000
    4  0.000  0.000  0.000  0.001
    5  0.000  0.000  0.000  0.000
    6  0.000  0.000  0.000  0.000
    7  0.000  0.000  0.000  0.000
    8  0.000  0.000  0.000  0.000
    9  0.002  0.000  0.000  0.002
   10  0.002  0.000  0.000  0.002
   11  0.002  0.000  0.000  0.002
   12  0.002  0.000  0.000  0.002
   13  0.000  0.000  0.000  0.000
   14  0.000  0.000  0.000  0.000
   15  0.000  0.000  0.000  0.000
   16  0.000  0.000  0.000  0.000
   17  0.006  0.000  0.000  0.006
   18  0.005  0.000  0.000  0.006
tot    0.020  0.951  0.000  0.971
 
band     5 # energy  -10.49006948 # occ.  2.00000000
 
ion      s      p      d    tot
    1  0.000  0.190  0.000  0.190
    2  0.000  0.801  0.000  0.801
    3  0.000  0.000  0.000  0.000
    4  0.000  0.000  0.000  0.000
    5  0.000  0.000  0.000  0.000
    6  0.000  0.000  0.000  0.000
    7  0.000  0.000  0.000  0.000
    8  0.000  0.000  0.000  0.000
    9  0.000  0.000  0.000  0.000
   10  0.000  0.000  0.000  0.000
   11  0.000  0.000  0.000  0.000
   12  0.000  0.000  0.000  0.000
   13  0.000  0.000  0.000  0.000
   14  0.000  0.000  0.000  0.000
   15  0.000  0.000  0.000  0.000
   16  0.000  0.000  0.000  0.000
   17  0.000  0.000  0.000  0.000
   18  0.000  0.000  0.000  0.000
tot    0.001  0.991  0.000  0.993
 
band     6 # energy  -10.48977291 # occ.  2.00000000
 
ion      s      p      d    tot
    1  0.000  0.801  0.000  0.801
    2  0.000  0.189  0.000  0.189
    3  0.000  0.000  0.000  0.000
    4  0.000  0.000  0.000  0.000
    5  0.000  0.000  0.000  0.000
    6  0.000  0.000  0.000  0.000
    7  0.000  0.000  0.000  0.000
    8  0.000  0.000  0.000  0.000
    9  0.000  0.000  0.000  0.000
   10  0.000  0.000  0.000  0.000
   11  0.000  0.000  0.000  0.000
   12  0.000  0.000  0.000  0.001
   13  0.000  0.000  0.000  0.000
   14  0.000  0.000  0.000  0.000
   15  0.000  0.000  0.000  0.000
   16  0.000  0.000  0.000  0.000
   17  0.000  0.000  0.000  0.000
   18  0.000  0.000  0.000  0.000
tot    0.002  0.990  0.000  0.992
 
band     7 # energy   -9.87032731 # occ.  2.00000000
 
ion      s      p      d    tot
    1  0.000  0.018  0.000  0.018
    2  0.000  0.018  0.000  0.018
    3  0.021  0.001  0.002  0.023
    4  0.011  0.000  0.002  0.013
    5  0.017  0.001  0.000  0.018
    6  0.017  0.001  0.000  0.018
    7  0.014  0.001  0.000  0.016
    8  0.015  0.001  0.000  0.016
    9  0.098  0.000  0.000  0.099
   10  0.098  0.000  0.000  0.099
   11  0.022  0.000  0.000  0.022
   12  0.022  0.000  0.000  0.022
   13  0.117  0.000  0.000  0.118
   14  0.118  0.000  0.000  0.118
   15  0.027  0.000  0.000  0.027
   16  0.027  0.000  0.000  0.027
   17  0.017  0.000  0.000  0.017
   18  0.017  0.000  0.000  0.017
tot    0.657  0.043  0.004  0.704
 
band     8 # energy   -9.55645496 # occ.  2.00000000
 
ion      s      p      d    tot
    1  0.000  0.006  0.000  0.006
    2  0.000  0.006  0.000  0.006
    3  0.002  0.004  0.001  0.006
    4  0.000  0.006  0.000  0.007
    5  0.016  0.003  0.001  0.019
    6  0.016  0.003  0.001  0.019
    7  0.015  0.002  0.000  0.017
    8  0.015  0.002  0.000  0.017
    9  0.063  0.000  0.000  0.064
   10  0.063  0.000  0.000  0.063
   11  0.015  0.000  0.000  0.015
   12  0.015  0.000  0.000  0.015
   13  0.194  0.000  0.000  0.194
   14  0.194  0.000  0.000  0.195
   15  0.022  0.000  0.000  0.023
   16  0.022  0.000  0.000  0.023
   17  0.005  0.000  0.000  0.006
   18  0.005  0.000  0.000  0.006
tot    0.662  0.035  0.003  0.700
 
band     9 # energy   -9.27763293 # occ.  2.00000000
 
ion      s      p      d    tot
    1  0.000  0.007  0.000  0.007
    2  0.000  0.007  0.000  0.007
    3  0.030  0.001  0.005  0.036
    4  0.018  0.000  0.001  0.019
    5  0.001  0.002  0.004  0.007
    6  0.001  0.002  0.004  0.007
    7  0.000  0.005  0.001  0.007
    8  0.000  0.005  0.001  0.007
    9  0.148  0.001  0.000  0.148
   10  0.147  0.001  0.000  0.148
   11  0.013  0.000  0.000  0.014
   12  0.014  0.000  0.000  0.014
   13  0.109  0.000  0.000  0.109
   14  0.108  0.000  0.000  0.109
   15  0.002  0.000  0.000  0.002
   16  0.002  0.000  0.000  0.002
   17  0.036  0.000  0.000  0.037
   18  0.036  0.000  0.000  0.037
tot    0.665  0.032  0.016  0.714
 
band    10 # energy   -8.99982368 # occ.  2.00000000
 
ion      s      p      d    tot
    1  0.000  0.017  0.000  0.017
    2  0.000  0.017  0.000  0.017
    3  0.001  0.001  0.000  0.003
    4  0.004  0.002  0.000  0.006
    5  0.016  0.009  0.002  0.026
    6  0.016  0.009  0.002  0.026
    7  0.008  0.000  0.001  0.009
    8  0.008  0.000  0.001  0.009
    9  0.002  0.000  0.000  0.002
   10  0.002  0.000  0.000  0.002
   11  0.051  0.000  0.000  0.051
   12  0.051  0.000  0.000  0.051
   13  0.031  0.000  0.000  0.031
   14  0.031  0.000  0.000  0.031
   15  0.197  0.001  0.000  0.198
   16  0.197  0.001  0.000  0.198
   17  0.024  0.000  0.000  0.024
   18  0.024  0.000  0.000  0.024
tot    0.662  0.059  0.006  0.726
 
band    11 # energy   -8.85697912 # occ.  2.00000000
 
ion      s      p      d    tot
    1  0.001  0.005  0.000  0.006
    2  0.001  0.005  0.000  0.006
    3  0.000  0.011  0.002  0.014
    4  0.002  0.001  0.002  0.005
    5  0.003  0.005  0.002  0.010
    6  0.003  0.005  0.002  0.010
    7  0.002  0.002  0.005  0.009
    8  0.002  0.002  0.005  0.009
    9  0.169  0.000  0.000  0.170
   10  0.170  0.000  0.000  0.170
   11  0.046  0.000  0.000  0.046
   12  0.046  0.000  0.000  0.046
   13  0.036  0.000  0.000  0.036
   14  0.036  0.000  0.000  0.036
   15  0.048  0.000  0.000  0.048
   16  0.048  0.000  0.000  0.048
   17  0.024  0.000  0.000  0.024
   18  0.024  0.000  0.000  0.024
tot    0.659  0.038  0.019  0.717
 
band    12 # energy   -8.77097709 # occ.  2.00000000
 
ion      s      p      d    tot
    1  0.000  0.002  0.000  0.002
    2  0.000  0.002  0.000  0.002
    3  0.000  0.008  0.002  0.010
    4  0.001  0.002  0.003  0.006
    5  0.001  0.001  0.004  0.006
    6  0.001  0.001  0.004  0.006
    7  0.006  0.006  0.001  0.014
    8  0.006  0.006  0.001  0.014
    9  0.063  0.000  0.000  0.064
   10  0.063  0.000  0.000  0.063
   11  0.156  0.000  0.000  0.156
   12  0.158  0.000  0.000  0.158
   13  0.069  0.000  0.000  0.069
   14  0.069  0.000  0.000  0.069
   15  0.007  0.000  0.000  0.007
   16  0.007  0.000  0.000  0.007
   17  0.031  0.000  0.000  0.031
   18  0.030  0.000  0.000  0.030
tot    0.671  0.029  0.017  0.717
 
band    13 # energy   -8.68568948 # occ.  2.00000000
 
ion      s      p      d    tot
    1  0.000  0.003  0.000  0.004
    2  0.000  0.003  0.000  0.004
    3  0.000  0.002  0.015  0.017
    4  0.000  0.001  0.000  0.001
    5  0.000  0.003  0.001  0.004
    6  0.000  0.003  0.001  0.004
    7  0.004  0.007  0.006  0.016
    8  0.004  0.006  0.006  0.016
    9  0.042  0.000  0.000  0.042
   10  0.043  0.000  0.000  0.043
   11  0.235  0.000  0.000  0.236
   12  0.233  0.000  0.000  0.234
   13  0.014  0.000  0.000  0.014
   14  0.014  0.000  0.000  0.014
   15  0.034  0.000  0.000  0.034
   16  0.033  0.000  0.000  0.033
   17  0.004  0.000  0.000  0.004
   18  0.004  0.000  0.000  0.004
tot    0.666  0.029  0.029  0.724
 
band    14 # energy   -8.66084733 # occ.  2.00000000
 
ion      s      p      d    tot
    1  0.000  0.014  0.000  0.015
    2  0.000  0.014  0.000  0.015
    3  0.000  0.003  0.002  0.005
    4  0.006  0.001  0.008  0.014
    5  0.000  0.003  0.010  0.014
    6  0.000  0.003  0.010  0.014
    7  0.001  0.003  0.006  0.010
    8  0.001  0.003  0.006  0.010
    9  0.034  0.000  0.000  0.034
   10  0.035  0.000  0.000  0.035
   11  0.066  0.000  0.000  0.066
   12  0.066  0.000  0.000  0.066
   13  0.032  0.000  0.000  0.032
   14  0.032  0.000  0.000  0.032
   15  0.103  0.000  0.000  0.104
   16  0.104  0.000  0.000  0.104
   17  0.086  0.000  0.000  0.087
   18  0.086  0.000  0.000  0.086
tot    0.653  0.045  0.042  0.740
 
band    15 # energy   -8.60716279 # occ.  2.00000000
 
ion      s      p      d    tot
    1  0.000  0.010  0.000  0.011
    2  0.000  0.010  0.000  0.011
    3  0.000  0.001  0.001  0.001
    4  0.008  0.001  0.010  0.019
    5  0.000  0.006  0.011  0.017
    6  0.000  0.006  0.011  0.017
    7  0.000  0.002  0.005  0.007
    8  0.000  0.002  0.005  0.006
    9  0.010  0.000  0.000  0.010
   10  0.010  0.000  0.000  0.010
   11  0.011  0.000  0.000  0.011
   12  0.010  0.000  0.000  0.010
   13  0.028  0.000  0.000  0.028
   14  0.028  0.000  0.000  0.028
   15  0.161  0.000  0.000  0.161
   16  0.162  0.000  0.000  0.162
   17  0.116  0.000  0.000  0.116
   18  0.116  0.000  0.000  0.116
tot    0.660  0.039  0.042  0.740
 
band    16 # energy   -8.43699212 # occ.  2.00000000
 
ion      s      p      d    tot
    1  0.000  0.009  0.000  0.009
    2  0.000  0.009  0.000  0.009
    3  0.000  0.000  0.000  0.001
    4  0.000  0.017  0.003  0.019
    5  0.000  0.001  0.001  0.003
    6  0.000  0.001  0.001  0.003
    7  0.001  0.005  0.007  0.013
    8  0.001  0.005  0.007  0.013
    9  0.001  0.000  0.000  0.001
   10  0.001  0.000  0.000  0.001
   11  0.017  0.000  0.000  0.017
   12  0.017  0.000  0.000  0.017
   13  0.005  0.000  0.000  0.005
   14  0.005  0.000  0.000  0.005
   15  0.020  0.000  0.000  0.021
   16  0.020  0.000  0.000  0.021
   17  0.284  0.000  0.000  0.284
   18  0.284  0.000  0.000  0.285
tot    0.657  0.047  0.020  0.724
 
band    17 # energy   -1.58665151 # occ.  2.00000000
 
ion      s      p      d    tot
    1  0.000  0.001  0.000  0.001
    2  0.000  0.001  0.000  0.001
    3  0.057  0.003  0.039  0.099
    4  0.024  0.000  0.013  0.037
    5  0.026  0.010  0.011  0.047
    6  0.026  0.010  0.011  0.047
    7  0.004  0.001  0.014  0.018
    8  0.004  0.001  0.014  0.018
    9  0.000  0.101  0.000  0.101
   10  0.000  0.101  0.000  0.101
   11  0.000  0.009  0.000  0.009
   12  0.000  0.009  0.000  0.009
   13  0.001  0.042  0.000  0.044
   14  0.001  0.042  0.000  0.044
   15  0.002  0.011  0.000  0.013
   16  0.002  0.011  0.000  0.013
   17  0.001  0.008  0.000  0.009
   18  0.001  0.008  0.000  0.009
tot    0.150  0.367  0.103  0.620
 
band    18 # energy   -1.25861139 # occ.  2.00000000
 
ion      s      p      d    tot
    1  0.002  0.001  0.000  0.004
    2  0.002  0.001  0.000  0.004
    3  0.000  0.001  0.012  0.013
    4  0.001  0.005  0.012  0.018
    5  0.026  0.002  0.019  0.047
    6  0.027  0.002  0.019  0.047
    7  0.036  0.002  0.009  0.047
    8  0.036  0.002  0.009  0.047
    9  0.001  0.024  0.000  0.024
   10  0.001  0.024  0.000  0.024
   11  0.002  0.023  0.000  0.025
   12  0.002  0.023  0.000  0.025
   13  0.001  0.067  0.000  0.067
   14  0.001  0.067  0.000  0.068
   15  0.000  0.034  0.000  0.035
   16  0.000  0.034  0.000  0.035
   17  0.001  0.017  0.000  0.018
   18  0.001  0.017  0.000  0.018
tot    0.138  0.349  0.080  0.567
 
band    19 # energy   -0.93775378 # occ.  2.00000000
 
ion      s      p      d    tot
    1  0.002  0.003  0.000  0.005
    2  0.002  0.003  0.000  0.005
    3  0.005  0.003  0.004  0.012
    4  0.002  0.020  0.015  0.037
    5  0.029  0.006  0.025  0.059
    6  0.029  0.006  0.025  0.060
    7  0.011  0.008  0.010  0.028
    8  0.011  0.008  0.010  0.028
    9  0.001  0.020  0.000  0.020
   10  0.001  0.020  0.000  0.020
   11  0.000  0.011  0.000  0.011
   12  0.000  0.011  0.000  0.011
   13  0.000  0.086  0.000  0.086
   14  0.000  0.086  0.000  0.086
   15  0.006  0.042  0.000  0.047
   16  0.006  0.042  0.000  0.048
   17  0.002  0.017  0.000  0.019
   18  0.002  0.017  0.000  0.019
tot    0.106  0.408  0.089  0.602
 
band    20 # energy   -0.81164544 # occ.  2.00000000
 
ion      s      p      d    tot
    1  0.003  0.003  0.000  0.006
    2  0.003  0.002  0.000  0.006
    3  0.028  0.001  0.029  0.058
    4  0.030  0.006  0.009  0.046
    5  0.005  0.010  0.025  0.040
    6  0.005  0.010  0.025  0.040
    7  0.009  0.004  0.009  0.022
    8  0.009  0.004  0.009  0.022
    9  0.004  0.069  0.000  0.073
   10  0.004  0.069  0.000  0.073
   11  0.001  0.019  0.000  0.021
   12  0.001  0.019  0.000  0.021
   13  0.000  0.050  0.000  0.050
   14  0.000  0.049  0.000  0.049
   15  0.000  0.017  0.000  0.017
   16  0.000  0.017  0.000  0.017
   17  0.002  0.022  0.000  0.024
   18  0.002  0.022  0.000  0.024
tot    0.107  0.394  0.107  0.608
 
band    21 # energy   -0.63894591 # occ.  2.00000000
 
ion      s      p      d    tot
    1  0.001  0.001  0.001  0.003
    2  0.001  0.001  0.001  0.003
    3  0.000  0.021  0.004  0.025
    4  0.007  0.003  0.006  0.016
    5  0.001  0.002  0.018  0.021
    6  0.001  0.002  0.018  0.021
    7  0.027  0.014  0.009  0.050
    8  0.027  0.014  0.009  0.050
    9  0.002  0.069  0.000  0.071
   10  0.002  0.069  0.000  0.071
   11  0.005  0.034  0.000  0.040
   12  0.005  0.034  0.000  0.040
   13  0.002  0.059  0.000  0.061
   14  0.002  0.059  0.000  0.061
   15  0.001  0.009  0.000  0.010
   16  0.001  0.009  0.000  0.010
   17  0.002  0.008  0.000  0.010
   18  0.002  0.008  0.000  0.010
tot    0.088  0.417  0.066  0.572
 
band    22 # energy   -0.45668761 # occ.  2.00000000
 
ion      s      p      d    tot
    1  0.007  0.001  0.000  0.008
    2  0.007  0.001  0.000  0.008
    3  0.000  0.001  0.025  0.025
    4  0.018  0.014  0.022  0.054
    5  0.007  0.015  0.017  0.039
    6  0.007  0.015  0.017  0.039
    7  0.001  0.006  0.018  0.025
    8  0.001  0.006  0.018  0.025
    9  0.002  0.032  0.000  0.034
   10  0.002  0.032  0.000  0.034
   11  0.000  0.016  0.000  0.016
   12  0.000  0.016  0.000  0.016
   13  0.002  0.037  0.000  0.039
   14  0.002  0.037  0.000  0.039
   15  0.001  0.048  0.000  0.049
   16  0.001  0.048  0.000  0.049
   17  0.001  0.047  0.000  0.048
   18  0.001  0.047  0.000  0.048
tot    0.060  0.419  0.117  0.596
 
band    23 # energy   -0.32066564 # occ.  2.00000000
 
ion      s      p      d    tot
    1  0.003  0.005  0.000  0.008
    2  0.003  0.005  0.000  0.008
    3  0.001  0.016  0.019  0.036
    4  0.019  0.005  0.033  0.057
    5  0.001  0.004  0.009  0.014
    6  0.001  0.004  0.009  0.014
    7  0.000  0.007  0.037  0.044
    8  0.000  0.007  0.037  0.044
    9  0.000  0.034  0.000  0.035
   10  0.000  0.034  0.000  0.035
   11  0.000  0.044  0.000  0.044
   12  0.000  0.044  0.000  0.044
   13  0.001  0.026  0.000  0.027
   14  0.001  0.026  0.000  0.027
   15  0.000  0.016  0.000  0.017
   16  0.000  0.016  0.000  0.017
   17  0.001  0.058  0.000  0.059
   18  0.001  0.058  0.000  0.059
tot    0.035  0.408  0.144  0.588
 
band    24 # energy   -0.02762293 # occ.  2.00000000
 
ion      s      p      d    tot
    1  0.001  0.004  0.001  0.006
    2  0.001  0.004  0.001  0.006
    3  0.013  0.009  0.023  0.045
    4  0.001  0.000  0.024  0.025
    5  0.005  0.016  0.023  0.045
    6  0.005  0.016  0.023  0.045
    7  0.003  0.009  0.017  0.028
    8  0.003  0.009  0.017  0.028
    9  0.003  0.012  0.000  0.015
   10  0.003  0.012  0.000  0.015
   11  0.001  0.069  0.000  0.070
   12  0.001  0.069  0.000  0.070
   13  0.000  0.028  0.000  0.028
   14  0.000  0.028  0.000  0.028
   15  0.002  0.068  0.000  0.069
   16  0.002  0.068  0.000  0.069
   17  0.001  0.011  0.000  0.011
   18  0.001  0.011  0.000  0.011
tot    0.043  0.442  0.130  0.615
 
band    25 # energy    0.07063577 # occ.  2.00000000
 
ion      s      p      d    tot
    1  0.001  0.002  0.000  0.003
    2  0.001  0.002  0.000  0.003
    3  0.000  0.002  0.012  0.014
    4  0.000  0.003  0.025  0.028
    5  0.010  0.003  0.041  0.054
    6  0.010  0.003  0.041  0.054
    7  0.017  0.005  0.020  0.043
    8  0.017  0.005  0.020  0.043
    9  0.002  0.022  0.000  0.025
   10  0.002  0.022  0.000  0.025
   11  0.001  0.024  0.000  0.025
   12  0.001  0.024  0.000  0.025
   13  0.006  0.061  0.000  0.066
   14  0.006  0.061  0.000  0.067
   15  0.000  0.045  0.000  0.046
   16  0.000  0.045  0.000  0.046
   17  0.001  0.040  0.000  0.041
   18  0.001  0.040  0.000  0.041
tot    0.075  0.410  0.161  0.646
 
band    26 # energy    0.16086448 # occ.  2.00000000
 
ion      s      p      d    tot
    1  0.001  0.003  0.001  0.005
    2  0.001  0.003  0.001  0.005
    3  0.005  0.004  0.028  0.036
    4  0.001  0.001  0.016  0.017
    5  0.003  0.008  0.051  0.062
    6  0.003  0.008  0.051  0.062
    7  0.000  0.008  0.020  0.028
    8  0.000  0.008  0.020  0.028
    9  0.001  0.054  0.000  0.055
   10  0.001  0.054  0.000  0.055
   11  0.000  0.013  0.000  0.013
   12  0.000  0.013  0.000  0.013
   13  0.000  0.036  0.000  0.036
   14  0.000  0.036  0.000  0.036
   15  0.000  0.065  0.000  0.065
   16  0.000  0.065  0.000  0.065
   17  0.000  0.025  0.000  0.025
   18  0.000  0.025  0.000  0.025
tot    0.018  0.430  0.187  0.635
 
band    27 # energy    0.34607753 # occ.  2.00000000
 
ion      s      p      d    tot
    1  0.000  0.001  0.001  0.001
    2  0.000  0.001  0.001  0.001
    3  0.000  0.004  0.026  0.030
    4  0.000  0.002  0.010  0.013
    5  0.000  0.007  0.063  0.070
    6  0.000  0.007  0.063  0.070
    7  0.002  0.009  0.033  0.044
    8  0.002  0.009  0.034  0.044
    9  0.000  0.023  0.000  0.023
   10  0.000  0.023  0.000  0.023
   11  0.000  0.022  0.000  0.022
   12  0.000  0.023  0.000  0.023
   13  0.000  0.105  0.000  0.105
   14  0.000  0.106  0.000  0.106
   15  0.000  0.042  0.000  0.042
   16  0.000  0.041  0.000  0.041
   17  0.000  0.011  0.000  0.011
   18  0.000  0.010  0.000  0.010
tot    0.005  0.445  0.229  0.679
 
band    28 # energy    0.38179212 # occ.  2.00000000
 
ion      s      p      d    tot
    1  0.001  0.002  0.001  0.004
    2  0.001  0.002  0.001  0.004
    3  0.000  0.005  0.046  0.051
    4  0.000  0.014  0.024  0.038
    5  0.000  0.007  0.030  0.038
    6  0.000  0.007  0.030  0.038
    7  0.000  0.006  0.032  0.038
    8  0.000  0.006  0.032  0.038
    9  0.000  0.029  0.000  0.029
   10  0.000  0.029  0.000  0.029
   11  0.000  0.039  0.000  0.039
   12  0.000  0.038  0.000  0.038
   13  0.000  0.065  0.000  0.065
   14  0.000  0.064  0.000  0.064
   15  0.001  0.030  0.000  0.031
   16  0.001  0.031  0.000  0.031
   17  0.000  0.035  0.000  0.035
   18  0.000  0.035  0.000  0.035
tot    0.005  0.444  0.196  0.645
 
band    29 # energy    0.44835256 # occ.  2.00000000
 
ion      s      p      d    tot
    1  0.001  0.003  0.001  0.005
    2  0.001  0.003  0.001  0.005
    3  0.000  0.021  0.002  0.023
    4  0.002  0.004  0.002  0.008
    5  0.001  0.009  0.055  0.065
    6  0.001  0.009  0.055  0.066
    7  0.000  0.009  0.035  0.045
    8  0.000  0.009  0.035  0.044
    9  0.000  0.060  0.000  0.060
   10  0.000  0.060  0.000  0.060
   11  0.000  0.052  0.000  0.052
   12  0.000  0.052  0.000  0.052
   13  0.000  0.061  0.000  0.062
   14  0.000  0.061  0.000  0.061
   15  0.000  0.024  0.000  0.024
   16  0.000  0.024  0.000  0.024
   17  0.000  0.005  0.000  0.005
   18  0.000  0.005  0.000  0.005
tot    0.008  0.470  0.187  0.665
 
band    30 # energy    0.55217108 # occ.  2.00000000
 
ion      s      p      d    tot
    1  0.000  0.002  0.001  0.003
    2  0.000  0.002  0.001  0.003
    3  0.005  0.004  0.064  0.073
    4  0.010  0.001  0.049  0.060
    5  0.001  0.000  0.017  0.018
    6  0.001  0.000  0.017  0.018
    7  0.002  0.006  0.032  0.039
    8  0.002  0.006  0.032  0.039
    9  0.000  0.015  0.000  0.015
   10  0.000  0.015  0.000  0.015
   11  0.000  0.086  0.000  0.086
   12  0.000  0.086  0.000  0.086
   13  0.001  0.022  0.000  0.023
   14  0.001  0.022  0.000  0.023
   15  0.000  0.011  0.000  0.011
   16  0.000  0.011  0.000  0.011
   17  0.001  0.063  0.000  0.064
   18  0.001  0.063  0.000  0.064
tot    0.026  0.416  0.212  0.654
 
band    31 # energy    0.61233226 # occ.  2.00000000
 
ion      s      p      d    tot
    1  0.000  0.001  0.001  0.002
    2  0.000  0.001  0.001  0.002
    3  0.000  0.004  0.123  0.127
    4  0.000  0.002  0.046  0.048
    5  0.002  0.003  0.016  0.021
    6  0.002  0.003  0.016  0.021
    7  0.007  0.002  0.028  0.038
    8  0.007  0.002  0.028  0.038
    9  0.001  0.082  0.000  0.082
   10  0.001  0.082  0.000  0.082
   11  0.001  0.032  0.000  0.033
   12  0.001  0.032  0.000  0.033
   13  0.001  0.018  0.000  0.019
   14  0.001  0.018  0.000  0.019
   15  0.000  0.023  0.000  0.023
   16  0.000  0.022  0.000  0.023
   17  0.000  0.045  0.000  0.045
   18  0.000  0.045  0.000  0.045
tot    0.025  0.415  0.259  0.699
 
band    32 # energy    0.70040022 # occ.  2.00000000
 
ion      s      p      d    tot
    1  0.002  0.003  0.001  0.005
    2  0.002  0.003  0.001  0.005
    3  0.000  0.006  0.074  0.080
    4  0.000  0.004  0.013  0.018
    5  0.002  0.006  0.021  0.029
    6  0.002  0.006  0.021  0.029
    7  0.001  0.005  0.042  0.048
    8  0.001  0.005  0.042  0.048
    9  0.000  0.057  0.000  0.057
   10  0.000  0.057  0.000  0.057
   11  0.000  0.067  0.000  0.068
   12  0.000  0.067  0.000  0.067
   13  0.000  0.003  0.000  0.003
   14  0.000  0.003  0.000  0.003
   15  0.000  0.038  0.000  0.038
   16  0.000  0.038  0.000  0.038
   17  0.000  0.036  0.000  0.037
   18  0.000  0.036  0.000  0.037
tot    0.011  0.443  0.213  0.667
 
band    33 # energy    0.83970744 # occ.  2.00000000
 
ion      s      p      d    tot
    1  0.003  0.000  0.001  0.004
    2  0.003  0.000  0.001  0.004
    3  0.000  0.005  0.008  0.013
    4  0.000  0.005  0.003  0.009
    5  0.003  0.018  0.041  0.062
    6  0.003  0.018  0.041  0.062
    7  0.001  0.004  0.044  0.050
    8  0.001  0.004  0.044  0.050
    9  0.000  0.028  0.000  0.028
   10  0.000  0.028  0.000  0.028
   11  0.000  0.043  0.000  0.043
   12  0.000  0.043  0.000  0.043
   13  0.000  0.021  0.000  0.022
   14  0.000  0.021  0.000  0.022
   15  0.001  0.096  0.000  0.097
   16  0.001  0.096  0.000  0.097
   17  0.000  0.020  0.000  0.020
   18  0.000  0.020  0.000  0.020
tot    0.018  0.473  0.183  0.674
 
band    34 # energy    0.95707916 # occ.  2.00000000
 
ion      s      p      d    tot
    1  0.000  0.001  0.001  0.002
    2  0.000  0.001  0.001  0.002
    3  0.001  0.007  0.014  0.023
    4  0.001  0.004  0.007  0.011
    5  0.002  0.008  0.020  0.030
    6  0.002  0.008  0.020  0.030
    7  0.002  0.005  0.073  0.080
    8  0.002  0.005  0.073  0.080
    9  0.000  0.053  0.000  0.053
   10  0.000  0.053  0.000  0.053
   11  0.000  0.070  0.000  0.070
   12  0.000  0.070  0.000  0.070
   13  0.000  0.015  0.000  0.015
   14  0.000  0.015  0.000  0.015
   15  0.001  0.043  0.000  0.043
   16  0.001  0.043  0.000  0.043
   17  0.001  0.028  0.000  0.029
   18  0.001  0.028  0.000  0.029
tot    0.012  0.456  0.210  0.679
 
band    35 # energy    1.03338550 # occ.  2.00000000
 
ion      s      p      d    tot
    1  0.000  0.002  0.001  0.003
    2  0.000  0.002  0.001  0.003
    3  0.000  0.004  0.013  0.017
    4  0.004  0.001  0.039  0.044
    5  0.001  0.005  0.030  0.036
    6  0.001  0.004  0.028  0.033
    7  0.001  0.007  0.048  0.057
    8  0.001  0.008  0.051  0.060
    9  0.000  0.019  0.000  0.019
   10  0.000  0.019  0.000  0.019
   11  0.000  0.047  0.000  0.047
   12  0.000  0.051  0.000  0.051
   13  0.001  0.054  0.000  0.055
   14  0.001  0.059  0.000  0.059
   15  0.000  0.043  0.000  0.043
   16  0.000  0.042  0.000  0.042
   17  0.000  0.047  0.000  0.047
   18  0.000  0.045  0.000  0.046
tot    0.011  0.459  0.211  0.681
 
band    36 # energy    1.03691499 # occ.  2.00000000
 
ion      s      p      d    tot
    1  0.003  0.001  0.001  0.005
    2  0.003  0.002  0.001  0.006
    3  0.000  0.009  0.005  0.015
    4  0.002  0.001  0.141  0.144
    5  0.000  0.002  0.014  0.017
    6  0.000  0.003  0.017  0.020
    7  0.002  0.004  0.021  0.027
    8  0.002  0.004  0.018  0.024
    9  0.000  0.006  0.000  0.006
   10  0.000  0.006  0.000  0.006
   11  0.000  0.040  0.000  0.040
   12  0.000  0.035  0.000  0.036
   13  0.000  0.029  0.000  0.030
   14  0.000  0.025  0.000  0.025
   15  0.000  0.030  0.000  0.030
   16  0.000  0.031  0.000  0.031
   17  0.000  0.108  0.000  0.108
   18  0.000  0.109  0.000  0.109
tot    0.014  0.445  0.218  0.678
 
band    37 # energy    1.10446313 # occ.  2.00000000
 
ion      s      p      d    tot
    1  0.001  0.002  0.001  0.004
    2  0.001  0.002  0.001  0.004
    3  0.001  0.028  0.015  0.045
    4  0.001  0.003  0.003  0.007
    5  0.003  0.012  0.033  0.048
    6  0.003  0.012  0.033  0.048
    7  0.003  0.006  0.012  0.021
    8  0.003  0.006  0.013  0.021
    9  0.000  0.088  0.000  0.089
   10  0.000  0.089  0.000  0.089
   11  0.000  0.038  0.000  0.038
   12  0.000  0.038  0.000  0.038
   13  0.000  0.016  0.000  0.017
   14  0.000  0.016  0.000  0.017
   15  0.000  0.075  0.000  0.076
   16  0.000  0.075  0.000  0.076
   17  0.000  0.010  0.000  0.010
   18  0.000  0.010  0.000  0.010
tot    0.017  0.529  0.110  0.657
 
band    38 # energy    1.21132812 # occ.  2.00000000
 
ion      s      p      d    tot
    1  0.000  0.002  0.001  0.004
    2  0.000  0.002  0.001  0.004
    3  0.001  0.007  0.009  0.018
    4  0.002  0.008  0.033  0.043
    5  0.001  0.006  0.032  0.039
    6  0.001  0.006  0.032  0.039
    7  0.000  0.014  0.024  0.038
    8  0.000  0.014  0.025  0.039
    9  0.000  0.019  0.000  0.020
   10  0.000  0.020  0.000  0.020
   11  0.000  0.056  0.000  0.056
   12  0.000  0.058  0.000  0.058
   13  0.000  0.026  0.000  0.027
   14  0.000  0.026  0.000  0.027
   15  0.001  0.069  0.000  0.069
   16  0.001  0.069  0.000  0.069
   17  0.000  0.047  0.000  0.047
   18  0.000  0.047  0.000  0.047
tot    0.009  0.496  0.158  0.663
 
band    39 # energy    1.22881447 # occ.  2.00000000
 
ion      s      p      d    tot
    1  0.005  0.004  0.001  0.009
    2  0.005  0.004  0.001  0.009
    3  0.000  0.002  0.014  0.017
    4  0.002  0.014  0.028  0.044
    5  0.000  0.007  0.022  0.029
    6  0.000  0.007  0.022  0.029
    7  0.001  0.017  0.019  0.037
    8  0.001  0.016  0.019  0.037
    9  0.000  0.008  0.000  0.008
   10  0.000  0.008  0.000  0.008
   11  0.000  0.076  0.000  0.077
   12  0.000  0.075  0.000  0.075
   13  0.000  0.019  0.000  0.019
   14  0.000  0.019  0.000  0.019
   15  0.000  0.067  0.000  0.067
   16  0.000  0.066  0.000  0.067
   17  0.000  0.053  0.000  0.053
   18  0.000  0.053  0.000  0.053
tot    0.017  0.513  0.128  0.658
 
band    40 # energy    1.53017569 # occ.  2.00000000
 
ion      s      p      d    tot
    1  0.000  0.000  0.001  0.001
    2  0.000  0.000  0.001  0.001
    3  0.000  0.004  0.035  0.040
    4  0.001  0.004  0.031  0.036
    5  0.001  0.012  0.016  0.028
    6  0.001  0.012  0.016  0.028
    7  0.000  0.014  0.023  0.037
    8  0.000  0.014  0.023  0.037
    9  0.000  0.027  0.000  0.027
   10  0.000  0.027  0.000  0.027
   11  0.000  0.076  0.000  0.076
   12  0.000  0.075  0.000  0.075
   13  0.000  0.059  0.000  0.059
   14  0.000  0.059  0.000  0.059
   15  0.000  0.042  0.000  0.042
   16  0.000  0.042  0.000  0.042
   17  0.000  0.030  0.000  0.030
   18  0.000  0.030  0.000  0.030
tot    0.004  0.528  0.146  0.678
 
band    41 # energy    1.72953930 # occ.  2.00000000
 
ion      s      p      d    tot
    1  0.000  0.002  0.001  0.003
    2  0.000  0.002  0.001  0.003
    3  0.000  0.009  0.005  0.014
    4  0.004  0.023  0.010  0.036
    5  0.001  0.004  0.011  0.016
    6  0.001  0.004  0.011  0.016
    7  0.003  0.015  0.021  0.038
    8  0.003  0.015  0.021  0.038
    9  0.000  0.050  0.000  0.050
   10  0.000  0.050  0.000  0.050