<?xml version="1.0" encoding="ISO-8859-1"?>
<modeling>
 <generator>
  <i name="program" type="string">vasp </i>
  <i name="version" type="string">5.4.4.18Apr17-6-g9f103f2a35  </i>
  <i name="subversion" type="string">(build Oct 27 2022 13:04:57) complex            parallel </i>
  <i name="platform" type="string">LinuxIFC </i>
  <i name="date" type="string">2024 06 29 </i>
  <i name="time" type="string">12:35:17 </i>
 </generator>
 <incar>
  <i type="string" name="SYSTEM"> CIS</i>
  <i type="int" name="ISTART">     0</i>
  <i type="string" name="PREC">medium</i>
  <i type="int" name="ICHARG">     2</i>
  <i type="int" name="IBRION">     2</i>
  <i name="EDIFF">      0.00010000</i>
  <i name="EDIFFG">     -0.05000000</i>
  <i type="int" name="NSW">    99</i>
  <i type="int" name="ISIF">     3</i>
  <i name="ENCUT">    300.00000000</i>
  <i name="POTIM">      0.10000000</i>
  <i type="string" name="LREAL"> Auto</i>
  <i type="int" name="ISMEAR">     0</i>
  <i name="SIGMA">      0.05000000</i>
  <i type="int" name="LMAXMIX">     4</i>
  <i type="logical" name="LWAVE"> F  </i>
  <i type="logical" name="LCHARG"> F  </i>
  <i type="int" name="LORBIT">    10</i>
  <i type="logical" name="LASPH"> T  </i>
  <v type="int" name="KPOINT_BSE">    -1     0     0     0</v>
  <i type="logical" name="LASPH"> T  </i>
 </incar>
 <structure name="primitive_cell" >
  <crystal>
   <varray name="basis" >
    <v>      -0.00021484      -3.52263848       0.00004876 </v>
    <v>      -9.69104861      -1.76190424       0.00964523 </v>
    <v>      -2.99630475      -1.76136081     -10.18335736 </v>
   </varray>
   <i name="volume">    347.73859313 </i>
   <varray name="rec_basis" >
    <v>       0.05164537      -0.28388080       0.03390544 </v>
    <v>      -0.10315902       0.00000671       0.03035188 </v>
    <v>      -0.00009746      -0.00000135      -0.09817053 </v>
   </varray>
  </crystal>
  <varray name="positions" >
   <v>      -0.25544892       0.33353700       0.17411992 </v>
   <v>       0.25648594       0.10421613       0.38235747 </v>
   <v>       0.08326070       0.48658975       0.34669514 </v>
   <v>       0.40324746       0.26768792      -0.07400406 </v>
   <v>      -0.07254437      -0.00708025       0.15220777 </v>
   <v>      -0.40321818      -0.26769254       0.07396941 </v>
   <v>      -0.16443905      -0.06045440       0.38893368 </v>
   <v>      -0.49997574       0.49997072      -0.49999454 </v>
   <v>       0.02086149      -0.26764942       0.22507608 </v>
   <v>      -0.02084364       0.26764474      -0.22508880 </v>
   <v>      -0.42716575       0.24362068      -0.38910559 </v>
   <v>      -0.49999887       0.00001793      -0.00001639 </v>
   <v>       0.25534513      -0.33352675      -0.17409179 </v>
   <v>       0.16443661       0.06047544      -0.38891366 </v>
   <v>       0.42719923      -0.24364016       0.38910314 </v>
   <v>       0.07256651       0.00708647      -0.15223196 </v>
   <v>      -0.08325327      -0.48661385      -0.34669302 </v>
   <v>      -0.25651328      -0.10419141      -0.38232279 </v>
  </varray>
 </structure>
 <varray name="primitive_index" >
  <v type="int" >        1 </v>
  <v type="int" >       15 </v>
  <v type="int" >       17 </v>
  <v type="int" >       12 </v>
  <v type="int" >        9 </v>
  <v type="int" >       11 </v>
  <v type="int" >        5 </v>
  <v type="int" >        4 </v>
  <v type="int" >        7 </v>
  <v type="int" >        8 </v>
  <v type="int" >       14 </v>
  <v type="int" >        3 </v>
  <v type="int" >        2 </v>
  <v type="int" >        6 </v>
  <v type="int" >       13 </v>
  <v type="int" >       10 </v>
  <v type="int" >       18 </v>
  <v type="int" >       16 </v>
 </varray>
 <kpoints>
  <generation param="Monkhorst-Pack">
   <v type="int" name="divisions">       6        2        2 </v>
   <v name="usershift">      0.00000000       0.00000000       0.00000000 </v>
   <v name="genvec1">      0.16666667      -0.00000000       0.00000000 </v>
   <v name="genvec2">      0.00000000       0.50000000       0.00000000 </v>
   <v name="genvec3">      0.00000000       0.00000000       0.50000000 </v>
   <v name="shift">      0.50000000       0.50000000       0.50000000 </v>
  </generation>
  <varray name="kpointlist" >
   <v>       0.08333333       0.25000000       0.25000000 </v>
   <v>       0.25000000       0.25000000       0.25000000 </v>
   <v>       0.41666667       0.25000000       0.25000000 </v>
   <v>      -0.41666667       0.25000000       0.25000000 </v>
   <v>      -0.25000000       0.25000000       0.25000000 </v>
   <v>      -0.08333333       0.25000000       0.25000000 </v>
   <v>       0.08333333      -0.25000000       0.25000000 </v>
   <v>       0.25000000      -0.25000000       0.25000000 </v>
   <v>       0.41666667      -0.25000000       0.25000000 </v>
   <v>      -0.41666667      -0.25000000       0.25000000 </v>
   <v>      -0.25000000      -0.25000000       0.25000000 </v>
   <v>      -0.08333333      -0.25000000       0.25000000 </v>
  </varray>
  <varray name="weights" >
   <v>       0.08333333 </v>
   <v>       0.08333333 </v>
   <v>       0.08333333 </v>
   <v>       0.08333333 </v>
   <v>       0.08333333 </v>
   <v>       0.08333333 </v>
   <v>       0.08333333 </v>
   <v>       0.08333333 </v>
   <v>       0.08333333 </v>
   <v>       0.08333333 </v>
   <v>       0.08333333 </v>
   <v>       0.08333333 </v>
  </varray>
 </kpoints>
 <parameters>
  <separator name="general" >
   <i type="string" name="SYSTEM">CIS</i>
   <i type="logical" name="LCOMPAT"> F  </i>
  </separator>
  <separator name="electronic" >
   <i type="string" name="PREC">medium</i>
   <i name="ENMAX">    300.00000000</i>
   <i name="ENAUG">    335.09200000</i>
   <i name="EDIFF">      0.00010000</i>
   <i type="int" name="IALGO">    38</i>
   <i type="int" name="IWAVPR">    11</i>
   <i type="int" name="NBANDS">    56</i>
   <i name="NELECT">     92.00000000</i>
   <i type="int" name="TURBO">     0</i>
   <i type="int" name="IRESTART">     0</i>
   <i type="int" name="NREBOOT">     0</i>
   <i type="int" name="NMIN">     0</i>
   <i name="EREF">      0.00000000</i>
   <separator name="electronic smearing" >
    <i type="int" name="ISMEAR">     0</i>
    <i name="SIGMA">      0.05000000</i>
    <i name="KSPACING">      0.50000000</i>
    <i type="logical" name="KGAMMA"> T  </i>
   </separator>
   <separator name="electronic projectors" >
    <i type="logical" name="LREAL"> T  </i>
    <v name="ROPT">     -0.00200000     -0.00200000     -0.00200000</v>
    <i type="int" name="LMAXPAW">  -100</i>
    <i type="int" name="LMAXMIX">     4</i>
    <i type="logical" name="NLSPLINE"> F  </i>
   </separator>
   <separator name="electronic startup" >
    <i type="int" name="ISTART">     0</i>
    <i type="int" name="ICHARG">     2</i>
    <i type="int" name="INIWAV">     1</i>
   </separator>
   <separator name="electronic spin" >
    <i type="int" name="ISPIN">     1</i>
    <i type="logical" name="LNONCOLLINEAR"> F  </i>
    <v name="MAGMOM">      1.00000000      1.00000000      1.00000000      1.00000000      1.00000000      1.00000000      1.00000000      1.00000000      1.00000000      1.00000000      1.00000000      1.00000000      1.00000000      1.00000000      1.00000000      1.00000000      1.00000000      1.00000000</v>
    <i name="NUPDOWN">     -1.00000000</i>
    <i type="logical" name="LSORBIT"> F  </i>
    <v name="SAXIS">      0.00000000      0.00000000      1.00000000</v>
    <i type="logical" name="LSPIRAL"> F  </i>
    <v name="QSPIRAL">      0.00000000      0.00000000      0.00000000</v>
    <i type="logical" name="LZEROZ"> F  </i>
   </separator>
   <separator name="electronic exchange-correlation" >
    <i type="logical" name="LASPH"> T  </i>
    <i type="logical" name="LMETAGGA"> F  </i>
   </separator>
   <separator name="electronic convergence" >
    <i type="int" name="NELM">    60</i>
    <i type="int" name="NELMDL">    -5</i>
    <i type="int" name="NELMIN">     2</i>
    <i name="ENINI">    300.00000000</i>
    <separator name="electronic convergence detail" >
     <i type="logical" name="LDIAG"> T  </i>
     <i type="logical" name="LSUBROT"> F  </i>
     <i name="WEIMIN">      0.00100000</i>
     <i name="EBREAK">      0.00000045</i>
     <i name="DEPER">      0.30000000</i>
     <i type="int" name="NRMM">     4</i>
     <i name="TIME">      0.40000000</i>
    </separator>
   </separator>
   <separator name="electronic mixer" >
    <i name="AMIX">      0.40000000</i>
    <i name="BMIX">      1.00000000</i>
    <i name="AMIN">      0.10000000</i>
    <i name="AMIX_MAG">      1.60000000</i>
    <i name="BMIX_MAG">      1.00000000</i>
    <separator name="electronic mixer details" >
     <i type="int" name="IMIX">     4</i>
     <i type="logical" name="MIXFIRST"> F  </i>
     <i type="int" name="MAXMIX">   -45</i>
     <i name="WC">    100.00000000</i>
     <i type="int" name="INIMIX">     1</i>
     <i type="int" name="MIXPRE">     1</i>
     <i type="int" name="MREMOVE">     5</i>
    </separator>
   </separator>
   <separator name="electronic dipolcorrection" >
    <i type="logical" name="LDIPOL"> F  </i>
    <i type="logical" name="LMONO"> F  </i>
    <i type="int" name="IDIPOL">     0</i>
    <i name="EPSILON">      1.00000000</i>
    <v name="DIPOL">   -100.00000000   -100.00000000   -100.00000000</v>
    <i name="EFIELD">      0.00000000</i>
   </separator>
  </separator>
  <separator name="grids" >
   <i type="int" name="NGX">    16</i>
   <i type="int" name="NGY">    42</i>
   <i type="int" name="NGZ">    48</i>
   <i type="int" name="NGXF">    24</i>
   <i type="int" name="NGYF">    60</i>
   <i type="int" name="NGZF">    64</i>
   <i type="logical" name="ADDGRID"> F  </i>
  </separator>
  <separator name="ionic" >
   <i type="int" name="NSW">    99</i>
   <i type="int" name="IBRION">     2</i>
   <i type="int" name="MDALGO">     0</i>
   <i type="int" name="ISIF">     3</i>
   <i name="PSTRESS">      0.00000000</i>
   <i name="EDIFFG">     -0.05000000</i>
   <i type="int" name="NFREE">     1</i>
   <i name="POTIM">      0.10000000</i>
   <i name="SMASS">     -3.00000000</i>
   <i name="SCALEE">      1.00000000</i>
  </separator>
  <separator name="ionic md" >
   <i name="TEBEG">      0.00010000</i>
   <i name="TEEND">      0.00010000</i>
   <i type="int" name="NBLOCK">     1</i>
   <i type="int" name="KBLOCK">    99</i>
   <i type="int" name="NPACO">   256</i>
   <i name="APACO">     16.00000000</i>
  </separator>
  <separator name="symmetry" >
   <i type="int" name="ISYM">     2</i>
   <i name="SYMPREC">      0.00001000</i>
  </separator>
  <separator name="dos" >
   <i type="int" name="LORBIT">    10</i>
   <v name="RWIGS">     -1.00000000     -1.00000000     -1.00000000</v>
   <i type="int" name="NEDOS">   301</i>
   <i name="EMIN">     10.00000000</i>
   <i name="EMAX">    -10.00000000</i>
   <i name="EFERMI">      0.00000000</i>
  </separator>
  <separator name="writing" >
   <i type="int" name="NWRITE">     2</i>
   <i type="logical" name="LWAVE"> F  </i>
   <i type="logical" name="LDOWNSAMPLE"> F  </i>
   <i type="logical" name="LCHARG"> F  </i>
   <i type="logical" name="LPARD"> F  </i>
   <i type="logical" name="LVTOT"> F  </i>
   <i type="logical" name="LVHAR"> F  </i>
   <i type="logical" name="LELF"> F  </i>
   <i type="logical" name="LOPTICS"> F  </i>
   <v name="STM">      0.00000000      0.00000000      0.00000000      0.00000000      0.00000000      0.00000000      0.00000000</v>
  </separator>
  <separator name="performance" >
   <i type="int" name="NPAR">    14</i>
   <i type="int" name="NSIM">     4</i>
   <i type="int" name="NBLK">    -1</i>
   <i type="logical" name="LPLANE"> T  </i>
   <i type="logical" name="LSCALAPACK"> T  </i>
   <i type="logical" name="LSCAAWARE"> F  </i>
   <i type="logical" name="LSCALU"> F  </i>
   <i type="logical" name="LASYNC"> F  </i>
   <i type="logical" name="LORBITALREAL"> F  </i>
  </separator>
  <separator name="miscellaneous" >
   <i type="int" name="IDIOT">     3</i>
   <i type="int" name="ISPECIAL">     0</i>
   <i type="logical" name="LMUSIC"> F  </i>
   <v name="POMASS">     39.09800000     44.95600000     32.06600000</v>
   <v name="DARWINR">      0.00000000      0.00000000      0.00000000</v>
   <v name="DARWINV">      1.00000000      1.00000000      1.00000000</v>
   <i type="logical" name="LCORR"> T  </i>
  </separator>
  <i type="logical" name="GGA_COMPAT"> T  </i>
  <i type="logical" name="LBERRY"> F  </i>
  <i type="int" name="ICORELEVEL">     0</i>
  <i type="logical" name="LDAU"> F  </i>
  <i type="int" name="I_CONSTRAINED_M">     0</i>
  <separator name="electronic exchange-correlation" >
   <i type="string" name="GGA">--</i>
   <i type="int" name="VOSKOWN">     0</i>
   <i type="logical" name="LHFCALC"> F  </i>
   <i type="string" name="PRECFOCK"></i>
   <i type="logical" name="LSYMGRAD"> F  </i>
   <i type="logical" name="LHFONE"> F  </i>
   <i type="logical" name="LRHFCALC"> F  </i>
   <i type="logical" name="LTHOMAS"> F  </i>
   <i type="logical" name="LMODELHF"> F  </i>
   <i name="ENCUT4O">     -1.00000000</i>
   <i type="int" name="EXXOEP">     0</i>
   <i type="int" name="FOURORBIT">     0</i>
   <i name="AEXX">      0.00000000</i>
   <i name="HFALPHA">      0.00000000</i>
   <i name="MCALPHA">      0.00000000</i>
   <i name="ALDAX">      1.00000000</i>
   <i name="AGGAX">      1.00000000</i>
   <i name="ALDAC">      1.00000000</i>
   <i name="AGGAC">      1.00000000</i>
   <i type="int" name="NKREDX">     1</i>
   <i type="int" name="NKREDY">     1</i>
   <i type="int" name="NKREDZ">     1</i>
   <i type="logical" name="SHIFTRED"> F  </i>
   <i type="logical" name="ODDONLY"> F  </i>
   <i type="logical" name="EVENONLY"> F  </i>
   <i type="int" name="LMAXFOCK">     0</i>
   <i type="int" name="NMAXFOCKAE">     0</i>
   <i type="logical" name="LFOCKAEDFT"> F  </i>
   <i name="HFSCREEN">      0.00000000</i>
   <i name="HFSCREENC">      0.00000000</i>
   <i type="int" name="NBANDSGWLOW">     0</i>
  </separator>
  <separator name="vdW DFT" >
   <i type="logical" name="LUSE_VDW"> F  </i>
   <i name="Zab_VDW">     -0.84910000</i>
   <i name="PARAM1">      0.12340000</i>
   <i name="PARAM2">      1.00000000</i>
   <i name="PARAM3">      0.00000000</i>
  </separator>
  <separator name="model GW" >
   <i type="int" name="MODEL_GW">     0</i>
   <i name="MODEL_EPS0">     11.59128644</i>
   <i name="MODEL_ALPHA">      1.00000000</i>
  </separator>
  <separator name="linear response parameters" >
   <i type="logical" name="LEPSILON"> F  </i>
   <i type="logical" name="LRPA"> F  </i>
   <i type="logical" name="LNABLA"> F  </i>
   <i type="logical" name="LVEL"> F  </i>
   <i type="int" name="KINTER">     0</i>
   <i name="CSHIFT">      0.10000000</i>
   <i name="OMEGAMAX">     -1.00000000</i>
   <i name="DEG_THRESHOLD">      0.00200000</i>
   <i name="RTIME">     -0.10000000</i>
   <i name="WPLASMAI">      0.00000000</i>
   <v name="DFIELD">      0.00000000      0.00000000      0.00000000</v>
   <v name="WPLASMA">      0.00000000      0.00000000      0.00000000      0.00000000      0.00000000      0.00000000      0.00000000      0.00000000      0.00000000</v>
  </separator>
  <separator name="orbital magnetization" >
   <i type="logical" name="NUCIND"> F  </i>
   <v name="MAGPOS">      0.00000000      0.00000000      0.00000000</v>
   <i type="logical" name="LNICSALL"> T  </i>
   <i type="logical" name="ORBITALMAG"> F  </i>
   <i type="logical" name="LMAGBLOCH"> F  </i>
   <i type="logical" name="LCHIMAG"> F  </i>
   <i type="logical" name="LGAUGE"> T  </i>
   <i type="int" name="MAGATOM">     0</i>
   <v name="MAGDIPOL">      0.00000000      0.00000000      0.00000000</v>
   <v name="AVECCONST">      0.00000000      0.00000000      0.00000000</v>
  </separator>
  <separator name="response functions" >
   <i type="logical" name="LADDER"> F  </i>
   <i type="logical" name="LRPAFORCE"> F  </i>
   <i type="logical" name="LFXC"> F  </i>
   <i type="logical" name="LHARTREE"> T  </i>
   <i type="int" name="IBSE">     0</i>
   <v type="int" name="KPOINT">    -1     0     0     0</v>
   <i type="logical" name="LTCTE"> F  </i>
   <i type="logical" name="LTETE"> F  </i>
   <i type="logical" name="LTRIPLET"> F  </i>
   <i type="logical" name="LFXCEPS"> F  </i>
   <i type="logical" name="LFXHEG"> F  </i>
   <i type="int" name="NATURALO">     2</i>
   <i type="logical" name="L2ORDER"> F  </i>
   <i type="logical" name="LMP2LT"> F  </i>
   <i type="logical" name="LUSEW"> F  </i>
   <i name="ENCUTGW">     -2.00000000</i>
   <i name="ENCUTGWSOFT">     -2.00000000</i>
   <i name="ENCUTLF">     -1.00000000</i>
   <i type="int" name="LMAXMP2">    -1</i>
   <i name="SCISSOR">      0.00000000</i>
   <i type="int" name="NOMEGA">     0</i>
   <i type="int" name="NOMEGAR">     0</i>
   <i type="int" name="NBANDSGW">    -1</i>
   <i type="int" name="NBANDSO">    -1</i>
   <i type="int" name="NBANDSV">    -1</i>
   <i type="int" name="NELM">     1</i>
   <i type="int" name="NELMHF">     1</i>
   <i type="int" name="DIM">     3</i>
   <i type="int" name="ANTIRES">     0</i>
   <i name="OMEGAMAX">    -30.00000000</i>
   <i name="OMEGAMIN">    -30.00000000</i>
   <i name="OMEGATL">   -200.00000000</i>
   <i type="int" name="OMEGAGRID">   140</i>
   <i name="CSHIFT">     -0.10000000</i>
   <i type="logical" name="SELFENERGY"> F  </i>
   <i type="logical" name="LSPECTRAL"> F  </i>
   <i type="logical" name="LSPECTRALGW"> F  </i>
   <i type="logical" name="LSINGLES"> F  </i>
   <i type="logical" name="LFERMIGW"> F  </i>
   <i type="logical" name="ODDONLYGW"> F  </i>
   <i type="logical" name="EVENONLYGW"> F  </i>
   <i type="int" name="NKREDLFX">     1</i>
   <i type="int" name="NKREDLFY">     1</i>
   <i type="int" name="NKREDLFZ">     1</i>
   <i type="int" name="MAXMEM">  2800</i>
   <i type="int" name="TELESCOPE">     0</i>
   <i type="int" name="TAUPAR">     1</i>
   <i type="int" name="OMEGAPAR">    -1</i>
   <i name="LAMBDA">      1.00000000</i>
  </separator>
  <separator name="External order field" >
   <i name="OFIELD_KAPPA">      0.00000000</i>
   <v name="OFIELD_K">      0.00000000      0.00000000      0.00000000</v>
   <i name="OFIELD_Q6_NEAR">      0.00000000</i>
   <i name="OFIELD_Q6_FAR">      0.00000000</i>
   <i name="OFIELD_A">      0.00000000</i>
  </separator>
 </parameters>
 <atominfo>
  <atoms>      18 </atoms>
  <types>       3 </types>
  <array name="atoms" >
   <dimension dim="1">ion</dimension>
   <field type="string">element</field>
   <field type="int">atomtype</field>
   <set>
    <rc><c>K </c><c>   1</c></rc>
    <rc><c>K </c><c>   1</c></rc>
    <rc><c>Sc</c><c>   2</c></rc>
    <rc><c>Sc</c><c>   2</c></rc>
    <rc><c>Sc</c><c>   2</c></rc>
    <rc><c>Sc</c><c>   2</c></rc>
    <rc><c>Sc</c><c>   2</c></rc>
    <rc><c>Sc</c><c>   2</c></rc>
    <rc><c>S </c><c>   3</c></rc>
    <rc><c>S </c><c>   3</c></rc>
    <rc><c>S </c><c>   3</c></rc>
    <rc><c>S </c><c>   3</c></rc>
    <rc><c>S </c><c>   3</c></rc>
    <rc><c>S </c><c>   3</c></rc>
    <rc><c>S </c><c>   3</c></rc>
    <rc><c>S </c><c>   3</c></rc>
    <rc><c>S </c><c>   3</c></rc>
    <rc><c>S </c><c>   3</c></rc>
   </set>
  </array>
  <array name="atomtypes" >
   <dimension dim="1">type</dimension>
   <field type="int">atomspertype</field>
   <field type="string">element</field>
   <field>mass</field>
   <field>valence</field>
   <field type="string">pseudopotential</field>
   <set>
    <rc><c>   2</c><c>K </c><c>     39.09800000</c><c>      7.00000000</c><c>  PAW_PBE K_pv 17Jan2003                </c></rc>
    <rc><c>   6</c><c>Sc</c><c>     44.95600000</c><c>      3.00000000</c><c>  PAW_PBE Sc 04Feb2005                  </c></rc>
    <rc><c>  10</c><c>S </c><c>     32.06600000</c><c>      6.00000000</c><c>  PAW_PBE S 06Sep2000                   </c></rc>
   </set>
  </array>
 </atominfo>
 <structure name="initialpos" >
  <crystal>
   <varray name="basis" >
    <v>      -0.00021484      -3.52263848       0.00004876 </v>
    <v>      -9.69104861      -1.76190424       0.00964523 </v>
    <v>      -2.99630475      -1.76136081     -10.18335736 </v>
   </varray>
   <i name="volume">    347.73859313 </i>
   <varray name="rec_basis" >
    <v>       0.05164537      -0.28388080       0.03390544 </v>
    <v>      -0.10315902       0.00000671       0.03035188 </v>
    <v>      -0.00009746      -0.00000135      -0.09817053 </v>
   </varray>
  </crystal>
  <varray name="positions" >
   <v>       0.74455108       0.33353700       0.17411992 </v>
   <v>       0.25534513       0.66647325       0.82590821 </v>
   <v>       0.50000113       0.00001793       0.99998361 </v>
   <v>       0.50002426       0.49997072       0.50000546 </v>
   <v>       0.83556095       0.93954560       0.38893368 </v>
   <v>       0.16443661       0.06047544       0.61108634 </v>
   <v>       0.02086149       0.73235058       0.22507608 </v>
   <v>       0.97915636       0.26764474       0.77491120 </v>
   <v>       0.92745563       0.99291975       0.15220777 </v>
   <v>       0.07256651       0.00708647       0.84776804 </v>
   <v>       0.59678182       0.73230746       0.07396941 </v>
   <v>       0.40324746       0.26768792       0.92599594 </v>
   <v>       0.42719923       0.75635984       0.38910314 </v>
   <v>       0.57283425       0.24362068       0.61089441 </v>
   <v>       0.25648594       0.10421613       0.38235747 </v>
   <v>       0.74348672       0.89580859       0.61767721 </v>
   <v>       0.08326070       0.48658975       0.34669514 </v>
   <v>       0.91674673       0.51338615       0.65330698 </v>
  </varray>
 </structure>
 <calculation>
  <scstep>
   <time name="dav">    0.50    0.50</time>
   <time name="total">    0.84    0.84</time>
   <energy>
    <i name="alphaZ">    205.90008506 </i>
    <i name="ewald">  -3640.23555371 </i>
    <i name="hartreedc">   -568.02265906 </i>
    <i name="XCdc">   -366.34317393 </i>
    <i name="pawpsdc">   3613.73928768 </i>
    <i name="pawaedc">  -3042.45643016 </i>
    <i name="eentropy">     -0.01499274 </i>
    <i name="bandstr">    640.92983558 </i>
    <i name="atom">   3936.96380017 </i>
    <i name="e_fr_energy">    780.46019888 </i>
    <i name="e_wo_entrp">    780.47519162 </i>
    <i name="e_0_energy">    780.46769525 </i>
   </energy>
  </scstep>
  <scstep>
   <time name="dav">    0.61    0.61</time>
   <time name="total">    0.61    0.61</time>
   <energy>
    <i name="e_fr_energy">     99.47732986 </i>
    <i name="e_wo_entrp">     99.48745712 </i>
    <i name="e_0_energy">     99.48239349 </i>
   </energy>
  </scstep>
  <scstep>
   <time name="dav">    0.96    0.96</time>
   <time name="total">    0.96    0.96</time>
   <energy>
    <i name="e_fr_energy">   -104.27443946 </i>
    <i name="e_wo_entrp">   -104.27443946 </i>
    <i name="e_0_energy">   -104.27443946 </i>
   </energy>
  </scstep>
  <scstep>
   <time name="dav">    0.82    0.82</time>
   <time name="total">    0.82    0.82</time>
   <energy>
    <i name="e_fr_energy">   -122.30836415 </i>
    <i name="e_wo_entrp">   -122.30836415 </i>
    <i name="e_0_energy">   -122.30836415 </i>
   </energy>
  </scstep>
  <scstep>
   <time name="dav">    0.78    0.79</time>
   <time name="total">    0.79    0.80</time>
   <energy>
    <i name="e_fr_energy">   -122.73852743 </i>
    <i name="e_wo_entrp">   -122.73852743 </i>
    <i name="e_0_energy">   -122.73852743 </i>
   </energy>
  </scstep>
  <scstep>
   <time name="dav">    0.91    0.91</time>
   <time name="total">    1.10    1.11</time>
   <energy>
    <i name="e_fr_energy">   -110.85307170 </i>
    <i name="e_wo_entrp">   -110.85307170 </i>
    <i name="e_0_energy">   -110.85307170 </i>
   </energy>
  </scstep>
  <scstep>
   <time name="dav">    0.75    0.76</time>
   <time name="total">    0.94    0.94</time>
   <energy>
    <i name="e_fr_energy">   -109.84163905 </i>
    <i name="e_wo_entrp">   -109.84163905 </i>
    <i name="e_0_energy">   -109.84163905 </i>
   </energy>
  </scstep>
  <scstep>
   <time name="dav">    0.71    0.72</time>
   <time name="total">    0.90    0.90</time>
   <energy>
    <i name="e_fr_energy">   -109.71603565 </i>
    <i name="e_wo_entrp">   -109.71603565 </i>
    <i name="e_0_energy">   -109.71603565 </i>
   </energy>
  </scstep>
  <scstep>
   <time name="dav">    0.85    0.85</time>
   <time name="total">    1.04    1.05</time>
   <energy>
    <i name="e_fr_energy">   -109.70662823 </i>
    <i name="e_wo_entrp">   -109.70662823 </i>
    <i name="e_0_energy">   -109.70662823 </i>
   </energy>
  </scstep>
  <scstep>
   <time name="dav">    0.73    0.74</time>
   <time name="total">    0.92    0.93</time>
   <energy>
    <i name="e_fr_energy">   -109.70496211 </i>
    <i name="e_wo_entrp">   -109.70496211 </i>
    <i name="e_0_energy">   -109.70496211 </i>
   </energy>
  </scstep>
  <scstep>
   <time name="dav">    0.82    0.83</time>
   <time name="total">    1.01    1.02</time>
   <energy>
    <i name="e_fr_energy">   -109.70393574 </i>
    <i name="e_wo_entrp">   -109.70393574 </i>
    <i name="e_0_energy">   -109.70393574 </i>
   </energy>
  </scstep>
  <scstep>
   <time name="dav">    0.85    0.86</time>
   <time name="total">    1.04    1.05</time>
   <energy>
    <i name="e_fr_energy">   -109.70405644 </i>
    <i name="e_wo_entrp">   -109.70405644 </i>
    <i name="e_0_energy">   -109.70405644 </i>
   </energy>
  </scstep>
  <scstep>
   <time name="dav">    0.71    0.71</time>
   <time name="total">    0.90    0.90</time>
   <energy>
    <i name="e_fr_energy">   -109.70402021 </i>
    <i name="e_wo_entrp">   -109.70402021 </i>
    <i name="e_0_energy">   -109.70402021 </i>
   </energy>
  </scstep>
  <scstep>
   <time name="dav">    0.67    0.67</time>
   <time name="total">    0.86    0.87</time>
   <energy>
    <i name="e_fr_energy">   -109.70415960 </i>
    <i name="e_wo_entrp">   -109.70415960 </i>
    <i name="e_0_energy">   -109.70415960 </i>
   </energy>
  </scstep>
  <scstep>
   <time name="dav">    0.56    0.57</time>
   <time name="total">    0.76    0.76</time>
   <energy>
    <i name="alphaZ">    205.90008506 </i>
    <i name="ewald">  -3640.23555371 </i>
    <i name="hartreedc">   -633.22507327 </i>
    <i name="XCdc">   -354.48978504 </i>
    <i name="pawpsdc">   9151.53251309 </i>
    <i name="pawaedc">  -8586.12063758 </i>
    <i name="eentropy">     -0.00000000 </i>
    <i name="bandstr">   -190.02953189 </i>
    <i name="atom">   3936.96380017 </i>
    <i name="e_fr_energy">   -109.70418317 </i>
    <i name="e_wo_entrp">   -109.70418317 </i>
    <i name="e_0_energy">   -109.70418317 </i>
   </energy>
  </scstep>
  <structure>
   <crystal>
    <varray name="basis" >
     <v>      -0.00021484      -3.52263848       0.00004876 </v>
     <v>      -9.69104861      -1.76190424       0.00964523 </v>
     <v>      -2.99630475      -1.76136081     -10.18335736 </v>
    </varray>
    <i name="volume">    347.73859313 </i>
    <varray name="rec_basis" >
     <v>       0.05164537      -0.28388080       0.03390544 </v>
     <v>      -0.10315902       0.00000671       0.03035188 </v>
     <v>      -0.00009746      -0.00000135      -0.09817053 </v>
    </varray>
   </crystal>
   <varray name="positions" >
    <v>       0.74455108       0.33353700       0.17411992 </v>
    <v>       0.25534513       0.66647325       0.82590821 </v>
    <v>       0.50000113       0.00001793       0.99998361 </v>
    <v>       0.50002426       0.49997072       0.50000546 </v>
    <v>       0.83556095       0.93954560       0.38893368 </v>
    <v>       0.16443661       0.06047544       0.61108634 </v>
    <v>       0.02086149       0.73235058       0.22507608 </v>
    <v>       0.97915636       0.26764474       0.77491120 </v>
    <v>       0.92745563       0.99291975       0.15220777 </v>
    <v>       0.07256651       0.00708647       0.84776804 </v>
    <v>       0.59678182       0.73230746       0.07396941 </v>
    <v>       0.40324746       0.26768792       0.92599594 </v>
    <v>       0.42719923       0.75635984       0.38910314 </v>
    <v>       0.57283425       0.24362068       0.61089441 </v>
    <v>       0.25648594       0.10421613       0.38235747 </v>
    <v>       0.74348672       0.89580859       0.61767721 </v>
    <v>       0.08326070       0.48658975       0.34669514 </v>
    <v>       0.91674673       0.51338615       0.65330698 </v>
   </varray>
  </structure>
  <varray name="forces" >
   <v>       0.00452888      -0.00692243       0.05712790 </v>
   <v>      -0.00402382       0.00667904      -0.05650346 </v>
   <v>       0.00157879      -0.00032359      -0.00118565 </v>
   <v>      -0.00246453       0.00042350       0.00124548 </v>
   <v>      -0.09070086      -0.00294903      -0.35561519 </v>
   <v>       0.09447566       0.00313029       0.35774956 </v>
   <v>       0.91494445      -0.01808922       0.01725227 </v>
   <v>      -0.91535013       0.01785463      -0.01685919 </v>
   <v>      -1.59296658      -0.02192483      -0.58940061 </v>
   <v>       1.59354269       0.02233490       0.58389751 </v>
   <v>       1.48573623      -0.01272953       1.63137179 </v>
   <v>      -1.48848326       0.01287084      -1.63492374 </v>
   <v>      -0.48962422       0.01933776      -0.38831757 </v>
   <v>       0.48740169      -0.01865557       0.38792831 </v>
   <v>      -1.88061497       0.01363371       1.87044551 </v>
   <v>       1.88469528      -0.01404805      -1.86559797 </v>
   <v>       1.85845376       0.01638048       0.73133788 </v>
   <v>      -1.86112908      -0.01700290      -0.72995285 </v>
  </varray>
  <varray name="stress" >
   <v>     188.37274104      -0.03686084       3.97553696 </v>
   <v>      -0.03686076     197.93964873       0.30510837 </v>
   <v>       3.97577495       0.30510836     205.11760180 </v>
  </varray>
  <energy>
   <i name="e_fr_energy">   -109.70418317 </i>
   <i name="e_wo_entrp">   -109.70418317 </i>
   <i name="e_0_energy">     -0.00000000 </i>
  </energy>
  <time name="totalsc">   14.52   14.60</time>
 </calculation>
 <calculation>
  <scstep>
   <time name="dav">    0.88    0.88</time>
   <time name="total">    1.24    1.25</time>
   <energy>
    <i name="alphaZ">    192.35874382 </i>
    <i name="ewald">  -3570.31131140 </i>
    <i name="hartreedc">   -609.19412849 </i>
    <i name="XCdc">   -358.87806430 </i>
    <i name="pawpsdc">   9153.39054010 </i>
    <i name="pawaedc">  -8587.98091488 </i>
    <i name="eentropy">     -0.00000000 </i>
    <i name="bandstr">   -270.15450819 </i>
    <i name="atom">   3936.96380017 </i>
    <i name="e_fr_energy">   -113.80584316 </i>
    <i name="e_wo_entrp">   -113.80584316 </i>
    <i name="e_0_energy">   -113.80584316 </i>
   </energy>
  </scstep>
  <scstep>
   <time name="dav">    1.07    1.07</time>
   <time name="total">    1.26    1.26</time>
   <energy>
    <i name="e_fr_energy">   -112.44488073 </i>
    <i name="e_wo_entrp">   -112.44488073 </i>
    <i name="e_0_energy">   -112.44488073 </i>
   </energy>
  </scstep>
  <scstep>
   <time name="dav">    0.41    0.41</time>
   <time name="total">    0.60    0.61</time>
   <energy>
    <i name="e_fr_energy">   -112.29046283 </i>
    <i name="e_wo_entrp">   -112.29046283 </i>
    <i name="e_0_energy">   -112.29046283 </i>
   </energy>
  </scstep>
  <scstep>
   <time name="dav">    0.69    0.69</time>
   <time name="total">    0.88    0.88</time>
   <energy>
    <i name="e_fr_energy">   -112.23962905 </i>
    <i name="e_wo_entrp">   -112.23962905 </i>
    <i name="e_0_energy">   -112.23962905 </i>
   </energy>
  </scstep>
  <scstep>
   <time name="dav">    0.81    0.81</time>
   <time name="total">    1.00    1.00</time>
   <energy>
    <i name="e_fr_energy">   -112.23920483 </i>
    <i name="e_wo_entrp">   -112.23920483 </i>
    <i name="e_0_energy">   -112.23920483 </i>
   </energy>
  </scstep>
  <scstep>
   <time name="dav">    0.68    0.68</time>
   <time name="total">    0.88    0.88</time>
   <energy>
    <i name="e_fr_energy">   -112.23818801 </i>
    <i name="e_wo_entrp">   -112.23818801 </i>
    <i name="e_0_energy">   -112.23818801 </i>
   </energy>
  </scstep>
  <scstep>
   <time name="dav">    0.80    0.80</time>
   <time name="total">    0.99    0.99</time>
   <energy>
    <i name="e_fr_energy">   -112.23802242 </i>
    <i name="e_wo_entrp">   -112.23802242 </i>
    <i name="e_0_energy">   -112.23802242 </i>
   </energy>
  </scstep>
  <scstep>
   <time name="dav">    0.53    0.53</time>
   <time name="total">    0.70    0.70</time>
   <energy>
    <i name="alphaZ">    192.35874382 </i>
    <i name="ewald">  -3570.31131140 </i>
    <i name="hartreedc">   -652.30634082 </i>
    <i name="XCdc">   -356.23439236 </i>
    <i name="pawpsdc">   8476.56726784 </i>
    <i name="pawaedc">  -7909.95583609 </i>
    <i name="eentropy">     -0.00000000 </i>
    <i name="bandstr">   -229.31989582 </i>
    <i name="atom">   3936.96380017 </i>
    <i name="e_fr_energy">   -112.23796466 </i>
    <i name="e_wo_entrp">   -112.23796466 </i>
    <i name="e_0_energy">   -112.23796466 </i>
   </energy>
  </scstep>
  <structure>
   <crystal>
    <varray name="basis" >
     <v>      -0.00020442      -3.60375921      -0.00007522 </v>
     <v>      -9.90341963      -1.80243618       0.00533059 </v>
     <v>      -3.06667261      -1.80227076     -10.42781615 </v>
    </varray>
    <i name="volume">    372.21809876 </i>
    <varray name="rec_basis" >
     <v>       0.05052167      -0.27749157       0.03310200 </v>
     <v>      -0.10096017       0.00000511       0.02969007 </v>
     <v>      -0.00005197       0.00000200      -0.09588242 </v>
    </varray>
   </crystal>
   <varray name="positions" >
    <v>       0.74459099       0.33354922       0.17406580 </v>
    <v>       0.25530635       0.66646071       0.82596173 </v>
    <v>       0.50000242       0.00001601       0.99998473 </v>
    <v>       0.50002228       0.49997354       0.50000428 </v>
    <v>       0.83540750       0.93953174       0.38927060 </v>
    <v>       0.16459215       0.06048617       0.61074739 </v>
    <v>       0.02137260       0.73144496       0.22505888 </v>
    <v>       0.97864582       0.26855088       0.77492803 </v>
    <v>       0.92652909       0.99433267       0.15276755 </v>
    <v>       0.07349041       0.00567136       0.84721347 </v>
    <v>       0.59809072       0.73130641       0.07242278 </v>
    <v>       0.40193565       0.26869067       0.92754594 </v>
    <v>       0.42677525       0.75673346       0.38947142 </v>
    <v>       0.57325513       0.24324916       0.61052651 </v>
    <v>       0.25612338       0.10663573       0.38058755 </v>
    <v>       0.74385404       0.89338635       0.61944253 </v>
    <v>       0.08438115       0.48495414       0.34600067 </v>
    <v>       0.91562710       0.51502482       0.65400014 </v>
   </varray>
  </structure>
  <varray name="forces" >
   <v>       0.03250906      -0.00259384      -0.01971950 </v>
   <v>      -0.03299529       0.00277490       0.01924726 </v>
   <v>       0.00048283       0.00002488      -0.00158535 </v>
   <v>      -0.00230920       0.00043061       0.00041066 </v>
   <v>      -0.42020986      -0.00356488      -0.48024697 </v>
   <v>       0.42223204       0.00404394       0.48076634 </v>
   <v>       0.73888983      -0.00824499       0.20892818 </v>
   <v>      -0.74089491       0.00896250      -0.21016078 </v>
   <v>      -0.81701101      -0.00720476      -0.35404869 </v>
   <v>       0.81675658       0.00546548       0.35776588 </v>
   <v>       0.80789348       0.00792580       0.80498796 </v>
   <v>      -0.81050416      -0.00740047      -0.80884328 </v>
   <v>      -0.26334779       0.01680500      -0.07862596 </v>
   <v>       0.26877129      -0.01765179       0.07851533 </v>
   <v>      -0.94608652       0.00766045       1.00306357 </v>
   <v>       0.94855635      -0.00751682      -1.00039725 </v>
   <v>       0.95233197       0.00103300       0.36400611 </v>
   <v>      -0.95506472      -0.00094901      -0.36406352 </v>
  </varray>
  <varray name="stress" >
   <v>      99.19028659      -0.43312745       3.31025581 </v>
   <v>      -0.43312792      99.47219835      -0.47688397 </v>
   <v>       3.31046827      -0.47688356     103.35458477 </v>
  </varray>
  <energy>
   <i name="e_fr_energy">   -112.23796466 </i>
   <i name="e_wo_entrp">   -112.23796466 </i>
   <i name="e_0_energy">     -0.00000000 </i>
  </energy>
  <time name="totalsc">    8.53    8.55</time>
 </calculation>
 <calculation>
  <scstep>
   <time name="dav">    0.61    0.61</time>
   <time name="total">    0.80    0.80</time>
   <energy>
    <i name="alphaZ">    177.65884731 </i>
    <i name="ewald">  -3489.40035164 </i>
    <i name="hartreedc">   -624.68911428 </i>
    <i name="XCdc">   -361.37115047 </i>
    <i name="pawpsdc">   8473.00190662 </i>
    <i name="pawaedc">  -7906.39547038 </i>
    <i name="eentropy">     -0.00000000 </i>
    <i name="bandstr">   -321.39827617 </i>
    <i name="atom">   3936.96380017 </i>
    <i name="e_fr_energy">   -115.62980884 </i>
    <i name="e_wo_entrp">   -115.62980884 </i>
    <i name="e_0_energy">   -115.62980884 </i>
   </energy>
  </scstep>
  <scstep>
   <time name="dav">    0.80    0.80</time>
   <time name="total">    0.99    0.99</time>
   <energy>
    <i name="e_fr_energy">   -113.74587113 </i>
    <i name="e_wo_entrp">   -113.74587113 </i>
    <i name="e_0_energy">   -113.74587113 </i>
   </energy>
  </scstep>
  <scstep>
   <time name="dav">    0.57    0.57</time>
   <time name="total">    0.76    0.76</time>
   <energy>
    <i name="e_fr_energy">   -113.53056249 </i>
    <i name="e_wo_entrp">   -113.53056249 </i>
    <i name="e_0_energy">   -113.53056249 </i>
   </energy>
  </scstep>
  <scstep>
   <time name="dav">    0.61    0.61</time>
   <time name="total">    0.80    0.80</time>
   <energy>
    <i name="e_fr_energy">   -113.45575727 </i>
    <i name="e_wo_entrp">   -113.45575727 </i>
    <i name="e_0_energy">   -113.45575727 </i>
   </energy>
  </scstep>
  <scstep>
   <time name="dav">    0.83    0.83</time>
   <time name="total">    1.02    1.02</time>
   <energy>
    <i name="e_fr_energy">   -113.45537203 </i>
    <i name="e_wo_entrp">   -113.45537203 </i>
    <i name="e_0_energy">   -113.45537203 </i>
   </energy>
  </scstep>
  <scstep>
   <time name="dav">    0.82    0.82</time>
   <time name="total">    1.01    1.01</time>
   <energy>
    <i name="e_fr_energy">   -113.45401864 </i>
    <i name="e_wo_entrp">   -113.45401864 </i>
    <i name="e_0_energy">   -113.45401864 </i>
   </energy>
  </scstep>
  <scstep>
   <time name="dav">    0.67    0.67</time>
   <time name="total">    0.86    0.86</time>
   <energy>
    <i name="e_fr_energy">   -113.45361833 </i>
    <i name="e_wo_entrp">   -113.45361833 </i>
    <i name="e_0_energy">   -113.45361833 </i>
   </energy>
  </scstep>
  <scstep>
   <time name="dav">    0.52    0.52</time>
   <time name="total">    0.71    0.71</time>
   <energy>
    <i name="e_fr_energy">   -113.45351058 </i>
    <i name="e_wo_entrp">   -113.45351058 </i>
    <i name="e_0_energy">   -113.45351058 </i>
   </energy>
  </scstep>
  <scstep>
   <time name="dav">    0.76    0.76</time>
   <time name="total">    0.94    0.94</time>
   <energy>
    <i name="alphaZ">    177.65884731 </i>
    <i name="ewald">  -3489.40035164 </i>
    <i name="hartreedc">   -676.30808434 </i>
    <i name="XCdc">   -358.27461816 </i>
    <i name="pawpsdc">   7900.18822269 </i>
    <i name="pawaedc">  -7332.41291712 </i>
    <i name="eentropy">     -0.00000000 </i>
    <i name="bandstr">   -271.86838002 </i>
    <i name="atom">   3936.96380017 </i>
    <i name="e_fr_energy">   -113.45348111 </i>
    <i name="e_wo_entrp">   -113.45348111 </i>
    <i name="e_0_energy">   -113.45348111 </i>
   </energy>
  </scstep>
  <structure>
   <crystal>
    <varray name="basis" >
     <v>      -0.00019194      -3.70091876      -0.00022371 </v>
     <v>     -10.15777966      -1.85098190       0.00016288 </v>
     <v>      -3.15095327      -1.85126923     -10.72060820 </v>
    </varray>
    <i name="volume">    403.01626961 </i>
    <varray name="rec_basis" >
     <v>       0.04923859      -0.27020767       0.03218835 </v>
     <v>      -0.09844686       0.00000336       0.02893448 </v>
     <v>      -0.00000252       0.00000564      -0.09327852 </v>
    </varray>
   </crystal>
   <varray name="positions" >
    <v>       0.74463768       0.33356354       0.17400250 </v>
    <v>       0.25526096       0.66644602       0.82602434 </v>
    <v>       0.50000392       0.00001376       0.99998604 </v>
    <v>       0.50001996       0.49997684       0.50000290 </v>
    <v>       0.83522796       0.93951554       0.38966469 </v>
    <v>       0.16477412       0.06049869       0.61035093 </v>
    <v>       0.02197139       0.73038340       0.22503921 </v>
    <v>       0.97804770       0.26961305       0.77494726 </v>
    <v>       0.92544390       0.99598899       0.15342158 </v>
    <v>       0.07457252       0.00401249       0.84656554 </v>
    <v>       0.59962302       0.73013270       0.07061426 </v>
    <v>       0.40039993       0.26986636       0.92935839 </v>
    <v>       0.42627883       0.75717148       0.38990198 </v>
    <v>       0.57374791       0.24281360       0.61009637 </v>
    <v>       0.25569719       0.10947163       0.37851616 </v>
    <v>       0.74428579       0.89054735       0.62150855 </v>
    <v>       0.08569342       0.48303678       0.34518920 </v>
    <v>       0.91431580       0.51694578       0.65481007 </v>
   </varray>
  </structure>
  <varray name="forces" >
   <v>       0.06831432      -0.00334878      -0.09624321 </v>
   <v>      -0.06830999       0.00379002       0.09613683 </v>
   <v>       0.00018191       0.00031417      -0.00129458 </v>
   <v>      -0.00150538       0.00044764       0.00022328 </v>
   <v>      -0.68959089       0.00200220      -0.53443512 </v>
   <v>       0.69132204      -0.00122499       0.53466478 </v>
   <v>       0.61343485      -0.00048626       0.37340834 </v>
   <v>      -0.61448435       0.00118672      -0.37437551 </v>
   <v>      -0.03933829       0.00730637      -0.22301157 </v>
   <v>       0.03897226      -0.00638019       0.22049614 </v>
   <v>       0.12501764       0.00439217       0.07456233 </v>
   <v>      -0.12622905      -0.00353934      -0.07739168 </v>
   <v>      -0.09868562      -0.03259391       0.21862219 </v>
   <v>       0.09689581       0.03379024      -0.21936617 </v>
   <v>      -0.10632779      -0.00504979       0.23701788 </v>
   <v>       0.10856985       0.00574531      -0.23511148 </v>
   <v>       0.13682143      -0.00949032       0.03334390 </v>
   <v>      -0.13505874       0.00313875      -0.02724635 </v>
  </varray>
  <varray name="stress" >
   <v>      19.52005654      -0.31811977       2.44387069 </v>
   <v>      -0.31811954      14.14282576       0.13065469 </v>
   <v>       2.44404639       0.13065515      14.95066819 </v>
  </varray>
  <energy>
   <i name="e_fr_energy">   -113.45348111 </i>
   <i name="e_wo_entrp">   -113.45348111 </i>
   <i name="e_0_energy">     -0.00000000 </i>
  </energy>
  <time name="totalsc">    8.73    8.73</time>
 </calculation>
 <calculation>
  <scstep>
   <time name="dav">    0.69    0.69</time>
   <time name="total">    0.88    0.88</time>
   <energy>
    <i name="alphaZ">    174.69049252 </i>
    <i name="ewald">  -3472.33536193 </i>
    <i name="hartreedc">   -670.37945754 </i>
    <i name="XCdc">   -359.37309911 </i>
    <i name="pawpsdc">   7901.22248106 </i>
    <i name="pawaedc">  -7333.44845251 </i>
    <i name="eentropy">     -0.00000000 </i>
    <i name="bandstr">   -290.93837467 </i>
    <i name="atom">   3936.96380017 </i>
    <i name="e_fr_energy">   -113.59797200 </i>
    <i name="e_wo_entrp">   -113.59797200 </i>
    <i name="e_0_energy">   -113.59797200 </i>
   </energy>
  </scstep>
  <scstep>
   <time name="dav">    0.83    0.83</time>
   <time name="total">    1.02    1.02</time>
   <energy>
    <i name="e_fr_energy">   -113.51231093 </i>
    <i name="e_wo_entrp">   -113.51231093 </i>
    <i name="e_0_energy">   -113.51231093 </i>
   </energy>
  </scstep>
  <scstep>
   <time name="dav">    0.67    0.67</time>
   <time name="total">    0.85    0.86</time>
   <energy>
    <i name="e_fr_energy">   -113.50194286 </i>
    <i name="e_wo_entrp">   -113.50194286 </i>
    <i name="e_0_energy">   -113.50194286 </i>
   </energy>
  </scstep>
  <scstep>
   <time name="dav">    0.72    0.72</time>
   <time name="total">    0.90    0.91</time>
   <energy>
    <i name="e_fr_energy">   -113.49832834 </i>
    <i name="e_wo_entrp">   -113.49832834 </i>
    <i name="e_0_energy">   -113.49832834 </i>
   </energy>
  </scstep>
  <scstep>
   <time name="dav">    0.58    0.58</time>
   <time name="total">    0.76    0.76</time>
   <energy>
    <i name="alphaZ">    174.69049252 </i>
    <i name="ewald">  -3472.33536193 </i>
    <i name="hartreedc">   -681.33998473 </i>
    <i name="XCdc">   -358.71197764 </i>
    <i name="pawpsdc">   7749.49505432 </i>
    <i name="pawaedc">  -7181.58178943 </i>
    <i name="eentropy">     -0.00000000 </i>
    <i name="bandstr">   -280.67849251 </i>
    <i name="atom">   3936.96380017 </i>
    <i name="e_fr_energy">   -113.49825923 </i>
    <i name="e_wo_entrp">   -113.49825923 </i>
    <i name="e_0_energy">   -113.49825923 </i>
   </energy>
  </scstep>
  <structure>
   <crystal>
    <varray name="basis" >
     <v>      -0.00018925      -3.72184487      -0.00025569 </v>
     <v>     -10.21256345      -1.86143763      -0.00095013 </v>
     <v>      -3.16910555      -1.86182247     -10.78366943 </v>
    </varray>
    <i name="volume">    409.86435420 </i>
    <varray name="rec_basis" >
     <v>       0.04897074      -0.26868864       0.03199812 </v>
     <v>      -0.09792183       0.00000300       0.02877676 </v>
     <v>       0.00000747       0.00000637      -0.09273611 </v>
    </varray>
   </crystal>
   <varray name="positions" >
    <v>       0.74464747       0.33356654       0.17398924 </v>
    <v>       0.25525145       0.66644293       0.82603746 </v>
    <v>       0.50000424       0.00001329       0.99998632 </v>
    <v>       0.50001947       0.49997753       0.50000261 </v>
    <v>       0.83519034       0.93951216       0.38974726 </v>
    <v>       0.16481225       0.06050131       0.61026788 </v>
    <v>       0.02209706       0.73016045       0.22503520 </v>
    <v>       0.97792216       0.26983613       0.77495118 </v>
    <v>       0.92521620       0.99633686       0.15355843 </v>
    <v>       0.07479957       0.00366407       0.84642997 </v>
    <v>       0.59994436       0.72988614       0.07023550 </v>
    <v>       0.40007787       0.27011334       0.92973797 </v>
    <v>       0.42617471       0.75726349       0.38999214 </v>
    <v>       0.57385127       0.24272211       0.61000631 </v>
    <v>       0.25560740       0.11006714       0.37808192 </v>
    <v>       0.74437675       0.88995119       0.62194167 </v>
    <v>       0.08596876       0.48263407       0.34501940 </v>
    <v>       0.91404066       0.51734925       0.65497956 </v>
   </varray>
  </structure>
  <varray name="forces" >
   <v>       0.07271342      -0.00311956      -0.11217779 </v>
   <v>      -0.07258994       0.00284301       0.11274395 </v>
   <v>       0.00026434      -0.00000084      -0.00089708 </v>
   <v>      -0.00192898      -0.00036042       0.00001736 </v>
   <v>      -0.72816697      -0.00497962      -0.53648809 </v>
   <v>       0.73113228       0.00462756       0.53771978 </v>
   <v>       0.60170044      -0.00037727       0.39258544 </v>
   <v>      -0.60242541       0.00042138      -0.39287836 </v>
   <v>       0.09078645       0.04294841      -0.19087354 </v>
   <v>      -0.09084000      -0.04269792       0.18933613 </v>
   <v>      -0.02984960       0.02610817      -0.06338402 </v>
   <v>       0.02913263      -0.02592860       0.06142506 </v>
   <v>      -0.06819314      -0.00878841       0.24640052 </v>
   <v>       0.06687010       0.00929743      -0.24639612 </v>
   <v>       0.04415687       0.01079774       0.06689177 </v>
   <v>      -0.04171155      -0.01075609      -0.06444582 </v>
   <v>      -0.02119334      -0.01601710      -0.03972975 </v>
   <v>       0.02014240       0.01598214       0.04015055 </v>
  </varray>
  <varray name="stress" >
   <v>       6.35654966      -0.22849139       2.57039121 </v>
   <v>      -0.22849185       0.41461212       0.07025429 </v>
   <v>       2.57055944       0.07025474       0.29482005 </v>
  </varray>
  <energy>
   <i name="e_fr_energy">   -113.49825923 </i>
   <i name="e_wo_entrp">   -113.49825923 </i>
   <i name="e_0_energy">     -0.00000000 </i>
  </energy>
  <time name="totalsc">    5.37    5.39</time>
 </calculation>
 <calculation>
  <scstep>
   <time name="dav">    0.48    0.48</time>
   <time name="total">    0.67    0.67</time>
   <energy>
    <i name="alphaZ">    174.12482016 </i>
    <i name="ewald">  -3469.05398512 </i>
    <i name="hartreedc">   -680.41888951 </i>
    <i name="XCdc">   -358.92094933 </i>
    <i name="pawpsdc">   7795.23997778 </i>
    <i name="pawaedc">  -7227.25706263 </i>
    <i name="eentropy">     -0.00000000 </i>
    <i name="bandstr">   -284.18023388 </i>
    <i name="atom">   3936.96380017 </i>
    <i name="e_fr_energy">   -113.50252237 </i>
    <i name="e_wo_entrp">   -113.50252237 </i>
    <i name="e_0_energy">   -113.50252237 </i>
   </energy>
  </scstep>
  <scstep>
   <time name="dav">    0.87    0.87</time>
   <time name="total">    1.06    1.06</time>
   <energy>
    <i name="e_fr_energy">   -113.49916201 </i>
    <i name="e_wo_entrp">   -113.49916201 </i>
    <i name="e_0_energy">   -113.49916201 </i>
   </energy>
  </scstep>
  <scstep>
   <time name="dav">    0.83    0.83</time>
   <time name="total">    1.02    1.02</time>
   <energy>
    <i name="e_fr_energy">   -113.49873367 </i>
    <i name="e_wo_entrp">   -113.49873367 </i>
    <i name="e_0_energy">   -113.49873367 </i>
   </energy>
  </scstep>
  <scstep>
   <time name="dav">    0.46    0.46</time>
   <time name="total">    0.65    0.65</time>
   <energy>
    <i name="e_fr_energy">   -113.49856058 </i>
    <i name="e_wo_entrp">   -113.49856058 </i>
    <i name="e_0_energy">   -113.49856058 </i>
   </energy>
  </scstep>
  <scstep>
   <time name="dav">    0.44    0.44</time>
   <time name="total">    0.62    0.62</time>
   <energy>
    <i name="alphaZ">    174.12482016 </i>
    <i name="ewald">  -3469.05398512 </i>
    <i name="hartreedc">   -682.62746053 </i>
    <i name="XCdc">   -358.78781745 </i>
    <i name="pawpsdc">   7771.50799923 </i>
    <i name="pawaedc">  -7203.49353667 </i>
    <i name="eentropy">     -0.00000000 </i>
    <i name="bandstr">   -282.13237617 </i>
    <i name="atom">   3936.96380017 </i>
    <i name="e_fr_energy">   -113.49855639 </i>
    <i name="e_wo_entrp">   -113.49855639 </i>
    <i name="e_0_energy">   -113.49855639 </i>
   </energy>
  </scstep>
  <structure>
   <crystal>
    <varray name="basis" >
     <v>      -0.00018873      -3.72588655      -0.00026186 </v>
     <v>     -10.22314441      -1.86345705      -0.00116510 </v>
     <v>      -3.17261149      -1.86386072     -10.79584910 </v>
    </varray>
    <i name="volume">    411.19586421 </i>
    <varray name="rec_basis" >
     <v>       0.04891934      -0.26839722       0.03196163 </v>
     <v>      -0.09782107       0.00000293       0.02874649 </v>
     <v>       0.00000937       0.00000651      -0.09263207 </v>
    </varray>
   </crystal>
   <varray name="positions" >
    <v>       0.74464935       0.33356712       0.17398669 </v>
    <v>       0.25524963       0.66644234       0.82603998 </v>
    <v>       0.50000430       0.00001320       0.99998637 </v>
    <v>       0.50001938       0.49997767       0.50000256 </v>
    <v>       0.83518312       0.93951151       0.38976311 </v>
    <v>       0.16481958       0.06050181       0.61025193 </v>
    <v>       0.02212120       0.73011762       0.22503444 </v>
    <v>       0.97789805       0.26987898       0.77495193 </v>
    <v>       0.92517246       0.99640370       0.15358470 </v>
    <v>       0.07484319       0.00359714       0.84640394 </v>
    <v>       0.60000607       0.72983877       0.07016278 </v>
    <v>       0.40001602       0.27016079       0.92981085 </v>
    <v>       0.42615471       0.75728116       0.39000945 </v>
    <v>       0.57387112       0.24270453       0.60998901 </v>
    <v>       0.25559013       0.11018154       0.37799852 </v>
    <v>       0.74439424       0.88983666       0.62202484 </v>
    <v>       0.08602164       0.48255671       0.34498680 </v>
    <v>       0.91398782       0.51742676       0.65501209 </v>
   </varray>
  </structure>
  <varray name="forces" >
   <v>       0.07398827      -0.00356268      -0.11368474 </v>
   <v>      -0.07279478       0.00333116       0.11507728 </v>
   <v>       0.00026982      -0.00007156      -0.00090803 </v>
   <v>      -0.00155559       0.00003387       0.00016554 </v>
   <v>      -0.73812165      -0.00704421      -0.53694079 </v>
   <v>       0.74009674       0.00699855       0.53777373 </v>
   <v>       0.59366559      -0.00111885       0.39443776 </v>
   <v>      -0.59512705       0.00123242      -0.39514780 </v>
   <v>       0.12423643       0.04252629      -0.18064092 </v>
   <v>      -0.12423887      -0.04243023       0.17912449 </v>
   <v>      -0.06669124       0.02566732      -0.08706328 </v>
   <v>       0.06604859      -0.02564046       0.08505714 </v>
   <v>      -0.06415148      -0.00498984       0.26215649 </v>
   <v>       0.06288289       0.00534088      -0.26217346 </v>
   <v>       0.06365210       0.01019042       0.03914501 </v>
   <v>      -0.06118146      -0.01028910      -0.03675728 </v>
   <v>      -0.06005012      -0.01595180      -0.05743862 </v>
   <v>       0.05907181       0.01577783       0.05781748 </v>
  </varray>
  <varray name="stress" >
   <v>       3.23292127      -0.24277820       2.51480118 </v>
   <v>      -0.24277826      -2.65682572      -0.01417830 </v>
   <v>       2.51496802      -0.01417789      -2.98502586 </v>
  </varray>
  <energy>
   <i name="e_fr_energy">   -113.49855639 </i>
   <i name="e_wo_entrp">   -113.49855639 </i>
   <i name="e_0_energy">     -0.00000000 </i>
  </energy>
  <time name="totalsc">    4.97    4.98</time>
 </calculation>
 <calculation>
  <scstep>
   <time name="dav">    0.81    0.82</time>
   <time name="total">    1.00    1.01</time>
   <energy>
    <i name="alphaZ">    174.22746545 </i>
    <i name="ewald">  -3469.65014806 </i>
    <i name="hartreedc">   -682.90450366 </i>
    <i name="XCdc">   -358.74862528 </i>
    <i name="pawpsdc">   7777.36635381 </i>
    <i name="pawaedc">  -7209.34106980 </i>
    <i name="eentropy">     -0.00000000 </i>
    <i name="bandstr">   -281.41205619 </i>
    <i name="atom">   3936.96380017 </i>
    <i name="e_fr_energy">   -113.49878356 </i>
    <i name="e_wo_entrp">   -113.49878356 </i>
    <i name="e_0_energy">   -113.49878356 </i>
   </energy>
  </scstep>
  <scstep>
   <time name="dav">    0.39    0.39</time>
   <time name="total">    0.59    0.59</time>
   <energy>
    <i name="e_fr_energy">   -113.49865330 </i>
    <i name="e_wo_entrp">   -113.49865330 </i>
    <i name="e_0_energy">   -113.49865330 </i>
   </energy>
  </scstep>
  <scstep>
   <time name="dav">    0.33    0.33</time>
   <time name="total">    0.51    0.51</time>
   <energy>
    <i name="alphaZ">    174.22746545 </i>
    <i name="ewald">  -3469.65014806 </i>
    <i name="hartreedc">   -682.50716322 </i>
    <i name="XCdc">   -358.77367442 </i>
    <i name="pawpsdc">   7789.96852407 </i>
    <i name="pawaedc">  -7221.93832828 </i>
    <i name="eentropy">     -0.00000000 </i>
    <i name="bandstr">   -281.78911460 </i>
    <i name="atom">   3936.96380017 </i>
    <i name="e_fr_energy">   -113.49863890 </i>
    <i name="e_wo_entrp">   -113.49863890 </i>
    <i name="e_0_energy">   -113.49863890 </i>
   </energy>
  </scstep>
  <structure>
   <crystal>
    <varray name="basis" >
     <v>      -0.00018883      -3.72515186      -0.00026074 </v>
     <v>     -10.22122102      -1.86308996      -0.00112602 </v>
     <v>      -3.17197419      -1.86349021     -10.79363510 </v>
    </varray>
    <i name="volume">    410.95361010 </i>
    <varray name="rec_basis" >
     <v>       0.04892867      -0.26845015       0.03196826 </v>
     <v>      -0.09783937       0.00000295       0.02875199 </v>
     <v>       0.00000902       0.00000648      -0.09265097 </v>
    </varray>
   </crystal>
   <varray name="positions" >
    <v>       0.74464901       0.33356701       0.17398715 </v>
    <v>       0.25524996       0.66644245       0.82603952 </v>
    <v>       0.50000429       0.00001322       0.99998636 </v>
    <v>       0.50001940       0.49997764       0.50000257 </v>
    <v>       0.83518443       0.93951163       0.38976023 </v>
    <v>       0.16481825       0.06050172       0.61025482 </v>
    <v>       0.02211682       0.73012540       0.22503457 </v>
    <v>       0.97790243       0.26987120       0.77495179 </v>
    <v>       0.92518041       0.99639156       0.15357993 </v>
    <v>       0.07483527       0.00360929       0.84640867 </v>
    <v>       0.59999487       0.72984737       0.07017599 </v>
    <v>       0.40002725       0.27015217       0.92979762 </v>
    <v>       0.42615835       0.75727795       0.39000630 </v>
    <v>       0.57386751       0.24270772       0.60999215 </v>
    <v>       0.25559327       0.11016077       0.37801367 </v>
    <v>       0.74439106       0.88985746       0.62200974 </v>
    <v>       0.08601204       0.48257076       0.34499272 </v>
    <v>       0.91399742       0.51741268       0.65500618 </v>
   </varray>
  </structure>
  <varray name="forces" >
   <v>       0.07361674      -0.00319985      -0.11209824 </v>
   <v>      -0.07232654       0.00317456       0.11280321 </v>
   <v>       0.00136294       0.00062747      -0.00067869 </v>
   <v>      -0.00134071       0.00007570       0.00053592 </v>
   <v>      -0.73555508      -0.00468874      -0.53663017 </v>
   <v>       0.73834546       0.00535020       0.53772245 </v>
   <v>       0.59642436      -0.00090562       0.39430095 </v>
   <v>      -0.59630075       0.00151116      -0.39438447 </v>
   <v>       0.11455385       0.04301566      -0.18197207 </v>
   <v>      -0.11374191      -0.04221122       0.18072761 </v>
   <v>      -0.05187585       0.02617456      -0.07624857 </v>
   <v>       0.05205378      -0.02544487       0.07449281 </v>
   <v>      -0.06486715      -0.00459163       0.25819364 </v>
   <v>       0.06441755       0.00565695      -0.25794472 </v>
   <v>       0.05237092       0.01055847       0.04921807 </v>
   <v>      -0.05695581      -0.01563379      -0.04868501 </v>
   <v>      -0.04637079      -0.01563113      -0.04988060 </v>
   <v>       0.04618898       0.01616213       0.05052789 </v>
  </varray>
  <varray name="stress" >
   <v>       2.80934282      -0.24285038       2.47961467 </v>
   <v>      -0.24285038      -2.93376350      -0.02221899 </v>
   <v>       2.47978173      -0.02221886      -3.31898192 </v>
  </varray>
  <energy>
   <i name="e_fr_energy">   -113.49863890 </i>
   <i name="e_wo_entrp">   -113.49863890 </i>
   <i name="e_0_energy">     -0.00000000 </i>
  </energy>
  <time name="totalsc">    3.06    3.09</time>
 </calculation>
 <calculation>
  <scstep>
   <time name="dav">    0.65    0.66</time>
   <time name="total">    0.84    0.86</time>
   <energy>
    <i name="alphaZ">    174.45877410 </i>
    <i name="ewald">  -3470.99250369 </i>
    <i name="hartreedc">   -682.91143650 </i>
    <i name="XCdc">   -358.68940901 </i>
    <i name="pawpsdc">   7791.88069535 </i>
    <i name="pawaedc">  -7223.85156862 </i>
    <i name="eentropy">     -0.00000000 </i>
    <i name="bandstr">   -280.35746034 </i>
    <i name="atom">   3936.96380017 </i>
    <i name="e_fr_energy">   -113.49910854 </i>
    <i name="e_wo_entrp">   -113.49910854 </i>
    <i name="e_0_energy">   -113.49910854 </i>
   </energy>
  </scstep>
  <scstep>
   <time name="dav">    0.77    0.78</time>
   <time name="total">    0.95    0.97</time>
   <energy>
    <i name="e_fr_energy">   -113.49864473 </i>
    <i name="e_wo_entrp">   -113.49864473 </i>
    <i name="e_0_energy">   -113.49864473 </i>
   </energy>
  </scstep>
  <scstep>
   <time name="dav">    0.49    0.50</time>
   <time name="total">    0.66    0.68</time>
   <energy>
    <i name="alphaZ">    174.45877410 </i>
    <i name="ewald">  -3470.99250369 </i>
    <i name="hartreedc">   -682.23272415 </i>
    <i name="XCdc">   -358.73363392 </i>
    <i name="pawpsdc">   7801.79688984 </i>
    <i name="pawaedc">  -7233.77226485 </i>
    <i name="eentropy">     -0.00000000 </i>
    <i name="bandstr">   -280.98692228 </i>
    <i name="atom">   3936.96380017 </i>
    <i name="e_fr_energy">   -113.49858478 </i>
    <i name="e_wo_entrp">   -113.49858478 </i>
    <i name="e_0_energy">   -113.49858478 </i>
   </energy>
  </scstep>
  <structure>
   <crystal>
    <varray name="basis" >
     <v>      -0.00018904      -3.72349837      -0.00025821 </v>
     <v>     -10.21689223      -1.86226379      -0.00103808 </v>
     <v>      -3.17053987      -1.86265634     -10.78865226 </v>
    </varray>
    <i name="volume">    410.40874140 </i>
    <varray name="rec_basis" >
     <v>       0.04894970      -0.26856934       0.03198318 </v>
     <v>      -0.09788059       0.00000297       0.02876437 </v>
     <v>       0.00000825       0.00000643      -0.09269352 </v>
    </varray>
   </crystal>
   <varray name="positions" >
    <v>       0.74464824       0.33356678       0.17398819 </v>
    <v>       0.25525070       0.66644269       0.82603849 </v>
    <v>       0.50000426       0.00001325       0.99998634 </v>
    <v>       0.50001943       0.49997759       0.50000259 </v>
    <v>       0.83518738       0.93951189       0.38975375 </v>
    <v>       0.16481525       0.06050151       0.61026134 </v>
    <v>       0.02210695       0.73014290       0.22503489 </v>
    <v>       0.97791228       0.26985368       0.77495149 </v>
    <v>       0.92519828       0.99636424       0.15356919 </v>
    <v>       0.07481744       0.00363665       0.84641930 </v>
    <v>       0.59996964       0.72986674       0.07020571 </v>
    <v>       0.40005253       0.27013278       0.92976783 </v>
    <v>       0.42616652       0.75727073       0.38999923 </v>
    <v>       0.57385940       0.24271491       0.60999922 </v>
    <v>       0.25560033       0.11011401       0.37804775 </v>
    <v>       0.74438391       0.88990427       0.62197574 </v>
    <v>       0.08599042       0.48260238       0.34500604 </v>
    <v>       0.91401902       0.51738100       0.65499289 </v>
   </varray>
  </structure>
  <varray name="forces" >
   <v>       0.07264888      -0.00369559      -0.11054416 </v>
   <v>      -0.07264730       0.00314217       0.11173926 </v>
   <v>       0.00151433      -0.00054311      -0.00126997 </v>
   <v>      -0.00326543       0.00025416       0.00220494 </v>
   <v>      -0.73271890      -0.00479959      -0.53636091 </v>
   <v>       0.73447690       0.00440006       0.53817373 </v>
   <v>       0.59937548      -0.00040113       0.39343713 </v>
   <v>      -0.60029362      -0.00005552      -0.39280427 </v>
   <v>       0.10101203       0.04257861      -0.18454645 </v>
   <v>      -0.10123828      -0.04283545       0.18397803 </v>
   <v>      -0.03363852       0.02566239      -0.06800937 </v>
   <v>       0.03274837      -0.02599563       0.06696020 </v>
   <v>      -0.06317540      -0.00910939       0.24978006 </v>
   <v>       0.06167162       0.00910777      -0.24882078 </v>
   <v>       0.05304277       0.01045562       0.05759927 </v>
   <v>      -0.04827604      -0.00763138      -0.06288106 </v>
   <v>      -0.03128266      -0.01622102      -0.04352373 </v>
   <v>       0.03004577       0.01568704       0.04488807 </v>
  </varray>
  <varray name="stress" >
   <v>       3.58010481      -0.22377890       2.48828510 </v>
   <v>      -0.22377987      -2.18358936       0.05300545 </v>
   <v>       2.48845288       0.05300619      -2.49123522 </v>
  </varray>
  <energy>
   <i name="e_fr_energy">   -113.49858478 </i>
   <i name="e_wo_entrp">   -113.49858478 </i>
   <i name="e_0_energy">     -0.00000000 </i>
  </energy>
  <time name="totalsc">    3.47    3.53</time>
 </calculation>
 <calculation>
  <scstep>
   <time name="dav">    0.57    0.58</time>
   <time name="total">    0.75    0.76</time>
   <energy>
    <i name="alphaZ">    174.35975816 </i>
    <i name="ewald">  -3470.04309260 </i>
    <i name="hartreedc">   -682.18663082 </i>
    <i name="XCdc">   -358.77166844 </i>
    <i name="pawpsdc">   7802.17678135 </i>
    <i name="pawaedc">  -7234.15946960 </i>
    <i name="eentropy">     -0.00000000 </i>
    <i name="bandstr">   -281.87315833 </i>
    <i name="atom">   3936.96380017 </i>
    <i name="e_fr_energy">   -113.53368010 </i>
    <i name="e_wo_entrp">   -113.53368010 </i>
    <i name="e_0_energy">   -113.53368010 </i>
   </energy>
  </scstep>
  <scstep>
   <time name="dav">    0.68    0.68</time>
   <time name="total">    0.87    0.87</time>
   <energy>
    <i name="e_fr_energy">   -113.53407387 </i>
    <i name="e_wo_entrp">   -113.53407387 </i>
    <i name="e_0_energy">   -113.53407387 </i>
   </energy>
  </scstep>
  <scstep>
   <time name="dav">    0.64    0.64</time>
   <time name="total">    0.83    0.83</time>
   <energy>
    <i name="e_fr_energy">   -113.53375330 </i>
    <i name="e_wo_entrp">   -113.53375330 </i>
    <i name="e_0_energy">   -113.53375330 </i>
   </energy>
  </scstep>
  <scstep>
   <time name="dav">    0.42    0.43</time>
   <time name="total">    0.61    0.61</time>
   <energy>
    <i name="e_fr_energy">   -113.53358950 </i>
    <i name="e_wo_entrp">   -113.53358950 </i>
    <i name="e_0_energy">   -113.53358950 </i>
   </energy>
  </scstep>
  <scstep>
   <time name="dav">    0.57    0.57</time>
   <time name="total">    0.75    0.75</time>
   <energy>
    <i name="alphaZ">    174.35975816 </i>
    <i name="ewald">  -3470.04309260 </i>
    <i name="hartreedc">   -682.73395491 </i>
    <i name="XCdc">   -358.73784459 </i>
    <i name="pawpsdc">   7793.47066653 </i>
    <i name="pawaedc">  -7225.46369014 </i>
    <i name="eentropy">     -0.00000000 </i>
    <i name="bandstr">   -281.34918228 </i>
    <i name="atom">   3936.96380017 </i>
    <i name="e_fr_energy">   -113.53353967 </i>
    <i name="e_wo_entrp">   -113.53353967 </i>
    <i name="e_0_energy">   -113.53353967 </i>
   </energy>
  </scstep>
  <structure>
   <crystal>
    <varray name="basis" >
     <v>      -0.00004096      -3.72300326      -0.00029482 </v>
     <v>     -10.22580651      -1.86160909      -0.00562979 </v>
     <v>      -3.17808473      -1.86238829     -10.78816496 </v>
    </varray>
    <i name="volume">    410.64180553 </i>
    <varray name="rec_basis" >
     <v>       0.04888168      -0.26860343       0.03196964 </v>
     <v>      -0.09780744      -0.00000121       0.02881330 </v>
     <v>       0.00004970       0.00000734      -0.09271008 </v>
    </varray>
   </crystal>
   <varray name="positions" >
    <v>       0.74466132       0.33343831       0.17411569 </v>
    <v>       0.25523997       0.66657159       0.82590961 </v>
    <v>       0.50000652       0.00001092       0.99998782 </v>
    <v>       0.50001744       0.49998241       0.50000003 </v>
    <v>       0.83453929       0.94021521       0.39037851 </v>
    <v>       0.16546651       0.05979666       0.60963446 </v>
    <v>       0.02263757       0.72954164       0.22457903 </v>
    <v>       0.97738289       0.27045630       0.77540661 </v>
    <v>       0.92503368       0.99618921       0.15378883 </v>
    <v>       0.07498252       0.00381173       0.84620038 </v>
    <v>       0.59984948       0.72987290       0.07026831 </v>
    <v>       0.40017282       0.27012734       0.92970648 </v>
    <v>       0.42625383       0.75744173       0.38971373 </v>
    <v>       0.57377152       0.24254612       0.61028361 </v>
    <v>       0.25561686       0.11009528       0.37796248 </v>
    <v>       0.74435875       0.88991524       0.62206708 </v>
    <v>       0.08602010       0.48260779       0.34504921 </v>
    <v>       0.91399093       0.51737763       0.65494813 </v>
   </varray>
  </structure>
  <varray name="forces" >
   <v>       0.07139725      -0.00400326      -0.10774694 </v>
   <v>      -0.07014466       0.00285889       0.10831471 </v>
   <v>       0.00044401      -0.00050980      -0.00064844 </v>
   <v>      -0.00065318      -0.00046499       0.00026063 </v>
   <v>      -0.55870520      -0.00241932      -0.42197446 </v>
   <v>       0.56118101       0.00158938       0.42210544 </v>
   <v>       0.48736453      -0.00296848       0.31821792 </v>
   <v>      -0.48736582       0.00194282      -0.31849489 </v>
   <v>       0.11526543       0.03795809      -0.16554627 </v>
   <v>      -0.11476967      -0.03879363       0.16402834 </v>
   <v>      -0.02135016       0.02383277      -0.03819528 </v>
   <v>       0.02132157      -0.02471909       0.03625029 </v>
   <v>      -0.05988185      -0.01448497       0.24667511 </v>
   <v>       0.05920075       0.01391719      -0.24660655 </v>
   <v>       0.01421482       0.01376552       0.07545185 </v>
   <v>      -0.01706721      -0.00643514      -0.07254660 </v>
   <v>      -0.01897465      -0.01503389      -0.04575575 </v>
   <v>       0.01852302       0.01396793       0.04621090 </v>
  </varray>
  <varray name="stress" >
   <v>       2.91588628      -0.18200666       1.72595597 </v>
   <v>      -0.18200687      -0.94074874       0.00073012 </v>
   <v>       1.72612298       0.00073026      -1.45679467 </v>
  </varray>
  <energy>
   <i name="e_fr_energy">   -113.53353967 </i>
   <i name="e_wo_entrp">   -113.53353967 </i>
   <i name="e_0_energy">     -0.00000000 </i>
  </energy>
  <time name="totalsc">    4.74    4.76</time>
 </calculation>
 <calculation>
  <scstep>
   <time name="dav">    0.55    0.55</time>
   <time name="total">    0.74    0.74</time>
   <energy>
    <i name="alphaZ">    174.06432570 </i>
    <i name="ewald">  -3467.08419408 </i>
    <i name="hartreedc">   -683.10886650 </i>
    <i name="XCdc">   -358.84219832 </i>
    <i name="pawpsdc">   7793.77248828 </i>
    <i name="pawaedc">  -7225.76508799 </i>
    <i name="eentropy">     -0.00000000 </i>
    <i name="bandstr">   -283.59191384 </i>
    <i name="atom">   3936.96380017 </i>
    <i name="e_fr_energy">   -113.59164659 </i>
    <i name="e_wo_entrp">   -113.59164659 </i>
    <i name="e_0_energy">   -113.59164659 </i>
   </energy>
  </scstep>
  <scstep>
   <time name="dav">    0.76    0.77</time>
   <time name="total">    0.95    0.96</time>
   <energy>
    <i name="e_fr_energy">   -113.59520425 </i>
    <i name="e_wo_entrp">   -113.59520425 </i>
    <i name="e_0_energy">   -113.59520425 </i>
   </energy>
  </scstep>
  <scstep>
   <time name="dav">    0.79    0.79</time>
   <time name="total">    0.98    0.98</time>
   <energy>
    <i name="e_fr_energy">   -113.59233420 </i>
    <i name="e_wo_entrp">   -113.59233420 </i>
    <i name="e_0_energy">   -113.59233420 </i>
   </energy>
  </scstep>
  <scstep>
   <time name="dav">    0.48    0.48</time>
   <time name="total">    0.66    0.66</time>
   <energy>
    <i name="e_fr_energy">   -113.59109913 </i>
    <i name="e_wo_entrp">   -113.59109913 </i>
    <i name="e_0_energy">   -113.59109913 </i>
   </energy>
  </scstep>
  <scstep>
   <time name="dav">    0.77    0.77</time>
   <time name="total">    0.96    0.96</time>
   <energy>
    <i name="e_fr_energy">   -113.59054628 </i>
    <i name="e_wo_entrp">   -113.59054628 </i>
    <i name="e_0_energy">   -113.59054628 </i>
   </energy>
  </scstep>
  <scstep>
   <time name="dav">    0.52    0.52</time>
   <time name="total">    0.70    0.70</time>
   <energy>
    <i name="alphaZ">    174.06432570 </i>
    <i name="ewald">  -3467.08419408 </i>
    <i name="hartreedc">   -684.73145616 </i>
    <i name="XCdc">   -358.74207396 </i>
    <i name="pawpsdc">   7798.07541556 </i>
    <i name="pawaedc">  -7230.06796864 </i>
    <i name="eentropy">     -0.00000000 </i>
    <i name="bandstr">   -282.06835697 </i>
    <i name="atom">   3936.96380017 </i>
    <i name="e_fr_energy">   -113.59050838 </i>
    <i name="e_wo_entrp">   -113.59050838 </i>
    <i name="e_0_energy">   -113.59050838 </i>
   </energy>
  </scstep>
  <structure>
   <crystal>
    <varray name="basis" >
     <v>       0.00040329      -3.72151794      -0.00040463 </v>
     <v>     -10.25254933      -1.85964499      -0.01940493 </v>
     <v>      -3.20071930      -1.86158413     -10.78670303 </v>
    </varray>
    <i name="volume">    411.33877156 </i>
    <varray name="rec_basis" >
     <v>       0.04867840      -0.26870576       0.03192935 </v>
     <v>      -0.09758904      -0.00001372       0.02895979 </v>
     <v>       0.00017373       0.00001010      -0.09276003 </v>
    </varray>
   </crystal>
   <varray name="positions" >
    <v>       0.74470043       0.33305289       0.17449835 </v>
    <v>       0.25520791       0.66695828       0.82552278 </v>
    <v>       0.50001328       0.00000394       0.99999228 </v>
    <v>       0.50001148       0.49999685       0.49999232 </v>
    <v>       0.83259715       0.94232216       0.39225199 </v>
    <v>       0.16741813       0.05768513       0.60775462 </v>
    <v>       0.02422768       0.72774025       0.22321215 </v>
    <v>       0.97579647       0.27226176       0.77677127 </v>
    <v>       0.92453968       0.99566402       0.15444798 </v>
    <v>       0.07547792       0.00433707       0.84554337 </v>
    <v>       0.59948905       0.72989122       0.07045612 </v>
    <v>       0.40053362       0.27011120       0.92952243 </v>
    <v>       0.42651583       0.75795498       0.38885698 </v>
    <v>       0.57350784       0.24203948       0.61113703 </v>
    <v>       0.25566633       0.11003934       0.37770669 </v>
    <v>       0.74428340       0.88994791       0.62234110 </v>
    <v>       0.08610920       0.48262390       0.34517869 </v>
    <v>       0.91390660       0.51736762       0.65481386 </v>
   </varray>
  </structure>
  <varray name="forces" >
   <v>       0.06103760      -0.00376922      -0.09430293 </v>
   <v>      -0.06048823       0.00321964       0.09464413 </v>
   <v>      -0.00016935       0.00009002       0.00006073 </v>
   <v>      -0.00013322       0.00001990      -0.00056491 </v>
   <v>      -0.03364697       0.00375841      -0.06063386 </v>
   <v>       0.03550806      -0.00304107       0.05820167 </v>
   <v>       0.16783440       0.00005367       0.08926435 </v>
   <v>      -0.16797214      -0.00002034      -0.08962195 </v>
   <v>       0.13518288       0.01421884      -0.11699941 </v>
   <v>      -0.13545039      -0.01401009       0.11534749 </v>
   <v>       0.03205658       0.01850831       0.07754274 </v>
   <v>      -0.03220348      -0.01829572      -0.07934409 </v>
   <v>      -0.07240187      -0.00758792       0.20290466 </v>
   <v>       0.07151105       0.00811050      -0.20294445 </v>
   <v>      -0.10782468       0.00487576       0.13615571 </v>
   <v>       0.10791334      -0.00629485      -0.13002661 </v>
   <v>       0.04005409      -0.01176637      -0.03648044 </v>
   <v>      -0.04080768       0.01193052       0.03679714 </v>
  </varray>
  <varray name="stress" >
   <v>      -0.79145892       0.00414540      -0.65904018 </v>
   <v>       0.00414429       0.79727374      -0.03508764 </v>
   <v>      -0.65887624      -0.03508614      -0.01040396 </v>
  </varray>
  <energy>
   <i name="e_fr_energy">   -113.59050838 </i>
   <i name="e_wo_entrp">   -113.59050838 </i>
   <i name="e_0_energy">     -0.00000000 </i>
  </energy>
  <time name="totalsc">    5.88    5.90</time>
 </calculation>
 <calculation>
  <scstep>
   <time name="dav">    0.55    0.55</time>
   <time name="total">    0.74    0.74</time>
   <energy>
    <i name="alphaZ">    173.97590558 </i>
    <i name="ewald">  -3466.16077060 </i>
    <i name="hartreedc">   -684.83191474 </i>
    <i name="XCdc">   -358.77415929 </i>
    <i name="pawpsdc">   7800.89334845 </i>
    <i name="pawaedc">  -7232.88444624 </i>
    <i name="eentropy">     -0.00000000 </i>
    <i name="bandstr">   -282.77560751 </i>
    <i name="atom">   3936.96380017 </i>
    <i name="e_fr_energy">   -113.59384419 </i>
    <i name="e_wo_entrp">   -113.59384419 </i>
    <i name="e_0_energy">   -113.59384419 </i>
   </energy>
  </scstep>
  <scstep>
   <time name="dav">    0.77    0.77</time>
   <time name="total">    0.96    0.96</time>
   <energy>
    <i name="e_fr_energy">   -113.59430349 </i>
    <i name="e_wo_entrp">   -113.59430349 </i>
    <i name="e_0_energy">   -113.59430349 </i>
   </energy>
  </scstep>
  <scstep>
   <time name="dav">    0.60    0.60</time>
   <time name="total">    0.79    0.79</time>
   <energy>
    <i name="e_fr_energy">   -113.59403544 </i>
    <i name="e_wo_entrp">   -113.59403544 </i>
    <i name="e_0_energy">   -113.59403544 </i>
   </energy>
  </scstep>
  <scstep>
   <time name="dav">    0.41    0.41</time>
   <time name="total">    0.60    0.60</time>
   <energy>
    <i name="e_fr_energy">   -113.59390253 </i>
    <i name="e_wo_entrp">   -113.59390253 </i>
    <i name="e_0_energy">   -113.59390253 </i>
   </energy>
  </scstep>
  <scstep>
   <time name="dav">    0.49    0.49</time>
   <time name="total">    0.66    0.66</time>
   <energy>
    <i name="alphaZ">    173.97590558 </i>
    <i name="ewald">  -3466.16077060 </i>
    <i name="hartreedc">   -685.30635362 </i>
    <i name="XCdc">   -358.74526101 </i>
    <i name="pawpsdc">   7802.39935540 </i>
    <i name="pawaedc">  -7234.39266539 </i>
    <i name="eentropy">     -0.00000000 </i>
    <i name="bandstr">   -282.32787082 </i>
    <i name="atom">   3936.96380017 </i>
    <i name="e_fr_energy">   -113.59386030 </i>
    <i name="e_wo_entrp">   -113.59386030 </i>
    <i name="e_0_energy">   -113.59386030 </i>
   </energy>
  </scstep>
  <structure>
   <crystal>
    <varray name="basis" >
     <v>       0.00053696      -3.72107103      -0.00043767 </v>
     <v>     -10.26059593      -1.85905401      -0.02354971 </v>
     <v>      -3.20752977      -1.86134217     -10.78626316 </v>
    </varray>
    <i name="volume">    411.54782708 </i>
    <varray name="rec_basis" >
     <v>       0.04861746      -0.26873657       0.03191733 </v>
     <v>      -0.09752363      -0.00001748       0.02900379 </v>
     <v>       0.00021095       0.00001094      -0.09277513 </v>
    </varray>
   </crystal>
   <varray name="positions" >
    <v>       0.74471209       0.33293691       0.17461365 </v>
    <v>       0.25519837       0.66707464       0.82540622 </v>
    <v>       0.50001531       0.00000184       0.99999362 </v>
    <v>       0.50000969       0.50000119       0.49998999 </v>
    <v>       0.83201472       0.94295342       0.39281498 </v>
    <v>       0.16800341       0.05705250       0.60718972 </v>
    <v>       0.02470456       0.72720038       0.22280150 </v>
    <v>       0.97532071       0.27280285       0.77718125 </v>
    <v>       0.92439088       0.99550589       0.15464654 </v>
    <v>       0.07562715       0.00449524       0.84534545 </v>
    <v>       0.59938064       0.72989659       0.07051263 </v>
    <v>       0.40064215       0.27010649       0.92946704 </v>
    <v>       0.42659472       0.75810966       0.38859896 </v>
    <v>       0.57342845       0.24188679       0.61139405 </v>
    <v>       0.25568108       0.11002272       0.37762974 </v>
    <v>       0.74426085       0.88995753       0.62242355 </v>
    <v>       0.08613608       0.48262865       0.34521765 </v>
    <v>       0.91388115       0.51736471       0.65477346 </v>
   </varray>
  </structure>
  <varray name="forces" >
   <v>       0.05790867      -0.00394074      -0.09080379 </v>
   <v>      -0.05736457       0.00337298       0.09133874 </v>
[...]
        <r>  0.0003  0.0753  0.0000 </r>
        <r>  0.0002  0.0298  0.0000 </r>
        <r>  0.0002  0.0298  0.0000 </r>
       </set>
       <set comment="band 34">
        <r>  0.0039  0.0006  0.0008 </r>
        <r>  0.0039  0.0006  0.0008 </r>
        <r>  0.0013  0.0035  0.0080 </r>
        <r>  0.0000  0.0003  0.0990 </r>
        <r>  0.0017  0.0049  0.0388 </r>
        <r>  0.0017  0.0049  0.0387 </r>
        <r>  0.0000  0.0033  0.0267 </r>
        <r>  0.0000  0.0033  0.0268 </r>
        <r>  0.0009  0.0149  0.0000 </r>
        <r>  0.0009  0.0149  0.0000 </r>
        <r>  0.0002  0.0427  0.0000 </r>
        <r>  0.0002  0.0429  0.0000 </r>
        <r>  0.0001  0.0066  0.0000 </r>
        <r>  0.0001  0.0067  0.0000 </r>
        <r>  0.0008  0.0625  0.0000 </r>
        <r>  0.0008  0.0623  0.0000 </r>
        <r>  0.0001  0.0783  0.0000 </r>
        <r>  0.0001  0.0783  0.0000 </r>
       </set>
       <set comment="band 35">
        <r>  0.0002  0.0028  0.0007 </r>
        <r>  0.0002  0.0028  0.0006 </r>
        <r>  0.0013  0.0175  0.0058 </r>
        <r>  0.0000  0.0017  0.0730 </r>
        <r>  0.0022  0.0008  0.0054 </r>
        <r>  0.0022  0.0008  0.0054 </r>
        <r>  0.0030  0.0133  0.0428 </r>
        <r>  0.0030  0.0134  0.0428 </r>
        <r>  0.0003  0.0273  0.0000 </r>
        <r>  0.0003  0.0273  0.0000 </r>
        <r>  0.0001  0.1038  0.0000 </r>
        <r>  0.0001  0.1040  0.0000 </r>
        <r>  0.0005  0.0157  0.0000 </r>
        <r>  0.0005  0.0156  0.0000 </r>
        <r>  0.0002  0.0108  0.0000 </r>
        <r>  0.0002  0.0108  0.0000 </r>
        <r>  0.0000  0.0593  0.0000 </r>
        <r>  0.0000  0.0593  0.0000 </r>
       </set>
       <set comment="band 36">
        <r>  0.0006  0.0015  0.0010 </r>
        <r>  0.0006  0.0015  0.0010 </r>
        <r>  0.0007  0.0219  0.0138 </r>
        <r>  0.0000  0.0049  0.0630 </r>
        <r>  0.0039  0.0121  0.0161 </r>
        <r>  0.0039  0.0121  0.0162 </r>
        <r>  0.0009  0.0028  0.0181 </r>
        <r>  0.0009  0.0028  0.0181 </r>
        <r>  0.0001  0.0689  0.0000 </r>
        <r>  0.0001  0.0690  0.0000 </r>
        <r>  0.0001  0.0230  0.0000 </r>
        <r>  0.0001  0.0230  0.0000 </r>
        <r>  0.0004  0.0223  0.0000 </r>
        <r>  0.0004  0.0223  0.0000 </r>
        <r>  0.0007  0.0536  0.0000 </r>
        <r>  0.0007  0.0539  0.0000 </r>
        <r>  0.0002  0.0534  0.0000 </r>
        <r>  0.0002  0.0532  0.0000 </r>
       </set>
       <set comment="band 37">
        <r>  0.0010  0.0027  0.0016 </r>
        <r>  0.0010  0.0027  0.0016 </r>
        <r>  0.0003  0.0096  0.0172 </r>
        <r>  0.0001  0.0025  0.0108 </r>
        <r>  0.0001  0.0053  0.0435 </r>
        <r>  0.0001  0.0053  0.0435 </r>
        <r>  0.0001  0.0135  0.0290 </r>
        <r>  0.0001  0.0135  0.0289 </r>
        <r>  0.0001  0.0290  0.0000 </r>
        <r>  0.0001  0.0291  0.0000 </r>
        <r>  0.0000  0.0543  0.0000 </r>
        <r>  0.0000  0.0542  0.0000 </r>
        <r>  0.0006  0.0117  0.0000 </r>
        <r>  0.0006  0.0117  0.0000 </r>
        <r>  0.0004  0.0768  0.0000 </r>
        <r>  0.0004  0.0768  0.0000 </r>
        <r>  0.0004  0.0443  0.0000 </r>
        <r>  0.0004  0.0444  0.0000 </r>
       </set>
       <set comment="band 38">
        <r>  0.0005  0.0029  0.0015 </r>
        <r>  0.0005  0.0029  0.0015 </r>
        <r>  0.0010  0.0041  0.0188 </r>
        <r>  0.0000  0.0107  0.0187 </r>
        <r>  0.0018  0.0038  0.0112 </r>
        <r>  0.0018  0.0038  0.0112 </r>
        <r>  0.0008  0.0190  0.0207 </r>
        <r>  0.0008  0.0191  0.0206 </r>
        <r>  0.0008  0.0196  0.0000 </r>
        <r>  0.0008  0.0194  0.0000 </r>
        <r>  0.0002  0.1045  0.0000 </r>
        <r>  0.0002  0.1047  0.0000 </r>
        <r>  0.0006  0.0497  0.0000 </r>
        <r>  0.0006  0.0498  0.0000 </r>
        <r>  0.0005  0.0240  0.0000 </r>
        <r>  0.0005  0.0239  0.0000 </r>
        <r>  0.0001  0.0332  0.0000 </r>
        <r>  0.0001  0.0333  0.0000 </r>
       </set>
       <set comment="band 39">
        <r>  0.0027  0.0025  0.0007 </r>
        <r>  0.0027  0.0025  0.0008 </r>
        <r>  0.0011  0.0098  0.0152 </r>
        <r>  0.0021  0.0140  0.0197 </r>
        <r>  0.0003  0.0110  0.0094 </r>
        <r>  0.0003  0.0110  0.0094 </r>
        <r>  0.0062  0.0135  0.0137 </r>
        <r>  0.0062  0.0134  0.0137 </r>
        <r>  0.0006  0.0298  0.0000 </r>
        <r>  0.0006  0.0302  0.0000 </r>
        <r>  0.0004  0.0703  0.0000 </r>
        <r>  0.0004  0.0695  0.0000 </r>
        <r>  0.0000  0.0333  0.0000 </r>
        <r>  0.0000  0.0332  0.0000 </r>
        <r>  0.0000  0.0362  0.0000 </r>
        <r>  0.0000  0.0363  0.0000 </r>
        <r>  0.0004  0.0608  0.0000 </r>
        <r>  0.0004  0.0607  0.0000 </r>
       </set>
       <set comment="band 40">
        <r>  0.0023  0.0008  0.0007 </r>
        <r>  0.0023  0.0008  0.0007 </r>
        <r>  0.0059  0.0032  0.0185 </r>
        <r>  0.0040  0.0099  0.0124 </r>
        <r>  0.0020  0.0058  0.0140 </r>
        <r>  0.0020  0.0058  0.0140 </r>
        <r>  0.0075  0.0094  0.0056 </r>
        <r>  0.0075  0.0094  0.0056 </r>
        <r>  0.0026  0.0387  0.0000 </r>
        <r>  0.0026  0.0388  0.0000 </r>
        <r>  0.0019  0.0351  0.0000 </r>
        <r>  0.0019  0.0351  0.0000 </r>
        <r>  0.0021  0.0596  0.0000 </r>
        <r>  0.0021  0.0596  0.0000 </r>
        <r>  0.0007  0.0543  0.0000 </r>
        <r>  0.0007  0.0544  0.0000 </r>
        <r>  0.0014  0.0492  0.0000 </r>
        <r>  0.0014  0.0492  0.0000 </r>
       </set>
       <set comment="band 41">
        <r>  0.0008  0.0012  0.0016 </r>
        <r>  0.0007  0.0012  0.0016 </r>
        <r>  0.0000  0.0016  0.0151 </r>
        <r>  0.0019  0.0122  0.0094 </r>
        <r>  0.0009  0.0131  0.0168 </r>
        <r>  0.0009  0.0131  0.0168 </r>
        <r>  0.0010  0.0087  0.0204 </r>
        <r>  0.0010  0.0087  0.0204 </r>
        <r>  0.0006  0.0273  0.0000 </r>
        <r>  0.0006  0.0273  0.0000 </r>
        <r>  0.0001  0.0458  0.0000 </r>
        <r>  0.0001  0.0457  0.0000 </r>
        <r>  0.0001  0.0387  0.0000 </r>
        <r>  0.0001  0.0386  0.0000 </r>
        <r>  0.0002  0.0718  0.0000 </r>
        <r>  0.0002  0.0718  0.0000 </r>
        <r>  0.0011  0.0566  0.0000 </r>
        <r>  0.0011  0.0565  0.0000 </r>
       </set>
       <set comment="band 42">
        <r>  0.0004  0.0019  0.0009 </r>
        <r>  0.0004  0.0019  0.0009 </r>
        <r>  0.0017  0.0034  0.0120 </r>
        <r>  0.0162  0.0214  0.0103 </r>
        <r>  0.0001  0.0055  0.0084 </r>
        <r>  0.0001  0.0055  0.0084 </r>
        <r>  0.0016  0.0073  0.0194 </r>
        <r>  0.0016  0.0073  0.0195 </r>
        <r>  0.0002  0.0560  0.0000 </r>
        <r>  0.0002  0.0560  0.0000 </r>
        <r>  0.0008  0.0352  0.0000 </r>
        <r>  0.0008  0.0352  0.0000 </r>
        <r>  0.0010  0.0293  0.0000 </r>
        <r>  0.0010  0.0293  0.0000 </r>
        <r>  0.0000  0.0296  0.0000 </r>
        <r>  0.0000  0.0295  0.0000 </r>
        <r>  0.0015  0.0872  0.0000 </r>
        <r>  0.0015  0.0872  0.0000 </r>
       </set>
       <set comment="band 43">
        <r>  0.0008  0.0016  0.0012 </r>
        <r>  0.0008  0.0016  0.0012 </r>
        <r>  0.0006  0.0141  0.0198 </r>
        <r>  0.0000  0.0079  0.0077 </r>
        <r>  0.0027  0.0087  0.0176 </r>
        <r>  0.0027  0.0087  0.0176 </r>
        <r>  0.0003  0.0084  0.0116 </r>
        <r>  0.0003  0.0084  0.0116 </r>
        <r>  0.0007  0.0814  0.0000 </r>
        <r>  0.0007  0.0815  0.0000 </r>
        <r>  0.0001  0.0483  0.0000 </r>
        <r>  0.0001  0.0483  0.0000 </r>
        <r>  0.0003  0.0302  0.0000 </r>
        <r>  0.0003  0.0301  0.0000 </r>
        <r>  0.0007  0.0371  0.0000 </r>
        <r>  0.0007  0.0371  0.0000 </r>
        <r>  0.0002  0.0534  0.0000 </r>
        <r>  0.0002  0.0535  0.0000 </r>
       </set>
       <set comment="band 44">
        <r>  0.0002  0.0011  0.0010 </r>
        <r>  0.0002  0.0011  0.0010 </r>
        <r>  0.0001  0.0030  0.0090 </r>
        <r>  0.0000  0.0335  0.0435 </r>
        <r>  0.0005  0.0056  0.0046 </r>
        <r>  0.0005  0.0056  0.0046 </r>
        <r>  0.0003  0.0026  0.0176 </r>
        <r>  0.0003  0.0026  0.0175 </r>
        <r>  0.0001  0.0263  0.0000 </r>
        <r>  0.0001  0.0263  0.0000 </r>
        <r>  0.0000  0.0290  0.0000 </r>
        <r>  0.0000  0.0290  0.0000 </r>
        <r>  0.0001  0.0400  0.0000 </r>
        <r>  0.0001  0.0399  0.0000 </r>
        <r>  0.0003  0.0118  0.0000 </r>
        <r>  0.0003  0.0118  0.0000 </r>
        <r>  0.0002  0.1425  0.0000 </r>
        <r>  0.0002  0.1424  0.0000 </r>
       </set>
       <set comment="band 45">
        <r>  0.0003  0.0014  0.0007 </r>
        <r>  0.0003  0.0014  0.0007 </r>
        <r>  0.0001  0.0241  0.0205 </r>
        <r>  0.0000  0.0050  0.0051 </r>
        <r>  0.0002  0.0073  0.0118 </r>
        <r>  0.0002  0.0072  0.0118 </r>
        <r>  0.0001  0.0096  0.0109 </r>
        <r>  0.0001  0.0096  0.0109 </r>
        <r>  0.0005  0.0892  0.0000 </r>
        <r>  0.0005  0.0893  0.0000 </r>
        <r>  0.0001  0.0425  0.0000 </r>
        <r>  0.0001  0.0425  0.0000 </r>
        <r>  0.0000  0.0559  0.0000 </r>
        <r>  0.0000  0.0559  0.0000 </r>
        <r>  0.0001  0.0537  0.0000 </r>
        <r>  0.0001  0.0537  0.0000 </r>
        <r>  0.0001  0.0235  0.0000 </r>
        <r>  0.0001  0.0234  0.0000 </r>
       </set>
       <set comment="band 46">
        <r>  0.0003  0.0044  0.0015 </r>
        <r>  0.0003  0.0044  0.0015 </r>
        <r>  0.0002  0.0007  0.0047 </r>
        <r>  0.0001  0.0105  0.0052 </r>
        <r>  0.0004  0.0106  0.0114 </r>
        <r>  0.0004  0.0106  0.0113 </r>
        <r>  0.0009  0.0083  0.0038 </r>
        <r>  0.0009  0.0083  0.0039 </r>
        <r>  0.0001  0.0226  0.0000 </r>
        <r>  0.0001  0.0227  0.0000 </r>
        <r>  0.0000  0.0215  0.0000 </r>
        <r>  0.0000  0.0215  0.0000 </r>
        <r>  0.0004  0.0833  0.0000 </r>
        <r>  0.0004  0.0834  0.0000 </r>
        <r>  0.0002  0.0625  0.0000 </r>
        <r>  0.0002  0.0627  0.0000 </r>
        <r>  0.0001  0.0818  0.0000 </r>
        <r>  0.0001  0.0820  0.0000 </r>
       </set>
       <set comment="band 47">
        <r>  0.0035  0.0006  0.0021 </r>
        <r>  0.0035  0.0006  0.0021 </r>
        <r>  0.0007  0.0003  0.1473 </r>
        <r>  0.0003  0.0009  0.0164 </r>
        <r>  0.0073  0.0055  0.1093 </r>
        <r>  0.0073  0.0055  0.1093 </r>
        <r>  0.0022  0.0012  0.1217 </r>
        <r>  0.0022  0.0012  0.1215 </r>
        <r>  0.0000  0.0024  0.0000 </r>
        <r>  0.0000  0.0024  0.0000 </r>
        <r>  0.0000  0.0094  0.0000 </r>
        <r>  0.0000  0.0094  0.0000 </r>
        <r>  0.0012  0.0064  0.0000 </r>
        <r>  0.0012  0.0063  0.0000 </r>
        <r>  0.0000  0.0130  0.0000 </r>
        <r>  0.0000  0.0130  0.0000 </r>
        <r>  0.0004  0.0007  0.0000 </r>
        <r>  0.0004  0.0007  0.0000 </r>
       </set>
       <set comment="band 48">
        <r>  0.0020  0.0018  0.0006 </r>
        <r>  0.0020  0.0018  0.0006 </r>
        <r>  0.0003  0.0003  0.0259 </r>
        <r>  0.0016  0.0018  0.0513 </r>
        <r>  0.0009  0.0015  0.1314 </r>
        <r>  0.0009  0.0015  0.1318 </r>
        <r>  0.0034  0.0009  0.1574 </r>
        <r>  0.0034  0.0009  0.1573 </r>
        <r>  0.0002  0.0021  0.0000 </r>
        <r>  0.0002  0.0022  0.0000 </r>
        <r>  0.0000  0.0124  0.0000 </r>
        <r>  0.0000  0.0124  0.0000 </r>
        <r>  0.0006  0.0057  0.0000 </r>
        <r>  0.0007  0.0057  0.0000 </r>
        <r>  0.0001  0.0074  0.0000 </r>
        <r>  0.0001  0.0074  0.0000 </r>
        <r>  0.0000  0.0049  0.0000 </r>
        <r>  0.0000  0.0049  0.0000 </r>
       </set>
       <set comment="band 49">
        <r>  0.0013  0.0004  0.0013 </r>
        <r>  0.0013  0.0004  0.0013 </r>
        <r>  0.0040  0.0006  0.2131 </r>
        <r>  0.0004  0.0019  0.0415 </r>
        <r>  0.0005  0.0048  0.1983 </r>
        <r>  0.0005  0.0048  0.1977 </r>
        <r>  0.0001  0.0012  0.0412 </r>
        <r>  0.0001  0.0012  0.0413 </r>
        <r>  0.0001  0.0074  0.0000 </r>
        <r>  0.0001  0.0074  0.0000 </r>
        <r>  0.0001  0.0015  0.0000 </r>
        <r>  0.0001  0.0015  0.0000 </r>
        <r>  0.0002  0.0018  0.0000 </r>
        <r>  0.0002  0.0018  0.0000 </r>
        <r>  0.0002  0.0053  0.0000 </r>
        <r>  0.0002  0.0053  0.0000 </r>
        <r>  0.0004  0.0010  0.0000 </r>
        <r>  0.0004  0.0010  0.0000 </r>
       </set>
       <set comment="band 50">
        <r>  0.0035  0.0008  0.0030 </r>
        <r>  0.0035  0.0008  0.0030 </r>
        <r>  0.0011  0.0016  0.1396 </r>
        <r>  0.0013  0.0004  0.2288 </r>
        <r>  0.0007  0.0012  0.1080 </r>
        <r>  0.0007  0.0012  0.1082 </r>
        <r>  0.0005  0.0010  0.0726 </r>
        <r>  0.0005  0.0010  0.0726 </r>
        <r>  0.0001  0.0040  0.0000 </r>
        <r>  0.0001  0.0040  0.0000 </r>
        <r>  0.0001  0.0016  0.0000 </r>
        <r>  0.0001  0.0016  0.0000 </r>
        <r>  0.0003  0.0028  0.0000 </r>
        <r>  0.0003  0.0028  0.0000 </r>
        <r>  0.0000  0.0043  0.0000 </r>
        <r>  0.0000  0.0043  0.0000 </r>
        <r>  0.0002  0.0079  0.0000 </r>
        <r>  0.0002  0.0079  0.0000 </r>
       </set>
       <set comment="band 51">
        <r>  0.0016  0.0005  0.0008 </r>
        <r>  0.0016  0.0005  0.0008 </r>
        <r>  0.0000  0.0008  0.0866 </r>
        <r>  0.0000  0.0015  0.2539 </r>
        <r>  0.0001  0.0016  0.0698 </r>
        <r>  0.0001  0.0016  0.0697 </r>
        <r>  0.0002  0.0010  0.1414 </r>
        <r>  0.0002  0.0010  0.1414 </r>
        <r>  0.0001  0.0013  0.0000 </r>
        <r>  0.0001  0.0013  0.0000 </r>
        <r>  0.0001  0.0048  0.0000 </r>
        <r>  0.0002  0.0048  0.0000 </r>
        <r>  0.0002  0.0042  0.0000 </r>
        <r>  0.0002  0.0042  0.0000 </r>
        <r>  0.0000  0.0008  0.0000 </r>
        <r>  0.0000  0.0008  0.0000 </r>
        <r>  0.0000  0.0080  0.0000 </r>
        <r>  0.0000  0.0080  0.0000 </r>
       </set>
       <set comment="band 52">
        <r>  0.0002  0.0005  0.0008 </r>
        <r>  0.0002  0.0005  0.0008 </r>
        <r>  0.0001  0.0004  0.0722 </r>
        <r>  0.0014  0.0016  0.2009 </r>
        <r>  0.0001  0.0010  0.1491 </r>
        <r>  0.0001  0.0010  0.1490 </r>
        <r>  0.0000  0.0006  0.1140 </r>
        <r>  0.0000  0.0006  0.1132 </r>
        <r>  0.0000  0.0007  0.0000 </r>
        <r>  0.0000  0.0007  0.0000 </r>
        <r>  0.0001  0.0041  0.0000 </r>
        <r>  0.0001  0.0041  0.0000 </r>
        <r>  0.0002  0.0030  0.0000 </r>
        <r>  0.0002  0.0030  0.0000 </r>
        <r>  0.0000  0.0007  0.0000 </r>
        <r>  0.0000  0.0007  0.0000 </r>
        <r>  0.0000  0.0030  0.0000 </r>
        <r>  0.0000  0.0030  0.0000 </r>
       </set>
       <set comment="band 53">
        <r>  0.0001  0.0004  0.0008 </r>
        <r>  0.0002  0.0004  0.0008 </r>
        <r>  0.0000  0.0051  0.3016 </r>
        <r>  0.0033  0.0005  0.0647 </r>
        <r>  0.0006  0.0018  0.0420 </r>
        <r>  0.0006  0.0018  0.0420 </r>
        <r>  0.0002  0.0003  0.1564 </r>
        <r>  0.0002  0.0003  0.1562 </r>
        <r>  0.0002  0.0095  0.0000 </r>
        <r>  0.0002  0.0096  0.0000 </r>
        <r>  0.0000  0.0032  0.0000 </r>
        <r>  0.0000  0.0032  0.0000 </r>
        <r>  0.0005  0.0042  0.0000 </r>
        <r>  0.0005  0.0041  0.0000 </r>
        <r>  0.0001  0.0030  0.0000 </r>
        <r>  0.0001  0.0030  0.0000 </r>
        <r>  0.0002  0.0035  0.0000 </r>
        <r>  0.0002  0.0035  0.0000 </r>
       </set>
       <set comment="band 54">
        <r>  0.0000  0.0005  0.0003 </r>
        <r>  0.0000  0.0005  0.0003 </r>
        <r>  0.0030  0.0068  0.1579 </r>
        <r>  0.0005  0.0007  0.0801 </r>
        <r>  0.0001  0.0013  0.1841 </r>
        <r>  0.0001  0.0013  0.1843 </r>
        <r>  0.0023  0.0003  0.0847 </r>
        <r>  0.0023  0.0003  0.0848 </r>
        <r>  0.0005  0.0091  0.0000 </r>
        <r>  0.0005  0.0091  0.0000 </r>
        <r>  0.0003  0.0032  0.0000 </r>
        <r>  0.0003  0.0032  0.0000 </r>
        <r>  0.0004  0.0017  0.0000 </r>
        <r>  0.0004  0.0017  0.0000 </r>
        <r>  0.0002  0.0053  0.0000 </r>
        <r>  0.0002  0.0053  0.0000 </r>
        <r>  0.0002  0.0012  0.0000 </r>
        <r>  0.0002  0.0012  0.0000 </r>
       </set>
       <set comment="band 55">
        <r>  0.0003  0.0008  0.0017 </r>
        <r>  0.0003  0.0008  0.0017 </r>
        <r>  0.0010  0.0002  0.1332 </r>
        <r>  0.0015  0.0025  0.0207 </r>
        <r>  0.0035  0.0028  0.1944 </r>
        <r>  0.0035  0.0028  0.1946 </r>
        <r>  0.0004  0.0022  0.1065 </r>
        <r>  0.0004  0.0022  0.1067 </r>
        <r>  0.0001  0.0006  0.0000 </r>
        <r>  0.0001  0.0006  0.0000 </r>
        <r>  0.0001  0.0058  0.0000 </r>
        <r>  0.0001  0.0058  0.0000 </r>
        <r>  0.0000  0.0031  0.0000 </r>
        <r>  0.0000  0.0031  0.0000 </r>
        <r>  0.0007  0.0106  0.0000 </r>
        <r>  0.0007  0.0106  0.0000 </r>
        <r>  0.0000  0.0031  0.0000 </r>
        <r>  0.0000  0.0031  0.0000 </r>
       </set>
       <set comment="band 56">
        <r>  0.0028  0.0007  0.0008 </r>
        <r>  0.0027  0.0007  0.0008 </r>
        <r>  0.0000  0.0008  0.0939 </r>
        <r>  0.0013  0.0027  0.2473 </r>
        <r>  0.0026  0.0010  0.0954 </r>
        <r>  0.0026  0.0010  0.0956 </r>
        <r>  0.0007  0.0007  0.1197 </r>
        <r>  0.0007  0.0007  0.1200 </r>
        <r>  0.0001  0.0033  0.0000 </r>
        <r>  0.0001  0.0033  0.0000 </r>
        <r>  0.0013  0.0013  0.0000 </r>
        <r>  0.0013  0.0013  0.0000 </r>
        <r>  0.0000  0.0068  0.0000 </r>
        <r>  0.0000  0.0068  0.0000 </r>
        <r>  0.0011  0.0049  0.0000 </r>
        <r>  0.0011  0.0049  0.0000 </r>
        <r>  0.0002  0.0036  0.0000 </r>
        <r>  0.0002  0.0037  0.0000 </r>
       </set>
      </set>
     </set>
    </set>
   </array>
  </projected>
 </calculation>
 <structure name="finalpos" >
  <crystal>
   <varray name="basis" >
    <v>       0.00628114      -3.72149840       0.00103845 </v>
    <v>     -10.18605618      -1.84360166       0.03416458 </v>
    <v>      -3.12229029      -1.85249812     -10.76410166 </v>
   </varray>
   <i name="volume">    408.57466050 </i>
   <varray name="rec_basis" >
    <v>       0.04872550      -0.26861777       0.03209546 </v>
    <v>      -0.09804943      -0.00015754       0.02846783 </v>
    <v>      -0.00030650      -0.00002641      -0.09280794 </v>
   </varray>
  </crystal>
  <varray name="positions" >
   <v>       0.74705421       0.32646110       0.17859145 </v>
   <v>       0.25286072       0.67352146       0.82139982 </v>
   <v>       0.49991579      -0.00002497       0.00001866 </v>
   <v>       0.49996443       0.50000870       0.49999828 </v>
   <v>       0.83413611       0.93901218       0.39287381 </v>
   <v>       0.16607092       0.06105566       0.60712713 </v>
   <v>       0.02904174       0.72100294       0.21684506 </v>
   <v>       0.97087044       0.27898514       0.78317278 </v>
   <v>       0.92950586       0.98850787       0.15578996 </v>
   <v>       0.07043352       0.01147505       0.84420234 </v>
   <v>       0.60156462       0.72725787       0.06223464 </v>
   <v>       0.39838193       0.27268196       0.93774931 </v>
   <v>       0.42861077       0.75653692       0.38106927 </v>
   <v>       0.57139131       0.24346958       0.61894954 </v>
   <v>       0.25773369       0.10929970       0.37691305 </v>
   <v>       0.74251013       0.89076242       0.62305436 </v>
   <v>       0.08724164       0.47822182       0.34567596 </v>
   <v>       0.91271415       0.52176260       0.65433460 </v>
  </varray>
 </structure>
</modeling>
