CIS                                     
           1
    -0.000215   -3.522638    0.000049
    -9.691049   -1.761904    0.009645
    -2.996305   -1.761361  -10.183357
   K    Sc   S 
   2   6  10
Direct configuration=     1
   0.74455108  0.33353700  0.17411992
   0.25534513  0.66647325  0.82590821
   0.50000113  0.00001793  0.99998361
   0.50002426  0.49997072  0.50000546
   0.83556095  0.93954560  0.38893368
   0.16443661  0.06047544  0.61108634
   0.02086149  0.73235058  0.22507608
   0.97915636  0.26764474  0.77491120
   0.92745563  0.99291975  0.15220777
   0.07256651  0.00708647  0.84776804
   0.59678182  0.73230746  0.07396941
   0.40324746  0.26768792  0.92599594
   0.42719923  0.75635984  0.38910314
   0.57283425  0.24362068  0.61089441
   0.25648594  0.10421613  0.38235747
   0.74348672  0.89580859  0.61767721
   0.08326070  0.48658975  0.34669514
   0.91674673  0.51338615  0.65330698
CIS                                     
           1
    -0.000204   -3.603759   -0.000075
    -9.903420   -1.802436    0.005331
    -3.066673   -1.802271  -10.427816
   K    Sc   S 
   2   6  10
Direct configuration=     2
   0.74459099  0.33354922  0.17406580
   0.25530635  0.66646071  0.82596173
   0.50000242  0.00001601  0.99998473
   0.50002228  0.49997354  0.50000428
   0.83540750  0.93953174  0.38927060
   0.16459215  0.06048617  0.61074739
   0.02137260  0.73144496  0.22505888
   0.97864582  0.26855088  0.77492803
   0.92652909  0.99433267  0.15276755
   0.07349041  0.00567136  0.84721347
   0.59809072  0.73130641  0.07242278
   0.40193565  0.26869067  0.92754594
   0.42677525  0.75673346  0.38947142
   0.57325513  0.24324916  0.61052651
   0.25612338  0.10663573  0.38058755
   0.74385404  0.89338635  0.61944253
   0.08438115  0.48495414  0.34600067
   0.91562710  0.51502482  0.65400014
CIS                                     
           1
    -0.000192   -3.700919   -0.000224
   -10.157780   -1.850982    0.000163
    -3.150953   -1.851269  -10.720608
   K    Sc   S 
   2   6  10
Direct configuration=     3
   0.74463768  0.33356354  0.17400250
   0.25526096  0.66644602  0.82602434
   0.50000392  0.00001376  0.99998604
   0.50001996  0.49997684  0.50000290
   0.83522796  0.93951554  0.38966469
   0.16477412  0.06049869  0.61035093
   0.02197139  0.73038340  0.22503921
   0.97804770  0.26961305  0.77494726
   0.92544390  0.99598899  0.15342158
   0.07457252  0.00401249  0.84656554
   0.59962302  0.73013270  0.07061426
   0.40039993  0.26986636  0.92935839
   0.42627883  0.75717148  0.38990198
   0.57374791  0.24281360  0.61009637
   0.25569719  0.10947163  0.37851616
   0.74428579  0.89054735  0.62150855
   0.08569342  0.48303678  0.34518920
   0.91431580  0.51694578  0.65481007
CIS                                     
           1
    -0.000189   -3.721845   -0.000256
   -10.212563   -1.861438   -0.000950
    -3.169106   -1.861822  -10.783669
   K    Sc   S 
   2   6  10
Direct configuration=     4
   0.74464747  0.33356654  0.17398924
   0.25525145  0.66644293  0.82603746
   0.50000424  0.00001329  0.99998632
   0.50001947  0.49997753  0.50000261
   0.83519034  0.93951216  0.38974726
   0.16481225  0.06050131  0.61026788
   0.02209706  0.73016045  0.22503520
   0.97792216  0.26983613  0.77495118
   0.92521620  0.99633686  0.15355843
   0.07479957  0.00366407  0.84642997
   0.59994436  0.72988614  0.07023550
   0.40007787  0.27011334  0.92973797
   0.42617471  0.75726349  0.38999214
   0.57385127  0.24272211  0.61000631
   0.25560740  0.11006714  0.37808192
   0.74437675  0.88995119  0.62194167
   0.08596876  0.48263407  0.34501940
   0.91404066  0.51734925  0.65497956
CIS                                     
           1
    -0.000189   -3.725887   -0.000262
   -10.223144   -1.863457   -0.001165
    -3.172611   -1.863861  -10.795849
   K    Sc   S 
   2   6  10
Direct configuration=     5
   0.74464935  0.33356712  0.17398669
   0.25524963  0.66644234  0.82603998
   0.50000430  0.00001320  0.99998637
   0.50001938  0.49997767  0.50000256
   0.83518312  0.93951151  0.38976311
   0.16481958  0.06050181  0.61025193
   0.02212120  0.73011762  0.22503444
   0.97789805  0.26987898  0.77495193
   0.92517246  0.99640370  0.15358470
   0.07484319  0.00359714  0.84640394
   0.60000607  0.72983877  0.07016278
   0.40001602  0.27016079  0.92981085
   0.42615471  0.75728116  0.39000945
   0.57387112  0.24270453  0.60998901
   0.25559013  0.11018154  0.37799852
   0.74439424  0.88983666  0.62202484
   0.08602164  0.48255671  0.34498680
   0.91398782  0.51742676  0.65501209
CIS                                     
           1
    -0.000189   -3.725152   -0.000261
   -10.221221   -1.863090   -0.001126
    -3.171974   -1.863490  -10.793635
   K    Sc   S 
   2   6  10
Direct configuration=     6
   0.74464901  0.33356701  0.17398715
   0.25524996  0.66644245  0.82603952
   0.50000429  0.00001322  0.99998636
   0.50001940  0.49997764  0.50000257
   0.83518443  0.93951163  0.38976023
   0.16481825  0.06050172  0.61025482
   0.02211682  0.73012540  0.22503457
   0.97790243  0.26987120  0.77495179
   0.92518041  0.99639156  0.15357993
   0.07483527  0.00360929  0.84640867
   0.59999487  0.72984737  0.07017599
   0.40002725  0.27015217  0.92979762
   0.42615835  0.75727795  0.39000630
   0.57386751  0.24270772  0.60999215
   0.25559327  0.11016077  0.37801367
   0.74439106  0.88985746  0.62200974
   0.08601204  0.48257076  0.34499272
   0.91399742  0.51741268  0.65500618
CIS                                     
           1
    -0.000189   -3.723498   -0.000258
   -10.216892   -1.862264   -0.001038
    -3.170540   -1.862656  -10.788652
   K    Sc   S 
   2   6  10
Direct configuration=     7
   0.74464824  0.33356678  0.17398819
   0.25525070  0.66644269  0.82603849
   0.50000426  0.00001325  0.99998634
   0.50001943  0.49997759  0.50000259
   0.83518738  0.93951189  0.38975375
   0.16481525  0.06050151  0.61026134
   0.02210695  0.73014290  0.22503489
   0.97791228  0.26985368  0.77495149
   0.92519828  0.99636424  0.15356919
   0.07481744  0.00363665  0.84641930
   0.59996964  0.72986674  0.07020571
   0.40005253  0.27013278  0.92976783
   0.42616652  0.75727073  0.38999923
   0.57385940  0.24271491  0.60999922
   0.25560033  0.11011401  0.37804775
   0.74438391  0.88990427  0.62197574
   0.08599042  0.48260238  0.34500604
   0.91401902  0.51738100  0.65499289
CIS                                     
           1
    -0.000041   -3.723003   -0.000295
   -10.225807   -1.861609   -0.005630
    -3.178085   -1.862388  -10.788165
   K    Sc   S 
   2   6  10
Direct configuration=     8
   0.74466132  0.33343831  0.17411569
   0.25523997  0.66657159  0.82590961
   0.50000652  0.00001092  0.99998782
   0.50001744  0.49998241  0.50000003
   0.83453929  0.94021521  0.39037851
   0.16546651  0.05979666  0.60963446
   0.02263757  0.72954164  0.22457903
   0.97738289  0.27045630  0.77540661
   0.92503368  0.99618921  0.15378883
   0.07498252  0.00381173  0.84620038
   0.59984948  0.72987290  0.07026831
   0.40017282  0.27012734  0.92970648
   0.42625383  0.75744173  0.38971373
   0.57377152  0.24254612  0.61028361
   0.25561686  0.11009528  0.37796248
   0.74435875  0.88991524  0.62206708
   0.08602010  0.48260779  0.34504921
   0.91399093  0.51737763  0.65494813
CIS                                     
           1
     0.000403   -3.721518   -0.000405
   -10.252549   -1.859645   -0.019405
    -3.200719   -1.861584  -10.786703
   K    Sc   S 
   2   6  10
Direct configuration=     9
   0.74470043  0.33305289  0.17449835
   0.25520791  0.66695828  0.82552278
   0.50001328  0.00000394  0.99999228
   0.50001148  0.49999685  0.49999232
   0.83259715  0.94232216  0.39225199
   0.16741813  0.05768513  0.60775462
   0.02422768  0.72774025  0.22321215
   0.97579647  0.27226176  0.77677127
   0.92453968  0.99566402  0.15444798
   0.07547792  0.00433707  0.84554337
   0.59948905  0.72989122  0.07045612
   0.40053362  0.27011120  0.92952243
   0.42651583  0.75795498  0.38885698
   0.57350784  0.24203948  0.61113703
   0.25566633  0.11003934  0.37770669
   0.74428340  0.88994791  0.62234110
   0.08610920  0.48262390  0.34517869
   0.91390660  0.51736762  0.65481386
CIS                                     
           1
     0.000537   -3.721071   -0.000438
   -10.260596   -1.859054   -0.023550
    -3.207530   -1.861342  -10.786263
   K    Sc   S 
   2   6  10
Direct configuration=    10
   0.74471209  0.33293691  0.17461365
   0.25519837  0.66707464  0.82540622
   0.50001531  0.00000184  0.99999362
   0.50000969  0.50000119  0.49998999
   0.83201472  0.94295342  0.39281498
   0.16800341  0.05705250  0.60718972
   0.02470456  0.72720038  0.22280150
   0.97532071  0.27280285  0.77718125
   0.92439088  0.99550589  0.15464654
   0.07562715  0.00449524  0.84534545
   0.59938064  0.72989659  0.07051263
   0.40064215  0.27010649  0.92946704
   0.42659472  0.75810966  0.38859896
   0.57342845  0.24188679  0.61139405
   0.25568108  0.11002272  0.37762974
   0.74426085  0.88995753  0.62242355
   0.08613608  0.48262865  0.34521765
   0.91388115  0.51736471  0.65477346
CIS                                     
           1
     0.000456   -3.722883   -0.000433
   -10.257695   -1.860182   -0.020460
    -3.203403   -1.862305  -10.787792
   K    Sc   S 
   2   6  10
Direct configuration=    11
   0.74473652  0.33272560  0.17482828
   0.25517879  0.66728521  0.82519020
   0.50001518  0.00000214  0.99999319
   0.50000887  0.50000161  0.49999090
   0.83203647  0.94287405  0.39283523
   0.16797713  0.05712544  0.60717528
   0.02493290  0.72691369  0.22265962
   0.97508978  0.27308863  0.77732669
   0.92434947  0.99507703  0.15490679
   0.07566615  0.00492366  0.84508862
   0.59938071  0.72985904  0.07030512
   0.40063971  0.27014339  0.92967818
   0.42671789  0.75842226  0.38813429
   0.57330124  0.24157667  0.61185810
   0.25563409  0.11040985  0.37728396
   0.74432092  0.88957382  0.62275596
   0.08624185  0.48248977  0.34529729
   0.91377431  0.51750614  0.65469231
CIS                                     
           1
     0.000213   -3.728319   -0.000420
   -10.248992   -1.863568   -0.011192
    -3.191021   -1.865194  -10.792380
   K    Sc   S 
   2   6  10
Direct configuration=    12
   0.74480986  0.33209182  0.17547189
   0.25512002  0.66791675  0.82454240
   0.50001480  0.00000305  0.99999189
   0.50000641  0.50000288  0.49999361
   0.83210180  0.94263594  0.39289593
   0.16789824  0.05734429  0.60713203
   0.02561823  0.72605327  0.22223380
   0.97439669  0.27394631  0.77776318
   0.92422570  0.99379055  0.15568706
   0.07578270  0.00620881  0.84431862
   0.59938123  0.72974608  0.06968266
   0.40063210  0.27025441  0.93031151
   0.42708731  0.75935962  0.38674072
   0.57291974  0.24064677  0.61324979
   0.25549300  0.11157099  0.37624712
   0.74450127  0.88842289  0.62375271
   0.08655911  0.48207314  0.34553608
   0.91345379  0.51793040  0.65444901
CIS                                     
           1
    -0.000273   -3.739192   -0.000394
   -10.231586   -1.870338    0.007344
    -3.166258   -1.870971  -10.801556
   K    Sc   S 
   2   6  10
Direct configuration=    13
   0.74495681  0.33082526  0.17675747
   0.25500219  0.66917883  0.82324845
   0.50001403  0.00000488  0.99998930
   0.50000147  0.50000543  0.49999902
   0.83223289  0.94215959  0.39301686
   0.16774009  0.05778214  0.60704593
   0.02699075  0.72433026  0.22138105
   0.97300864  0.27566389  0.77863726
   0.92398078  0.99121819  0.15724473
   0.07601319  0.00877855  0.84278147
   0.59938417  0.72951837  0.06843808
   0.40061497  0.27047827  0.93157783
   0.42782545  0.76123169  0.38395639
   0.57215745  0.23878964  0.61603037
   0.25520998  0.11389186  0.37417632
   0.74486275  0.88612236  0.62574340
   0.08719350  0.48124002  0.34601273
   0.91281291  0.51877879  0.65396334
CIS                                     
           1
     0.000061   -3.731732   -0.000412
   -10.243528   -1.865693   -0.005374
    -3.183248   -1.867007  -10.795260
   K    Sc   S 
   2   6  10
Direct configuration=    14
   0.74485562  0.33169294  0.17587764
   0.25508344  0.66831424  0.82413403
   0.50001456  0.00000363  0.99999107
   0.50000486  0.50000367  0.49999531
   0.83214235  0.94248659  0.39293452
   0.16784912  0.05748152  0.60710444
   0.02604645  0.72551547  0.22196768
   0.97396358  0.27448238  0.77803602
   0.92414523  0.99298235  0.15617991
   0.07585864  0.00701616  0.84383223
   0.59937955  0.72967708  0.06929157
   0.40062933  0.27032216  0.93070945
   0.42731993  0.75995086  0.38586297
   0.57267952  0.24006022  0.61412634
   0.25540529  0.11230139  0.37559322
   0.74461367  0.88769901  0.62438140
   0.08675843  0.48181146  0.34568694
   0.91325244  0.51819688  0.65429529
CIS                                     
           1
    -0.000182   -3.727783   -0.000330
   -10.225735   -1.864386   -0.001231
    -3.173490   -1.865002  -10.778716
   K    Sc   S 
   2   6  10
Direct configuration=    15
   0.74492187  0.33126173  0.17627489
   0.25501694  0.66874484  0.82373309
   0.50000348  0.00000084  0.99999890
   0.49999715  0.50000321  0.49999608
   0.83214063  0.94241395  0.39303403
   0.16784787  0.05756121  0.60698992
   0.02631253  0.72522393  0.22161852
   0.97368631  0.27477905  0.77838432
   0.92442005  0.99234045  0.15608269
   0.07564909  0.00765589  0.84393254
   0.59974147  0.72946933  0.06873523
   0.40025682  0.27053040  0.93126665
   0.42778043  0.76005793  0.38526786
   0.57220912  0.23994957  0.61472361
   0.25541602  0.11257800  0.37547282
   0.74460220  0.88741930  0.62450390
   0.08684171  0.48150161  0.34591069
   0.91315833  0.51850677  0.65407426
CIS                                     
           1
    -0.000582   -3.721297   -0.000194
   -10.196506   -1.862240    0.005575
    -3.157459   -1.861709  -10.751541
   K    Sc   S 
   2   6  10
Direct configuration=    16
   0.74503097  0.33055256  0.17692818
   0.25490744  0.66945301  0.82307374
   0.49998525 -0.00000375  0.00001179
   0.49998447  0.50000246  0.49999736
   0.83213780  0.94229452  0.39319770
   0.16784581  0.05769223  0.60680158
   0.02675065  0.72474398  0.22104390
   0.97322977  0.27526745  0.77895752
   0.92487272  0.99128423  0.15592236
   0.07530372  0.00870854  0.84409796
   0.60033728  0.72912705  0.06781982
   0.39964361  0.27087347  0.93218347
   0.42853803  0.76023362  0.38428886
   0.57143525  0.23976801  0.61570614
   0.25543347  0.11303302  0.37527491
   0.74458353  0.88695917  0.62470526
   0.08697882  0.48099199  0.34627860
   0.91300340  0.51901646  0.65371083
CIS                                     
           1
    -0.000947   -3.722107   -0.000087
   -10.192393   -1.863647    0.009433
    -3.152303   -1.862114  -10.752033
   K    Sc   S 
   2   6  10
Direct configuration=    17
   0.74514751  0.33009000  0.17731059
   0.25479321  0.66991486  0.82268789
   0.49999020 -0.00000604  0.00001789
   0.49997909  0.50000158  0.49999735
   0.83222291  0.94217044  0.39321424
   0.16775835  0.05782666  0.60677087
   0.02706131  0.72444824  0.22057725
   0.97291334  0.27556520  0.77942275
   0.92531857  0.99085710  0.15568388
   0.07487785  0.00913622  0.84433317
   0.60090214  0.72877648  0.06693507
   0.39907553  0.27122466  0.93306824
   0.42918169  0.76005476  0.38390247
   0.57079205  0.23994174  0.61609571
   0.25550764  0.11320065  0.37532119
   0.74450514  0.88678858  0.62466742
   0.08718274  0.48046404  0.34644843
   0.91279276  0.51954282  0.65354560
CIS                                     
           1
    -0.001942   -3.724312    0.000206
   -10.181196   -1.867480    0.019937
    -3.138264   -1.863217  -10.753372
   K    Sc   S 
   2   6  10
Direct configuration=    18
   0.74546527  0.32883072  0.17835129
   0.25448172  0.67117221  0.82163782
   0.50000366 -0.00001224  0.00003448
   0.49996443  0.49999919  0.49999729
   0.83245481  0.94183251  0.39325914
   0.16752004  0.05819275  0.60668740
   0.02790798  0.72364211  0.21930647
   0.97205095  0.27637682  0.78068967
   0.92653327  0.98969341  0.15503418
   0.07371750  0.01030141  0.84497397
   0.60244130  0.72782040  0.06452590
   0.39752759  0.27218245  0.93547745
   0.43093458  0.75956701  0.38285029
   0.56904042  0.24041552  0.61715653
   0.25570917  0.11365725  0.37544734
   0.74429211  0.88632394  0.62456422
   0.08773869  0.47902639  0.34691031
   0.91221851  0.52097616  0.65309625
CIS                                     
           1
    -0.000827   -3.727863    0.000286
   -10.188709   -1.866208    0.017811
    -3.142509   -1.863823  -10.766667
   K    Sc   S 
   2   6  10
Direct configuration=    19
   0.74556736  0.32868760  0.17839922
   0.25438460  0.67131616  0.82158919
   0.50002645 -0.00000614  0.00001248
   0.49996551  0.49999638  0.50000068
   0.83284693  0.94172611  0.39296371
   0.16713479  0.05828224  0.60700797
   0.02833359  0.72316843  0.21882313
   0.97163544  0.27683607  0.78117936
   0.92655148  0.98972883  0.15528704
   0.07361925  0.01027110  0.84472519
   0.60292861  0.72752329  0.06418315
   0.39705271  0.27247869  0.93582362
   0.43086379  0.75928266  0.38296254
   0.56912329  0.24070792  0.61704262
   0.25591429  0.11322199  0.37584666
   0.74408894  0.88677419  0.62414869
   0.08786832  0.47890221  0.34669970
   0.91209666  0.52110028  0.65330506
CIS                                     
           1
     0.000182   -3.731075    0.000357
   -10.195506   -1.865058    0.015888
    -3.146349   -1.864372  -10.778693
   K    Sc   S 
   2   6  10
Direct configuration=    20
   0.74565955  0.32855824  0.17844255
   0.25429690  0.67144629  0.82154523
   0.50004704 -0.00000062 -0.00000739
   0.49996648  0.49999384  0.50000374
   0.83320109  0.94162997  0.39269681
   0.16678684  0.05836308  0.60729759
   0.02871767  0.72274028  0.21838652
   0.97126048  0.27725117  0.78162170
   0.92656808  0.98976084  0.15551549
   0.07353034  0.01024370  0.84450043
   0.60336863  0.72725475  0.06387353
   0.39662393  0.27274644  0.93613632
   0.43079967  0.75902559  0.38306400
   0.56919833  0.24097227  0.61693966
   0.25609951  0.11282851  0.37620753
   0.74390548  0.88718121  0.62377317
   0.08798528  0.47878998  0.34650945
   0.91198672  0.52121247  0.65349368
CIS                                     
           1
     0.001614   -3.725883    0.000243
   -10.186436   -1.858549    0.017934
    -3.140822   -1.860900  -10.770827
   K    Sc   S 
   2   6  10
Direct configuration=    21
   0.74577963  0.32841835  0.17845543
   0.25416780  0.67158487  0.82153861
   0.50005771  0.00000251 -0.00001360
   0.49996223  0.49999268  0.50000915
   0.83367948  0.94145528  0.39243743
   0.16630247  0.05852841  0.60757808
   0.02919241  0.72216955  0.21791687
   0.97078213  0.27781436  0.78210226
   0.92669605  0.98979447  0.15555173
   0.07338861  0.01023011  0.84444278
   0.60354835  0.72712483  0.06370964
   0.39644533  0.27287342  0.93630516
   0.43058735  0.75856785  0.38313932
   0.56940768  0.24143261  0.61686991
   0.25643414  0.11194322  0.37692257
   0.74360191  0.88806864  0.62302604
   0.08809661  0.47892026  0.34620083
   0.91187213  0.52107658  0.65380780
CIS                                     
           1
     0.002106   -3.724097    0.000203
   -10.183316   -1.856310    0.018638
    -3.138921   -1.859706  -10.768122
   K    Sc   S 
   2   6  10
Direct configuration=    22
   0.74582092  0.32837021  0.17845986
   0.25412340  0.67163256  0.82153634
   0.50006138  0.00000359 -0.00001574
   0.49996077  0.49999228  0.50001101
   0.83384410  0.94139516  0.39234815
   0.16613579  0.05858532  0.60767462
   0.02935557  0.72197309  0.21775520
   0.97061772  0.27800822  0.78226768
   0.92674014  0.98980605  0.15556420
   0.07333979  0.01022542  0.84442293
   0.60361016  0.72708010  0.06365323
   0.39638391  0.27291713  0.93636327
   0.43051405  0.75841030  0.38316521
   0.56947995  0.24159104  0.61684594
   0.25654909  0.11163863  0.37716858
   0.74349765  0.88837397  0.62276899
   0.08813496  0.47896507  0.34609463
   0.91183266  0.52102984  0.65391589
CIS                                     
           1
     0.002135   -3.722560    0.000202
   -10.179475   -1.855462    0.027238
    -3.128632   -1.858912  -10.766798
   K    Sc   S 
   2   6  10
Direct configuration=    23
   0.74590865  0.32827117  0.17846527
   0.25402965  0.67172749  0.82153239
   0.50005218 -0.00000092 -0.00000217
   0.49995946  0.49999325  0.50000942
   0.83401027  0.94109633  0.39235162
   0.16597612  0.05889943  0.60764066
   0.02935012  0.72192036  0.21781530
   0.97061669  0.27807110  0.78220262
   0.92691388  0.98982589  0.15529814
   0.07314286  0.01018791  0.84468346
   0.60350675  0.72711483  0.06350055
   0.39648509  0.27287984  0.93650953
   0.43037046  0.75817425  0.38303689
   0.56962104  0.24181731  0.61697298
   0.25664466  0.11145466  0.37723737
   0.74344967  0.88857541  0.62273390
   0.08806331  0.47893742  0.34596316
   0.91190115  0.52105227  0.65404894
CIS                                     
           1
     0.002175   -3.720431    0.000200
   -10.174157   -1.854288    0.039144
    -3.114388   -1.857813  -10.764964
   K    Sc   S 
   2   6  10
Direct configuration=    24
   0.74603017  0.32813406  0.17847265
   0.25389979  0.67185891  0.82152703
   0.50003942 -0.00000714  0.00001661
   0.49995766  0.49999460  0.50000721
   0.83424049  0.94068263  0.39235608
   0.16575492  0.05933424  0.60759400
   0.02934256  0.72184743  0.21789843
   0.97061528  0.27815807  0.78211262
   0.92715458  0.98985300  0.15492982
   0.07287003  0.01013632  0.84504410
   0.60336361  0.72716270  0.06328921
   0.39662515  0.27282841  0.93671196
   0.43017174  0.75784727  0.38285898
   0.56981629  0.24213073  0.61714911
   0.25677703  0.11120005  0.37733239
   0.74338318  0.88885423  0.62268554
   0.08796418  0.47889897  0.34578112
   0.91199592  0.52108351  0.65423316
CIS                                     
           1
     0.002185   -3.721150    0.000290
   -10.177388   -1.854621    0.044075
    -3.110216   -1.857899  -10.767532
   K    Sc   S 
   2   6  10
Direct configuration=    25
   0.74613008  0.32801903  0.17846811
   0.25379820  0.67197359  0.82153139
   0.50002615 -0.00000856  0.00001408
   0.49996485  0.49999206  0.50000744
   0.83432540  0.94050525  0.39237671
   0.16568741  0.05952220  0.60756839
   0.02934976  0.72182655  0.21784534
   0.97061456  0.27817431  0.78216169
   0.92736281  0.98981461  0.15489430
   0.07264412  0.01016455  0.84508773
   0.60322244  0.72716096  0.06316465
   0.39676510  0.27283044  0.93683416
   0.43001608  0.75764026  0.38268717
   0.56997166  0.24234176  0.61731800
   0.25691916  0.11100112  0.37734944
   0.74324476  0.88905433  0.62267915
   0.08783967  0.47881182  0.34569324
   0.91211978  0.52117372  0.65431902
CIS                                     
           1
     0.002201   -3.722257    0.000430
   -10.182365   -1.855135    0.051668
    -3.103792   -1.858032  -10.771487
   K    Sc   S 
   2   6  10
Direct configuration=    26
   0.74628392  0.32784198  0.17846105
   0.25364178  0.67215010  0.82153819
   0.50000573 -0.00001074  0.00001017
   0.49997592  0.49998815  0.50000778
   0.83445613  0.94023225  0.39240834
   0.16558346  0.05981148  0.60752909
   0.02936085  0.72179438  0.21776361
   0.97061344  0.27819934  0.78223725
   0.92768340  0.98975548  0.15483960
   0.07229631  0.01020802  0.84515492
   0.60300514  0.72715818  0.06297289
   0.39698052  0.27283366  0.93702229
   0.42977649  0.75732153  0.38242252
   0.57021078  0.24266668  0.61757814
   0.25713801  0.11069495  0.37737555
   0.74303164  0.88936231  0.62266946
   0.08764804  0.47867763  0.34555790
   0.91231045  0.52131264  0.65445126
CIS                                     
           1
     0.002674   -3.722765    0.000703
   -10.186646   -1.854100    0.050312
    -3.106513   -1.857100  -10.771034
   K    Sc   S 
   2   6  10
Direct configuration=    27
   0.74640365  0.32766074  0.17846058
   0.25351700  0.67232900  0.82153708
   0.49999128 -0.00001281 -0.00000215
   0.49997852  0.49998406  0.50000826
   0.83443755  0.94015790  0.39246528
   0.16561634  0.05988154  0.60749973
   0.02938732  0.72172245  0.21754648
   0.97058897  0.27825523  0.78245193
   0.92783452  0.98963421  0.15506190
   0.07212736  0.01032639  0.84494731
   0.60277878  0.72715066  0.06290908
   0.39719973  0.27283768  0.93708746
   0.42954313  0.75709164  0.38217962
   0.57044085  0.24290570  0.61781857
   0.25728567  0.11036734  0.37736547
   0.74291523  0.88971408  0.62265863
   0.08754345  0.47859240  0.34554937
   0.91241263  0.52139978  0.65445541
CIS                                     
           1
     0.003955   -3.724139    0.001445
   -10.198244   -1.851297    0.046636
    -3.113884   -1.854577  -10.769806
   K    Sc   S 
   2   6  10
Direct configuration=    28
   0.74672772  0.32716992  0.17845937
   0.25317927  0.67281348  0.82153398
   0.49995213 -0.00001840 -0.00003553
   0.49998555  0.49997300  0.50000955
   0.83438718  0.93995650  0.39261956
   0.16570547  0.06007129  0.60742017
   0.02945871  0.72152781  0.21695824
   0.97052296  0.27840643  0.78303354
   0.92824392  0.98930564  0.15566426
   0.07166968  0.01064710  0.84438475
   0.60216556  0.72713033  0.06273620
   0.39779362  0.27284854  0.93726405
   0.42891042  0.75646922  0.38152159
   0.57106464  0.24355288  0.61846992
   0.25768518  0.10948012  0.37733829
   0.74260040  0.89066678  0.62262916
   0.08726001  0.47836159  0.34552629
   0.91268956  0.52163578  0.65446662
CIS                                     
           1
     0.003704   -3.723870    0.001299
   -10.195969   -1.851847    0.047357
    -3.112438   -1.855072  -10.770046
   K    Sc   S 
   2   6  10
Direct configuration=    29
   0.74666432  0.32726609  0.17845957
   0.25324535  0.67271856  0.82153463
   0.49995982 -0.00001731 -0.00002898
   0.49998417  0.49997517  0.50000930
   0.83439709  0.93999599  0.39258928
   0.16568796  0.06003409  0.60743579
   0.02944488  0.72156586  0.21707362
   0.97053575  0.27837689  0.78291945
   0.92816363  0.98937010  0.15554606
   0.07175943  0.01058418  0.84449514
   0.60228583  0.72713430  0.06277012
   0.39767715  0.27284642  0.93722940
   0.42903477  0.75659110  0.38165064
   0.57094203  0.24342615  0.61834218
   0.25760711  0.10965395  0.37734356
   0.74266186  0.89048010  0.62263501
   0.08731565  0.47840682  0.34553081
   0.91263519  0.52158953  0.65446444
CIS                                     
           1
     0.004785   -3.721986    0.001179
   -10.190399   -1.847945    0.041541
    -3.116415   -1.853579  -10.763352
   K    Sc   S 
   2   6  10
Direct configuration=    30
   0.74683417  0.32693782  0.17850557
   0.25307562  0.67304508  0.82148755
   0.49993254 -0.00002055 -0.00001461
   0.49997894  0.49998545  0.50000570
   0.83430812  0.93968156  0.39270117
   0.16582167  0.06036215  0.60732778
   0.02934852  0.72132949  0.21691956
   0.97060940  0.27862182  0.78308182
   0.92869881  0.98902681  0.15574829
   0.07122864  0.01093689  0.84427872
   0.60195169  0.72720217  0.06261474
   0.39800889  0.27277554  0.93738077
   0.42872316  0.75651053  0.38138104
   0.57126180  0.24350559  0.61862334
   0.25762564  0.10936869  0.37722235
   0.74264117  0.89073773  0.62273548
   0.08728049  0.47840336  0.34556075
   0.91267273  0.52158786  0.65444000
CIS                                     
           1
     0.005327   -3.721041    0.001119
   -10.187605   -1.845989    0.038624
    -3.118409   -1.852830  -10.759994
   K    Sc   S 
   2   6  10
Direct configuration=    31
   0.74691925  0.32677307  0.17852874
   0.25299061  0.67320896  0.82146384
   0.49991885 -0.00002218 -0.00000740
   0.49997632  0.49999062  0.50000389
   0.83426335  0.93952372  0.39275741
   0.16588889  0.06052684  0.60727348
   0.02930002  0.72121090  0.21684231
   0.97064651  0.27874471  0.78316323
   0.92896720  0.98885449  0.15584987
   0.07096244  0.01111393  0.84417002
   0.60178403  0.72723626  0.06253675
   0.39817534  0.27273994  0.93745675
   0.42856673  0.75647015  0.38124576
   0.57142233  0.24354539  0.61876441
   0.25763478  0.10922556  0.37716159
   0.74263094  0.89086699  0.62278583
   0.08726285  0.47840162  0.34557578
   0.91269156  0.52158703  0.65442773
CIS                                     
           1
     0.006281   -3.721498    0.001038
   -10.186056   -1.843602    0.034165
    -3.122290   -1.852498  -10.764102
   K    Sc   S 
   2   6  10
Direct configuration=    32
   0.74705421  0.32646110  0.17859145
   0.25286072  0.67352146  0.82139982
   0.49991579 -0.00002497  0.00001866
   0.49996443  0.50000870  0.49999828
   0.83413611  0.93901218  0.39287381
   0.16607092  0.06105566  0.60712713
   0.02904174  0.72100294  0.21684506
   0.97087044  0.27898514  0.78317278
   0.92950586  0.98850787  0.15578996
   0.07043352  0.01147505  0.84420234
   0.60156462  0.72725787  0.06223464
   0.39838193  0.27268196  0.93774931
   0.42861077  0.75653692  0.38106927
   0.57139131  0.24346958  0.61894954
   0.25773369  0.10929970  0.37691305
   0.74251013  0.89076242  0.62305436
   0.08724164  0.47822182  0.34567596
   0.91271415  0.52176260  0.65433460
