  26  26   1   0
  0.3260308E+02  0.4234949E-09  0.1317593E-08  0.1521369E-08  0.1000000E-15
  1.000000000000000E-004
  CAR 
 CIS                                     
      7.24532538    -12.50397972  301      2.37588734      1.00000000
    -12.504  0.0000E+00  0.0000E+00
    -12.438  0.0000E+00  0.0000E+00
    -12.372  0.0000E+00  0.0000E+00
    -12.306  0.0000E+00  0.0000E+00
    -12.241  0.0000E+00  0.0000E+00
    -12.175  0.0000E+00  0.0000E+00
    -12.109  0.0000E+00  0.0000E+00
    -12.043  0.0000E+00  0.0000E+00
    -11.977  0.0000E+00  0.0000E+00
    -11.912  0.0000E+00  0.0000E+00
    -11.846  0.2644E-12  0.1741E-13
    -11.780  0.2046E-07  0.1347E-08
    -11.714  0.5664E-04  0.3730E-05
    -11.648  0.6359E-02  0.4224E-03
    -11.582  0.4425E-01  0.3336E-02
    -11.517  0.1996E+00  0.1648E-01
    -11.451  0.7938E+00  0.6873E-01
    -11.385  0.1362E+01  0.1584E+00
    -11.319  0.1075E+01  0.2292E+00
    -11.253  0.2596E+00  0.2462E+00
    -11.187  0.9430E-01  0.2525E+00
    -11.122  0.9171E-01  0.2585E+00
    -11.056  0.5141E-01  0.2619E+00
    -10.990  0.6435E-01  0.2661E+00
    -10.924  0.4966E-01  0.2694E+00
    -10.858  0.7779E-01  0.2745E+00
    -10.792  0.7171E-01  0.2792E+00
    -10.727  0.3116E-01  0.2813E+00
    -10.661  0.7600E-01  0.2863E+00
    -10.595  0.1911E+00  0.2989E+00
    -10.529  0.1347E+00  0.3077E+00
    -10.463  0.1126E+00  0.3151E+00
    -10.397  0.8618E-01  0.3208E+00
    -10.332  0.1256E+00  0.3291E+00
    -10.266  0.1479E+00  0.3388E+00
    -10.200  0.7087E-01  0.3435E+00
    -10.134  0.1382E+00  0.3526E+00
    -10.068  0.1168E+00  0.3603E+00
    -10.002  0.7650E-01  0.3653E+00
     -9.937  0.1651E+00  0.3762E+00
     -9.871  0.3068E+00  0.3964E+00
     -9.805  0.3466E+00  0.4192E+00
     -9.739  0.4076E+00  0.4460E+00
     -9.673  0.4471E+00  0.4754E+00
     -9.607  0.4337E+00  0.5040E+00
     -9.542  0.1972E+00  0.5170E+00
     -9.476  0.9859E-01  0.5235E+00
     -9.410  0.2652E-01  0.5252E+00
     -9.344  0.5088E-03  0.5253E+00
     -9.278  0.4156E-06  0.5253E+00
     -9.212  0.1225E-10  0.5253E+00
     -9.147  0.6814E-17  0.5253E+00
     -9.081  0.0000E+00  0.5253E+00
     -9.015  0.0000E+00  0.5253E+00
     -8.949  0.0000E+00  0.5253E+00
     -8.883  0.0000E+00  0.5253E+00
     -8.817  0.0000E+00  0.5253E+00
     -8.752  0.0000E+00  0.5253E+00
     -8.686  0.0000E+00  0.5253E+00
     -8.620  0.0000E+00  0.5253E+00
     -8.554  0.1027E-11  0.5253E+00
     -8.488  0.5698E-07  0.5253E+00
     -8.422  0.1121E-03  0.5253E+00
     -8.357  0.9031E-02  0.5259E+00
     -8.291  0.4905E-01  0.5291E+00
     -8.225  0.1506E+00  0.5390E+00
     -8.159  0.2007E+00  0.5522E+00
     -8.093  0.6734E-01  0.5566E+00
     -8.027  0.1055E+00  0.5636E+00
     -7.962  0.1378E+00  0.5727E+00
     -7.896  0.1337E+00  0.5815E+00
     -7.830  0.1192E+00  0.5893E+00
     -7.764  0.9484E-01  0.5956E+00
     -7.698  0.1023E+00  0.6023E+00
     -7.632  0.1050E+00  0.6092E+00
     -7.567  0.1331E+00  0.6180E+00
     -7.501  0.2216E+00  0.6326E+00
     -7.435  0.1564E+00  0.6428E+00
     -7.369  0.6296E-01  0.6470E+00
     -7.303  0.5059E-01  0.6503E+00
     -7.237  0.3347E-01  0.6525E+00
     -7.172  0.5968E-01  0.6565E+00
     -7.106  0.3277E-01  0.6586E+00
     -7.040  0.3541E-01  0.6609E+00
     -6.974  0.5017E-01  0.6642E+00
     -6.908  0.3029E-01  0.6662E+00
     -6.843  0.5684E-01  0.6700E+00
     -6.777  0.2912E-01  0.6719E+00
     -6.711  0.8094E-01  0.6772E+00
     -6.645  0.5684E-01  0.6810E+00
     -6.579  0.2308E-01  0.6825E+00
     -6.513  0.5085E-02  0.6828E+00
     -6.448  0.1772E-02  0.6829E+00
     -6.382  0.2609E-01  0.6847E+00
     -6.316  0.3071E-01  0.6867E+00
     -6.250  0.2857E-02  0.6869E+00
     -6.184  0.1514E-04  0.6869E+00
     -6.118  0.3409E-08  0.6869E+00
     -6.053  0.2792E-13  0.6869E+00
     -5.987  0.0000E+00  0.6869E+00
     -5.921  0.0000E+00  0.6869E+00
     -5.855  0.0000E+00  0.6869E+00
     -5.789  0.0000E+00  0.6869E+00
     -5.723  0.0000E+00  0.6869E+00
     -5.658  0.0000E+00  0.6869E+00
     -5.592  0.0000E+00  0.6869E+00
     -5.526  0.0000E+00  0.6869E+00
     -5.460  0.0000E+00  0.6869E+00
     -5.394  0.0000E+00  0.6869E+00
     -5.328  0.0000E+00  0.6869E+00
     -5.263  0.0000E+00  0.6869E+00
     -5.197  0.0000E+00  0.6869E+00
     -5.131  0.0000E+00  0.6869E+00
     -5.065  0.0000E+00  0.6869E+00
     -4.999  0.0000E+00  0.6869E+00
     -4.933  0.0000E+00  0.6869E+00
     -4.868  0.0000E+00  0.6869E+00
     -4.802  0.0000E+00  0.6869E+00
     -4.736  0.0000E+00  0.6869E+00
     -4.670  0.0000E+00  0.6869E+00
     -4.604  0.0000E+00  0.6869E+00
     -4.538  0.0000E+00  0.6869E+00
     -4.473  0.0000E+00  0.6869E+00
     -4.407  0.0000E+00  0.6869E+00
     -4.341  0.0000E+00  0.6869E+00
     -4.275  0.0000E+00  0.6869E+00
     -4.209  0.0000E+00  0.6869E+00
     -4.143  0.0000E+00  0.6869E+00
     -4.078  0.0000E+00  0.6869E+00
     -4.012  0.0000E+00  0.6869E+00
     -3.946  0.0000E+00  0.6869E+00
     -3.880  0.0000E+00  0.6869E+00
     -3.814  0.0000E+00  0.6869E+00
     -3.748  0.0000E+00  0.6869E+00
     -3.683  0.0000E+00  0.6869E+00
     -3.617  0.0000E+00  0.6869E+00
     -3.551  0.0000E+00  0.6869E+00
     -3.485  0.0000E+00  0.6869E+00
     -3.419  0.0000E+00  0.6869E+00
     -3.353  0.0000E+00  0.6869E+00
     -3.288  0.0000E+00  0.6869E+00
     -3.222  0.0000E+00  0.6869E+00
     -3.156  0.0000E+00  0.6869E+00
     -3.090  0.0000E+00  0.6869E+00
     -3.024  0.0000E+00  0.6869E+00
     -2.958  0.0000E+00  0.6869E+00
     -2.893  0.0000E+00  0.6869E+00
     -2.827  0.0000E+00  0.6869E+00
     -2.761  0.3407E-17  0.6869E+00
     -2.695  0.2766E-11  0.6869E+00
     -2.629  0.9703E-07  0.6869E+00
     -2.563  0.1223E-03  0.6869E+00
     -2.498  0.6588E-02  0.6873E+00
     -2.432  0.3432E-01  0.6896E+00
     -2.366  0.9579E-01  0.6959E+00
     -2.300  0.5157E-01  0.6993E+00
     -2.234  0.8948E-01  0.7052E+00
     -2.169  0.1267E+00  0.7135E+00
     -2.103  0.6302E-01  0.7177E+00
     -2.037  0.8128E-01  0.7230E+00
     -1.971  0.1146E+00  0.7306E+00
     -1.905  0.9025E-01  0.7365E+00
     -1.839  0.5602E-01  0.7402E+00
     -1.774  0.9846E-01  0.7467E+00
     -1.708  0.1278E+00  0.7551E+00
     -1.642  0.1642E+00  0.7659E+00
     -1.576  0.1538E+00  0.7760E+00
     -1.510  0.1618E+00  0.7867E+00
     -1.444  0.8129E-01  0.7920E+00
     -1.379  0.1614E+00  0.8026E+00
     -1.313  0.1984E+00  0.8157E+00
     -1.247  0.1786E+00  0.8275E+00
     -1.181  0.1519E+00  0.8375E+00
     -1.115  0.1549E+00  0.8477E+00
     -1.049  0.1540E+00  0.8578E+00
     -0.984  0.1332E+00  0.8666E+00
     -0.918  0.2404E+00  0.8824E+00
     -0.852  0.3085E+00  0.9027E+00
     -0.786  0.2324E+00  0.9180E+00
     -0.720  0.2544E+00  0.9347E+00
     -0.654  0.1925E+00  0.9474E+00
     -0.589  0.1902E+00  0.9599E+00
     -0.523  0.2924E+00  0.9792E+00
     -0.457  0.2531E+00  0.9959E+00
     -0.391  0.1733E+00  0.1007E+01
     -0.325  0.1516E+00  0.1017E+01
     -0.259  0.1661E+00  0.1028E+01
     -0.194  0.2307E+00  0.1043E+01
     -0.128  0.2670E+00  0.1061E+01
     -0.062  0.2533E+00  0.1078E+01
      0.004  0.1797E+00  0.1089E+01
      0.070  0.1432E+00  0.1099E+01
      0.136  0.2091E+00  0.1113E+01
      0.201  0.2482E+00  0.1129E+01
      0.267  0.1461E+00  0.1139E+01
      0.333  0.7062E-01  0.1143E+01
      0.399  0.7575E-01  0.1148E+01
      0.465  0.1791E+00  0.1160E+01
      0.531  0.2025E+00  0.1173E+01
      0.596  0.1362E+00  0.1182E+01
      0.662  0.1695E+00  0.1193E+01
      0.728  0.3197E+00  0.1215E+01
      0.794  0.3818E+00  0.1240E+01
      0.860  0.2857E+00  0.1258E+01
      0.926  0.3202E+00  0.1280E+01
      0.991  0.2980E+00  0.1299E+01
      1.057  0.2937E+00  0.1319E+01
      1.123  0.3329E+00  0.1340E+01
      1.189  0.3540E+00  0.1364E+01
      1.255  0.2592E+00  0.1381E+01
      1.321  0.3413E+00  0.1403E+01
      1.386  0.3564E+00  0.1427E+01
      1.452  0.2280E+00  0.1442E+01
      1.518  0.2461E+00  0.1458E+01
      1.584  0.1472E+00  0.1468E+01
      1.650  0.2881E+00  0.1487E+01
      1.716  0.3028E+00  0.1507E+01
      1.781  0.1596E+00  0.1517E+01
      1.847  0.9522E-01  0.1523E+01
      1.913  0.7953E-01  0.1529E+01
      1.979  0.4086E-01  0.1531E+01
      2.045  0.6147E-02  0.1532E+01
      2.111  0.3499E-01  0.1534E+01
      2.176  0.2085E-01  0.1535E+01
      2.242  0.8850E-03  0.1535E+01
      2.308  0.1902E-05  0.1535E+01
      2.374  0.1635E-09  0.1535E+01
      2.440  0.5008E-15  0.1535E+01
      2.505  0.0000E+00  0.1535E+01
      2.571  0.0000E+00  0.1535E+01
      2.637  0.0000E+00  0.1535E+01
      2.703  0.1672E-13  0.1535E+01
      2.769  0.2250E-08  0.1535E+01
      2.835  0.1054E-04  0.1535E+01
      2.900  0.1913E-02  0.1535E+01
      2.966  0.1738E-01  0.1537E+01
      3.032  0.1095E-01  0.1537E+01
      3.098  0.1214E-02  0.1537E+01
      3.164  0.1346E-01  0.1538E+01
      3.230  0.1634E-01  0.1539E+01
      3.295  0.2220E-01  0.1541E+01
      3.361  0.3432E-01  0.1543E+01
      3.427  0.1219E-01  0.1544E+01
      3.493  0.3710E-01  0.1546E+01
      3.559  0.4243E-01  0.1549E+01
      3.625  0.7931E-01  0.1554E+01
      3.690  0.6011E-01  0.1558E+01
      3.756  0.9852E-01  0.1565E+01
      3.822  0.1080E+00  0.1572E+01
      3.888  0.9945E-01  0.1578E+01
      3.954  0.1558E+00  0.1589E+01
      4.020  0.1442E+00  0.1598E+01
      4.085  0.1686E+00  0.1609E+01
      4.151  0.1569E+00  0.1620E+01
      4.217  0.2359E+00  0.1635E+01
      4.283  0.1463E+00  0.1645E+01
      4.349  0.1404E+00  0.1654E+01
      4.415  0.2290E+00  0.1669E+01
      4.480  0.2110E+00  0.1683E+01
      4.546  0.2033E+00  0.1696E+01
      4.612  0.2240E+00  0.1711E+01
      4.678  0.2755E+00  0.1729E+01
      4.744  0.2325E+00  0.1745E+01
      4.810  0.1874E+00  0.1757E+01
      4.875  0.1591E+00  0.1767E+01
      4.941  0.2364E+00  0.1783E+01
      5.007  0.2329E+00  0.1798E+01
      5.073  0.1975E+00  0.1811E+01
      5.139  0.1469E+00  0.1821E+01
      5.205  0.1422E+00  0.1830E+01
      5.270  0.1774E+00  0.1842E+01
      5.336  0.1780E+00  0.1854E+01
      5.402  0.1886E+00  0.1866E+01
      5.468  0.1782E+00  0.1878E+01
      5.534  0.1454E+00  0.1887E+01
      5.600  0.1536E+00  0.1898E+01
      5.665  0.1227E+00  0.1906E+01
      5.731  0.1334E+00  0.1914E+01
      5.797  0.1691E+00  0.1926E+01
      5.863  0.4452E-01  0.1928E+01
      5.929  0.1254E+00  0.1937E+01
      5.995  0.1815E+00  0.1949E+01
      6.060  0.1672E+00  0.1960E+01
      6.126  0.1600E+00  0.1970E+01
      6.192  0.2293E-01  0.1972E+01
      6.258  0.3896E-02  0.1972E+01
      6.324  0.4850E-01  0.1975E+01
      6.390  0.6230E-01  0.1979E+01
      6.455  0.8222E-02  0.1980E+01
      6.521  0.7306E-04  0.1980E+01
      6.587  0.2827E-07  0.1980E+01
      6.653  0.3933E-12  0.1980E+01
      6.719  0.0000E+00  0.1980E+01
      6.785  0.0000E+00  0.1980E+01
      6.850  0.0000E+00  0.1980E+01
      6.916  0.0000E+00  0.1980E+01
      6.982  0.0000E+00  0.1980E+01
      7.048  0.0000E+00  0.1980E+01
      7.114  0.0000E+00  0.1980E+01
      7.179  0.0000E+00  0.1980E+01
      7.245  0.0000E+00  0.1980E+01
      7.24532538    -12.50397972  301      2.37588734      1.00000000
    -12.504  0.0000E+00  0.0000E+00  0.0000E+00
    -12.438  0.0000E+00  0.0000E+00  0.0000E+00
    -12.372  0.0000E+00  0.0000E+00  0.0000E+00
    -12.306  0.0000E+00  0.0000E+00  0.0000E+00
    -12.241  0.0000E+00  0.0000E+00  0.0000E+00
    -12.175  0.0000E+00  0.0000E+00  0.0000E+00
    -12.109  0.0000E+00  0.0000E+00  0.0000E+00
    -12.043  0.0000E+00  0.0000E+00  0.0000E+00
    -11.977  0.0000E+00  0.0000E+00  0.0000E+00
    -11.912  0.0000E+00  0.0000E+00  0.0000E+00
    -11.846  0.1208E-14  0.1963E-11  0.5401E-16
    -11.780  0.8990E-10  0.1542E-06  0.4050E-11
    -11.714  0.2380E-06  0.4341E-03  0.1082E-07
    -11.648  0.2547E-04  0.4998E-01  0.1174E-05
    -11.582  0.1569E-03  0.5634E+00  0.9538E-05
    -11.517  0.3510E-03  0.7015E+01  0.7327E-04
    -11.451  0.8411E-03  0.2513E+02  0.2614E-03
    -11.385  0.5497E-03  0.3794E+02  0.3406E-03
    -11.319  0.2339E-03  0.1518E+02  0.1065E-03
    -11.253  0.8811E-04  0.9814E+00  0.1386E-04
    -11.187  0.4385E-03  0.4184E+00  0.4808E-04
    -11.122  0.4806E-03  0.4375E+00  0.5317E-04
    -11.056  0.2709E-03  0.1655E+00  0.3424E-04
    -10.990  0.3275E-03  0.1866E+00  0.5011E-04
    -10.924  0.2768E-03  0.1141E+00  0.5116E-04
    -10.858  0.4955E-03  0.1620E+00  0.8010E-04
    -10.792  0.8509E-03  0.1741E+00  0.8111E-04
    -10.727  0.3459E-03  0.5306E-01  0.4668E-04
    -10.661  0.5710E-03  0.1102E+00  0.1270E-03
    -10.595  0.1760E-02  0.2139E+00  0.2787E-03
    -10.529  0.9424E-03  0.1283E+00  0.2660E-03
    -10.463  0.6247E-03  0.9492E-01  0.3173E-03
    -10.397  0.4612E-03  0.5433E-01  0.2148E-03
    -10.332  0.8025E-03  0.1109E+00  0.4463E-03
    -10.266  0.6710E-03  0.7998E-01  0.5161E-03
    -10.200  0.2219E-03  0.1688E-01  0.2223E-03
    -10.134  0.5959E-03  0.3664E-01  0.3570E-03
    -10.068  0.5257E-03  0.3739E-01  0.3431E-03
    -10.002  0.3223E-03  0.1761E-01  0.2639E-03
     -9.937  0.1114E-02  0.4870E-01  0.5097E-03
     -9.871  0.1261E-02  0.6480E-01  0.7501E-03
     -9.805  0.9753E-03  0.6921E-01  0.7990E-03
     -9.739  0.9830E-03  0.7976E-01  0.1152E-02
     -9.673  0.1514E-02  0.7519E-01  0.1583E-02
     -9.607  0.1765E-02  0.8135E-01  0.2090E-02
     -9.542  0.6511E-03  0.3706E-01  0.9783E-03
     -9.476  0.5443E-03  0.3206E-01  0.9875E-03
     -9.410  0.1693E-03  0.9804E-02  0.3038E-03
     -9.344  0.3268E-05  0.1897E-03  0.5857E-05
     -9.278  0.2666E-08  0.1553E-06  0.4777E-08
     -9.212  0.7846E-13  0.4586E-11  0.1406E-12
     -9.147  0.4279E-19  0.2617E-17  0.7652E-19
     -9.081  0.0000E+00  0.0000E+00  0.0000E+00
     -9.015  0.0000E+00  0.0000E+00  0.0000E+00
     -8.949  0.0000E+00  0.0000E+00  0.0000E+00
     -8.883  0.0000E+00  0.0000E+00  0.0000E+00
     -8.817  0.0000E+00  0.0000E+00  0.0000E+00
     -8.752  0.0000E+00  0.0000E+00  0.0000E+00
     -8.686  0.0000E+00  0.0000E+00  0.0000E+00
     -8.620  0.0000E+00  0.0000E+00  0.0000E+00
     -8.554  0.9309E-15  0.2197E-13  0.7768E-15
     -8.488  0.5163E-10  0.1218E-08  0.4309E-10
     -8.422  0.1016E-06  0.2398E-05  0.8481E-07
     -8.357  0.8198E-05  0.1937E-03  0.6863E-05
     -8.291  0.4771E-04  0.1108E-02  0.4245E-04
     -8.225  0.1824E-03  0.3151E-02  0.1744E-03
     -8.159  0.2224E-03  0.3346E-02  0.2234E-03
     -8.093  0.7691E-04  0.1491E-02  0.1108E-03
     -8.027  0.1672E-03  0.2380E-02  0.2772E-03
     -7.962  0.1236E-03  0.2720E-02  0.3858E-03
     -7.896  0.1079E-03  0.2462E-02  0.3108E-03
     -7.830  0.1015E-03  0.1510E-02  0.2202E-03
     -7.764  0.1107E-03  0.2115E-02  0.2570E-03
     -7.698  0.1408E-03  0.2369E-02  0.2560E-03
     -7.632  0.4773E-03  0.3329E-02  0.3093E-03
     -7.567  0.7273E-03  0.4495E-02  0.3556E-03
     -7.501  0.9564E-03  0.5998E-02  0.4638E-03
     -7.435  0.8700E-03  0.4707E-02  0.4339E-03
     -7.369  0.4178E-03  0.2458E-02  0.2467E-03
     -7.303  0.3281E-03  0.2087E-02  0.2039E-03
     -7.237  0.1566E-03  0.1074E-02  0.1120E-03
     -7.172  0.3038E-03  0.1696E-02  0.1697E-03
     -7.106  0.1856E-03  0.8810E-03  0.8130E-04
     -7.040  0.1631E-03  0.1184E-02  0.1102E-03
     -6.974  0.2807E-03  0.1601E-02  0.1449E-03
     -6.908  0.3688E-03  0.1150E-02  0.3465E-04
     -6.843  0.8146E-03  0.2129E-02  0.4270E-04
     -6.777  0.2719E-03  0.9404E-03  0.4207E-04
     -6.711  0.6815E-03  0.2551E-02  0.1419E-03
     -6.645  0.7233E-03  0.1835E-02  0.8965E-04
     -6.579  0.6710E-03  0.6636E-03  0.1833E-04
     -6.513  0.1619E-03  0.1429E-03  0.3343E-05
     -6.448  0.2229E-04  0.9118E-04  0.1757E-05
     -6.382  0.3535E-03  0.1339E-02  0.2341E-04
     -6.316  0.4751E-03  0.1538E-02  0.2396E-04
     -6.250  0.4944E-04  0.1397E-03  0.1911E-05
     -6.184  0.2817E-06  0.7282E-06  0.8940E-08
     -6.118  0.6563E-10  0.1625E-09  0.1878E-11
     -6.053  0.5450E-15  0.1326E-14  0.1492E-16
     -5.987  0.0000E+00  0.0000E+00  0.0000E+00
     -5.921  0.0000E+00  0.0000E+00  0.0000E+00
     -5.855  0.0000E+00  0.0000E+00  0.0000E+00
     -5.789  0.0000E+00  0.0000E+00  0.0000E+00
     -5.723  0.0000E+00  0.0000E+00  0.0000E+00
     -5.658  0.0000E+00  0.0000E+00  0.0000E+00
     -5.592  0.0000E+00  0.0000E+00  0.0000E+00
     -5.526  0.0000E+00  0.0000E+00  0.0000E+00
     -5.460  0.0000E+00  0.0000E+00  0.0000E+00
     -5.394  0.0000E+00  0.0000E+00  0.0000E+00
     -5.328  0.0000E+00  0.0000E+00  0.0000E+00
     -5.263  0.0000E+00  0.0000E+00  0.0000E+00
     -5.197  0.0000E+00  0.0000E+00  0.0000E+00
     -5.131  0.0000E+00  0.0000E+00  0.0000E+00
     -5.065  0.0000E+00  0.0000E+00  0.0000E+00
     -4.999  0.0000E+00  0.0000E+00  0.0000E+00
     -4.933  0.0000E+00  0.0000E+00  0.0000E+00
     -4.868  0.0000E+00  0.0000E+00  0.0000E+00
     -4.802  0.0000E+00  0.0000E+00  0.0000E+00
     -4.736  0.0000E+00  0.0000E+00  0.0000E+00
     -4.670  0.0000E+00  0.0000E+00  0.0000E+00
     -4.604  0.0000E+00  0.0000E+00  0.0000E+00
     -4.538  0.0000E+00  0.0000E+00  0.0000E+00
     -4.473  0.0000E+00  0.0000E+00  0.0000E+00
     -4.407  0.0000E+00  0.0000E+00  0.0000E+00
     -4.341  0.0000E+00  0.0000E+00  0.0000E+00
     -4.275  0.0000E+00  0.0000E+00  0.0000E+00
     -4.209  0.0000E+00  0.0000E+00  0.0000E+00
     -4.143  0.0000E+00  0.0000E+00  0.0000E+00
     -4.078  0.0000E+00  0.0000E+00  0.0000E+00
     -4.012  0.0000E+00  0.0000E+00  0.0000E+00
     -3.946  0.0000E+00  0.0000E+00  0.0000E+00
     -3.880  0.0000E+00  0.0000E+00  0.0000E+00
     -3.814  0.0000E+00  0.0000E+00  0.0000E+00
     -3.748  0.0000E+00  0.0000E+00  0.0000E+00
     -3.683  0.0000E+00  0.0000E+00  0.0000E+00
     -3.617  0.0000E+00  0.0000E+00  0.0000E+00
     -3.551  0.0000E+00  0.0000E+00  0.0000E+00
     -3.485  0.0000E+00  0.0000E+00  0.0000E+00
     -3.419  0.0000E+00  0.0000E+00  0.0000E+00
     -3.353  0.0000E+00  0.0000E+00  0.0000E+00
     -3.288  0.0000E+00  0.0000E+00  0.0000E+00
     -3.222  0.0000E+00  0.0000E+00  0.0000E+00
     -3.156  0.0000E+00  0.0000E+00  0.0000E+00
     -3.090  0.0000E+00  0.0000E+00  0.0000E+00
     -3.024  0.0000E+00  0.0000E+00  0.0000E+00
     -2.958  0.0000E+00  0.0000E+00  0.0000E+00
     -2.893  0.0000E+00  0.0000E+00  0.0000E+00
     -2.827  0.0000E+00  0.0000E+00  0.0000E+00
     -2.761  0.2092E-19  0.1412E-18  0.3952E-19
     -2.695  0.1699E-13  0.1147E-12  0.3209E-13
     -2.629  0.5958E-09  0.4022E-08  0.1125E-08
     -2.563  0.7518E-06  0.5072E-05  0.1419E-05
     -2.498  0.4317E-04  0.2831E-03  0.7835E-04
     -2.432  0.4973E-03  0.2462E-02  0.5980E-03
     -2.366  0.2201E-02  0.9638E-02  0.2181E-02
     -2.300  0.1023E-02  0.4138E-02  0.9895E-03
     -2.234  0.1649E-02  0.2655E-02  0.1374E-02
     -2.169  0.2354E-02  0.4334E-02  0.1924E-02
     -2.103  0.1718E-02  0.2581E-02  0.7174E-03
     -2.037  0.6769E-02  0.5757E-02  0.1459E-02
     -1.971  0.6006E-02  0.8999E-02  0.2183E-02
     -1.905  0.2065E-02  0.6692E-02  0.1443E-02
     -1.839  0.1300E-02  0.3651E-02  0.7914E-03
     -1.774  0.2358E-02  0.6932E-02  0.1656E-02
     -1.708  0.2528E-02  0.8144E-02  0.2461E-02
     -1.642  0.4103E-02  0.9202E-02  0.4103E-02
     -1.576  0.6881E-02  0.1415E-01  0.3547E-02
     -1.510  0.7948E-02  0.1472E-01  0.3243E-02
     -1.444  0.4749E-02  0.5720E-02  0.1678E-02
     -1.379  0.3134E-02  0.8412E-02  0.4096E-02
     -1.313  0.3962E-02  0.1570E-01  0.5904E-02
     -1.247  0.1057E-01  0.1722E-01  0.5625E-02
     -1.181  0.8889E-02  0.1662E-01  0.4872E-02
     -1.115  0.6881E-02  0.1644E-01  0.4389E-02
     -1.049  0.9795E-02  0.1825E-01  0.4156E-02
     -0.984  0.1406E-01  0.1388E-01  0.3725E-02
     -0.918  0.2233E-01  0.2736E-01  0.7108E-02
     -0.852  0.1821E-01  0.2987E-01  0.1126E-01
     -0.786  0.1248E-01  0.2303E-01  0.7404E-02
     -0.720  0.1691E-01  0.2293E-01  0.7259E-02
     -0.654  0.1181E-01  0.1814E-01  0.8076E-02
     -0.589  0.9835E-02  0.1680E-01  0.6850E-02
     -0.523  0.1129E-01  0.2441E-01  0.1072E-01
     -0.457  0.1247E-01  0.2911E-01  0.9660E-02
     -0.391  0.1902E-01  0.2011E-01  0.6376E-02
     -0.325  0.1163E-01  0.8666E-02  0.4670E-02
     -0.259  0.8002E-02  0.1145E-01  0.7138E-02
     -0.194  0.1361E-01  0.2401E-01  0.9300E-02
     -0.128  0.2804E-01  0.2976E-01  0.9423E-02
     -0.062  0.2949E-01  0.2703E-01  0.7179E-02
      0.004  0.1434E-01  0.1885E-01  0.5512E-02
      0.070  0.9788E-02  0.1267E-01  0.5648E-02
      0.136  0.1359E-01  0.1724E-01  0.9462E-02
      0.201  0.1980E-01  0.2362E-01  0.1237E-01
      0.267  0.1532E-01  0.1375E-01  0.6334E-02
      0.333  0.1104E-01  0.5854E-02  0.2188E-02
      0.399  0.1602E-01  0.1159E-01  0.2809E-02
      0.465  0.3544E-01  0.3702E-01  0.9074E-02
      0.531  0.3525E-01  0.4586E-01  0.1144E-01
      0.596  0.4073E-01  0.5085E-01  0.1027E-01
      0.662  0.2933E-01  0.5559E-01  0.1776E-01
      0.728  0.3145E-01  0.6760E-01  0.3032E-01
      0.794  0.4465E-01  0.7659E-01  0.3334E-01
      0.860  0.2545E-01  0.6688E-01  0.2447E-01
      0.926  0.2263E-01  0.7551E-01  0.2571E-01
      0.991  0.2007E-01  0.6474E-01  0.2301E-01
      1.057  0.1349E-01  0.4743E-01  0.1782E-01
      1.123  0.1971E-01  0.5063E-01  0.2461E-01
      1.189  0.2653E-01  0.6597E-01  0.3129E-01
      1.255  0.1616E-01  0.4823E-01  0.2644E-01
      1.321  0.1605E-01  0.6034E-01  0.3889E-01
      1.386  0.8126E-02  0.5264E-01  0.4725E-01
      1.452  0.2243E-02  0.3258E-01  0.4290E-01
      1.518  0.3817E-02  0.3203E-01  0.4779E-01
      1.584  0.5428E-02  0.2093E-01  0.2553E-01
      1.650  0.1560E-01  0.5019E-01  0.2759E-01
      1.716  0.7463E-02  0.4135E-01  0.2705E-01
      1.781  0.2453E-02  0.1620E-01  0.1670E-01
      1.847  0.1956E-02  0.1054E-01  0.1194E-01
      1.913  0.3745E-02  0.5387E-02  0.3717E-02
      1.979  0.2075E-02  0.2600E-02  0.1497E-02
      2.045  0.4174E-03  0.5492E-03  0.5130E-03
      2.111  0.2368E-02  0.3331E-02  0.3452E-02
      2.176  0.1288E-02  0.1940E-02  0.2044E-02
      2.242  0.4976E-04  0.8054E-04  0.8621E-04
      2.308  0.9945E-07  0.1703E-06  0.1844E-06
      2.374  0.8206E-11  0.1452E-10  0.1582E-10
      2.440  0.2465E-16  0.4430E-16  0.4841E-16
      2.505  0.0000E+00  0.0000E+00  0.0000E+00
      2.571  0.0000E+00  0.0000E+00  0.0000E+00
      2.637  0.0000E+00  0.0000E+00  0.0000E+00
      2.703  0.9952E-15  0.4985E-14  0.2150E-14
      2.769  0.1339E-09  0.6709E-09  0.2894E-09
      2.835  0.6273E-06  0.3142E-05  0.1355E-05
      2.900  0.1139E-03  0.5703E-03  0.2460E-03
      2.966  0.1035E-02  0.5182E-02  0.2235E-02
      3.032  0.6519E-03  0.3265E-02  0.1408E-02
      3.098  0.7943E-04  0.3844E-03  0.1383E-03
      3.164  0.9253E-03  0.4402E-02  0.1423E-02
      3.230  0.1153E-02  0.5302E-02  0.1769E-02
      3.295  0.3402E-02  0.5603E-02  0.2744E-02
      3.361  0.8132E-02  0.6764E-02  0.3336E-02
      3.427  0.4735E-02  0.1742E-02  0.9213E-03
      3.493  0.2068E-01  0.4826E-02  0.2338E-02
      3.559  0.1794E-01  0.8815E-02  0.2600E-02
      3.625  0.2214E-01  0.1945E-01  0.5760E-02
      3.690  0.1655E-01  0.1881E-01  0.6062E-02
      3.756  0.2124E-01  0.2938E-01  0.1389E-01
      3.822  0.9356E-02  0.2737E-01  0.2614E-01
      3.888  0.1542E-01  0.2925E-01  0.2362E-01
      3.954  0.7482E-01  0.4431E-01  0.2734E-01
      4.020  0.4508E-01  0.4681E-01  0.2585E-01
      4.085  0.2388E-01  0.5445E-01  0.3180E-01
      4.151  0.1659E-01  0.4944E-01  0.3004E-01
      4.217  0.2462E-01  0.1016E+00  0.4043E-01
      4.283  0.1479E-01  0.5519E-01  0.2309E-01
      4.349  0.3077E-01  0.2087E-01  0.2511E-01
      4.415  0.4372E-01  0.4028E-01  0.4948E-01
      4.480  0.6105E-01  0.5769E-01  0.4559E-01
      4.546  0.4409E-01  0.4577E-01  0.3288E-01
      4.612  0.2343E-01  0.5450E-01  0.4410E-01
      4.678  0.2587E-01  0.6173E-01  0.7118E-01
      4.744  0.2177E-01  0.3694E-01  0.5654E-01
      4.810  0.1700E-01  0.2941E-01  0.3151E-01
      4.875  0.1513E-01  0.5039E-01  0.3791E-01
      4.941  0.3483E-01  0.9318E-01  0.6995E-01
      5.007  0.3850E-01  0.6474E-01  0.7097E-01
      5.073  0.2495E-01  0.3153E-01  0.6035E-01
      5.139  0.2017E-01  0.2954E-01  0.3578E-01
      5.205  0.2185E-01  0.1379E-01  0.3060E-01
      5.270  0.2299E-01  0.2344E-01  0.4814E-01
      5.336  0.3431E-01  0.3684E-01  0.6389E-01
      5.402  0.5174E-01  0.3561E-01  0.6123E-01
      5.468  0.5465E-01  0.3278E-01  0.5634E-01
      5.534  0.4926E-01  0.2486E-01  0.3916E-01
      5.600  0.5662E-01  0.3059E-01  0.3663E-01
      5.665  0.7991E-01  0.4582E-01  0.3943E-01
      5.731  0.4295E-01  0.4580E-01  0.5065E-01
      5.797  0.2984E-01  0.5962E-01  0.7519E-01
      5.863  0.5271E-02  0.1774E-01  0.2221E-01
      5.929  0.2034E-01  0.5330E-01  0.6504E-01
      5.995  0.6870E-01  0.5624E-01  0.9152E-01
      6.060  0.8478E-01  0.3034E-01  0.8319E-01
      6.126  0.6997E-01  0.3249E-01  0.6270E-01
      6.192  0.9731E-02  0.5357E-02  0.9213E-02
      6.258  0.2325E-02  0.3300E-02  0.2615E-02
      6.324  0.2601E-01  0.4531E-01  0.3385E-01
      6.390  0.2690E-01  0.6231E-01  0.4441E-01
      6.455  0.2872E-02  0.8654E-02  0.5959E-02
      6.521  0.2313E-04  0.7840E-04  0.5328E-04
      6.587  0.8730E-08  0.3048E-07  0.2065E-07
      6.653  0.1209E-12  0.4244E-12  0.2874E-12
      6.719  0.0000E+00  0.0000E+00  0.0000E+00
      6.785  0.0000E+00  0.0000E+00  0.0000E+00
      6.850  0.0000E+00  0.0000E+00  0.0000E+00
      6.916  0.0000E+00  0.0000E+00  0.0000E+00
      6.982  0.0000E+00  0.0000E+00  0.0000E+00
      7.048  0.0000E+00  0.0000E+00  0.0000E+00
      7.114  0.0000E+00  0.0000E+00  0.0000E+00
      7.179  0.0000E+00  0.0000E+00  0.0000E+00
      7.245  0.0000E+00  0.0000E+00  0.0000E+00
      7.24532538    -12.50397972  301      2.37588734      1.00000000
    -12.504  0.0000E+00  0.0000E+00  0.0000E+00
    -12.438  0.0000E+00  0.0000E+00  0.0000E+00
    -12.372  0.0000E+00  0.0000E+00  0.0000E+00
    -12.306  0.0000E+00  0.0000E+00  0.0000E+00
    -12.241  0.0000E+00  0.0000E+00  0.0000E+00
    -12.175  0.0000E+00  0.0000E+00  0.0000E+00
    -12.109  0.0000E+00  0.0000E+00  0.0000E+00
    -12.043  0.0000E+00  0.0000E+00  0.0000E+00
    -11.977  0.0000E+00  0.0000E+00  0.0000E+00
    -11.912  0.0000E+00  0.0000E+00  0.0000E+00
    -11.846  0.1208E-14  0.1963E-11  0.5401E-16
    -11.780  0.8990E-10  0.1542E-06  0.4050E-11
    -11.714  0.2380E-06  0.4341E-03  0.1082E-07
    -11.648  0.2547E-04  0.4998E-01  0.1174E-05
    -11.582  0.1569E-03  0.5634E+00  0.9538E-05
    -11.517  0.3510E-03  0.7015E+01  0.7327E-04
    -11.451  0.8411E-03  0.2513E+02  0.2614E-03
    -11.385  0.5497E-03  0.3794E+02  0.3406E-03
    -11.319  0.2339E-03  0.1518E+02  0.1065E-03
    -11.253  0.8811E-04  0.9814E+00  0.1386E-04
    -11.187  0.4385E-03  0.4184E+00  0.4808E-04
    -11.122  0.4806E-03  0.4375E+00  0.5317E-04
    -11.056  0.2709E-03  0.1655E+00  0.3424E-04
    -10.990  0.3275E-03  0.1866E+00  0.5011E-04
    -10.924  0.2768E-03  0.1141E+00  0.5116E-04
    -10.858  0.4955E-03  0.1620E+00  0.8010E-04
    -10.792  0.8509E-03  0.1741E+00  0.8111E-04
    -10.727  0.3459E-03  0.5306E-01  0.4668E-04
    -10.661  0.5710E-03  0.1102E+00  0.1270E-03
    -10.595  0.1760E-02  0.2139E+00  0.2787E-03
    -10.529  0.9424E-03  0.1283E+00  0.2660E-03
    -10.463  0.6247E-03  0.9492E-01  0.3173E-03
    -10.397  0.4612E-03  0.5433E-01  0.2148E-03
    -10.332  0.8025E-03  0.1109E+00  0.4463E-03
    -10.266  0.6710E-03  0.7998E-01  0.5161E-03
    -10.200  0.2219E-03  0.1688E-01  0.2223E-03
    -10.134  0.5959E-03  0.3664E-01  0.3570E-03
    -10.068  0.5257E-03  0.3739E-01  0.3431E-03
    -10.002  0.3223E-03  0.1761E-01  0.2639E-03
     -9.937  0.1114E-02  0.4870E-01  0.5097E-03
     -9.871  0.1261E-02  0.6480E-01  0.7501E-03
     -9.805  0.9753E-03  0.6921E-01  0.7990E-03
     -9.739  0.9830E-03  0.7976E-01  0.1152E-02
     -9.673  0.1514E-02  0.7519E-01  0.1583E-02
     -9.607  0.1765E-02  0.8135E-01  0.2090E-02
     -9.542  0.6511E-03  0.3706E-01  0.9783E-03
     -9.476  0.5443E-03  0.3206E-01  0.9875E-03
     -9.410  0.1693E-03  0.9804E-02  0.3038E-03
     -9.344  0.3268E-05  0.1897E-03  0.5857E-05
     -9.278  0.2666E-08  0.1553E-06  0.4777E-08
     -9.212  0.7846E-13  0.4586E-11  0.1406E-12
     -9.147  0.4279E-19  0.2617E-17  0.7652E-19
     -9.081  0.0000E+00  0.0000E+00  0.0000E+00
     -9.015  0.0000E+00  0.0000E+00  0.0000E+00
     -8.949  0.0000E+00  0.0000E+00  0.0000E+00
     -8.883  0.0000E+00  0.0000E+00  0.0000E+00
     -8.817  0.0000E+00  0.0000E+00  0.0000E+00
     -8.752  0.0000E+00  0.0000E+00  0.0000E+00
     -8.686  0.0000E+00  0.0000E+00  0.0000E+00
     -8.620  0.0000E+00  0.0000E+00  0.0000E+00
     -8.554  0.9309E-15  0.2197E-13  0.7768E-15
     -8.488  0.5163E-10  0.1218E-08  0.4309E-10
     -8.422  0.1016E-06  0.2398E-05  0.8481E-07
     -8.357  0.8198E-05  0.1937E-03  0.6863E-05
     -8.291  0.4771E-04  0.1108E-02  0.4245E-04
     -8.225  0.1824E-03  0.3151E-02  0.1744E-03
     -8.159  0.2224E-03  0.3346E-02  0.2234E-03
     -8.093  0.7691E-04  0.1491E-02  0.1108E-03
     -8.027  0.1672E-03  0.2380E-02  0.2772E-03
     -7.962  0.1236E-03  0.2720E-02  0.3858E-03
     -7.896  0.1079E-03  0.2462E-02  0.3108E-03
     -7.830  0.1015E-03  0.1510E-02  0.2202E-03
     -7.764  0.1107E-03  0.2115E-02  0.2570E-03
     -7.698  0.1408E-03  0.2369E-02  0.2560E-03
     -7.632  0.4773E-03  0.3329E-02  0.3093E-03
     -7.567  0.7273E-03  0.4495E-02  0.3556E-03
     -7.501  0.9564E-03  0.5998E-02  0.4638E-03
     -7.435  0.8700E-03  0.4707E-02  0.4339E-03
     -7.369  0.4178E-03  0.2458E-02  0.2467E-03
     -7.303  0.3281E-03  0.2087E-02  0.2039E-03
     -7.237  0.1566E-03  0.1074E-02  0.1120E-03
     -7.172  0.3038E-03  0.1696E-02  0.1697E-03
     -7.106  0.1856E-03  0.8810E-03  0.8130E-04
     -7.040  0.1631E-03  0.1184E-02  0.1102E-03
     -6.974  0.2807E-03  0.1601E-02  0.1449E-03
     -6.908  0.3688E-03  0.1150E-02  0.3465E-04
     -6.843  0.8146E-03  0.2129E-02  0.4270E-04
     -6.777  0.2719E-03  0.9404E-03  0.4207E-04
     -6.711  0.6815E-03  0.2551E-02  0.1419E-03
     -6.645  0.7233E-03  0.1835E-02  0.8965E-04