       N       E                     dE             d eps       ncg     rms          rms(c)
DAV:   1     0.737039803977E+03    0.73704E+03   -0.42837E+04  1176   0.834E+02
DAV:   2    -0.268408193636E+02   -0.76388E+03   -0.74285E+03  1456   0.200E+02
DAV:   3    -0.103582632585E+03   -0.76742E+02   -0.75933E+02  1400   0.620E+01
DAV:   4    -0.106012071181E+03   -0.24294E+01   -0.24174E+01  1694   0.113E+01
DAV:   5    -0.106048318198E+03   -0.36247E-01   -0.36207E-01  1428   0.146E+00    0.141E+01
DAV:   6    -0.100740050208E+03    0.53083E+01   -0.99885E+00  1386   0.787E+00    0.774E+00
DAV:   7    -0.100830530265E+03   -0.90480E-01   -0.38711E+00  1330   0.392E+00    0.492E+00
DAV:   8    -0.100847519356E+03   -0.16989E-01   -0.27244E-01  1568   0.141E+00    0.220E+00
DAV:   9    -0.100864789950E+03   -0.17271E-01   -0.59869E-02  1372   0.778E-01    0.447E-01
DAV:  10    -0.100866641397E+03   -0.18514E-02   -0.94500E-03  1498   0.219E-01    0.268E-01
DAV:  11    -0.100869000030E+03   -0.23586E-02   -0.27354E-03  1414   0.158E-01    0.911E-02
DAV:  12    -0.100869653409E+03   -0.65338E-03   -0.10155E-03  1442   0.815E-02    0.484E-02
DAV:  13    -0.100869975776E+03   -0.32237E-03   -0.37931E-04  1134   0.479E-02    0.294E-02
DAV:  14    -0.100870055537E+03   -0.79760E-04   -0.96081E-05  1064   0.252E-02
   1 F= -.10087006E+03 E0= -.10087006E+03  d E =-.100870E+03
       N       E                     dE             d eps       ncg     rms          rms(c)
DAV:   1    -0.100885968674E+03   -0.15993E-01   -0.14041E-01  1344   0.928E-01    0.312E-01
DAV:   2    -0.100884279906E+03    0.16888E-02   -0.82614E-03  1400   0.227E-01    0.135E-01
DAV:   3    -0.100883739526E+03    0.54038E-03   -0.14572E-03  1358   0.871E-02    0.577E-02
DAV:   4    -0.100883623527E+03    0.11600E-03   -0.86652E-05   840   0.298E-02    0.309E-02
DAV:   5    -0.100883584182E+03    0.39345E-04   -0.10377E-04   840   0.261E-02
   2 F= -.10088358E+03 E0= -.10088358E+03  d E =-.135286E-01
       N       E                     dE             d eps       ncg     rms          rms(c)
DAV:   1    -0.100925377284E+03   -0.41754E-01   -0.12606E+00  1344   0.278E+00    0.935E-01
DAV:   2    -0.100910078829E+03    0.15298E-01   -0.73940E-02  1400   0.678E-01    0.409E-01
DAV:   3    -0.100905340679E+03    0.47382E-02   -0.13202E-02  1358   0.262E-01    0.173E-01
DAV:   4    -0.100904367282E+03    0.97340E-03   -0.89481E-04  1414   0.902E-02    0.944E-02
DAV:   5    -0.100904081061E+03    0.28622E-03   -0.79268E-04  1344   0.674E-02    0.497E-02
DAV:   6    -0.100904088464E+03   -0.74033E-05   -0.75768E-05   840   0.217E-02
   3 F= -.10090409E+03 E0= -.10090409E+03  d E =-.340329E-01
       N       E                     dE             d eps       ncg     rms          rms(c)
DAV:   1    -0.100905016819E+03   -0.93576E-03   -0.30722E-02  1344   0.433E-01    0.145E-01
DAV:   2    -0.100904657298E+03    0.35952E-03   -0.17682E-03  1400   0.105E-01    0.629E-02
DAV:   3    -0.100904539845E+03    0.11745E-03   -0.29711E-04   994   0.407E-02    0.273E-02
DAV:   4    -0.100904513844E+03    0.26001E-04   -0.39985E-05   840   0.196E-02
   4 F= -.10090451E+03 E0= -.10090451E+03  d E =-.344583E-01
       N       E                     dE             d eps       ncg     rms          rms(c)
DAV:   1    -0.100911708225E+03   -0.71684E-02   -0.13824E-01  1232   0.865E-01    0.195E-01
DAV:   2    -0.100911434034E+03    0.27419E-03   -0.68411E-03  1344   0.195E-01    0.986E-02
DAV:   3    -0.100911160374E+03    0.27366E-03   -0.38484E-04  1302   0.490E-02    0.586E-02
DAV:   4    -0.100911056723E+03    0.10365E-03   -0.27522E-04  1064   0.395E-02    0.206E-02
DAV:   5    -0.100911057722E+03   -0.99900E-06   -0.42987E-05   840   0.177E-02
   5 F= -.10091106E+03 E0= -.10091106E+03  d E =-.654388E-02
       N       E                     dE             d eps       ncg     rms          rms(c)
DAV:   1    -0.100932938353E+03   -0.21882E-01   -0.12396E+00  1176   0.259E+00    0.586E-01
DAV:   2    -0.100930484635E+03    0.24537E-02   -0.61733E-02  1344   0.586E-01    0.288E-01
DAV:   3    -0.100928000906E+03    0.24837E-02   -0.35768E-03  1428   0.148E-01    0.171E-01
DAV:   4    -0.100927092578E+03    0.90833E-03   -0.22811E-03  1428   0.109E-01    0.680E-02
DAV:   5    -0.100927072525E+03    0.20053E-04   -0.31688E-04  1218   0.440E-02
   6 F= -.10092707E+03 E0= -.10092707E+03  d E =-.225587E-01
       N       E                     dE             d eps       ncg     rms          rms(c)
DAV:   1    -0.100966873945E+03   -0.39781E-01   -0.49778E+00  1176   0.520E+00    0.119E+00
DAV:   2    -0.100956843529E+03    0.10030E-01   -0.24989E-01  1344   0.118E+00    0.576E-01
DAV:   3    -0.100946811182E+03    0.10032E-01   -0.14754E-02  1428   0.302E-01    0.341E-01
DAV:   4    -0.100943289769E+03    0.35214E-02   -0.89628E-03  1428   0.217E-01    0.139E-01
DAV:   5    -0.100943201515E+03    0.88254E-04   -0.12849E-03  1498   0.869E-02    0.605E-02
DAV:   6    -0.100943202672E+03   -0.11568E-05   -0.14050E-04   868   0.326E-02
   7 F= -.10094320E+03 E0= -.10094320E+03  d E =-.386888E-01
       N       E                     dE             d eps       ncg     rms          rms(c)
DAV:   1    -0.100946301316E+03   -0.30998E-02   -0.60760E-01  1176   0.182E+00    0.409E-01
DAV:   2    -0.100945145104E+03    0.11562E-02   -0.30530E-02  1344   0.413E-01    0.205E-01
DAV:   3    -0.100943937270E+03    0.12078E-02   -0.17410E-03  1428   0.104E-01    0.122E-01
DAV:   4    -0.100943493331E+03    0.44394E-03   -0.11415E-03  1428   0.770E-02    0.478E-02
DAV:   5    -0.100943486174E+03    0.71571E-05   -0.14095E-04   868   0.311E-02
   8 F= -.10094349E+03 E0= -.10094349E+03  d E =-.389723E-01
       N       E                     dE             d eps       ncg     rms          rms(c)
DAV:   1    -0.100948897124E+03   -0.54038E-02   -0.71013E-01  1176   0.197E+00    0.351E-01
DAV:   2    -0.100951330008E+03   -0.24329E-02   -0.39591E-02  1344   0.456E-01    0.155E-01
DAV:   3    -0.100950818335E+03    0.51167E-03   -0.84751E-04  1442   0.856E-02    0.106E-01
DAV:   4    -0.100950532209E+03    0.28613E-03   -0.70191E-04  1344   0.692E-02    0.393E-02
DAV:   5    -0.100950525631E+03    0.65776E-05   -0.13955E-04   896   0.325E-02
   9 F= -.10095053E+03 E0= -.10095053E+03  d E =-.703946E-02
       N       E                     dE             d eps       ncg     rms          rms(c)
DAV:   1    -0.100952613037E+03   -0.20808E-02   -0.61969E-01  1176   0.184E+00    0.331E-01
DAV:   2    -0.100954746629E+03   -0.21336E-02   -0.34686E-02  1344   0.426E-01    0.146E-01
DAV:   3    -0.100954303356E+03    0.44327E-03   -0.74674E-04  1442   0.798E-02    0.990E-02
DAV:   4    -0.100954057471E+03    0.24588E-03   -0.60343E-04  1344   0.641E-02    0.367E-02
DAV:   5    -0.100954051402E+03    0.60691E-05   -0.11954E-04   868   0.303E-02
  10 F= -.10095405E+03 E0= -.10095405E+03  d E =-.105652E-01
       N       E                     dE             d eps       ncg     rms          rms(c)
DAV:   1    -0.100948890470E+03    0.51670E-02   -0.24835E+00  1176   0.368E+00    0.660E-01
DAV:   2    -0.100957459636E+03   -0.85692E-02   -0.13922E-01  1344   0.856E-01    0.296E-01
DAV:   3    -0.100955688029E+03    0.17716E-02   -0.29897E-03  1442   0.160E-01    0.202E-01
DAV:   4    -0.100954704751E+03    0.98328E-03   -0.24151E-03  1428   0.128E-01    0.752E-02
DAV:   5    -0.100954680820E+03    0.23931E-04   -0.51551E-04  1344   0.594E-02
  11 F= -.10095468E+03 E0= -.10095468E+03  d E =-.111946E-01
       N       E                     dE             d eps       ncg     rms          rms(c)
DAV:   1    -0.100954848913E+03   -0.14416E-03   -0.35246E-01  1204   0.139E+00    0.240E-01
DAV:   2    -0.100956092012E+03   -0.12431E-02   -0.19515E-02  1344   0.322E-01    0.116E-01
DAV:   3    -0.100955843093E+03    0.24892E-03   -0.40268E-04  1414   0.580E-02    0.801E-02
DAV:   4    -0.100955691438E+03    0.15166E-03   -0.36051E-04  1148   0.492E-02    0.283E-02
DAV:   5    -0.100955688428E+03    0.30098E-05   -0.78711E-05   798   0.241E-02
  12 F= -.10095569E+03 E0= -.10095569E+03  d E =-.122023E-01
       N       E                     dE             d eps       ncg     rms          rms(c)
DAV:   1    -0.100962150341E+03   -0.64589E-02   -0.36069E-01  1190   0.142E+00    0.283E-01
DAV:   2    -0.100962409602E+03   -0.25926E-03   -0.21763E-02  1428   0.345E-01    0.144E-01
DAV:   3    -0.100962057268E+03    0.35233E-03   -0.15351E-03  1442   0.945E-02    0.931E-02
DAV:   4    -0.100961857093E+03    0.20017E-03   -0.24810E-04   994   0.431E-02    0.423E-02
DAV:   5    -0.100961812814E+03    0.44279E-04   -0.14096E-04   854   0.355E-02
  13 F= -.10096181E+03 E0= -.10096181E+03  d E =-.612439E-02
       N       E                     dE             d eps       ncg     rms          rms(c)
DAV:   1    -0.100963657537E+03   -0.18004E-02   -0.24756E-01  1176   0.118E+00    0.238E-01
DAV:   2    -0.100963836685E+03   -0.17915E-03   -0.15031E-02  1428   0.287E-01    0.120E-01
DAV:   3    -0.100963600137E+03    0.23655E-03   -0.10805E-03  1442   0.793E-02    0.752E-02
DAV:   4    -0.100963467557E+03    0.13258E-03   -0.15707E-04   840   0.353E-02    0.348E-02
DAV:   5    -0.100963439083E+03    0.28475E-04   -0.11070E-04   840   0.310E-02
  14 F= -.10096344E+03 E0= -.10096344E+03  d E =-.775065E-02
       N       E                     dE             d eps       ncg     rms          rms(c)
DAV:   1    -0.100966760205E+03   -0.32926E-02   -0.25905E-01  1176   0.121E+00    0.230E-01
DAV:   2    -0.100967402068E+03   -0.64186E-03   -0.14838E-02  1414   0.276E-01    0.104E-01
DAV:   3    -0.100967215378E+03    0.18669E-03   -0.41605E-04  1470   0.538E-02    0.707E-02
DAV:   4    -0.100967114299E+03    0.10108E-03   -0.15417E-04   840   0.355E-02    0.230E-02
DAV:   5    -0.100967110218E+03    0.40807E-05   -0.58809E-05   798   0.226E-02
  15 F= -.10096711E+03 E0= -.10096711E+03  d E =-.367114E-02
       N       E                     dE             d eps       ncg     rms          rms(c)
DAV:   1    -0.100967891031E+03   -0.77673E-03   -0.52941E-01  1176   0.173E+00    0.329E-01
DAV:   2    -0.100969203851E+03   -0.13128E-02   -0.30313E-02  1414   0.395E-01    0.149E-01
DAV:   3    -0.100968821556E+03    0.38229E-03   -0.84365E-04  1484   0.765E-02    0.101E-01
DAV:   4    -0.100968617751E+03    0.20381E-03   -0.35024E-04  1246   0.507E-02    0.329E-02
DAV:   5    -0.100968605623E+03    0.12128E-04   -0.71661E-05   840   0.260E-02
  16 F= -.10096861E+03 E0= -.10096861E+03  d E =-.516654E-02
       N       E                     dE             d eps       ncg     rms          rms(c)
DAV:   1    -0.100970490397E+03   -0.18726E-02   -0.33924E-01  1176   0.139E+00    0.266E-01
DAV:   2    -0.100971044846E+03   -0.55445E-03   -0.19319E-02  1386   0.320E-01    0.117E-01
DAV:   3    -0.100970759368E+03    0.28548E-03   -0.70188E-04  1456   0.661E-02    0.712E-02
DAV:   4    -0.100970640170E+03    0.11920E-03   -0.20121E-04   938   0.376E-02    0.296E-02
DAV:   5    -0.100970632245E+03    0.79250E-05   -0.80164E-05   826   0.234E-02
  17 F= -.10097063E+03 E0= -.10097063E+03  d E =-.202662E-02
       N       E                     dE             d eps       ncg     rms          rms(c)
DAV:   1    -0.100970667977E+03   -0.27807E-04   -0.15378E-02  1246   0.297E-01    0.584E-02
DAV:   2    -0.100970692174E+03   -0.24198E-04   -0.87562E-04  1372   0.681E-02
  18 F= -.10097069E+03 E0= -.10097069E+03  d E =-.208655E-02
       N       E                     dE             d eps       ncg     rms          rms(c)
DAV:   1    -0.100973319261E+03   -0.26513E-02   -0.28135E-01  1176   0.128E+00    0.239E-01
DAV:   2    -0.100973673275E+03   -0.35401E-03   -0.14994E-02  1400   0.287E-01    0.114E-01
DAV:   3    -0.100973358324E+03    0.31495E-03   -0.55716E-04  1414   0.608E-02    0.714E-02
DAV:   4    -0.100973193637E+03    0.16469E-03   -0.20986E-04   868   0.418E-02    0.215E-02
DAV:   5    -0.100973183584E+03    0.10053E-04   -0.86865E-05   812   0.268E-02
  19 F= -.10097318E+03 E0= -.10097318E+03  d E =-.249141E-02
       N       E                     dE             d eps       ncg     rms          rms(c)
DAV:   1    -0.100973194871E+03   -0.12340E-05   -0.17677E-03  1288   0.102E-01    0.238E-02
DAV:   2    -0.100973196278E+03   -0.14075E-05   -0.91233E-05   756   0.231E-02
  20 F= -.10097320E+03 E0= -.10097320E+03  d E =-.250410E-02
       N       E                     dE             d eps       ncg     rms          rms(c)
DAV:   1    -0.100973413782E+03   -0.21891E-03   -0.14043E-01  1176   0.890E-01    0.167E-01
DAV:   2    -0.100973621504E+03   -0.20772E-03   -0.67967E-03  1400   0.196E-01    0.765E-02
DAV:   3    -0.100973508313E+03    0.11319E-03   -0.24711E-04  1162   0.413E-02    0.487E-02
DAV:   4    -0.100973448045E+03    0.60269E-04   -0.97869E-05   812   0.299E-02
  21 F= -.10097345E+03 E0= -.10097345E+03  d E =-.251766E-03
       N       E                     dE             d eps       ncg     rms          rms(c)
DAV:   1    -0.100973687285E+03   -0.17897E-03   -0.12195E-02  1218   0.263E-01    0.477E-02
DAV:   2    -0.100973707434E+03   -0.20149E-04   -0.59406E-04  1330   0.582E-02
  22 F= -.10097371E+03 E0= -.10097371E+03  d E =-.511156E-03
       N       E                     dE             d eps       ncg     rms          rms(c)
DAV:   1    -0.100973784613E+03   -0.97329E-04   -0.60615E-03  1218   0.184E-01    0.385E-02
DAV:   2    -0.100973772246E+03    0.12367E-04   -0.27006E-04  1148   0.405E-02
  23 F= -.10097377E+03 E0= -.10097377E+03  d E =-.575968E-03
       N       E                     dE             d eps       ncg     rms          rms(c)
DAV:   1    -0.100973690268E+03    0.94345E-04   -0.12225E-01  1176   0.816E-01    0.137E-01
DAV:   2    -0.100973898056E+03   -0.20779E-03   -0.48835E-03  1386   0.168E-01    0.594E-02
DAV:   3    -0.100973834546E+03    0.63510E-04   -0.14105E-04   896   0.325E-02
  24 F= -.10097383E+03 E0= -.10097383E+03  d E =-.622997E-04
       N       E                     dE             d eps       ncg     rms          rms(c)
DAV:   1    -0.100973852127E+03    0.45929E-04   -0.29097E-03  1204   0.129E-01    0.238E-02
DAV:   2    -0.100973862399E+03   -0.10272E-04   -0.13470E-04   630   0.291E-02
  25 F= -.10097386E+03 E0= -.10097386E+03  d E =-.901525E-04
       N       E                     dE             d eps       ncg     rms          rms(c)
DAV:   1    -0.100973923624E+03   -0.71498E-04   -0.59223E-03  1176   0.179E-01    0.306E-02
DAV:   2    -0.100973927225E+03   -0.36004E-05   -0.22131E-04   910   0.369E-02
  26 F= -.10097393E+03 E0= -.10097393E+03  d E =-.154979E-03
       N       E                     dE             d eps       ncg     rms          rms(c)
DAV:   1    -0.100974187672E+03   -0.26405E-03   -0.87084E-02  1176   0.673E-01    0.991E-02
DAV:   2    -0.100974417231E+03   -0.22956E-03   -0.33426E-03  1428   0.137E-01    0.386E-02
DAV:   3    -0.100974393027E+03    0.24204E-04   -0.66787E-05   826   0.232E-02
  27 F= -.10097439E+03 E0= -.10097439E+03  d E =-.465802E-03
       N       E                     dE             d eps       ncg     rms          rms(c)
DAV:   1    -0.100974396253E+03    0.20978E-04   -0.74528E-03  1176   0.196E-01    0.290E-02
DAV:   2    -0.100974405424E+03   -0.91713E-05   -0.24793E-04  1050   0.387E-02
  28 F= -.10097441E+03 E0= -.10097441E+03  d E =-.478200E-03
       N       E                     dE             d eps       ncg     rms          rms(c)
DAV:   1    -0.100974551255E+03   -0.15500E-03   -0.79656E-02  1176   0.645E-01    0.975E-02
DAV:   2    -0.100974739875E+03   -0.18862E-03   -0.31428E-03  1442   0.133E-01    0.440E-02
DAV:   3    -0.100974708357E+03    0.31518E-04   -0.75182E-05   840   0.246E-02
  29 F= -.10097471E+03 E0= -.10097471E+03  d E =-.302933E-03
       N       E                     dE             d eps       ncg     rms          rms(c)
DAV:   1    -0.100974708871E+03    0.31004E-04   -0.56569E-03  1176   0.174E-01    0.295E-02
DAV:   2    -0.100974730707E+03   -0.21836E-04   -0.25231E-04   868   0.382E-02
  30 F= -.10097473E+03 E0= -.10097473E+03  d E =-.325282E-03
       N       E                     dE             d eps       ncg     rms          rms(c)
DAV:   1    -0.100974942371E+03   -0.23350E-03   -0.52365E-02  1176   0.529E-01    0.779E-02
DAV:   2    -0.100975113474E+03   -0.17110E-03   -0.22555E-03  1414   0.111E-01    0.284E-02
DAV:   3    -0.100975097169E+03    0.16305E-04   -0.38638E-05   840   0.177E-02
  31 F= -.10097510E+03 E0= -.10097510E+03  d E =-.366462E-03
       N       E                     dE             d eps       ncg     rms          rms(c)
DAV:   1    -0.100975085502E+03    0.27972E-04   -0.57446E-05   826   0.185E-02    0.628E-03
DAV:   2    -0.100975085070E+03    0.43197E-06   -0.58091E-06   714   0.660E-03
  32 F= -.10097509E+03 E0= -.10097509E+03  d E =-.354364E-03
       N       E                     dE             d eps       ncg     rms          rms(c)
DAV:   1    -0.100975086649E+03   -0.11467E-05   -0.45178E-05   714   0.164E-02    0.267E-03
DAV:   2    -0.100975087119E+03   -0.46953E-06   -0.54067E-06   686   0.643E-03
  33 F= -.10097509E+03 E0= -.10097509E+03  d E =-.356412E-03
       N       E                     dE             d eps       ncg     rms          rms(c)
DAV:   1    -0.100975275974E+03   -0.18932E-03   -0.15242E-02  1176   0.285E-01    0.420E-02
DAV:   2    -0.100975312581E+03   -0.36607E-04   -0.63721E-04  1344   0.595E-02
  34 F= -.10097531E+03 E0= -.10097531E+03  d E =-.225462E-03
       N       E                     dE             d eps       ncg     rms          rms(c)
DAV:   1    -0.100975308423E+03   -0.32449E-04   -0.33772E-05   714   0.153E-02    0.118E-02
DAV:   2    -0.100975307601E+03    0.82205E-06   -0.74514E-06   672   0.725E-03
  35 F= -.10097531E+03 E0= -.10097531E+03  d E =-.220482E-03
       N       E                     dE             d eps       ncg     rms          rms(c)
DAV:   1    -0.100975469145E+03   -0.16072E-03   -0.75080E-03  1176   0.201E-01    0.276E-02
DAV:   2    -0.100975492963E+03   -0.23818E-04   -0.32766E-04  1218   0.428E-02
  36 F= -.10097549E+03 E0= -.10097549E+03  d E =-.185362E-03
       N       E                     dE             d eps       ncg     rms          rms(c)
DAV:   1    -0.100975517832E+03   -0.48687E-04   -0.12472E-03  1176   0.813E-02    0.114E-02
DAV:   2    -0.100975519230E+03   -0.13982E-05   -0.46665E-05   672   0.172E-02
  37 F= -.10097552E+03 E0= -.10097552E+03  d E =-.211629E-03
       N       E                     dE             d eps       ncg     rms          rms(c)
DAV:   1    -0.100975676506E+03   -0.15867E-03   -0.53413E-03  1176   0.175E-01    0.338E-02
DAV:   2    -0.100975676359E+03    0.14670E-06   -0.25146E-04  1022   0.383E-02
  38 F= -.10097568E+03 E0= -.10097568E+03  d E =-.157129E-03
       N       E                     dE             d eps       ncg     rms          rms(c)
DAV:   1    -0.100975668443E+03    0.80631E-05   -0.25479E-05   672   0.134E-02    0.100E-02
DAV:   2    -0.100975666226E+03    0.22167E-05   -0.61000E-06   630   0.633E-03
  39 F= -.10097567E+03 E0= -.10097567E+03  d E =-.146996E-03
