 vasp.5.4.4.18Apr17-6-g9f103f2a35 (build Oct 27 2022 13:04:57) complex          
  
 executed on             LinuxIFC date 2024.06.29  20:04:36
 running on   14 total cores
 distrk:  each k-point on   14 cores,    1 groups
 distr:  one band on NCORES_PER_BAND=   1 cores,   14 groups


--------------------------------------------------------------------------------------------------------


 INCAR:
 POTCAR:    PAW_PBE K_pv 17Jan2003                
 POTCAR:    PAW_PBE Bi 08Apr2002                  
 POTCAR:    PAW_PBE Se 06Sep2000                  

 ----------------------------------------------------------------------------- 
|                                                                             |
|           W    W    AA    RRRRR   N    N  II  N    N   GGGG   !!!           |
|           W    W   A  A   R    R  NN   N  II  NN   N  G    G  !!!           |
|           W    W  A    A  R    R  N N  N  II  N N  N  G       !!!           |
|           W WW W  AAAAAA  RRRRR   N  N N  II  N  N N  G  GGG   !            |
|           WW  WW  A    A  R   R   N   NN  II  N   NN  G    G                |
|           W    W  A    A  R    R  N    N  II  N    N   GGGG   !!!           |
|                                                                             |
|      For optimal performance we recommend to set                            |
|        NCORE= 4 - approx SQRT( number of cores)                             |
|      NCORE specifies how many cores store one orbital (NPAR=cpu/NCORE).     |
|      This setting can  greatly improve the performance of VASP for DFT.     |
|      The default,   NCORE=1            might be grossly inefficient         |
|      on modern multi-core architectures or massively parallel machines.     |
|      Do your own testing !!!!                                               |
|      Unfortunately you need to use the default for GW and RPA calculations. |
|      (for HF NCORE is supported but not extensively tested yet)             |
|                                                                             |
 ----------------------------------------------------------------------------- 

 POTCAR:    PAW_PBE K_pv 17Jan2003                
   VRHFIN =K:  p6s1                                                             
   LEXCH  = PE                                                                  
   EATOM  =   450.4813 eV,   33.1094 Ry                                         
                                                                                
   TITEL  = PAW_PBE K_pv 17Jan2003                                              
   LULTRA =        F    use ultrasoft PP ?                                      
   IUNSCR =        1    unscreen: 0-lin 1-nonlin 2-no                           
   RPACOR =    2.500    partial core radius                                     
   POMASS =   39.098; ZVAL   =    7.000    mass and valenz                      
   RCORE  =    3.100    outmost cutoff radius                                   
   RWIGS  =    4.300; RWIGS  =    2.275    wigner-seitz radius (au A)           
   ENMAX  =  116.731; ENMIN  =   87.548 eV                                      
   RCLOC  =    2.806    cutoff for local pot                                    
   LCOR   =        T    correct aug charges                                     
   LPAW   =        T    paw PP                                                  
   EAUG   =  291.424                                                            
   DEXC   =    0.000                                                            
   RMAX   =    3.171    core radius for proj-oper                               
   RAUG   =    1.300    factor for augmentation sphere                          
   RDEP   =    3.267    radius for radial grids                                 
   RDEPT  =    2.513    core radius for aug-charge                              
                                                                                
   Atomic configuration                                                         
    7 entries                                                                   
     n  l   j            E        occ.                                          
     1  0  0.50     -3522.0595   2.0000                                         
     2  0  0.50      -353.3851   2.0000                                         
     2  1  1.50      -280.0935   6.0000                                         
     3  0  0.50       -35.3419   2.0000                                         
     3  1  1.50       -18.8125   6.0000                                         
     4  0  0.50        -2.3190   1.0000                                         
     3  2  1.50        -1.3606   0.0000                                         
   Description                                                                  
     l       E           TYP  RCUT    TYP  RCUT                                 
     1    -18.8124623     23  3.000                                             
     1    -20.4087390     23  3.000                                             
     0     -2.3190215     23  3.100                                             
     0     20.4087390     23  3.100                                             
     2     -1.3605826     23  3.000                                             
  local pseudopotential read in
  partial core-charges read in
  partial kinetic energy density read in
  atomic valenz-charges read in
  non local Contribution for L=           1  read in
    real space projection operators read in
  non local Contribution for L=           1  read in
    real space projection operators read in
  non local Contribution for L=           0  read in
    real space projection operators read in
  non local Contribution for L=           0  read in
    real space projection operators read in
  non local Contribution for L=           2  read in
    real space projection operators read in
    PAW grid and wavefunctions read in
 
   number of l-projection  operators is LMAX  =           5
   number of lm-projection operators is LMMAX =          13
 
 POTCAR:    PAW_PBE Bi 08Apr2002                  
   VRHFIN =Bi:                                                                  
   LEXCH  = PE                                                                  
   EATOM  =   150.8133 eV,   11.0845 Ry                                         
                                                                                
   TITEL  = PAW_PBE Bi 08Apr2002                                                
   LULTRA =        F    use ultrasoft PP ?                                      
   IUNSCR =        1    unscreen: 0-lin 1-nonlin 2-no                           
   RPACOR =    2.200    partial core radius                                     
   POMASS =  208.980; ZVAL   =    5.000    mass and valenz                      
   RCORE  =    3.000    outmost cutoff radius                                   
   RWIGS  =    3.090; RWIGS  =    1.635    wigner-seitz radius (au A)           
   ENMAX  =  105.037; ENMIN  =   78.777 eV                                      
   ICORE  =        3    local potential                                         
   LCOR   =        T    correct aug charges                                     
   LPAW   =        T    paw PP                                                  
   EAUG   =  265.427                                                            
   DEXC   =    0.000                                                            
   RMAX   =    3.067    core radius for proj-oper                               
   RAUG   =    1.300    factor for augmentation sphere                          
   RDEP   =    3.012    radius for radial grids                                 
   RDEPT  =    2.604    core radius for aug-charge                              
                                                                                
   Atomic configuration                                                         
   17 entries                                                                   
     n  l   j            E        occ.                                          
     1  0  0.50    -90639.6582   2.0000                                         
     2  0  0.50    -16282.4667   2.0000                                         
     2  1  1.50    -13922.8287   6.0000                                         
     3  0  0.50     -3930.4763   2.0000                                         
     3  1  1.50     -3256.7013   6.0000                                         
     3  2  2.50     -2581.6169  10.0000                                         
     4  0  0.50      -902.2614   2.0000                                         
     4  1  1.50      -681.5915   6.0000                                         
     4  2  2.50      -429.8249  10.0000                                         
     4  3  3.50      -152.6004  14.0000                                         
     5  0  0.50      -157.7156   2.0000                                         
     5  1  1.50       -95.8054   6.0000                                         
     5  2  2.50       -27.0806  10.0000                                         
     6  0  0.50       -14.4732   2.0000                                         
     6  1  1.50        -4.5702   3.0000                                         
     6  2  2.50        -2.7212   0.0000                                         
     5  3  2.50        -2.7212   0.0000                                         
   Description                                                                  
     l       E           TYP  RCUT    TYP  RCUT                                 
     0    -14.4732299     23  3.000                                             
     0    -12.2452434     23  3.000                                             
     1     -4.5701666     23  3.000                                             
     1    -13.6058260     23  3.000                                             
     2     -2.7211652     23  3.000                                             
     3     -1.3605826      7  3.000                                             
  local pseudopotential read in
  partial core-charges read in
  partial kinetic energy density read in
  kinetic energy density of atom read in
  atomic valenz-charges read in
  non local Contribution for L=           0  read in
    real space projection operators read in
  non local Contribution for L=           0  read in
    real space projection operators read in
  non local Contribution for L=           1  read in
    real space projection operators read in
  non local Contribution for L=           1  read in
    real space projection operators read in
  non local Contribution for L=           2  read in
    real space projection operators read in
    PAW grid and wavefunctions read in
 
   number of l-projection  operators is LMAX  =           5
   number of lm-projection operators is LMMAX =          13
 
 POTCAR:    PAW_PBE Se 06Sep2000                  
   VRHFIN =Se: s2p4                                                             
   LEXCH  = PE                                                                  
   EATOM  =   257.1286 eV,   18.8984 Ry                                         
                                                                                
   TITEL  = PAW_PBE Se 06Sep2000                                                
   LULTRA =        F    use ultrasoft PP ?                                      
   IUNSCR =        1    unscreen: 0-lin 1-nonlin 2-no                           
   RPACOR =    1.900    partial core radius                                     
   POMASS =   78.960; ZVAL   =    6.000    mass and valenz                      
   RCORE  =    2.100    outmost cutoff radius                                   
   RWIGS  =    2.200; RWIGS  =    1.164    wigner-seitz radius (au A)           
   ENMAX  =  211.555; ENMIN  =  158.666 eV                                      
   ICORE  =        3    local potential                                         
   LCOR   =        T    correct aug charges                                     
   LPAW   =        T    paw PP                                                  
   EAUG   =  446.842                                                            
   DEXC   =    0.000                                                            
   RMAX   =    2.147    core radius for proj-oper                               
   RAUG   =    1.300    factor for augmentation sphere                          
   RDEP   =    2.177    radius for radial grids                                 
   RDEPT  =    1.928    core radius for aug-charge                              
                                                                                
   Atomic configuration                                                         
   10 entries                                                                   
     n  l   j            E        occ.                                          
     1  0  0.50    -12503.4787   2.0000                                         
     2  0  0.50     -1606.9547   2.0000                                         
     2  1  1.50     -1413.3140   6.0000                                         
     3  0  0.50      -213.4885   2.0000                                         
     3  1  1.50      -152.9538   6.0000                                         
     3  2  2.50       -53.1221  10.0000                                         
     4  0  0.50       -17.2865   2.0000                                         
     4  1  0.50        -6.5110   4.0000                                         
     4  2  2.50        -6.8029   0.0000                                         
     4  3  2.50        -6.8029   0.0000                                         
   Description                                                                  
     l       E           TYP  RCUT    TYP  RCUT                                 
     0    -17.2865377     23  2.100                                             
     0    -15.3094411     23  2.100                                             
     1     -6.5110275     23  2.100                                             
     1     -0.0695192     23  2.100                                             
     2     -6.8029130     23  2.100                                             
     3     -1.3605826      7  2.100                                             
  local pseudopotential read in
  partial core-charges read in
  partial kinetic energy density read in
  atomic valenz-charges read in
  non local Contribution for L=           0  read in
    real space projection operators read in
  non local Contribution for L=           0  read in
    real space projection operators read in
  non local Contribution for L=           1  read in
    real space projection operators read in
  non local Contribution for L=           1  read in
    real space projection operators read in
  non local Contribution for L=           2  read in
    real space projection operators read in
    PAW grid and wavefunctions read in
 
   number of l-projection  operators is LMAX  =           5
   number of lm-projection operators is LMMAX =          13
 
 Optimization of the real space projectors (new method)

 maximal supplied QI-value         = 12.09
 optimisation between [QCUT,QGAM] = [  8.83, 17.66] = [ 21.83, 87.31] Ry 
 Optimized for a Real-space Cutoff    1.69 Angstroem

   l    n(q)    QCUT    max X(q) W(low)/X(q) W(high)/X(q)  e(spline) 
   1      8     8.829    42.457    0.27E-03    0.59E-03    0.25E-06
   1      8     8.829    43.305    0.28E-03    0.61E-03    0.26E-06
   0      9     8.829    47.210    0.17E-02    0.12E-03    0.43E-06
   0      9     8.829    15.951    0.11E-02    0.76E-04    0.28E-06
   2      8     8.829     5.674    0.29E-03    0.69E-04    0.39E-07
 Optimization of the real space projectors (new method)

 maximal supplied QI-value         = 12.47
 optimisation between [QCUT,QGAM] = [  8.86, 17.71] = [ 21.96, 87.83] Ry 
 Optimized for a Real-space Cutoff    1.59 Angstroem

   l    n(q)    QCUT    max X(q) W(low)/X(q) W(high)/X(q)  e(spline) 
   0      8     8.855    93.365    0.12E-03    0.22E-03    0.92E-07
   0      8     8.855    75.373    0.13E-03    0.24E-03    0.10E-06
   1      8     8.855    32.978    0.17E-02    0.62E-03    0.17E-06
   1      8     8.855    35.433    0.19E-02    0.68E-03    0.19E-06
   2      7     8.855     8.108    0.22E-03    0.34E-03    0.64E-07
 Optimization of the real space projectors (new method)

 maximal supplied QI-value         = 17.95
 optimisation between [QCUT,QGAM] = [  8.80, 17.59] = [ 21.67, 86.68] Ry 
 Optimized for a Real-space Cutoff    1.19 Angstroem

   l    n(q)    QCUT    max X(q) W(low)/X(q) W(high)/X(q)  e(spline) 
   0      6     8.797   133.320    0.14E-02    0.11E-02    0.95E-07
   0      6     8.797   111.601    0.15E-02    0.12E-02    0.10E-06
   1      6     8.797    47.222    0.19E-02    0.96E-03    0.11E-06
   1      6     8.797    33.775    0.19E-02    0.99E-03    0.11E-06
   2      5     8.797     3.720    0.16E-02    0.14E-02    0.40E-07
  PAW_PBE K_pv 17Jan2003                :
 energy of atom  1       EATOM= -450.4813
 kinetic energy error for atom=    0.0008 (will be added to EATOM!!)
  PAW_PBE Bi 08Apr2002                  :
 energy of atom  2       EATOM= -150.8133
 kinetic energy error for atom=    0.0003 (will be added to EATOM!!)
  PAW_PBE Se 06Sep2000                  :
 energy of atom  3       EATOM= -257.1286
 kinetic energy error for atom=    0.0040 (will be added to EATOM!!)
 
 
 POSCAR: K4 Bi8 Se14                             
  positions in direct lattice
  No initial velocities read in
 exchange correlation table for  LEXCH =        8
   RHO(1)=    0.500       N(1)  =     2000
   RHO(2)=  100.500       N(2)  =     4000
 


--------------------------------------------------------------------------------------------------------


 ion  position               nearest neighbor table
   1  0.250  0.563  0.814-  13 3.43  18 3.52  14 3.66  14 3.66  19 3.73  19 3.73  26 3.75  26 3.75
                            10 4.29   8 4.45   3 4.87   3 4.87
   2  0.750  0.437  0.186-  14 3.43  17 3.52  13 3.66  13 3.66  20 3.73  20 3.73  25 3.75  25 3.75
                             9 4.29   7 4.45   4 4.87   4 4.87
   3  0.750  0.825  0.624-  16 3.43  16 3.43  23 3.44  23 3.44  19 3.54  26 3.74   7 4.22   1 4.87
                             1 4.87
   4  0.250  0.175  0.376-  15 3.43  15 3.43  24 3.44  24 3.44  20 3.54  25 3.74   8 4.22   2 4.87
                             2 4.87
   5  0.250  0.836  0.279-  23 2.86  17 2.91  17 2.91  15 3.00  15 3.00  21 3.06
   6  0.750  0.164  0.721-  24 2.86  18 2.91  18 2.91  16 3.00  16 3.00  22 3.06
   7  0.750  0.608  0.430-  26 2.86  23 2.96  23 2.96  25 2.99  25 2.99  17 3.03   3 4.22   2 4.45

   8  0.250  0.392  0.570-  25 2.86  24 2.96  24 2.96  26 2.99  26 2.99  18 3.03   4 4.22   1 4.45

   9  0.750  0.730  0.049-  13 2.79  13 2.79  17 2.94  19 2.99  21 3.21  21 3.21   2 4.29
  10  0.250  0.270  0.951-  14 2.79  14 2.79  18 2.94  20 2.99  22 3.21  22 3.21   1 4.29
  11  0.250  0.941  0.876-  16 2.80  19 2.94  19 2.94  22 3.01  22 3.01  21 3.18
  12  0.750  0.059  0.124-  15 2.80  20 2.94  20 2.94  21 3.01  21 3.01  22 3.18
  13  0.250  0.594  0.037-   9 2.79   9 2.79   1 3.43   2 3.66   2 3.66
  14  0.750  0.406  0.963-  10 2.79  10 2.79   2 3.43   1 3.66   1 3.66
  15  0.750  0.994  0.302-  12 2.80   5 3.00   5 3.00   4 3.43   4 3.43
  16  0.250  0.006  0.698-  11 2.80   6 3.00   6 3.00   3 3.43   3 3.43
  17  0.750  0.693  0.241-   5 2.91   5 2.91   9 2.94   7 3.03   2 3.52
  18  0.250  0.307  0.759-   6 2.91   6 2.91  10 2.94   8 3.03   1 3.52
  19  0.750  0.789  0.856-  11 2.94  11 2.94   9 2.99   3 3.54   1 3.73   1 3.73
  20  0.250  0.211  0.144-  12 2.94  12 2.94  10 2.99   4 3.54   2 3.73   2 3.73
  21  0.250  0.906  0.084-  12 3.01  12 3.01   5 3.06  11 3.18   9 3.21   9 3.21
  22  0.750  0.094  0.916-  11 3.01  11 3.01   6 3.06  12 3.18  10 3.21  10 3.21
  23  0.250  0.759  0.459-   5 2.86   7 2.96   7 2.96   3 3.44   3 3.44
  24  0.750  0.241  0.541-   6 2.86   8 2.96   8 2.96   4 3.44   4 3.44
  25  0.250  0.458  0.388-   8 2.86   7 2.99   7 2.99   4 3.74   2 3.75   2 3.75
  26  0.750  0.542  0.612-   7 2.86   8 2.99   8 2.99   3 3.74   1 3.75   1 3.75
 
  LATTYP: Found a simple monoclinic cell.
 ALAT       =    20.6560840735
 B/A-ratio  =     0.2050218451
 C/A-ratio  =     1.5070814167
 COS(beta)  =    -0.9503182653
  
  Lattice vectors:
  
 A1 = (   0.0000000000, -13.9588148200, -15.2258102600)
 A2 = (  -4.2349484700,   0.0000000000,   0.0000000000)
 A3 = (   0.0000000000,  27.1347082800,  15.2580942000)


Analysis of symmetry for initial positions (statically):
=====================================================================
 Subroutine PRICEL returns:
 Original cell was already a primitive cell.
 

 Routine SETGRP: Setting up the symmetry group for a 
 simple monoclinic supercell.


 Subroutine GETGRP returns: Found  4 space group operations
 (whereof  2 operations were pure point group operations)
 out of a pool of  4 trial point group operations.


The static configuration has the point symmetry S_2 .
 The point group associated with its full space group is C_2h.


Analysis of symmetry for dynamics (positions and initial velocities):
=====================================================================
 Subroutine PRICEL returns:
 Original cell was already a primitive cell.
 

 Routine SETGRP: Setting up the symmetry group for a 
 simple monoclinic supercell.


 Subroutine GETGRP returns: Found  4 space group operations
 (whereof  2 operations were pure point group operations)
 out of a pool of  4 trial point group operations.


The dynamic configuration has the point symmetry S_2 .
 The point group associated with its full space group is C_2h.


 Subroutine INISYM returns: Found  4 space group operations
 (whereof  2 operations are pure point group operations),
 and found     1 'primitive' translations

 
 
 KPOINTS: pymatgen with grid density = 807 / numbe

Automatic generation of k-mesh.
Space group operators:
 irot       det(A)        alpha          n_x          n_y          n_z        tau_x        tau_y        tau_z
    1     1.000000     0.000000     1.000000     0.000000     0.000000     0.000000     0.000000     0.000000
    2    -1.000000     0.000000     1.000000     0.000000     0.000000     0.000000     0.000000     0.000000
    3     1.000000   180.000000     1.000000     0.000000     0.000000    -0.500000     0.000000     0.000000
    4    -1.000000   180.000000     1.000000     0.000000     0.000000    -0.500000     0.000000     0.000000
 
 Subroutine IBZKPT returns following result:
 ===========================================
 
 Found      6 irreducible k-points:
 
 Following reciprocal coordinates:
            Coordinates               Weight
  0.000000  0.250000  0.250000      2.000000
  0.200000  0.250000  0.250000      4.000000
  0.400000  0.250000  0.250000      4.000000
  0.000000 -0.250000  0.250000      2.000000
  0.200000 -0.250000  0.250000      4.000000
  0.400000 -0.250000  0.250000      4.000000
 
 Following cartesian coordinates:
            Coordinates               Weight
  0.000000  0.018936  0.015479      2.000000
  0.047226  0.018936  0.015479      4.000000
  0.094452  0.018936  0.015479      4.000000
  0.000000 -0.019017  0.017434      2.000000
  0.047226 -0.019017  0.017434      4.000000
  0.094452 -0.019017  0.017434      4.000000
 


--------------------------------------------------------------------------------------------------------




 Dimension of arrays:
   k-points           NKPTS =      6   k-points in BZ     NKDIM =      6   number of bands    NBANDS=     98
   number of dos      NEDOS =    301   number of ions     NIONS =     26
   non local maximal  LDIM  =      5   non local SUM 2l+1 LMDIM =     13
   total plane-waves  NPLWV =  64512
   max r-space proj   IRMAX =   1591   max aug-charges    IRDMAX=   4295
   dimension x,y,z NGX =    18 NGY =   56 NGZ =   64
   dimension x,y,z NGXF=    30 NGYF=   90 NGZF=  108
   support grid    NGXF=    30 NGYF=   90 NGZF=  108
   ions per type =               4   8  14
   NGX,Y,Z   is equivalent  to a cutoff of   7.07,  7.07,  6.99 a.u.
   NGXF,Y,Z  is equivalent  to a cutoff of  11.78, 11.36, 11.80 a.u.

 SYSTEM =  CIS                                     
 POSCAR =  K4 Bi8 Se14                             

 Startparameter for this run:
   NWRITE =      2    write-flag & timer
   PREC   = medium    normal or accurate (medium, high low for compatibility)
   ISTART =      0    job   : 0-new  1-cont  2-samecut
   ICHARG =      2    charge: 1-file 2-atom 10-const
   ISPIN  =      1    spin polarized calculation?
   LNONCOLLINEAR =      F non collinear calculations
   LSORBIT =      F    spin-orbit coupling
   INIWAV =      1    electr: 0-lowe 1-rand  2-diag
   LASPH  =      T    aspherical Exc in radial PAW
   METAGGA=      F    non-selfconsistent MetaGGA calc.

 Electronic Relaxation 1
   ENCUT  =  300.0 eV  22.05 Ry    4.70 a.u.   5.98 18.61 21.49*2*pi/ulx,y,z
   ENINI  =  300.0     initial cutoff
   ENAUG  =  446.8 eV  augmentation charge cutoff
   NELM   =     60;   NELMIN=  2; NELMDL= -5     # of ELM steps 
   EDIFF  = 0.1E-03   stopping-criterion for ELM
   LREAL  =      T    real-space projection
   NLSPLINE    = F    spline interpolate recip. space projectors
   LCOMPAT=      F    compatible to vasp.4.4
   GGA_COMPAT  = T    GGA compatible to vasp.4.4-vasp.4.6
   LMAXPAW     = -100 max onsite density
   LMAXMIX     =    4 max onsite mixed and CHGCAR
   VOSKOWN=      0    Vosko Wilk Nusair interpolation
   ROPT   =   -0.00200  -0.00200  -0.00200
 Ionic relaxation
   EDIFFG = -.5E-01   stopping-criterion for IOM
   NSW    =     99    number of steps for IOM
   NBLOCK =      1;   KBLOCK =     99    inner block; outer block 
   IBRION =      2    ionic relax: 0-MD 1-quasi-New 2-CG
   NFREE  =      1    steps in history (QN), initial steepest desc. (CG)
   ISIF   =      3    stress and relaxation
   IWAVPR =     11    prediction:  0-non 1-charg 2-wave 3-comb
   ISYM   =      2    0-nonsym 1-usesym 2-fastsym
   LCORR  =      T    Harris-Foulkes like correction to forces

   POTIM  = 0.1000    time-step for ionic-motion
   TEIN   =    0.0    initial temperature
   TEBEG  =    0.0;   TEEND  =   0.0 temperature during run
   SMASS  =  -3.00    Nose mass-parameter (am)
   estimated Nose-frequenzy (Omega)   =  0.10E-29 period in steps =****** mass=  -0.410E-27a.u.
   SCALEE = 1.0000    scale energy and forces
   NPACO  =    256;   APACO  = 16.0  distance and # of slots for P.C.
   PSTRESS=    0.0 pullay stress

  Mass of Ions in am
   POMASS =  39.10208.98 78.96
  Ionic Valenz
   ZVAL   =   7.00  5.00  6.00
  Atomic Wigner-Seitz radii
   RWIGS  =  -1.00 -1.00 -1.00
  virtual crystal weights 
   VCA    =   1.00  1.00  1.00
   NELECT =     152.0000    total number of electrons
   NUPDOWN=      -1.0000    fix difference up-down

 DOS related values:
   EMIN   =  10.00;   EMAX   =-10.00  energy-range for DOS
   EFERMI =   0.00
   ISMEAR =     0;   SIGMA  =   0.05  broadening in eV -4-tet -1-fermi 0-gaus

 Electronic relaxation 2 (details)
   IALGO  =     38    algorithm
   LDIAG  =      T    sub-space diagonalisation (order eigenvalues)
   LSUBROT=      F    optimize rotation matrix (better conditioning)
   TURBO    =      0    0=normal 1=particle mesh
   IRESTART =      0    0=no restart 2=restart with 2 vectors
   NREBOOT  =      0    no. of reboots
   NMIN     =      0    reboot dimension
   EREF     =   0.00    reference energy to select bands
   IMIX   =      4    mixing-type and parameters
     AMIX     =   0.40;   BMIX     =  1.00
     AMIX_MAG =   1.60;   BMIX_MAG =  1.00
     AMIN     =   0.10
     WC   =   100.;   INIMIX=   1;  MIXPRE=   1;  MAXMIX= -45

 Intra band minimization:
   WEIMIN = 0.0010     energy-eigenvalue tresh-hold
   EBREAK =  0.26E-06  absolut break condition
   DEPER  =   0.30     relativ break condition  

   TIME   =   0.40     timestep for ELM

  volume/ion in A,a.u.               =      32.60       220.02
  Fermi-wavevector in a.u.,A,eV,Ry     =   0.923164  1.744526 11.595309  0.852231
  Thomas-Fermi vector in A             =   2.048770
 
 Write flags
   LWAVE        =      F    write WAVECAR
   LDOWNSAMPLE  =      F    k-point downsampling of WAVECAR
   LCHARG       =      F    write CHGCAR
   LVTOT        =      F    write LOCPOT, total local potential
   LVHAR        =      F    write LOCPOT, Hartree potential only
   LELF         =      F    write electronic localiz. function (ELF)
   LORBIT       =     10    0 simple, 1 ext, 2 COOP (PROOUT), +10 PAW based schemes


 Dipole corrections
   LMONO  =      F    monopole corrections only (constant potential shift)
   LDIPOL =      F    correct potential (dipole corrections)
   IDIPOL =      0    1-x, 2-y, 3-z, 4-all directions 
   EPSILON=  1.0000000 bulk dielectric constant

 Exchange correlation treatment:
   GGA     =    --    GGA type
   LEXCH   =     8    internal setting for exchange type
   VOSKOWN=      0    Vosko Wilk Nusair interpolation
   LHFCALC =     F    Hartree Fock is set to
   LHFONE  =     F    Hartree Fock one center treatment
   AEXX    =    0.0000 exact exchange contribution

 Linear response parameters
   LEPSILON=     F    determine dielectric tensor
   LRPA    =     F    only Hartree local field effects (RPA)
   LNABLA  =     F    use nabla operator in PAW spheres
   LVEL    =     F    velocity operator in full k-point grid
   LINTERFAST=   F  fast interpolation
   KINTER  =     0    interpolate to denser k-point grid
   CSHIFT  =0.1000    complex shift for real part using Kramers Kronig
   OMEGAMAX=  -1.0    maximum frequency
   DEG_THRESHOLD= 0.2000000E-02 threshold for treating states as degnerate
   RTIME   =   -0.100 relaxation time in fs
  (WPLASMAI=    0.000 imaginary part of plasma frequency in eV, 0.658/RTIME)
   DFIELD  = 0.0000000 0.0000000 0.0000000 field for delta impulse in time
 
 Orbital magnetization related:
   ORBITALMAG=     F  switch on orbital magnetization
   LCHIMAG   =     F  perturbation theory with respect to B field
   DQ        =  0.001000  dq finite difference perturbation B field
   LLRAUG    =     F  two centre corrections for induced B field



--------------------------------------------------------------------------------------------------------


 conjugate gradient relaxation of ions
 charge density and potential will be updated during run
 non-spin polarized calculation
 Variant of blocked Davidson
 Davidson routine will perform the subspace rotation
 perform sub-space diagonalisation
    after iterative eigenvector-optimisation
 modified Broyden-mixing scheme, WC =      100.0
 initial mixing is a Kerker type mixing with AMIX =  0.4000 and BMIX =      1.0000
 Hartree-type preconditioning will be used
 using additional bands           22
 real space projection scheme for non local part
 use partial core corrections
 calculate Harris-corrections to forces 
   (improved forces if not selfconsistent)
 use gradient corrections 
 use of overlap-Matrix (Vanderbilt PP)
 Gauss-broadening in eV      SIGMA  =   0.05


--------------------------------------------------------------------------------------------------------


  energy-cutoff  :      300.00
  volume of cell :      847.68
      direct lattice vectors                 reciprocal lattice vectors
     4.234948470  0.000000000  0.000000000     0.236130382  0.000000000  0.000000000
     0.000000000 13.175893460  0.032283940     0.000000000  0.075905765 -0.003911419
     0.000000000  0.782921360 15.193526320     0.000000000 -0.000161288  0.065825817

  length of vectors
     4.234948470 13.175933011 15.213684889     0.236130382  0.076006476  0.065826014


 
 k-points in units of 2pi/SCALE and weight: pymatgen with grid density = 807 / numbe
   0.00000000  0.01893612  0.01547860       0.100
   0.04722608  0.01893612  0.01547860       0.200
   0.09445215  0.01893612  0.01547860       0.200
   0.00000000 -0.01901676  0.01743431       0.100
   0.04722608 -0.01901676  0.01743431       0.200
   0.09445215 -0.01901676  0.01743431       0.200
 
 k-points in reciprocal lattice and weights: pymatgen with grid density = 807 / numbe
   0.00000000  0.25000000  0.25000000       0.100
   0.20000000  0.25000000  0.25000000       0.200
   0.40000000  0.25000000  0.25000000       0.200
   0.00000000 -0.25000000  0.25000000       0.100
   0.20000000 -0.25000000  0.25000000       0.200
   0.40000000 -0.25000000  0.25000000       0.200
 
 position of ions in fractional coordinates (direct lattice) 
   0.25000000  0.56287362  0.81434274
   0.75000000  0.43712638  0.18565726
   0.75000000  0.82477716  0.62422061
   0.25000000  0.17522284  0.37577939
   0.25000000  0.83583609  0.27939005
   0.75000000  0.16416391  0.72060995
   0.75000000  0.60760829  0.43027165
   0.25000000  0.39239171  0.56972835
   0.75000000  0.73047871  0.04879347
   0.25000000  0.26952129  0.95120653
   0.25000000  0.94067172  0.87567108
   0.75000000  0.05932828  0.12432892
   0.25000000  0.59430441  0.03681554
   0.75000000  0.40569559  0.96318446
   0.75000000  0.99382978  0.30216774
   0.25000000  0.00617022  0.69783226
   0.75000000  0.69294834  0.24137769
   0.25000000  0.30705166  0.75862231
   0.75000000  0.78854610  0.85623793
   0.25000000  0.21145390  0.14376207
   0.25000000  0.90633944  0.08448382
   0.75000000  0.09366056  0.91551618
   0.25000000  0.75885563  0.45866794
   0.75000000  0.24114437  0.54133206
   0.25000000  0.45777002  0.38761582
   0.75000000  0.54222998  0.61238418
 
 position of ions in cartesian coordinates  (Angst):
   1.05873712  8.05392917 12.39090963
   3.17621135  5.90488565  2.83490063
   3.17621135 11.35589164  9.51073932
   1.05873712  2.60292318  5.71507094
   1.05873712 11.23162771  4.27190416
   3.17621135  2.72718711 10.95390610
   3.17621135  8.34265096  6.55695963
   1.05873712  5.61616386  8.66885063
   3.17621135  9.66291111  0.76492760
   1.05873712  4.29590371 14.46088266
   1.05873712 13.07977196 13.33490019
   3.17621135  0.87904286  1.89091007
   1.05873712  7.85931526  0.57854436
   3.17621135  6.09949956 14.64726590
   3.17621135 13.33116888  4.62307825
   1.05873712  0.62764594 10.60273201
   3.17621135  9.31919325  3.68974939
   1.05873712  4.63962157 11.53606087
   3.17621135 11.06016637 13.03473090
   1.05873712  2.89864845  2.19107936
   1.05873712 12.00797609  1.31286735
   3.17621135  1.95083873 13.91294291
   1.05873712 10.35770186  6.99328227
   3.17621135  3.60111296  8.23252799
   1.05873712  6.33500172  5.90402978
   3.17621135  7.62381310  9.32178048
 


--------------------------------------------------------------------------------------------------------


 k-point  1 :   0.0000 0.2500 0.2500  plane waves:    9937
 k-point  2 :   0.2000 0.2500 0.2500  plane waves:   10007
 k-point  3 :   0.4000 0.2500 0.2500  plane waves:   10028
 k-point  4 :   0.0000-0.2500 0.2500  plane waves:    9939
 k-point  5 :   0.2000-0.2500 0.2500  plane waves:    9984
 k-point  6 :   0.4000-0.2500 0.2500  plane waves:   10037

 maximum and minimum number of plane-waves per node :     10037     9937

 maximum number of plane-waves:     10037
 maximum index in each direction: 
   IXMAX=    5   IYMAX=   18   IZMAX=   21
   IXMIN=   -6   IYMIN=  -18   IZMIN=  -21


 serial   3D FFT for wavefunctions
 parallel 3D FFT for charge:
    minimum data exchange during FFTs selected (reduces bandwidth)


 total amount of memory used by VASP MPI-rank0    46248. kBytes
=======================================================================

   base      :      30000. kBytes
   nonlr-proj:       3343. kBytes
   fftplans  :       1227. kBytes
   grid      :       4488. kBytes
   one-center:        210. kBytes
   wavefun   :       6980. kBytes
 
     INWAV:  cpu time    0.0000: real time    0.0000
 Broyden mixing: mesh for mixing (old mesh)
   NGX = 11   NGY = 37   NGZ = 43
  (NGX  = 30   NGY  = 90   NGZ  =108)
  gives a total of  17501 points

 initial charge density was supplied:
 charge density of overlapping atoms calculated
 number of electron     152.0000000 magnetization 
 keeping initial charge density in first step


--------------------------------------------------------------------------------------------------------


 Maximum index for non-local projection operator         1498
 Maximum index for augmentation-charges          420 (set IRDMAX)


--------------------------------------------------------------------------------------------------------


 First call to EWALD:  gamma=   0.187
 Maximum number of real-space cells 6x 2x 2
 Maximum number of reciprocal cells 1x 4x 4

    FEWALD:  cpu time    0.0020: real time    0.0020


--------------------------------------- Iteration      1(   1)  ---------------------------------------


    POTLOK:  cpu time    0.0155: real time    0.0156
    SETDIJ:  cpu time    0.2411: real time    0.2414
     EDDAV:  cpu time    0.7328: real time    0.7335
       DOS:  cpu time    0.0004: real time    0.0005
    --------------------------------------------
      LOOP:  cpu time    0.9898: real time    0.9910

 eigenvalue-minimisations  :  1176
 total energy-change (2. order) : 0.7370398E+03  (-0.4283664E+04)
 number of electron     152.0000000 magnetization 
 augmentation part      152.0000000 magnetization 

 Free energy of the ion-electron system (eV)
  ---------------------------------------------------
  alpha Z        PSCENC =       298.50310769
  Ewald energy   TEWEN  =     -5517.37249997
  -Hartree energ DENC   =     -1059.71632690
  -exchange      EXHF   =         0.00000000
  -V(xc)+E(xc)   XCENC  =      -846.41683030
  PAW double counting   =      6098.70958045    -4957.31273529
  entropy T*S    EENTRO =        -0.00174269
  eigenvalues    EBANDS =       112.47702582
  atomic energy  EATOM  =      6608.17022516
  Solvation  Ediel_sol  =         0.00000000
  ---------------------------------------------------
  free energy    TOTEN  =       737.03980398 eV

  energy without entropy =      737.04154667  energy(sigma->0) =      737.04067532


--------------------------------------------------------------------------------------------------------




--------------------------------------- Iteration      1(   2)  ---------------------------------------


     EDDAV:  cpu time    1.0895: real time    1.0909
       DOS:  cpu time    0.0002: real time    0.0002
    --------------------------------------------
      LOOP:  cpu time    1.0897: real time    1.0911

 eigenvalue-minimisations  :  1456
 total energy-change (2. order) :-0.7638806E+03  (-0.7428502E+03)
 number of electron     152.0000000 magnetization 
 augmentation part      152.0000000 magnetization 

 Free energy of the ion-electron system (eV)
  ---------------------------------------------------
  alpha Z        PSCENC =       298.50310769
  Ewald energy   TEWEN  =     -5517.37249997
  -Hartree energ DENC   =     -1059.71632690
  -exchange      EXHF   =         0.00000000
  -V(xc)+E(xc)   XCENC  =      -846.41683030
  PAW double counting   =      6098.70958045    -4957.31273529
  entropy T*S    EENTRO =        -0.00000000
  eigenvalues    EBANDS =      -651.40534021
  atomic energy  EATOM  =      6608.17022516
  Solvation  Ediel_sol  =         0.00000000
  ---------------------------------------------------
  free energy    TOTEN  =       -26.84081936 eV

  energy without entropy =      -26.84081936  energy(sigma->0) =      -26.84081936


--------------------------------------------------------------------------------------------------------




--------------------------------------- Iteration      1(   3)  ---------------------------------------


     EDDAV:  cpu time    0.8417: real time    0.8435
       DOS:  cpu time    0.0002: real time    0.0002
    --------------------------------------------
      LOOP:  cpu time    0.8420: real time    0.8437

 eigenvalue-minimisations  :  1400
 total energy-change (2. order) :-0.7674181E+02  (-0.7593338E+02)
 number of electron     152.0000000 magnetization 
 augmentation part      152.0000000 magnetization 

 Free energy of the ion-electron system (eV)
  ---------------------------------------------------
  alpha Z        PSCENC =       298.50310769
  Ewald energy   TEWEN  =     -5517.37249997
  -Hartree energ DENC   =     -1059.71632690
  -exchange      EXHF   =         0.00000000
  -V(xc)+E(xc)   XCENC  =      -846.41683030
  PAW double counting   =      6098.70958045    -4957.31273529
  entropy T*S    EENTRO =        -0.00000000
  eigenvalues    EBANDS =      -728.14715343
  atomic energy  EATOM  =      6608.17022516
  Solvation  Ediel_sol  =         0.00000000
  ---------------------------------------------------
  free energy    TOTEN  =      -103.58263258 eV

  energy without entropy =     -103.58263258  energy(sigma->0) =     -103.58263258


--------------------------------------------------------------------------------------------------------




--------------------------------------- Iteration      1(   4)  ---------------------------------------


     EDDAV:  cpu time    1.0771: real time    1.0789
       DOS:  cpu time    0.0003: real time    0.0003
    --------------------------------------------
      LOOP:  cpu time    1.0774: real time    1.0792

 eigenvalue-minimisations  :  1694
 total energy-change (2. order) :-0.2429439E+01  (-0.2417447E+01)
 number of electron     152.0000000 magnetization 
 augmentation part      152.0000000 magnetization 

 Free energy of the ion-electron system (eV)
  ---------------------------------------------------
  alpha Z        PSCENC =       298.50310769
  Ewald energy   TEWEN  =     -5517.37249997
  -Hartree energ DENC   =     -1059.71632690
  -exchange      EXHF   =         0.00000000
  -V(xc)+E(xc)   XCENC  =      -846.41683030
  PAW double counting   =      6098.70958045    -4957.31273529
  entropy T*S    EENTRO =        -0.00000000
  eigenvalues    EBANDS =      -730.57659202
  atomic energy  EATOM  =      6608.17022516
  Solvation  Ediel_sol  =         0.00000000
  ---------------------------------------------------
  free energy    TOTEN  =      -106.01207118 eV

  energy without entropy =     -106.01207118  energy(sigma->0) =     -106.01207118


--------------------------------------------------------------------------------------------------------




--------------------------------------- Iteration      1(   5)  ---------------------------------------


     EDDAV:  cpu time    0.7534: real time    0.7541
       DOS:  cpu time    0.0002: real time    0.0002
    CHARGE:  cpu time    0.0334: real time    0.0334
    MIXING:  cpu time    0.0006: real time    0.0006
    --------------------------------------------
      LOOP:  cpu time    0.7876: real time    0.7883

 eigenvalue-minimisations  :  1428
 total energy-change (2. order) :-0.3624702E-01  (-0.3620655E-01)
 number of electron     151.9999654 magnetization 
 augmentation part      -13.5598186 magnetization 

 Broyden mixing:
  rms(total) = 0.14097E+01    rms(broyden)= 0.14097E+01
  rms(prec ) = 0.16603E+01
  weight for this iteration     100.00

 Free energy of the ion-electron system (eV)
  ---------------------------------------------------
  alpha Z        PSCENC =       298.50310769
  Ewald energy   TEWEN  =     -5517.37249997
  -Hartree energ DENC   =     -1059.71632690
  -exchange      EXHF   =         0.00000000
  -V(xc)+E(xc)   XCENC  =      -846.41683030
  PAW double counting   =      6098.70958045    -4957.31273529
  entropy T*S    EENTRO =        -0.00000000
  eigenvalues    EBANDS =      -730.61283904
  atomic energy  EATOM  =      6608.17022516
  Solvation  Ediel_sol  =         0.00000000
  ---------------------------------------------------
  free energy    TOTEN  =      -106.04831820 eV

  energy without entropy =     -106.04831820  energy(sigma->0) =     -106.04831820


--------------------------------------------------------------------------------------------------------




--------------------------------------- Iteration      1(   6)  ---------------------------------------


    POTLOK:  cpu time    0.0115: real time    0.0115
    SETDIJ:  cpu time    0.2382: real time    0.2385
     EDDAV:  cpu time    1.0664: real time    1.0689
       DOS:  cpu time    0.0003: real time    0.0004
    CHARGE:  cpu time    0.0351: real time    0.0351
    MIXING:  cpu time    0.0008: real time    0.0008
    --------------------------------------------
      LOOP:  cpu time    1.3522: real time    1.3552

 eigenvalue-minimisations  :  1386
 total energy-change (2. order) : 0.5308268E+01  (-0.9988528E+00)
 number of electron     151.9999661 magnetization 
 augmentation part      -13.4437457 magnetization 

 Broyden mixing:
  rms(total) = 0.77410E+00    rms(broyden)= 0.77409E+00
  rms(prec ) = 0.80905E+00
  weight for this iteration     100.00

 eigenvalues of (default mixing * dielectric matrix)
  average eigenvalue GAMMA=   1.4916
  1.4916

 Free energy of the ion-electron system (eV)
  ---------------------------------------------------
  alpha Z        PSCENC =       298.50310769
  Ewald energy   TEWEN  =     -5517.37249997
  -Hartree energ DENC   =     -1093.00741083
  -exchange      EXHF   =         0.00000000
  -V(xc)+E(xc)   XCENC  =      -842.99806397
  PAW double counting   =      6692.18630141    -5550.52296061
  entropy T*S    EENTRO =        -0.00000000
  eigenvalues    EBANDS =      -695.69874909
  atomic energy  EATOM  =      6608.17022516
  Solvation  Ediel_sol  =         0.00000000
  ---------------------------------------------------
  free energy    TOTEN  =      -100.74005021 eV

  energy without entropy =     -100.74005021  energy(sigma->0) =     -100.74005021


--------------------------------------------------------------------------------------------------------




--------------------------------------- Iteration      1(   7)  ---------------------------------------


    POTLOK:  cpu time    0.0122: real time    0.0123
    SETDIJ:  cpu time    0.2414: real time    0.2416
     EDDAV:  cpu time    0.8406: real time    0.8416
       DOS:  cpu time    0.0003: real time    0.0004
    CHARGE:  cpu time    0.0377: real time    0.0377
    MIXING:  cpu time    0.0007: real time    0.0007
    --------------------------------------------
      LOOP:  cpu time    1.1330: real time    1.1345

 eigenvalue-minimisations  :  1330
 total energy-change (2. order) :-0.9048006E-01  (-0.3871054E+00)
 number of electron     151.9999665 magnetization 
 augmentation part      -13.5489589 magnetization 

 Broyden mixing:
  rms(total) = 0.49213E+00    rms(broyden)= 0.49212E+00
  rms(prec ) = 0.50559E+00
  weight for this iteration     100.00

 eigenvalues of (default mixing * dielectric matrix)
  average eigenvalue GAMMA=   1.4860
  0.8219  2.1500

 Free energy of the ion-electron system (eV)
  ---------------------------------------------------
  alpha Z        PSCENC =       298.50310769
  Ewald energy   TEWEN  =     -5517.37249997
  -Hartree energ DENC   =     -1104.44131109
  -exchange      EXHF   =         0.00000000
  -V(xc)+E(xc)   XCENC  =      -841.44287971
  PAW double counting   =      7266.01706755    -6124.27303163
  entropy T*S    EENTRO =        -0.00000000
  eigenvalues    EBANDS =      -685.99120827
  atomic energy  EATOM  =      6608.17022516
  Solvation  Ediel_sol  =         0.00000000
  ---------------------------------------------------
  free energy    TOTEN  =      -100.83053027 eV

  energy without entropy =     -100.83053027  energy(sigma->0) =     -100.83053027


--------------------------------------------------------------------------------------------------------




--------------------------------------- Iteration      1(   8)  ---------------------------------------


    POTLOK:  cpu time    0.0167: real time    0.0169
    SETDIJ:  cpu time    0.2423: real time    0.2427
     EDDAV:  cpu time    0.9686: real time    0.9698
       DOS:  cpu time    0.0002: real time    0.0002
    CHARGE:  cpu time    0.0336: real time    0.0336
    MIXING:  cpu time    0.0006: real time    0.0006
    --------------------------------------------
      LOOP:  cpu time    1.2621: real time    1.2638

 eigenvalue-minimisations  :  1568
 total energy-change (2. order) :-0.1698909E-01  (-0.2724366E-01)
 number of electron     151.9999664 magnetization 
 augmentation part      -13.6234013 magnetization 

 Broyden mixing:
  rms(total) = 0.22013E+00    rms(broyden)= 0.22013E+00
  rms(prec ) = 0.22691E+00
  weight for this iteration     100.00

 eigenvalues of (default mixing * dielectric matrix)
  average eigenvalue GAMMA=   1.5953
  2.6858  1.0501  1.0501

 Free energy of the ion-electron system (eV)
  ---------------------------------------------------
  alpha Z        PSCENC =       298.50310769
  Ewald energy   TEWEN  =     -5517.37249997
  -Hartree energ DENC   =     -1105.55589782
  -exchange      EXHF   =         0.00000000
  -V(xc)+E(xc)   XCENC  =      -841.01028103
  PAW double counting   =      7655.11970193    -6513.31880554
  entropy T*S    EENTRO =        -0.00000000
  eigenvalues    EBANDS =      -685.38306978
  atomic energy  EATOM  =      6608.17022516
  Solvation  Ediel_sol  =         0.00000000
  ---------------------------------------------------
  free energy    TOTEN  =      -100.84751936 eV

  energy without entropy =     -100.84751936  energy(sigma->0) =     -100.84751936


--------------------------------------------------------------------------------------------------------




--------------------------------------- Iteration      1(   9)  ---------------------------------------


    POTLOK:  cpu time    0.0121: real time    0.0122
    SETDIJ:  cpu time    0.2382: real time    0.2382
     EDDAV:  cpu time    1.1108: real time    1.1109
       DOS:  cpu time    0.0003: real time    0.0003
    CHARGE:  cpu time    0.0351: real time    0.0351
    MIXING:  cpu time    0.0008: real time    0.0008
    --------------------------------------------
      LOOP:  cpu time    1.3973: real time    1.3975

 eigenvalue-minimisations  :  1372
 total energy-change (2. order) :-0.1727059E-01  (-0.5986928E-02)
 number of electron     151.9999663 magnetization 
 augmentation part      -13.6365335 magnetization 

 Broyden mixing:
  rms(total) = 0.44739E-01    rms(broyden)= 0.44738E-01
  rms(prec ) = 0.48013E-01
  weight for this iteration     100.00

 eigenvalues of (default mixing * dielectric matrix)
  average eigenvalue GAMMA=   1.4101
  2.5185  1.1391  1.1391  0.8439

 Free energy of the ion-electron system (eV)
  ---------------------------------------------------
  alpha Z        PSCENC =       298.50310769
  Ewald energy   TEWEN  =     -5517.37249997
  -Hartree energ DENC   =     -1107.32265877
  -exchange      EXHF   =         0.00000000
  -V(xc)+E(xc)   XCENC  =      -840.64564233
  PAW double counting   =      7898.35383599    -6756.40171187
  entropy T*S    EENTRO =        -0.00000000
  eigenvalues    EBANDS =      -684.14944585
  atomic energy  EATOM  =      6608.17022516
  Solvation  Ediel_sol  =         0.00000000
  ---------------------------------------------------
  free energy    TOTEN  =      -100.86478995 eV

  energy without entropy =     -100.86478995  energy(sigma->0) =     -100.86478995


--------------------------------------------------------------------------------------------------------




--------------------------------------- Iteration      1(  10)  ---------------------------------------


    POTLOK:  cpu time    0.0126: real time    0.0127
    SETDIJ:  cpu time    0.2404: real time    0.2404
     EDDAV:  cpu time    0.9604: real time    0.9608
       DOS:  cpu time    0.0002: real time    0.0002
    CHARGE:  cpu time    0.0349: real time    0.0349
    MIXING:  cpu time    0.0007: real time    0.0007
    --------------------------------------------
      LOOP:  cpu time    1.2493: real time    1.2498

 eigenvalue-minimisations  :  1498
 total energy-change (2. order) :-0.1851447E-02  (-0.9449961E-03)
 number of electron     151.9999663 magnetization 
 augmentation part      -13.6362543 magnetization 

 Broyden mixing:
  rms(total) = 0.26784E-01    rms(broyden)= 0.26784E-01
  rms(prec ) = 0.30036E-01
  weight for this iteration     100.00

 eigenvalues of (default mixing * dielectric matrix)
  average eigenvalue GAMMA=   1.5075
  2.5720  1.7504  0.9906  0.9906  1.2341

 Free energy of the ion-electron system (eV)
  ---------------------------------------------------
  alpha Z        PSCENC =       298.50310769
  Ewald energy   TEWEN  =     -5517.37249997
  -Hartree energ DENC   =     -1107.35825653
  -exchange      EXHF   =         0.00000000
  -V(xc)+E(xc)   XCENC  =      -840.68240546
  PAW double counting   =      7862.51807513    -6720.54062621
  entropy T*S    EENTRO =        -0.00000000
  eigenvalues    EBANDS =      -684.10426121
  atomic energy  EATOM  =      6608.17022516
  Solvation  Ediel_sol  =         0.00000000
  ---------------------------------------------------
  free energy    TOTEN  =      -100.86664140 eV

  energy without entropy =     -100.86664140  energy(sigma->0) =     -100.86664140


--------------------------------------------------------------------------------------------------------




--------------------------------------- Iteration      1(  11)  ---------------------------------------


    POTLOK:  cpu time    0.0125: real time    0.0126
    SETDIJ:  cpu time    0.2461: real time    0.2462
     EDDAV:  cpu time    0.9119: real time    0.9119
       DOS:  cpu time    0.0002: real time    0.0002
    CHARGE:  cpu time    0.0326: real time    0.0326
    MIXING:  cpu time    0.0007: real time    0.0007
    --------------------------------------------
      LOOP:  cpu time    1.2040: real time    1.2041

 eigenvalue-minimisations  :  1414
 total energy-change (2. order) :-0.2358634E-02  (-0.2735446E-03)
 number of electron     151.9999663 magnetization 
 augmentation part      -13.6294582 magnetization 

 Broyden mixing:
  rms(total) = 0.91124E-02    rms(broyden)= 0.91123E-02
  rms(prec ) = 0.10703E-01
  weight for this iteration     100.00

 eigenvalues of (default mixing * dielectric matrix)
  average eigenvalue GAMMA=   1.4903
  2.4059  2.4059  1.0140  1.0140  0.8948  1.2072

 Free energy of the ion-electron system (eV)
  ---------------------------------------------------
  alpha Z        PSCENC =       298.50310769
  Ewald energy   TEWEN  =     -5517.37249997
  -Hartree energ DENC   =     -1107.84887197
  -exchange      EXHF   =         0.00000000
  -V(xc)+E(xc)   XCENC  =      -840.66604838
  PAW double counting   =      7846.55842904    -6704.53096356
  entropy T*S    EENTRO =        -0.00000000
  eigenvalues    EBANDS =      -683.68237804
  atomic energy  EATOM  =      6608.17022516
  Solvation  Ediel_sol  =         0.00000000
  ---------------------------------------------------
  free energy    TOTEN  =      -100.86900003 eV

  energy without entropy =     -100.86900003  energy(sigma->0) =     -100.86900003


--------------------------------------------------------------------------------------------------------




--------------------------------------- Iteration      1(  12)  ---------------------------------------


    POTLOK:  cpu time    0.0115: real time    0.0138
    SETDIJ:  cpu time    0.2376: real time    0.2403
     EDDAV:  cpu time    1.1094: real time    1.1095
       DOS:  cpu time    0.0003: real time    0.0003
    CHARGE:  cpu time    0.0337: real time    0.0337
    MIXING:  cpu time    0.0007: real time    0.0007
    --------------------------------------------
      LOOP:  cpu time    1.3932: real time    1.3982

 eigenvalue-minimisations  :  1442
 total energy-change (2. order) :-0.6533782E-03  (-0.1015475E-03)
 number of electron     151.9999663 magnetization 
 augmentation part      -13.6254491 magnetization 

 Broyden mixing:
  rms(total) = 0.48420E-02    rms(broyden)= 0.48419E-02
  rms(prec ) = 0.59143E-02
  weight for this iteration     100.00

 eigenvalues of (default mixing * dielectric matrix)
  average eigenvalue GAMMA=   1.5409
  2.6847  2.6847  1.0154  1.1511  1.1511  1.0496  1.0496

 Free energy of the ion-electron system (eV)
  ---------------------------------------------------
  alpha Z        PSCENC =       298.50310769
  Ewald energy   TEWEN  =     -5517.37249997
  -Hartree energ DENC   =     -1108.03214716
  -exchange      EXHF   =         0.00000000
  -V(xc)+E(xc)   XCENC  =      -840.66330784
  PAW double counting   =      7833.32064029    -6691.28277105
  entropy T*S    EENTRO =        -0.00000000
  eigenvalues    EBANDS =      -683.51290053
  atomic energy  EATOM  =      6608.17022516
  Solvation  Ediel_sol  =         0.00000000
  ---------------------------------------------------
  free energy    TOTEN  =      -100.86965341 eV

  energy without entropy =     -100.86965341  energy(sigma->0) =     -100.86965341


--------------------------------------------------------------------------------------------------------




--------------------------------------- Iteration      1(  13)  ---------------------------------------


    POTLOK:  cpu time    0.0116: real time    0.0117
    SETDIJ:  cpu time    0.2381: real time    0.2381
     EDDAV:  cpu time    0.6787: real time    0.6788
       DOS:  cpu time    0.0003: real time    0.0003
    CHARGE:  cpu time    0.0349: real time    0.0349
    MIXING:  cpu time    0.0011: real time    0.0011
    --------------------------------------------
      LOOP:  cpu time    0.9647: real time    0.9648

 eigenvalue-minimisations  :  1134
 total energy-change (2. order) :-0.3223678E-03  (-0.3793058E-04)
 number of electron     151.9999663 magnetization 
 augmentation part      -13.6235504 magnetization 

 Broyden mixing:
  rms(total) = 0.29433E-02    rms(broyden)= 0.29433E-02
  rms(prec ) = 0.32870E-02
  weight for this iteration     100.00

 eigenvalues of (default mixing * dielectric matrix)
  average eigenvalue GAMMA=   1.5905
  2.6254  2.6254  2.3743  0.9831  0.9831  1.1070  1.1070  0.9182

 Free energy of the ion-electron system (eV)
  ---------------------------------------------------
  alpha Z        PSCENC =       298.50310769
  Ewald energy   TEWEN  =     -5517.37249997
  -Hartree energ DENC   =     -1108.18159269
  -exchange      EXHF   =         0.00000000
  -V(xc)+E(xc)   XCENC  =      -840.65237698
  PAW double counting   =      7829.32724028    -6687.28771146
  entropy T*S    EENTRO =        -0.00000000
  eigenvalues    EBANDS =      -683.37636780
  atomic energy  EATOM  =      6608.17022516
  Solvation  Ediel_sol  =         0.00000000
  ---------------------------------------------------
  free energy    TOTEN  =      -100.86997578 eV

  energy without entropy =     -100.86997578  energy(sigma->0) =     -100.86997578


--------------------------------------------------------------------------------------------------------




--------------------------------------- Iteration      1(  14)  ---------------------------------------


    POTLOK:  cpu time    0.0139: real time    0.0140
    SETDIJ:  cpu time    0.2422: real time    0.2423
     EDDAV:  cpu time    0.7588: real time    0.7588
       DOS:  cpu time    0.0002: real time    0.0002
    --------------------------------------------
      LOOP:  cpu time    1.0151: real time    1.0152

 eigenvalue-minimisations  :  1064
 total energy-change (2. order) :-0.7976022E-04  (-0.9608149E-05)
 number of electron     151.9999663 magnetization 
 augmentation part      -13.6235504 magnetization 

 Free energy of the ion-electron system (eV)
  ---------------------------------------------------
  alpha Z        PSCENC =       298.50310769
  Ewald energy   TEWEN  =     -5517.37249997
  -Hartree energ DENC   =     -1108.23138757
  -exchange      EXHF   =         0.00000000
  -V(xc)+E(xc)   XCENC  =      -840.64481490
  PAW double counting   =      7829.26911420    -6687.23782220
  entropy T*S    EENTRO =        -0.00000000
  eigenvalues    EBANDS =      -683.32597795
  atomic energy  EATOM  =      6608.17022516
  Solvation  Ediel_sol  =         0.00000000
  ---------------------------------------------------
  free energy    TOTEN  =      -100.87005554 eV

  energy without entropy =     -100.87005554  energy(sigma->0) =     -100.87005554


--------------------------------------------------------------------------------------------------------




 average (electrostatic) potential at core
  the test charge radii are     1.3383  1.4024  1.0808
  (the norm of the test charge is              1.0000)
       1 -12.1669       2 -12.1669       3 -12.1659       4 -12.1659       5 -65.0923
       6 -65.0923       7 -65.1265       8 -65.1265       9 -65.0566      10 -65.0566
      11 -65.1773      12 -65.1773      13 -55.2551      14 -55.2551      15 -55.3401
      16 -55.3401      17 -55.4565      18 -55.4565      19 -55.4032      20 -55.4032
      21 -55.4970      22 -55.4970      23 -55.3442      24 -55.3442      25 -55.3554
      26 -55.3554
 
 
 
 E-fermi :   2.3347     XC(G=0):  -8.4270     alpha+bet : -7.7126


 k-point     1 :       0.0000    0.2500    0.2500
  band No.  band energies     occupation 
      1     -11.7185      2.00000
      2     -11.6450      2.00000
      3     -11.6396      2.00000
      4     -11.6312      2.00000
      5     -11.6208      2.00000
      6     -11.6061      2.00000
      7     -11.5831      2.00000
      8     -11.5829      2.00000
      9     -11.5798      2.00000
     10     -11.5796      2.00000
     11     -11.5712      2.00000
     12     -11.5671      2.00000
     13     -11.4847      2.00000
     14     -11.2988      2.00000
     15     -11.2133      2.00000
     16     -10.9029      2.00000
     17     -10.6211      2.00000
     18     -10.5743      2.00000
     19     -10.5507      2.00000
     20      -9.9992      2.00000
     21      -9.9644      2.00000
     22      -9.9000      2.00000
     23      -9.8043      2.00000
     24      -9.7651      2.00000
     25      -9.7260      2.00000
     26      -9.7158      2.00000
     27      -8.0298      2.00000
     28      -7.7256      2.00000
     29      -7.5085      2.00000
     30      -7.4362      2.00000
     31      -7.2237      2.00000
     32      -6.8512      2.00000
     33      -6.6580      2.00000
     34      -6.3054      2.00000
     35      -2.5477      2.00000
     36      -1.9404      2.00000
     37      -1.6739      2.00000
     38      -1.1996      2.00000
     39      -0.9746      2.00000
     40      -0.8884      2.00000
     41      -0.8591      2.00000
     42      -0.5714      2.00000
     43      -0.5016      2.00000
     44      -0.4727      2.00000
     45      -0.4495      2.00000
     46      -0.3902      2.00000
     47      -0.2284      2.00000
     48      -0.2067      2.00000
     49      -0.1102      2.00000
     50       0.1098      2.00000
     51       0.1465      2.00000
     52       0.1890      2.00000
     53       0.2274      2.00000
     54       0.2360      2.00000
     55       0.3539      2.00000
     56       0.4346      2.00000
     57       0.5121      2.00000
     58       0.5983      2.00000
     59       0.6679      2.00000
     60       0.6813      2.00000
     61       0.8139      2.00000
     62       0.8847      2.00000
     63       1.0023      2.00000
     64       1.0638      2.00000
     65       1.1068      2.00000
     66       1.1430      2.00000
     67       1.1635      2.00000
     68       1.2112      2.00000
     69       1.2909      2.00000
     70       1.3100      2.00000
     71       1.3196      2.00000
     72       1.3348      2.00000
     73       1.3906      2.00000
     74       1.6722      2.00000
     75       1.7670      2.00000
     76       2.0685      2.00000
     77       3.1757      0.00000
     78       3.3131      0.00000
     79       3.4126      0.00000
     80       3.7186      0.00000
     81       3.9794      0.00000
     82       4.0324      0.00000
     83       4.0973      0.00000
     84       4.1836      0.00000
     85       4.3225      0.00000
     86       4.4234      0.00000
     87       4.5705      0.00000
     88       4.5938      0.00000
     89       4.6101      0.00000
     90       4.8308      0.00000
     91       4.8450      0.00000
     92       4.9453      0.00000
     93       5.0935      0.00000
     94       5.1325      0.00000
     95       5.3469      0.00000
     96       5.6643      0.00000
     97       5.7752      0.00000
     98       5.8448      0.00000

 k-point     2 :       0.2000    0.2500    0.2500
  band No.  band energies     occupation 
      1     -11.6391      2.00000
      2     -11.6314      2.00000
      3     -11.6308      2.00000
      4     -11.6258      2.00000
      5     -11.6250      2.00000
      6     -11.6173      2.00000
      7     -11.6116      2.00000
      8     -11.6010      2.00000
      9     -11.5944      2.00000
     10     -11.5898      2.00000
     11     -11.5590      2.00000
     12     -11.5541      2.00000
     13     -11.3118      2.00000
     14     -11.0864      2.00000
     15     -11.0017      2.00000
     16     -10.6972      2.00000
     17     -10.4299      2.00000
     18     -10.3799      2.00000
     19     -10.3487      2.00000
     20      -9.9003      2.00000
     21      -9.8526      2.00000
     22      -9.8136      2.00000
     23      -9.7319      2.00000
     24      -9.7011      2.00000
     25      -9.6851      2.00000
     26      -9.6529      2.00000
     27      -8.2226      2.00000
     28      -7.9121      2.00000
     29      -7.7596      2.00000
     30      -7.5947      2.00000
     31      -7.4460      2.00000
     32      -7.1437      2.00000
     33      -6.9848      2.00000
     34      -6.6599      2.00000
     35      -2.3167      2.00000
     36      -1.7638      2.00000
     37      -1.7078      2.00000
     38      -1.6392      2.00000
     39      -1.5882      2.00000
     40      -1.4861      2.00000
     41      -1.3587      2.00000
     42      -1.1567      2.00000
     43      -1.0251      2.00000
     44      -0.9607      2.00000
     45      -0.8116      2.00000
     46      -0.6868      2.00000
     47      -0.6371      2.00000
     48      -0.5871      2.00000
     49      -0.5244      2.00000
     50      -0.2856      2.00000
     51      -0.2114      2.00000
     52      -0.1675      2.00000
     53      -0.0793      2.00000
     54      -0.0047      2.00000
     55       0.0197      2.00000
     56       0.0997      2.00000
     57       0.1582      2.00000
     58       0.3582      2.00000
     59       0.4976      2.00000
     60       0.6560      2.00000
     61       0.7260      2.00000
     62       0.7391      2.00000
     63       0.8507      2.00000
     64       0.9361      2.00000
     65       1.1005      2.00000
     66       1.1374      2.00000
     67       1.2023      2.00000
     68       1.3438      2.00000
     69       1.3649      2.00000
     70       1.4603      2.00000
     71       1.5312      2.00000
     72       1.6338      2.00000
     73       1.6704      2.00000
     74       1.6825      2.00000
     75       1.7281      2.00000
     76       1.8724      2.00000
     77       3.5888      0.00000
     78       3.7978      0.00000
     79       3.9499      0.00000
     80       4.0716      0.00000
     81       4.2144      0.00000
     82       4.3771      0.00000
     83       4.4770      0.00000
     84       4.5534      0.00000
     85       4.6395      0.00000
     86       4.6804      0.00000
     87       4.7459      0.00000
     88       4.7637      0.00000
     89       4.9717      0.00000
     90       5.0095      0.00000
     91       5.2183      0.00000
     92       5.2387      0.00000
     93       5.3115      0.00000
     94       5.4171      0.00000
     95       5.6035      0.00000
     96       5.8163      0.00000
     97       5.9757      0.00000
     98       6.1076      0.00000

 k-point     3 :       0.4000    0.2500    0.2500
  band No.  band energies     occupation 
      1     -11.6993      2.00000
      2     -11.6979      2.00000
      3     -11.6789      2.00000
      4     -11.6778      2.00000
      5     -11.6086      2.00000
      6     -11.6080      2.00000
      7     -11.5866      2.00000
      8     -11.5834      2.00000
      9     -11.5523      2.00000
     10     -11.5497      2.00000
     11     -11.5427      2.00000
     12     -11.5404      2.00000
     13     -10.6841      2.00000
     14     -10.4895      2.00000
     15     -10.4106      2.00000
     16     -10.1880      2.00000
     17     -10.0232      2.00000
     18      -9.9544      2.00000
     19      -9.9348      2.00000
     20      -9.9131      2.00000
     21      -9.8247      2.00000
     22      -9.7922      2.00000
     23      -9.7318      2.00000
     24      -9.7302      2.00000
     25      -9.6521      2.00000
     26      -9.5437      2.00000
     27      -8.2875      2.00000
     28      -8.2261      2.00000
     29      -8.2189      2.00000
     30      -8.0603      2.00000
     31      -7.9055      2.00000
     32      -7.7476      2.00000
     33      -7.6616      2.00000
     34      -7.4900      2.00000
     35      -2.4249      2.00000
     36      -2.2981      2.00000
     37      -2.1024      2.00000
     38      -1.9920      2.00000
     39      -1.8930      2.00000
     40      -1.8711      2.00000
     41      -1.6083      2.00000
     42      -1.3962      2.00000
     43      -1.3917      2.00000
     44      -1.2401      2.00000
     45      -1.1814      2.00000
     46      -1.1156      2.00000
     47      -1.0532      2.00000
     48      -0.9756      2.00000
     49      -0.8573      2.00000
     50      -0.7386      2.00000
     51      -0.7036      2.00000
     52      -0.5902      2.00000
     53      -0.5499      2.00000
     54      -0.3625      2.00000
     55      -0.3011      2.00000
     56      -0.1792      2.00000
     57      -0.1099      2.00000
     58       0.1375      2.00000
     59       0.5665      2.00000
     60       0.6491      2.00000
     61       0.7148      2.00000
     62       0.7643      2.00000
     63       0.7992      2.00000
     64       0.8517      2.00000
     65       0.9188      2.00000
     66       1.0061      2.00000
     67       1.0318      2.00000
     68       1.0467      2.00000
     69       1.1701      2.00000
     70       1.2031      2.00000
     71       1.3114      2.00000
     72       1.3711      2.00000
     73       1.3876      2.00000
     74       1.5154      2.00000
     75       1.6325      2.00000
     76       1.7448      2.00000
     77       3.7231      0.00000
     78       3.9021      0.00000
     79       4.1798      0.00000
     80       4.2215      0.00000
     81       4.4530      0.00000
     82       4.5416      0.00000
     83       4.6573      0.00000
     84       4.7518      0.00000
     85       4.8719      0.00000
     86       4.9338      0.00000
     87       5.0402      0.00000
     88       5.1398      0.00000
     89       5.3607      0.00000
     90       5.3911      0.00000
     91       5.4879      0.00000
     92       5.5434      0.00000
     93       5.6015      0.00000
     94       5.8133      0.00000
     95       5.9950      0.00000
     96       6.0950      0.00000
     97       6.1434      0.00000
     98       6.4093      0.00000

 k-point     4 :       0.0000   -0.2500    0.2500
  band No.  band energies     occupation 
      1     -11.7156      2.00000
      2     -11.6489      2.00000
      3     -11.6352      2.00000
      4     -11.6234      2.00000
      5     -11.6170      2.00000
      6     -11.6072      2.00000
      7     -11.5830      2.00000
      8     -11.5830      2.00000
      9     -11.5798      2.00000
     10     -11.5796      2.00000
     11     -11.5734      2.00000
     12     -11.5619      2.00000
     13     -11.5122      2.00000
     14     -11.3617      2.00000
     15     -11.0042      2.00000
     16     -10.9236      2.00000
     17     -10.8907      2.00000
     18     -10.6009      2.00000
     19     -10.2763      2.00000
     20     -10.0680      2.00000
     21      -9.9708      2.00000
     22      -9.9272      2.00000
     23      -9.8361      2.00000
     24      -9.7956      2.00000
     25      -9.6888      2.00000
     26      -9.6818      2.00000
     27      -8.0321      2.00000
     28      -7.7613      2.00000
     29      -7.5038      2.00000
     30      -7.3317      2.00000
     31      -7.2092      2.00000
     32      -7.0224      2.00000
     33      -6.5469      2.00000
     34      -6.3305      2.00000
     35      -2.4394      2.00000
     36      -2.2649      2.00000
     37      -1.3204      2.00000
     38      -1.0974      2.00000
     39      -0.9189      2.00000
     40      -0.9150      2.00000
     41      -0.8413      2.00000
     42      -0.7305      2.00000
     43      -0.6673      2.00000
     44      -0.5603      2.00000
     45      -0.4241      2.00000
     46      -0.3248      2.00000
     47      -0.1867      2.00000
     48      -0.1540      2.00000
     49      -0.1210      2.00000
     50      -0.1068      2.00000
     51       0.0950      2.00000
     52       0.1525      2.00000
     53       0.1531      2.00000
     54       0.2537      2.00000
     55       0.4151      2.00000
     56       0.4386      2.00000
     57       0.4919      2.00000
     58       0.6139      2.00000
     59       0.6960      2.00000
     60       0.7257      2.00000
     61       0.8682      2.00000
     62       1.0210      2.00000
     63       1.0629      2.00000
     64       1.0940      2.00000
     65       1.1158      2.00000
     66       1.1556      2.00000
     67       1.2336      2.00000
     68       1.2693      2.00000
     69       1.2874      2.00000
     70       1.2900      2.00000
     71       1.3311      2.00000
     72       1.3511      2.00000
     73       1.4777      2.00000
     74       1.5028      2.00000
     75       1.6500      2.00000
     76       2.0825      2.00000
     77       2.9455      0.00000
     78       3.2841      0.00000
     79       3.4591      0.00000
     80       3.6525      0.00000
     81       3.9090      0.00000
     82       4.1049      0.00000
     83       4.1370      0.00000
     84       4.3120      0.00000
     85       4.4322      0.00000
     86       4.4607      0.00000
     87       4.5953      0.00000
     88       4.6151      0.00000
     89       4.6861      0.00000
     90       4.7784      0.00000
     91       4.8508      0.00000
     92       4.9588      0.00000
     93       5.0686      0.00000
     94       5.1639      0.00000
     95       5.2932      0.00000
     96       5.4995      0.00000
     97       5.6820      0.00000
     98       5.8117      0.00000

 k-point     5 :       0.2000   -0.2500    0.2500
  band No.  band energies     occupation 
      1     -11.6372      2.00000
      2     -11.6321      2.00000
      3     -11.6313      2.00000
      4     -11.6255      2.00000
      5     -11.6242      2.00000
      6     -11.6224      2.00000
      7     -11.6120      2.00000
      8     -11.6004      2.00000
      9     -11.5929      2.00000
     10     -11.5864      2.00000
     11     -11.5604      2.00000
     12     -11.5522      2.00000
     13     -11.2969      2.00000
     14     -11.1845      2.00000
     15     -10.7885      2.00000
     16     -10.7084      2.00000
     17     -10.6908      2.00000
     18     -10.4039      2.00000
     19     -10.1008      2.00000
     20      -9.9331      2.00000
     21      -9.8700      2.00000
     22      -9.8425      2.00000
     23      -9.7686      2.00000
     24      -9.7277      2.00000
     25      -9.6548      2.00000
     26      -9.6248      2.00000
     27      -8.2296      2.00000
     28      -7.9798      2.00000
     29      -7.6178      2.00000
     30      -7.5218      2.00000
     31      -7.4834      2.00000
     32      -7.3500      2.00000
     33      -6.8338      2.00000
     34      -6.7071      2.00000
     35      -2.2309      2.00000
     36      -2.0546      2.00000
     37      -1.7125      2.00000
     38      -1.6405      2.00000
     39      -1.4643      2.00000
     40      -1.3428      2.00000
     41      -1.2806      2.00000
     42      -1.1598      2.00000
     43      -0.9704      2.00000
     44      -0.9484      2.00000
     45      -0.8205      2.00000
     46      -0.7981      2.00000
     47      -0.6366      2.00000
     48      -0.6027      2.00000
     49      -0.4701      2.00000
     50      -0.4423      2.00000
     51      -0.2768      2.00000
     52      -0.2562      2.00000
     53      -0.1462      2.00000
     54      -0.0380      2.00000
     55       0.0630      2.00000
     56       0.1295      2.00000
     57       0.3835      2.00000
     58       0.4324      2.00000
     59       0.4444      2.00000
     60       0.6846      2.00000
     61       0.7659      2.00000
     62       0.8153      2.00000
     63       0.8687      2.00000
     64       0.8800      2.00000
     65       0.9581      2.00000
     66       1.1467      2.00000
     67       1.1995      2.00000
     68       1.3270      2.00000
     69       1.3562      2.00000
     70       1.4851      2.00000
     71       1.5001      2.00000
     72       1.6220      2.00000
     73       1.6750      2.00000
     74       1.7182      2.00000
     75       1.7265      2.00000
     76       1.8787      2.00000
     77       3.6112      0.00000
     78       3.9428      0.00000
     79       4.0056      0.00000
     80       4.0521      0.00000
     81       4.2269      0.00000
     82       4.3115      0.00000
     83       4.3264      0.00000
     84       4.4215      0.00000
     85       4.5186      0.00000
     86       4.6926      0.00000
     87       4.7614      0.00000
     88       4.7904      0.00000
     89       4.9719      0.00000
     90       5.0855      0.00000
     91       5.1752      0.00000
     92       5.2845      0.00000
     93       5.4091      0.00000
     94       5.4723      0.00000
     95       5.6381      0.00000
     96       5.8016      0.00000
     97       5.9372      0.00000
     98       6.0652      0.00000

 k-point     6 :       0.4000   -0.2500    0.2500
  band No.  band energies     occupation 
      1     -11.6993      2.00000
      2     -11.6979      2.00000
      3     -11.6789      2.00000
      4     -11.6778      2.00000
      5     -11.6084      2.00000
      6     -11.6082      2.00000
      7     -11.5866      2.00000
      8     -11.5834      2.00000
      9     -11.5526      2.00000
     10     -11.5493      2.00000
     11     -11.5429      2.00000
     12     -11.5402      2.00000
     13     -10.6573      2.00000
     14     -10.5844      2.00000
     15     -10.2346      2.00000
     16     -10.1953      2.00000
     17     -10.1790      2.00000
     18      -9.9947      2.00000
     19      -9.9165      2.00000
     20      -9.8547      2.00000
     21      -9.7998      2.00000
     22      -9.7659      2.00000
     23      -9.7588      2.00000
     24      -9.7338      2.00000
     25      -9.6482      2.00000
     26      -9.5455      2.00000
     27      -8.3600      2.00000
     28      -8.2310      2.00000
     29      -8.1373      2.00000
     30      -8.0107      2.00000
     31      -7.8971      2.00000
     32      -7.8747      2.00000
     33      -7.5498      2.00000
     34      -7.5410      2.00000
     35      -2.4205      2.00000
     36      -2.2823      2.00000
     37      -2.1273      2.00000
     38      -2.0661      2.00000
     39      -1.8323      2.00000
     40      -1.7674      2.00000
     41      -1.6130      2.00000
     42      -1.4806      2.00000
[...]
     86       4.6427      0.00000
     87       4.7272      0.00000
     88       4.7541      0.00000
     89       4.9397      0.00000
     90       5.0347      0.00000
     91       5.1364      0.00000
     92       5.2277      0.00000
     93       5.3356      0.00000
     94       5.4319      0.00000
     95       5.6401      0.00000
     96       5.7522      0.00000
     97       5.9511      0.00000
     98       6.0644      0.00000

 k-point     6 :       0.4000   -0.2500    0.2500
  band No.  band energies     occupation 
      1     -11.5094      2.00000
      2     -11.5075      2.00000
      3     -11.4670      2.00000
      4     -11.4640      2.00000
      5     -11.4217      2.00000
      6     -11.4180      2.00000
      7     -11.3896      2.00000
      8     -11.3837      2.00000
      9     -11.3597      2.00000
     10     -11.3593      2.00000
     11     -11.3252      2.00000
     12     -11.3222      2.00000
     13     -10.5871      2.00000
     14     -10.4942      2.00000
     15     -10.1568      2.00000
     16     -10.1390      2.00000
     17     -10.1258      2.00000
     18      -9.9440      2.00000
     19      -9.8800      2.00000
     20      -9.8028      2.00000
     21      -9.7434      2.00000
     22      -9.7332      2.00000
     23      -9.7205      2.00000
     24      -9.6748      2.00000
     25      -9.6346      2.00000
     26      -9.5045      2.00000
     27      -8.3197      2.00000
     28      -8.2144      2.00000
     29      -8.1074      2.00000
     30      -7.9942      2.00000
     31      -7.8897      2.00000
     32      -7.8650      2.00000
     33      -7.5587      2.00000
     34      -7.5365      2.00000
     35      -2.3874      2.00000
     36      -2.2225      2.00000
     37      -2.0672      2.00000
     38      -1.9827      2.00000
     39      -1.7490      2.00000
     40      -1.6887      2.00000
     41      -1.5514      2.00000
     42      -1.4286      2.00000
     43      -1.3587      2.00000
     44      -1.3166      2.00000
     45      -1.2181      2.00000
     46      -0.9347      2.00000
     47      -0.8874      2.00000
     48      -0.8697      2.00000
     49      -0.7911      2.00000
     50      -0.7485      2.00000
     51      -0.7051      2.00000
     52      -0.5665      2.00000
     53      -0.5182      2.00000
     54      -0.3528      2.00000
     55      -0.2024      2.00000
     56      -0.1253      2.00000
     57      -0.0076      2.00000
     58       0.1277      2.00000
     59       0.5983      2.00000
     60       0.6700      2.00000
     61       0.6886      2.00000
     62       0.7648      2.00000
     63       0.8154      2.00000
     64       0.9039      2.00000
     65       0.9260      2.00000
     66       0.9598      2.00000
     67       1.0210      2.00000
     68       1.0469      2.00000
     69       1.1204      2.00000
     70       1.1524      2.00000
     71       1.2670      2.00000
     72       1.3023      2.00000
     73       1.4347      2.00000
     74       1.6185      2.00000
     75       1.6399      2.00000
     76       1.7978      2.00000
     77       3.7865      0.00000
     78       3.8419      0.00000
     79       4.0506      0.00000
     80       4.2193      0.00000
     81       4.3674      0.00000
     82       4.4624      0.00000
     83       4.6072      0.00000
     84       4.6775      0.00000
     85       4.8566      0.00000
     86       4.9045      0.00000
     87       4.9401      0.00000
     88       5.0452      0.00000
     89       5.2930      0.00000
     90       5.3943      0.00000
     91       5.4667      0.00000
     92       5.5543      0.00000
     93       5.6765      0.00000
     94       5.7355      0.00000
     95       5.8992      0.00000
     96       5.9033      0.00000
     97       6.0679      0.00000
     98       6.3147      0.00000


--------------------------------------------------------------------------------------------------------


 soft charge-density along one line, spin component           1
         0         1         2         3         4         5         6         7         8         9
 total charge-density along one line
 
 pseudopotential strength for first ion, spin component:           1
-16.717   0.010  -0.000 -15.455   0.009  -0.000   0.001  -0.003
  0.010 -16.703  -0.000   0.009 -15.442  -0.000  -0.004   0.008
 -0.000  -0.000 -16.745  -0.000  -0.000 -15.480  -0.000   0.000
-15.455   0.009  -0.000 -14.290   0.008  -0.000   0.001  -0.003
  0.009 -15.442  -0.000   0.008 -14.278  -0.000  -0.003   0.007
 -0.000  -0.000 -15.480  -0.000  -0.000 -14.313  -0.000   0.000
  0.001  -0.004  -0.000   0.001  -0.003  -0.000   1.003  -3.840
 -0.003   0.008   0.000  -0.003   0.007   0.000  -3.840  14.937
  0.000   0.000  -0.004   0.000   0.000  -0.004   0.000  -0.000
  0.010  -0.004   0.000   0.010  -0.004   0.000  -0.002   0.005
  0.002   0.012  -0.000   0.002   0.011  -0.000  -0.003   0.008
  0.000   0.000   0.010   0.000   0.000   0.009   0.000  -0.000
  0.004  -0.000   0.000   0.003  -0.000   0.000   0.003  -0.007
 total augmentation occupancy for first ion, spin component:           1
  2.950   0.172   0.000  -0.965  -0.168   0.000   0.052  -0.001   0.000  -0.020  -0.019   0.000  -0.031
  0.172   3.222  -0.000  -0.168  -1.232   0.000  -0.155   0.004   0.000   0.008  -0.075   0.000   0.002
  0.000   0.000   2.595   0.000   0.000  -0.629   0.000   0.000   0.002   0.000   0.000  -0.013   0.000
 -0.965  -0.168   0.000   0.980   0.162   0.000  -0.057  -0.002   0.000   0.014   0.018   0.000   0.029
 -0.168  -1.232   0.000   0.162   1.242   0.000   0.168   0.004   0.000  -0.005   0.069   0.000  -0.001
  0.000   0.000  -0.629   0.000   0.000   0.667   0.000   0.000   0.001  -0.000   0.000   0.008   0.000
  0.052  -0.155  -0.000  -0.057   0.168   0.000   0.375   0.009   0.000   0.012   0.024   0.000  -0.013
 -0.001   0.004   0.000  -0.002   0.004   0.000   0.009   0.000   0.000   0.000   0.001   0.000  -0.000
  0.000   0.000   0.002   0.000   0.000   0.001   0.000   0.000   0.012   0.000   0.000  -0.002   0.000
 -0.020   0.008   0.000   0.014  -0.005   0.000   0.012   0.000   0.000   0.011   0.003   0.000  -0.004
 -0.019  -0.075   0.000   0.018   0.069   0.000   0.024   0.001   0.000   0.003   0.022   0.000   0.004
  0.000   0.000  -0.013   0.000   0.000   0.008   0.000   0.000  -0.002   0.000   0.000   0.012   0.000
 -0.031   0.002   0.000   0.029  -0.001   0.000  -0.013  -0.000   0.000  -0.004   0.004   0.000   0.010


------------------------ aborting loop because EDIFF is reached ----------------------------------------


 


 total charge     
 
# of ion       s       p       d       tot
------------------------------------------
    1        0.059   6.039   0.054   6.153
    2        0.059   6.039   0.054   6.153
    3        0.072   6.063   0.066   6.201
    4        0.072   6.063   0.066   6.201
    5        1.834   1.453   0.151   3.438
    6        1.834   1.453   0.151   3.438
    7        1.833   1.449   0.151   3.432
    8        1.833   1.449   0.151   3.432
    9        1.813   1.531   0.142   3.486
   10        1.813   1.531   0.142   3.486
   11        1.825   1.472   0.144   3.441
   12        1.825   1.472   0.144   3.441
   13        1.478   2.297   0.018   3.792
   14        1.478   2.297   0.018   3.792
   15        1.464   2.334   0.013   3.811
   16        1.464   2.334   0.013   3.811
   17        1.469   2.325   0.017   3.811
   18        1.469   2.325   0.017   3.811
   19        1.464   2.321   0.012   3.797
   20        1.464   2.321   0.012   3.797
   21        1.471   2.311   0.018   3.800
   22        1.471   2.311   0.018   3.800
   23        1.463   2.333   0.013   3.809
   24        1.463   2.333   0.013   3.809
   25        1.463   2.317   0.013   3.793
   26        1.463   2.317   0.013   3.793
--------------------------------------------------
tot         35.415  68.489   1.624 105.527
 
    CHARGE:  cpu time    0.0378: real time    0.0378
    FORLOC:  cpu time    0.0026: real time    0.0026
    FORNL :  cpu time    0.2290: real time    0.2291
    STRESS:  cpu time    0.4546: real time    0.4546
    FORCOR:  cpu time    0.0140: real time    0.0140
    FORHAR:  cpu time    0.0048: real time    0.0048
    MIXING:  cpu time    0.0004: real time    0.0004
    OFIELD:  cpu time    0.0000: real time    0.0000

  FORCE on cell =-STRESS in cart. coord.  units (eV):
  Direction    XX          YY          ZZ          XY          YZ          ZX
  --------------------------------------------------------------------------------------
  Alpha Z   301.02883   301.02883   301.02883
  Ewald   -1753.03726 -1882.29470 -1940.53947    -0.00000    31.07585    -0.00000
  Hartree   431.91122   346.76047   282.39792     0.00000    28.60165    -0.00000
  E(xc)    -593.90523  -593.77933  -593.93747    -0.00000     0.24573    -0.00000
  Local    -653.40358  -441.15178  -317.57004    -0.00000   -62.69966     0.00000
  n-local  1078.91438  1078.49436  1080.61109    -0.02321    -0.44625     0.08998
  augment  -248.86484  -248.03864  -247.60022     0.00000     0.50036     0.00000
  Kinetic  1437.24938  1438.89569  1435.60318     0.03215     2.86572     0.12643
  Fock        0.00000     0.00000     0.00000     0.00000     0.00000     0.00000
  -------------------------------------------------------------------------------------
  Total      -0.10711    -0.08511    -0.00618     0.00000     0.14339     0.00000
  in kB      -0.20416    -0.16223    -0.01179     0.00000     0.27331     0.00000
  external pressure =       -0.13 kB  Pullay stress =        0.00 kB


 VOLUME and BASIS-vectors are now :
 -----------------------------------------------------------------------------
  energy-cutoff  :      300.00
  volume of cell :      840.57
      direct lattice vectors                 reciprocal lattice vectors
     4.247193284  0.000000000  0.000000000     0.235449609  0.000000000  0.000000000
     0.000000000 13.111078922 -0.110110408     0.000000000  0.076245240 -0.003111793
     0.000000000  0.615859159 15.089798048     0.000000000  0.000556362  0.066247232

  length of vectors
     4.247193284 13.111541283 15.102360333     0.235449609  0.076308714  0.066249569


 FORCES acting on ions
    electron-ion (+dipol)            ewald-force                    non-local-force                 convergence-correction
 -----------------------------------------------------------------------------------------------
   0.354E-14 -.247E+02 0.483E+02   -.385E-14 0.243E+02 -.472E+02   -.217E-18 0.431E+00 -.105E+01   0.333E-13 -.178E-03 -.134E-02
   0.558E-13 0.247E+02 -.483E+02   0.123E-13 -.243E+02 0.472E+02   0.217E-18 -.431E+00 0.105E+01   -.185E-13 0.178E-03 0.134E-02
   0.336E-13 -.117E+02 0.252E+02   -.942E-14 0.122E+02 -.254E+02   0.000E+00 -.502E+00 0.187E+00   -.126E-13 0.108E-02 -.625E-03
   0.147E-13 0.117E+02 -.252E+02   0.758E-14 -.122E+02 0.254E+02   0.000E+00 0.502E+00 -.187E+00   0.221E-13 -.108E-02 0.625E-03
   0.630E-14 -.164E+02 -.338E+02   0.237E-13 0.177E+02 0.329E+02   0.000E+00 -.125E+01 0.903E+00   -.766E-14 0.542E-03 -.420E-04
   0.515E-14 0.164E+02 0.338E+02   -.167E-13 -.177E+02 -.329E+02   0.000E+00 0.125E+01 -.903E+00   0.531E-14 -.542E-03 0.420E-04
   0.169E-13 -.181E+01 -.510E+01   0.658E-15 0.184E+01 0.386E+01   0.000E+00 -.249E-01 0.124E+01   -.154E-14 -.361E-03 -.254E-03
   0.141E-13 0.181E+01 0.510E+01   -.132E-13 -.184E+01 -.386E+01   0.000E+00 0.249E-01 -.124E+01   0.836E-17 0.361E-03 0.254E-03
   0.112E-13 -.498E+01 0.439E+01   -.754E-14 0.837E+01 -.356E+01   0.000E+00 -.337E+01 -.832E+00   0.322E-14 0.384E-03 0.675E-03
   0.761E-14 0.498E+01 -.439E+01   -.820E-16 -.837E+01 0.356E+01   0.000E+00 0.337E+01 0.832E+00   -.640E-14 -.384E-03 -.675E-03
   0.156E-13 0.136E+02 0.141E+02   0.112E-13 -.135E+02 -.118E+02   0.000E+00 -.138E+00 -.235E+01   -.341E-15 0.495E-03 -.396E-03
   0.530E-14 -.136E+02 -.141E+02   -.954E-14 0.135E+02 0.118E+02   0.000E+00 0.138E+00 0.235E+01   -.357E-14 -.495E-03 0.396E-03
   0.327E-13 0.105E+02 -.838E+01   0.587E-14 -.128E+02 0.785E+01   0.000E+00 0.237E+01 0.525E+00   -.355E-14 -.116E-02 0.609E-03
   0.455E-13 -.105E+02 0.838E+01   -.915E-15 0.128E+02 -.785E+01   0.000E+00 -.237E+01 -.525E+00   0.859E-14 0.116E-02 -.609E-03
   0.504E-13 -.138E+02 -.765E+02   -.221E-13 0.146E+02 0.782E+02   -.434E-18 -.773E+00 -.168E+01   0.120E-13 0.588E-03 0.661E-03
   0.206E-13 0.138E+02 0.765E+02   0.159E-13 -.146E+02 -.782E+02   0.434E-18 0.773E+00 0.168E+01   -.205E-14 -.588E-03 -.661E-03
   0.548E-13 0.199E+02 -.178E+02   -.159E-13 -.213E+02 0.173E+02   0.434E-18 0.137E+01 0.522E+00   0.171E-13 -.601E-03 -.297E-03
   0.274E-13 -.199E+02 0.178E+02   0.199E-13 0.213E+02 -.173E+02   -.434E-18 -.137E+01 -.522E+00   -.614E-14 0.601E-03 0.297E-03
   0.672E-13 0.247E+02 0.447E+02   -.209E-14 -.259E+02 -.457E+02   -.217E-18 0.122E+01 0.938E+00   -.154E-14 0.923E-03 -.108E-02
   0.195E-13 -.247E+02 -.447E+02   0.525E-14 0.259E+02 0.457E+02   0.217E-18 -.122E+01 -.938E+00   0.996E-14 -.923E-03 0.108E-02
   0.247E-13 0.875E+00 -.119E+01   0.791E-14 -.123E+01 0.732E+00   0.542E-19 0.386E+00 0.451E+00   0.161E-14 -.623E-03 -.336E-03
   0.483E-13 -.875E+00 0.119E+01   -.983E-14 0.123E+01 -.732E+00   -.542E-19 -.386E+00 -.451E+00   0.905E-14 0.623E-03 0.336E-03
   0.249E-13 -.496E+02 -.310E+02   -.847E-14 0.506E+02 0.325E+02   0.434E-18 -.956E+00 -.155E+01   0.531E-14 -.349E-03 0.158E-02
   0.500E-13 0.496E+02 0.310E+02   0.156E-13 -.506E+02 -.325E+02   -.434E-18 0.956E+00 0.155E+01   0.313E-14 0.349E-03 -.158E-02
   0.255E-13 0.298E+02 0.257E+02   0.292E-15 -.306E+02 -.272E+02   -.108E-18 0.830E+00 0.148E+01   0.754E-14 0.375E-03 -.233E-02
   0.568E-13 -.298E+02 -.257E+02   0.820E-14 0.306E+02 0.272E+02   0.108E-18 -.830E+00 -.148E+01   0.210E-14 -.375E-03 0.233E-02
 -----------------------------------------------------------------------------------------------
   0.738E-12 0.121E-11 -.219E-10   0.146E-13 0.355E-14 -.142E-13   0.000E+00 -.888E-15 0.000E+00   0.764E-13 0.300E-12 -.324E-12
 
 
 POSITION                                       TOTAL-FORCE (eV/Angst)
 -----------------------------------------------------------------------------------
      1.06180      7.85618     12.23901        -0.000000     -0.001971     -0.010307
      3.18539      5.87076      2.74067        -0.000000      0.001971      0.010307
      3.18539     11.20677      9.32383         0.000000     -0.012178      0.003572
      1.06180      2.52016      5.65586        -0.000000      0.012178     -0.003572
      1.06180     11.14390      4.15919        -0.000000     -0.000901     -0.000280
      3.18539      2.58304     10.82050        -0.000000      0.000901      0.000280
      3.18539      8.23187      6.43551        -0.000000      0.001376     -0.007745
      1.06180      5.49507      8.54418        -0.000000     -0.001376      0.007745
      3.18539      9.59056      0.61404        -0.000000      0.006853     -0.003252
      1.06180      4.13638     14.36564         0.000000     -0.006853      0.003252
      1.06180     12.86079     13.07495        -0.000000      0.000563     -0.014887
      3.18539      0.86615      1.90474         0.000000     -0.000563      0.014887
      1.06180      7.76264      0.43369        -0.000000      0.016536      0.000290
      3.18539      5.96430     14.54600        -0.000000     -0.016536     -0.000290
      3.18539     13.28326      4.52012        -0.000000     -0.000156      0.013882
      1.06180      0.44368     10.45957        -0.000000      0.000156     -0.013882
      3.18539      9.21345      3.57221        -0.000000     -0.020591      0.004111
      1.06180      4.51349     11.40748        -0.000000      0.020591     -0.004111
      3.18539     10.81062     12.79265        -0.000000      0.046694      0.014310
      1.06180      2.91632      2.18704        -0.000000     -0.046694     -0.014310
      1.06180     11.92345      1.19031        -0.000000      0.028206     -0.004724
      3.18539      1.80349     13.78938        -0.000000     -0.028206      0.004724
      1.06180     10.27317      6.89920         0.000000      0.017379     -0.009313
      3.18539      3.45377      8.08049        -0.000000     -0.017379      0.009313
      1.06180      6.19961      5.75372        -0.000000      0.003405     -0.025802
      3.18539      7.52733      9.22597        -0.000000     -0.003405      0.025802
 -----------------------------------------------------------------------------------
    total drift:                                0.000000      0.000000     -0.000000


--------------------------------------------------------------------------------------------------------



  FREE ENERGIE OF THE ION-ELECTRON SYSTEM (eV)
  ---------------------------------------------------
  free  energy   TOTEN  =      -100.97566623 eV

  energy  without entropy=     -100.97566623  energy(sigma->0) =     -100.97566623
 
 d Force = 0.3297405E-06[-0.123E-06, 0.782E-06]  d Energy =-0.1013313E-04 0.105E-04
 d Force =-0.4779396E-02[-0.478E-02,-0.478E-02]  d Ewald  = 0.4067926E-02-0.885E-02


--------------------------------------------------------------------------------------------------------


    POTLOK:  cpu time    0.2522: real time    0.2522


--------------------------------------------------------------------------------------------------------




--------------------------------------------------------------------------------------------------------


  
 reached required accuracy - stopping structural energy minimisation
     LOOP+:  cpu time    2.7973: real time    2.7978
    4ORBIT:  cpu time    0.0000: real time    0.0000
 


 total charge     
 
# of ion       s       p       d       tot
------------------------------------------
    1        0.059   6.039   0.054   6.153
    2        0.059   6.039   0.054   6.153
    3        0.072   6.063   0.066   6.201
    4        0.072   6.063   0.066   6.201
    5        1.834   1.453   0.151   3.438
    6        1.834   1.453   0.151   3.438
    7        1.833   1.449   0.151   3.432
    8        1.833   1.449   0.151   3.432
    9        1.813   1.531   0.142   3.486
   10        1.813   1.531   0.142   3.486
   11        1.825   1.472   0.144   3.441
   12        1.825   1.472   0.144   3.441
   13        1.478   2.297   0.018   3.792
   14        1.478   2.297   0.018   3.792
   15        1.464   2.334   0.013   3.811
   16        1.464   2.334   0.013   3.811
   17        1.469   2.325   0.017   3.811
   18        1.469   2.325   0.017   3.811
   19        1.464   2.321   0.012   3.797
   20        1.464   2.321   0.012   3.797
   21        1.471   2.311   0.018   3.800
   22        1.471   2.311   0.018   3.800
   23        1.463   2.333   0.013   3.809
   24        1.463   2.333   0.013   3.809
   25        1.463   2.317   0.013   3.793
   26        1.463   2.317   0.013   3.793
--------------------------------------------------
tot         35.415  68.489   1.624 105.527
 

 total amount of memory used by VASP MPI-rank0    46248. kBytes
=======================================================================

   base      :      30000. kBytes
   nonlr-proj:       3343. kBytes
   fftplans  :       1227. kBytes
   grid      :       4488. kBytes
   one-center:        210. kBytes
   wavefun   :       6980. kBytes
 
  
  
 General timing and accounting informations for this job:
 ========================================================
  
                  Total CPU time used (sec):      215.611
                            User time (sec):      212.236
                          System time (sec):        3.376
                         Elapsed time (sec):      215.762
  
                   Maximum memory used (kb):       85384.
                   Average memory used (kb):           0.
  
                          Minor page faults:        66479
                          Major page faults:            0
                 Voluntary context switches:          355
