PROCAR new format
# of k-points:    6         # of bands:   98         # of ions:   26

 k-point     1 :    0.00000000 0.25000000 0.25000000     weight = 0.10000000

band     1 # energy  -11.60628403 # occ.  2.00000000
 
ion      s      p      d    tot
    1  0.000  0.070  0.000  0.070
    2  0.000  0.070  0.000  0.070
    3  0.000  0.080  0.000  0.080
    4  0.000  0.080  0.000  0.080
    5  0.030  0.000  0.000  0.030
    6  0.030  0.000  0.000  0.030
    7  0.016  0.000  0.000  0.016
    8  0.016  0.000  0.000  0.016
    9  0.024  0.000  0.000  0.024
   10  0.024  0.000  0.000  0.024
   11  0.032  0.000  0.000  0.032
   12  0.032  0.000  0.000  0.032
   13  0.013  0.000  0.000  0.013
   14  0.013  0.000  0.000  0.013
   15  0.022  0.000  0.000  0.023
   16  0.022  0.000  0.000  0.023
   17  0.030  0.000  0.000  0.030
   18  0.030  0.000  0.000  0.030
   19  0.017  0.000  0.000  0.017
   20  0.017  0.000  0.000  0.017
   21  0.037  0.000  0.000  0.037
   22  0.037  0.000  0.000  0.037
   23  0.016  0.000  0.000  0.016
   24  0.016  0.000  0.000  0.016
   25  0.008  0.000  0.000  0.008
   26  0.008  0.000  0.000  0.008
tot    0.490  0.302  0.000  0.792
 
band     2 # energy  -11.50359600 # occ.  2.00000000
 
ion      s      p      d    tot
    1  0.000  0.358  0.000  0.358
    2  0.000  0.358  0.000  0.358
    3  0.000  0.033  0.000  0.033
    4  0.000  0.033  0.000  0.033
    5  0.002  0.000  0.000  0.002
    6  0.002  0.000  0.000  0.002
    7  0.008  0.000  0.000  0.008
    8  0.008  0.000  0.000  0.008
    9  0.012  0.000  0.000  0.013
   10  0.012  0.000  0.000  0.013
   11  0.001  0.000  0.000  0.001
   12  0.001  0.000  0.000  0.001
   13  0.026  0.000  0.000  0.026
   14  0.026  0.000  0.000  0.026
   15  0.000  0.000  0.000  0.000
   16  0.000  0.000  0.000  0.000
   17  0.005  0.000  0.000  0.005
   18  0.005  0.000  0.000  0.005
   19  0.002  0.000  0.000  0.002
   20  0.002  0.000  0.000  0.002
   21  0.001  0.000  0.000  0.002
   22  0.001  0.000  0.000  0.002
   23  0.005  0.000  0.000  0.005
   24  0.005  0.000  0.000  0.005
   25  0.008  0.000  0.000  0.008
   26  0.008  0.000  0.000  0.008
tot    0.140  0.783  0.000  0.923
 
band     3 # energy  -11.48214166 # occ.  2.00000000
 
ion      s      p      d    tot
    1  0.000  0.237  0.000  0.237
    2  0.000  0.237  0.000  0.237
    3  0.000  0.126  0.000  0.126
    4  0.000  0.126  0.000  0.126
    5  0.012  0.000  0.000  0.012
    6  0.012  0.000  0.000  0.012
    7  0.007  0.000  0.000  0.008
    8  0.007  0.000  0.000  0.008
    9  0.006  0.000  0.000  0.006
   10  0.006  0.000  0.000  0.006
   11  0.008  0.000  0.000  0.008
   12  0.008  0.000  0.000  0.008
   13  0.003  0.000  0.000  0.003
   14  0.003  0.000  0.000  0.003
   15  0.013  0.000  0.000  0.013
   16  0.013  0.000  0.000  0.013
   17  0.015  0.000  0.000  0.015
   18  0.015  0.000  0.000  0.015
   19  0.006  0.000  0.000  0.006
   20  0.006  0.000  0.000  0.006
   21  0.008  0.000  0.000  0.008
   22  0.008  0.000  0.000  0.008
   23  0.008  0.000  0.000  0.008
   24  0.008  0.000  0.000  0.008
   25  0.005  0.000  0.000  0.005
   26  0.005  0.000  0.000  0.005
tot    0.182  0.727  0.000  0.909
 
band     4 # energy  -11.44614207 # occ.  2.00000000
 
ion      s      p      d    tot
    1  0.000  0.264  0.000  0.264
    2  0.000  0.264  0.000  0.264
    3  0.000  0.172  0.000  0.172
    4  0.000  0.172  0.000  0.172
    5  0.002  0.000  0.000  0.002
    6  0.002  0.000  0.000  0.002
    7  0.002  0.000  0.000  0.002
    8  0.002  0.000  0.000  0.002
    9  0.001  0.000  0.000  0.001
   10  0.001  0.000  0.000  0.001
   11  0.006  0.000  0.000  0.006
   12  0.006  0.000  0.000  0.006
   13  0.001  0.000  0.000  0.001
   14  0.001  0.000  0.000  0.001
   15  0.006  0.000  0.000  0.006
   16  0.006  0.000  0.000  0.006
   17  0.003  0.000  0.000  0.003
   18  0.003  0.000  0.000  0.003
   19  0.007  0.000  0.000  0.007
   20  0.007  0.000  0.000  0.007
   21  0.004  0.000  0.000  0.004
   22  0.004  0.000  0.000  0.004
   23  0.007  0.000  0.000  0.007
   24  0.007  0.000  0.000  0.007
   25  0.000  0.000  0.000  0.000
   26  0.000  0.000  0.000  0.000
tot    0.076  0.875  0.000  0.951
 
band     5 # energy  -11.41574520 # occ.  2.00000000
 
ion      s      p      d    tot
    1  0.000  0.366  0.000  0.366
    2  0.000  0.366  0.000  0.366
    3  0.000  0.089  0.000  0.089
    4  0.000  0.089  0.000  0.089
    5  0.004  0.000  0.000  0.004
    6  0.004  0.000  0.000  0.004
    7  0.004  0.000  0.000  0.004
    8  0.004  0.000  0.000  0.004
    9  0.001  0.000  0.000  0.001
   10  0.001  0.000  0.000  0.001
   11  0.001  0.000  0.000  0.001
   12  0.001  0.000  0.000  0.001
   13  0.001  0.000  0.000  0.001
   14  0.001  0.000  0.000  0.001
   15  0.001  0.000  0.000  0.001
   16  0.001  0.000  0.000  0.001
   17  0.004  0.000  0.000  0.004
   18  0.004  0.000  0.000  0.004
   19  0.001  0.000  0.000  0.001
   20  0.001  0.000  0.000  0.001
   21  0.001  0.000  0.000  0.001
   22  0.001  0.000  0.000  0.001
   23  0.006  0.000  0.000  0.006
   24  0.006  0.000  0.000  0.006
   25  0.004  0.000  0.000  0.004
   26  0.004  0.000  0.000  0.004
tot    0.053  0.910  0.000  0.963
 
band     6 # energy  -11.40933546 # occ.  2.00000000
 
ion      s      p      d    tot
    1  0.000  0.496  0.000  0.496
    2  0.000  0.496  0.000  0.496
    3  0.000  0.000  0.000  0.000
    4  0.000  0.000  0.000  0.000
    5  0.000  0.000  0.000  0.000
    6  0.000  0.000  0.000  0.000
    7  0.000  0.000  0.000  0.000
    8  0.000  0.000  0.000  0.000
    9  0.000  0.000  0.000  0.000
   10  0.000  0.000  0.000  0.000
   11  0.000  0.000  0.000  0.000
   12  0.000  0.000  0.000  0.000
   13  0.000  0.000  0.000  0.000
   14  0.000  0.000  0.000  0.000
   15  0.000  0.000  0.000  0.000
   16  0.000  0.000  0.000  0.000
   17  0.000  0.000  0.000  0.000
   18  0.000  0.000  0.000  0.000
   19  0.000  0.000  0.000  0.000
   20  0.000  0.000  0.000  0.000
   21  0.000  0.000  0.000  0.000
   22  0.000  0.000  0.000  0.000
   23  0.000  0.000  0.000  0.000
   24  0.000  0.000  0.000  0.000
   25  0.000  0.000  0.000  0.000
   26  0.000  0.000  0.000  0.000
tot    0.000  0.991  0.000  0.992
 
band     7 # energy  -11.40894072 # occ.  2.00000000
 
ion      s      p      d    tot
    1  0.000  0.496  0.000  0.496
    2  0.000  0.496  0.000  0.496
    3  0.000  0.000  0.000  0.000
    4  0.000  0.000  0.000  0.000
    5  0.000  0.000  0.000  0.000
    6  0.000  0.000  0.000  0.000
    7  0.000  0.000  0.000  0.000
    8  0.000  0.000  0.000  0.000
    9  0.000  0.000  0.000  0.000
   10  0.000  0.000  0.000  0.000
   11  0.000  0.000  0.000  0.000
   12  0.000  0.000  0.000  0.000
   13  0.000  0.000  0.000  0.000
   14  0.000  0.000  0.000  0.000
   15  0.000  0.000  0.000  0.000
   16  0.000  0.000  0.000  0.000
   17  0.000  0.000  0.000  0.000
   18  0.000  0.000  0.000  0.000
   19  0.000  0.000  0.000  0.000
   20  0.000  0.000  0.000  0.000
   21  0.000  0.000  0.000  0.000
   22  0.000  0.000  0.000  0.000
   23  0.000  0.000  0.000  0.000
   24  0.000  0.000  0.000  0.000
   25  0.000  0.000  0.000  0.000
   26  0.000  0.000  0.000  0.000
tot    0.000  0.992  0.000  0.992
 
band     8 # energy  -11.40341521 # occ.  2.00000000
 
ion      s      p      d    tot
    1  0.000  0.218  0.000  0.218
    2  0.000  0.218  0.000  0.218
    3  0.000  0.243  0.000  0.243
    4  0.000  0.243  0.000  0.243
    5  0.002  0.000  0.000  0.002
    6  0.002  0.000  0.000  0.002
    7  0.000  0.000  0.000  0.000
    8  0.000  0.000  0.000  0.000
    9  0.001  0.000  0.000  0.001
   10  0.001  0.000  0.000  0.001
   11  0.002  0.000  0.000  0.002
   12  0.002  0.000  0.000  0.002
   13  0.002  0.000  0.000  0.002
   14  0.002  0.000  0.000  0.002
   15  0.010  0.000  0.000  0.010
   16  0.010  0.000  0.000  0.010
   17  0.001  0.000  0.000  0.001
   18  0.001  0.000  0.000  0.001
   19  0.000  0.000  0.000  0.000
   20  0.000  0.000  0.000  0.000
   21  0.002  0.000  0.000  0.002
   22  0.002  0.000  0.000  0.002
   23  0.001  0.000  0.000  0.001
   24  0.001  0.000  0.000  0.001
   25  0.000  0.000  0.000  0.000
   26  0.000  0.000  0.000  0.000
tot    0.042  0.924  0.000  0.966
 
band     9 # energy  -11.38336903 # occ.  2.00000000
 
ion      s      p      d    tot
    1  0.000  0.104  0.000  0.104
    2  0.000  0.104  0.000  0.104
    3  0.000  0.377  0.000  0.377
    4  0.000  0.377  0.000  0.377
    5  0.001  0.000  0.000  0.001
    6  0.001  0.000  0.000  0.001
    7  0.000  0.000  0.000  0.000
    8  0.000  0.000  0.000  0.000
    9  0.000  0.000  0.000  0.000
   10  0.000  0.000  0.000  0.000
   11  0.000  0.000  0.000  0.000
   12  0.000  0.000  0.000  0.000
   13  0.000  0.000  0.000  0.000
   14  0.000  0.000  0.000  0.000
   15  0.002  0.000  0.000  0.002
   16  0.002  0.000  0.000  0.002
   17  0.000  0.000  0.000  0.000
   18  0.000  0.000  0.000  0.000
   19  0.000  0.000  0.000  0.000
   20  0.000  0.000  0.000  0.000
   21  0.000  0.000  0.000  0.000
   22  0.000  0.000  0.000  0.000
   23  0.003  0.000  0.000  0.003
   24  0.003  0.000  0.000  0.003
   25  0.000  0.000  0.000  0.000
   26  0.000  0.000  0.000  0.000
tot    0.016  0.963  0.000  0.979
 
band    10 # energy  -11.37472819 # occ.  2.00000000
 
ion      s      p      d    tot
    1  0.000  0.053  0.000  0.053
    2  0.000  0.053  0.000  0.053
    3  0.000  0.435  0.000  0.435
    4  0.000  0.435  0.000  0.435
    5  0.000  0.000  0.000  0.000
    6  0.000  0.000  0.000  0.000
    7  0.000  0.000  0.000  0.000
    8  0.000  0.000  0.000  0.000
    9  0.000  0.000  0.000  0.000
   10  0.000  0.000  0.000  0.000
   11  0.000  0.000  0.000  0.000
   12  0.000  0.000  0.000  0.000
   13  0.000  0.000  0.000  0.000
   14  0.000  0.000  0.000  0.000
   15  0.001  0.000  0.000  0.001
   16  0.001  0.000  0.000  0.001
   17  0.000  0.000  0.000  0.000
   18  0.000  0.000  0.000  0.000
   19  0.001  0.000  0.000  0.001
   20  0.001  0.000  0.000  0.001
   21  0.000  0.000  0.000  0.000
   22  0.000  0.000  0.000  0.000
   23  0.001  0.000  0.000  0.001
   24  0.001  0.000  0.000  0.001
   25  0.000  0.000  0.000  0.000
   26  0.000  0.000  0.000  0.000
tot    0.007  0.977  0.000  0.984
 
band    11 # energy  -11.32686215 # occ.  2.00000000
 
ion      s      p      d    tot
    1  0.000  0.000  0.000  0.000
    2  0.000  0.000  0.000  0.000
    3  0.000  0.495  0.000  0.495
    4  0.000  0.495  0.000  0.495
    5  0.000  0.000  0.000  0.000
    6  0.000  0.000  0.000  0.000
    7  0.000  0.000  0.000  0.000
    8  0.000  0.000  0.000  0.000
    9  0.000  0.000  0.000  0.000
   10  0.000  0.000  0.000  0.000
   11  0.000  0.000  0.000  0.000
   12  0.000  0.000  0.000  0.000
   13  0.000  0.000  0.000  0.000
   14  0.000  0.000  0.000  0.000
   15  0.000  0.000  0.000  0.000
   16  0.000  0.000  0.000  0.000
   17  0.000  0.000  0.000  0.000
   18  0.000  0.000  0.000  0.000
   19  0.000  0.000  0.000  0.000
   20  0.000  0.000  0.000  0.000
   21  0.000  0.000  0.000  0.000
   22  0.000  0.000  0.000  0.000
   23  0.000  0.000  0.000  0.000
   24  0.000  0.000  0.000  0.000
   25  0.000  0.000  0.000  0.000
   26  0.000  0.000  0.000  0.000
tot    0.000  0.991  0.000  0.991
 
band    12 # energy  -11.32677600 # occ.  2.00000000
 
ion      s      p      d    tot
    1  0.000  0.000  0.000  0.000
    2  0.000  0.000  0.000  0.000
    3  0.000  0.495  0.000  0.495
    4  0.000  0.495  0.000  0.495
    5  0.000  0.000  0.000  0.000
    6  0.000  0.000  0.000  0.000
    7  0.000  0.000  0.000  0.000
    8  0.000  0.000  0.000  0.000
    9  0.000  0.000  0.000  0.000
   10  0.000  0.000  0.000  0.000
   11  0.000  0.000  0.000  0.000
   12  0.000  0.000  0.000  0.000
   13  0.000  0.000  0.000  0.000
   14  0.000  0.000  0.000  0.000
   15  0.000  0.000  0.000  0.000
   16  0.000  0.000  0.000  0.000
   17  0.000  0.000  0.000  0.000
   18  0.000  0.000  0.000  0.000
   19  0.000  0.000  0.000  0.000
   20  0.000  0.000  0.000  0.000
   21  0.000  0.000  0.000  0.000
   22  0.000  0.000  0.000  0.000
   23  0.000  0.000  0.000  0.000
   24  0.000  0.000  0.000  0.000
   25  0.000  0.000  0.000  0.000
   26  0.000  0.000  0.000  0.000
tot    0.000  0.991  0.000  0.991
 
band    13 # energy  -11.32547623 # occ.  2.00000000
 
ion      s      p      d    tot
    1  0.000  0.139  0.000  0.139
    2  0.000  0.139  0.000  0.139
    3  0.000  0.176  0.000  0.176
    4  0.000  0.176  0.000  0.176
    5  0.017  0.000  0.000  0.017
    6  0.017  0.000  0.000  0.017
    7  0.008  0.000  0.000  0.008
    8  0.008  0.000  0.000  0.008
    9  0.010  0.000  0.000  0.010
   10  0.010  0.000  0.000  0.010
   11  0.018  0.000  0.000  0.019
   12  0.018  0.000  0.000  0.019
   13  0.003  0.000  0.000  0.003
   14  0.003  0.000  0.000  0.003
   15  0.006  0.000  0.000  0.006
   16  0.006  0.000  0.000  0.006
   17  0.014  0.000  0.000  0.014
   18  0.014  0.000  0.000  0.014
   19  0.007  0.000  0.000  0.008
   20  0.007  0.000  0.000  0.008
   21  0.029  0.000  0.000  0.029
   22  0.029  0.000  0.000  0.029
   23  0.011  0.000  0.000  0.011
   24  0.011  0.000  0.000  0.011
   25  0.004  0.000  0.000  0.004
   26  0.004  0.000  0.000  0.004
tot    0.257  0.633  0.000  0.890
 
band    14 # energy  -11.17154587 # occ.  2.00000000
 
ion      s      p      d    tot
    1  0.000  0.059  0.000  0.059
    2  0.000  0.059  0.000  0.059
    3  0.000  0.083  0.000  0.083
    4  0.000  0.083  0.000  0.083
    5  0.055  0.000  0.000  0.056
    6  0.055  0.000  0.000  0.056
    7  0.014  0.001  0.000  0.014
    8  0.014  0.001  0.000  0.014
    9  0.024  0.001  0.000  0.024
   10  0.024  0.001  0.000  0.024
   11  0.012  0.001  0.000  0.013
   12  0.012  0.001  0.000  0.013
   13  0.012  0.000  0.000  0.012
   14  0.012  0.000  0.000  0.012
   15  0.021  0.000  0.000  0.021
   16  0.021  0.000  0.000  0.021
   17  0.061  0.001  0.000  0.061
   18  0.061  0.001  0.000  0.061
   19  0.002  0.000  0.000  0.002
   20  0.002  0.000  0.000  0.002
   21  0.035  0.000  0.000  0.035
   22  0.035  0.000  0.000  0.035
   23  0.016  0.000  0.000  0.016
   24  0.016  0.000  0.000  0.016
   25  0.004  0.000  0.000  0.004
   26  0.004  0.000  0.000  0.004
tot    0.510  0.294  0.000  0.804
 
band    15 # energy  -11.08161134 # occ.  2.00000000
 
ion      s      p      d    tot
    1  0.000  0.024  0.000  0.025
    2  0.000  0.024  0.000  0.025
    3  0.000  0.059  0.000  0.059
    4  0.000  0.059  0.000  0.059
    5  0.006  0.002  0.000  0.007
    6  0.006  0.002  0.000  0.007
    7  0.081  0.001  0.000  0.081
    8  0.081  0.001  0.000  0.081
    9  0.012  0.000  0.000  0.012
   10  0.012  0.000  0.000  0.012
   11  0.027  0.000  0.000  0.027
   12  0.027  0.000  0.000  0.027
   13  0.006  0.000  0.000  0.006
   14  0.006  0.000  0.000  0.006
   15  0.003  0.000  0.000  0.003
   16  0.003  0.000  0.000  0.003
   17  0.019  0.000  0.000  0.019
   18  0.019  0.000  0.000  0.019
   19  0.019  0.000  0.000  0.019
   20  0.019  0.000  0.000  0.019
   21  0.030  0.000  0.000  0.030
   22  0.030  0.000  0.000  0.030
   23  0.032  0.001  0.000  0.033
   24  0.032  0.001  0.000  0.033
   25  0.065  0.001  0.000  0.066
   26  0.065  0.001  0.000  0.066
tot    0.595  0.178  0.000  0.773
 
band    16 # energy  -10.81624549 # occ.  2.00000000
 
ion      s      p      d    tot
    1  0.000  0.038  0.000  0.039
    2  0.000  0.038  0.000  0.039
    3  0.000  0.035  0.000  0.035
    4  0.000  0.035  0.000  0.035
    5  0.009  0.000  0.000  0.010
    6  0.009  0.000  0.000  0.010
    7  0.003  0.000  0.000  0.003
    8  0.003  0.000  0.000  0.003
    9  0.061  0.002  0.000  0.063
   10  0.061  0.002  0.000  0.063
   11  0.050  0.001  0.000  0.051
   12  0.050  0.001  0.000  0.051
   13  0.073  0.001  0.000  0.073
   14  0.073  0.001  0.000  0.073
   15  0.029  0.000  0.000  0.030
   16  0.029  0.000  0.000  0.030
   17  0.001  0.000  0.000  0.002
   18  0.001  0.000  0.000  0.002
   19  0.077  0.001  0.000  0.078
   20  0.077  0.001  0.000  0.078
   21  0.001  0.001  0.000  0.002
   22  0.001  0.001  0.000  0.002
   23  0.003  0.000  0.000  0.003
   24  0.003  0.000  0.000  0.003
   25  0.001  0.000  0.000  0.001
   26  0.001  0.000  0.000  0.001
tot    0.619  0.160  0.001  0.780
 
band    17 # energy  -10.54389855 # occ.  2.00000000
 
ion      s      p      d    tot
    1  0.000  0.021  0.000  0.021
    2  0.000  0.021  0.000  0.021
    3  0.000  0.016  0.000  0.016
    4  0.000  0.016  0.000  0.016
    5  0.005  0.002  0.000  0.008
    6  0.005  0.002  0.000  0.008
    7  0.017  0.001  0.000  0.017
    8  0.017  0.001  0.000  0.017
    9  0.040  0.003  0.000  0.043
   10  0.040  0.003  0.000  0.043
   11  0.049  0.001  0.000  0.050
   12  0.049  0.001  0.000  0.050
   13  0.089  0.001  0.000  0.090
   14  0.089  0.001  0.000  0.090
   15  0.022  0.001  0.000  0.023
   16  0.022  0.001  0.000  0.023
   17  0.029  0.000  0.000  0.030
   18  0.029  0.000  0.000  0.030
   19  0.026  0.000  0.000  0.026
   20  0.026  0.000  0.000  0.026
   21  0.027  0.001  0.000  0.027
   22  0.027  0.001  0.000  0.027
   23  0.029  0.000  0.000  0.030
   24  0.029  0.000  0.000  0.030
   25  0.001  0.000  0.000  0.001
   26  0.001  0.000  0.000  0.001
tot    0.670  0.093  0.002  0.764
 
band    18 # energy  -10.48548416 # occ.  2.00000000
 
ion      s      p      d    tot
    1  0.000  0.004  0.000  0.004
    2  0.000  0.004  0.000  0.004
    3  0.000  0.003  0.000  0.004
    4  0.000  0.003  0.000  0.004
    5  0.015  0.003  0.000  0.018
    6  0.015  0.003  0.000  0.018
    7  0.028  0.003  0.000  0.031
    8  0.028  0.003  0.000  0.031
    9  0.037  0.002  0.000  0.039
   10  0.037  0.002  0.000  0.039
   11  0.033  0.001  0.000  0.034
   12  0.033  0.001  0.000  0.034
   13  0.043  0.001  0.000  0.044
   14  0.043  0.001  0.000  0.044
   15  0.004  0.000  0.000  0.005
   16  0.004  0.000  0.000  0.005
   17  0.066  0.001  0.000  0.066
   18  0.066  0.001  0.000  0.066
   19  0.014  0.000  0.000  0.015
   20  0.014  0.000  0.000  0.015
   21  0.042  0.000  0.000  0.042
   22  0.042  0.000  0.000  0.042
   23  0.040  0.000  0.000  0.040
   24  0.040  0.000  0.000  0.040
   25  0.031  0.000  0.000  0.032
   26  0.031  0.000  0.000  0.032
tot    0.707  0.039  0.001  0.747
 
band    19 # energy  -10.46699313 # occ.  2.00000000
 
ion      s      p      d    tot
    1  0.000  0.003  0.000  0.003
    2  0.000  0.003  0.000  0.003
    3  0.000  0.004  0.000  0.004
    4  0.000  0.004  0.000  0.004
    5  0.057  0.001  0.000  0.058
    6  0.057  0.001  0.000  0.058
    7  0.023  0.003  0.000  0.026
    8  0.023  0.003  0.000  0.026
    9  0.034  0.001  0.000  0.035
   10  0.034  0.001  0.000  0.035
   11  0.004  0.002  0.000  0.006
   12  0.004  0.002  0.000  0.006
   13  0.038  0.001  0.000  0.039
   14  0.038  0.001  0.000  0.039
   15  0.041  0.000  0.000  0.042
   16  0.041  0.000  0.000  0.042
   17  0.040  0.001  0.000  0.041
   18  0.040  0.001  0.000  0.041
   19  0.025  0.000  0.000  0.025
   20  0.025  0.000  0.000  0.025
   21  0.020  0.000  0.000  0.020
   22  0.020  0.000  0.000  0.020
   23  0.021  0.001  0.000  0.022
   24  0.021  0.001  0.000  0.022
   25  0.050  0.001  0.000  0.051
   26  0.050  0.001  0.000  0.051
tot    0.709  0.036  0.002  0.746
 
band    20 # energy   -9.95991090 # occ.  2.00000000
 
ion      s      p      d    tot
    1  0.000  0.001  0.000  0.001
    2  0.000  0.001  0.000  0.001
    3  0.000  0.006  0.000  0.006
    4  0.000  0.006  0.000  0.006
    5  0.003  0.003  0.000  0.006
    6  0.003  0.003  0.000  0.006
    7  0.002  0.001  0.000  0.002
    8  0.002  0.001  0.000  0.002
    9  0.001  0.004  0.000  0.004
   10  0.001  0.004  0.000  0.004
   11  0.003  0.008  0.000  0.011
   12  0.003  0.008  0.000  0.011
   13  0.020  0.000  0.000  0.020
   14  0.020  0.000  0.000  0.020
   15  0.069  0.000  0.000  0.069
   16  0.069  0.000  0.000  0.069
   17  0.017  0.000  0.000  0.017
   18  0.017  0.000  0.000  0.017
   19  0.094  0.000  0.000  0.094
   20  0.094  0.000  0.000  0.094
   21  0.113  0.000  0.000  0.113
   22  0.113  0.000  0.000  0.113
   23  0.009  0.000  0.000  0.009
   24  0.009  0.000  0.000  0.009
   25  0.012  0.000  0.000  0.012
   26  0.012  0.000  0.000  0.012
tot    0.683  0.045  0.001  0.729
 
band    21 # energy   -9.91389782 # occ.  2.00000000
 
ion      s      p      d    tot
    1  0.000  0.004  0.000  0.004
    2  0.000  0.004  0.000  0.004
    3  0.000  0.001  0.000  0.001
    4  0.000  0.001  0.000  0.001
    5  0.011  0.001  0.000  0.012
    6  0.011  0.001  0.000  0.012
    7  0.008  0.000  0.000  0.008
    8  0.008  0.000  0.000  0.008
    9  0.009  0.004  0.001  0.014
   10  0.009  0.004  0.001  0.014
   11  0.007  0.007  0.000  0.014
   12  0.007  0.007  0.000  0.014
   13  0.065  0.000  0.000  0.066
   14  0.065  0.000  0.000  0.066
   15  0.023  0.000  0.000  0.023
   16  0.023  0.000  0.000  0.023
   17  0.002  0.000  0.000  0.002
   18  0.002  0.000  0.000  0.002
   19  0.146  0.000  0.000  0.146
   20  0.146  0.000  0.000  0.146
   21  0.064  0.000  0.000  0.065
   22  0.064  0.000  0.000  0.065
   23  0.015  0.000  0.000  0.015
   24  0.015  0.000  0.000  0.015
   25  0.002  0.000  0.000  0.003
   26  0.002  0.000  0.000  0.003
tot    0.702  0.038  0.002  0.742
 
band    22 # energy   -9.83847192 # occ.  2.00000000
 
ion      s      p      d    tot
    1  0.000  0.004  0.000  0.004
    2  0.000  0.004  0.000  0.004
    3  0.000  0.012  0.000  0.012
    4  0.000  0.012  0.000  0.012
    5  0.002  0.004  0.001  0.008
    6  0.002  0.004  0.001  0.008
    7  0.010  0.005  0.000  0.015
    8  0.010  0.005  0.000  0.015
    9  0.002  0.002  0.000  0.004
   10  0.002  0.002  0.000  0.004
   11  0.002  0.001  0.000  0.003
   12  0.002  0.001  0.000  0.003
   13  0.011  0.000  0.000  0.011
   14  0.011  0.000  0.000  0.011
   15  0.018  0.000  0.000  0.018
   16  0.018  0.000  0.000  0.018
   17  0.130  0.000  0.000  0.131
   18  0.130  0.000  0.000  0.131
   19  0.008  0.000  0.000  0.008
   20  0.008  0.000  0.000  0.008
   21  0.012  0.000  0.000  0.012
   22  0.012  0.000  0.000  0.012
   23  0.119  0.000  0.000  0.119
   24  0.119  0.000  0.000  0.119
   25  0.029  0.000  0.000  0.029
   26  0.029  0.000  0.000  0.029
tot    0.686  0.059  0.002  0.747
 
band    23 # energy   -9.77148690 # occ.  2.00000000
 
ion      s      p      d    tot
    1  0.000  0.001  0.000  0.001
    2  0.000  0.001  0.000  0.001
    3  0.000  0.005  0.000  0.006
    4  0.000  0.005  0.000  0.006
    5  0.009  0.002  0.001  0.012
    6  0.009  0.002  0.001  0.012
    7  0.010  0.001  0.000  0.011
    8  0.010  0.001  0.000  0.011
    9  0.000  0.002  0.000  0.002
   10  0.000  0.002  0.000  0.002
   11  0.002  0.002  0.001  0.005
   12  0.002  0.002  0.001  0.005
   13  0.013  0.000  0.000  0.013
   14  0.013  0.000  0.000  0.013
   15  0.137  0.000  0.000  0.138
   16  0.137  0.000  0.000  0.138
   17  0.005  0.000  0.000  0.005
   18  0.005  0.000  0.000  0.005
   19  0.026  0.000  0.000  0.026
   20  0.026  0.000  0.000  0.026
   21  0.115  0.000  0.000  0.115
   22  0.115  0.000  0.000  0.115
   23  0.018  0.000  0.000  0.018
   24  0.018  0.000  0.000  0.018
   25  0.019  0.000  0.000  0.019
   26  0.019  0.000  0.000  0.019
tot    0.710  0.029  0.005  0.744
 
band    24 # energy   -9.70564598 # occ.  2.00000000
 
ion      s      p      d    tot
    1  0.000  0.001  0.000  0.001
    2  0.000  0.001  0.000  0.001
    3  0.000  0.002  0.000  0.002
    4  0.000  0.002  0.000  0.002
    5  0.001  0.003  0.000  0.003
    6  0.001  0.003  0.000  0.003
    7  0.005  0.004  0.001  0.009
    8  0.005  0.004  0.001  0.009
    9  0.004  0.002  0.000  0.006
   10  0.004  0.002  0.000  0.006
   11  0.001  0.003  0.000  0.004
   12  0.001  0.003  0.000  0.004
   13  0.036  0.000  0.000  0.036
   14  0.036  0.000  0.000  0.036
   15  0.069  0.000  0.000  0.069
   16  0.069  0.000  0.000  0.069
   17  0.025  0.000  0.000  0.025
   18  0.025  0.000  0.000  0.025
   19  0.051  0.000  0.000  0.051
   20  0.051  0.000  0.000  0.051
   21  0.027  0.000  0.000  0.027
   22  0.027  0.000  0.000  0.027
   23  0.013  0.000  0.000  0.013
   24  0.013  0.000  0.000  0.013
   25  0.123  0.000  0.000  0.124
   26  0.123  0.000  0.000  0.124
tot    0.708  0.030  0.004  0.741
 
band    25 # energy   -9.66582266 # occ.  2.00000000
 
ion      s      p      d    tot
    1  0.000  0.002  0.000  0.002
    2  0.000  0.002  0.000  0.002
    3  0.000  0.003  0.000  0.003
    4  0.000  0.003  0.000  0.003
    5  0.001  0.003  0.000  0.005
    6  0.001  0.003  0.000  0.005
    7  0.003  0.003  0.001  0.007
    8  0.003  0.003  0.001  0.007
    9  0.005  0.001  0.001  0.007
   10  0.005  0.001  0.001  0.007
   11  0.001  0.001  0.000  0.002
   12  0.001  0.001  0.000  0.002
   13  0.039  0.000  0.000  0.040
   14  0.039  0.000  0.000  0.040
   15  0.027  0.000  0.000  0.027
   16  0.027  0.000  0.000  0.027
   17  0.078  0.000  0.000  0.078
   18  0.078  0.000  0.000  0.078
   19  0.028  0.000  0.000  0.028
   20  0.028  0.000  0.000  0.028
   21  0.011  0.000  0.000  0.011
   22  0.011  0.000  0.000  0.011
   23  0.069  0.000  0.000  0.069
   24  0.069  0.000  0.000  0.069
   25  0.095  0.000  0.000  0.095
   26  0.095  0.000  0.000  0.095
tot    0.712  0.030  0.004  0.746
 
band    26 # energy   -9.65733365 # occ.  2.00000000
 
ion      s      p      d    tot
    1  0.000  0.002  0.000  0.002
    2  0.000  0.002  0.000  0.002
    3  0.000  0.011  0.000  0.011
    4  0.000  0.011  0.000  0.011
    5  0.000  0.002  0.001  0.003
    6  0.000  0.002  0.001  0.003
    7  0.000  0.006  0.001  0.008
    8  0.000  0.006  0.001  0.008
    9  0.000  0.001  0.000  0.001
   10  0.000  0.001  0.000  0.001
   11  0.000  0.001  0.000  0.001
   12  0.000  0.001  0.000  0.001
   13  0.003  0.000  0.000  0.003
   14  0.003  0.000  0.000  0.003
   15  0.053  0.000  0.000  0.053
   16  0.053  0.000  0.000  0.053
   17  0.025  0.000  0.000  0.025
   18  0.025  0.000  0.000  0.025
   19  0.004  0.000  0.000  0.004
   20  0.004  0.000  0.000  0.004
   21  0.015  0.000  0.000  0.015
   22  0.015  0.000  0.000  0.015
   23  0.130  0.000  0.000  0.130
   24  0.130  0.000  0.000  0.130
   25  0.118  0.000  0.000  0.118
   26  0.118  0.000  0.000  0.118
tot    0.695  0.047  0.004  0.746
 
band    27 # energy   -8.03615804 # occ.  2.00000000
 
ion      s      p      d    tot
    1  0.000  0.000  0.000  0.000
    2  0.000  0.000  0.000  0.000
    3  0.000  0.000  0.000  0.000
    4  0.000  0.000  0.000  0.000
    5  0.117  0.000  0.000  0.117
    6  0.117  0.000  0.000  0.117
    7  0.172  0.000  0.000  0.173
    8  0.172  0.000  0.000  0.173
    9  0.002  0.000  0.000  0.003
   10  0.002  0.000  0.000  0.003
   11  0.048  0.001  0.000  0.049
   12  0.048  0.001  0.000  0.049
   13  0.003  0.000  0.000  0.003
   14  0.003  0.000  0.000  0.003
   15  0.010  0.002  0.000  0.012
   16  0.010  0.002  0.000  0.012
   17  0.013  0.002  0.000  0.015
   18  0.013  0.002  0.000  0.015
   19  0.017  0.000  0.000  0.018
   20  0.017  0.000  0.000  0.018
   21  0.001  0.000  0.000  0.001
   22  0.001  0.000  0.000  0.001
   23  0.020  0.003  0.000  0.023
   24  0.020  0.003  0.000  0.023
   25  0.010  0.003  0.000  0.013
   26  0.010  0.003  0.000  0.013
tot    0.827  0.025  0.004  0.856
 
band    28 # energy   -7.76005357 # occ.  2.00000000
 
ion      s      p      d    tot
    1  0.000  0.001  0.000  0.001
    2  0.000  0.001  0.000  0.001
    3  0.000  0.000  0.000  0.000
    4  0.000  0.000  0.000  0.000
    5  0.119  0.001  0.000  0.120
    6  0.119  0.001  0.000  0.120
    7  0.027  0.001  0.000  0.028
    8  0.027  0.001  0.000  0.028
    9  0.028  0.002  0.000  0.030
   10  0.028  0.002  0.000  0.030
   11  0.126  0.000  0.000  0.127
   12  0.126  0.000  0.000  0.127
   13  0.014  0.000  0.000  0.014
   14  0.014  0.000  0.000  0.014
   15  0.002  0.003  0.000  0.005
   16  0.002  0.003  0.000  0.005
   17  0.036  0.002  0.000  0.038
   18  0.036  0.002  0.000  0.038
   19  0.023  0.002  0.000  0.025
   20  0.023  0.002  0.000  0.025
   21  0.009  0.004  0.000  0.012
   22  0.009  0.004  0.000  0.012
   23  0.001  0.001  0.000  0.002
   24  0.001  0.001  0.000  0.002
   25  0.020  0.000  0.000  0.020
   26  0.020  0.000  0.000  0.020
tot    0.809  0.034  0.002  0.845
 
band    29 # energy   -7.52590818 # occ.  2.00000000
 
ion      s      p      d    tot
    1  0.000  0.000  0.000  0.000
    2  0.000  0.000  0.000  0.000
    3  0.000  0.000  0.000  0.001
    4  0.000  0.000  0.000  0.001
    5  0.003  0.001  0.000  0.004
    6  0.003  0.001  0.000  0.004
    7  0.082  0.000  0.000  0.082
    8  0.082  0.000  0.000  0.082
    9  0.001  0.000  0.000  0.002
   10  0.001  0.000  0.000  0.002
   11  0.204  0.000  0.000  0.205
   12  0.204  0.000  0.000  0.205
   13  0.001  0.000  0.000  0.001
   14  0.001  0.000  0.000  0.001
   15  0.017  0.002  0.000  0.020
   16  0.017  0.002  0.000  0.020
   17  0.006  0.000  0.000  0.006
   18  0.006  0.000  0.000  0.006
   19  0.053  0.002  0.000  0.055
   20  0.053  0.002  0.000  0.055
   21  0.017  0.003  0.000  0.021
   22  0.017  0.003  0.000  0.021
   23  0.026  0.001  0.000  0.026
   24  0.026  0.001  0.000  0.026
   25  0.003  0.001  0.000  0.004
   26  0.003  0.001  0.000  0.004
tot    0.825  0.025  0.003  0.854
 
band    30 # energy   -7.48173932 # occ.  2.00000000
 
ion      s      p      d    tot
    1  0.000  0.001  0.000  0.001
    2  0.000  0.001  0.000  0.001
    3  0.000  0.001  0.000  0.001
    4  0.000  0.001  0.000  0.001
    5  0.088  0.000  0.000  0.088
    6  0.088  0.000  0.000  0.088
    7  0.016  0.000  0.000  0.017
    8  0.016  0.000  0.000  0.017
    9  0.161  0.002  0.000  0.163
   10  0.161  0.002  0.000  0.163
   11  0.022  0.000  0.000  0.023
   12  0.022  0.000  0.000  0.023
   13  0.060  0.003  0.000  0.063
   14  0.060  0.003  0.000  0.063
   15  0.034  0.001  0.000  0.035
   16  0.034  0.001  0.000  0.035