<?xml version="1.0" encoding="ISO-8859-1"?>
<modeling>
 <generator>
  <i name="program" type="string">vasp </i>
  <i name="version" type="string">5.4.4.18Apr17-6-g9f103f2a35  </i>
  <i name="subversion" type="string">(build Oct 27 2022 13:04:57) complex            parallel </i>
  <i name="platform" type="string">LinuxIFC </i>
  <i name="date" type="string">2024 06 29 </i>
  <i name="time" type="string">20:04:36 </i>
 </generator>
 <incar>
  <i type="string" name="SYSTEM"> CIS</i>
  <i type="int" name="ISTART">     0</i>
  <i type="string" name="PREC">medium</i>
  <i type="int" name="ICHARG">     2</i>
  <i type="int" name="IBRION">     2</i>
  <i name="EDIFF">      0.00010000</i>
  <i name="EDIFFG">     -0.05000000</i>
  <i type="int" name="NSW">    99</i>
  <i type="int" name="ISIF">     3</i>
  <i name="ENCUT">    300.00000000</i>
  <i name="POTIM">      0.10000000</i>
  <i type="string" name="LREAL"> Auto</i>
  <i type="int" name="ISMEAR">     0</i>
  <i name="SIGMA">      0.05000000</i>
  <i type="int" name="LMAXMIX">     4</i>
  <i type="logical" name="LWAVE"> F  </i>
  <i type="logical" name="LCHARG"> F  </i>
  <i type="int" name="LORBIT">    10</i>
  <i type="logical" name="LASPH"> T  </i>
  <v type="int" name="KPOINT_BSE">    -1     0     0     0</v>
  <i type="logical" name="LASPH"> T  </i>
 </incar>
 <structure name="primitive_cell" >
  <crystal>
   <varray name="basis" >
    <v>       4.23494847       0.00000000       0.00000000 </v>
    <v>       0.00000000      13.17589346       0.03228394 </v>
    <v>       0.00000000       0.78292136      15.19352632 </v>
   </varray>
   <i name="volume">    847.68002570 </i>
   <varray name="rec_basis" >
    <v>       0.23613038       0.00000000       0.00000000 </v>
    <v>       0.00000000       0.07590577      -0.00391142 </v>
    <v>       0.00000000      -0.00016129       0.06582582 </v>
   </varray>
  </crystal>
  <varray name="positions" >
   <v>       0.25000000      -0.43712638      -0.18565726 </v>
   <v>       0.25000000      -0.40569559       0.03681554 </v>
   <v>       0.25000000       0.30705166      -0.24137769 </v>
   <v>      -0.25000000       0.40569559      -0.03681554 </v>
   <v>      -0.25000000      -0.21145390      -0.14376207 </v>
   <v>      -0.25000000      -0.45777002      -0.38761582 </v>
   <v>       0.25000000       0.26952129      -0.04879347 </v>
   <v>       0.25000000       0.39239171      -0.43027165 </v>
   <v>      -0.25000000      -0.26952129       0.04879347 </v>
   <v>      -0.25000000      -0.17522284      -0.37577939 </v>
   <v>       0.25000000      -0.05932828      -0.12432892 </v>
   <v>       0.25000000      -0.24114437       0.45866794 </v>
   <v>      -0.25000000       0.16416391      -0.27939005 </v>
   <v>       0.25000000       0.00617022      -0.30216774 </v>
   <v>      -0.25000000       0.43712638       0.18565726 </v>
   <v>      -0.25000000      -0.39239171       0.43027165 </v>
   <v>       0.25000000      -0.09366056       0.08448382 </v>
   <v>      -0.25000000       0.24114437      -0.45866794 </v>
   <v>      -0.25000000       0.09366056      -0.08448382 </v>
   <v>       0.25000000       0.21145390       0.14376207 </v>
   <v>       0.25000000       0.45777002       0.38761582 </v>
   <v>      -0.25000000      -0.30705166       0.24137769 </v>
   <v>       0.25000000      -0.16416391       0.27939005 </v>
   <v>      -0.25000000       0.05932828       0.12432892 </v>
   <v>       0.25000000       0.17522284       0.37577939 </v>
   <v>      -0.25000000      -0.00617022       0.30216774 </v>
  </varray>
 </structure>
 <varray name="primitive_index" >
  <v type="int" >        1 </v>
  <v type="int" >       13 </v>
  <v type="int" >       18 </v>
  <v type="int" >       14 </v>
  <v type="int" >       19 </v>
  <v type="int" >       26 </v>
  <v type="int" >       10 </v>
  <v type="int" >        8 </v>
  <v type="int" >        9 </v>
  <v type="int" >        3 </v>
  <v type="int" >       11 </v>
  <v type="int" >       23 </v>
  <v type="int" >        6 </v>
  <v type="int" >       16 </v>
  <v type="int" >        2 </v>
  <v type="int" >        7 </v>
  <v type="int" >       21 </v>
  <v type="int" >       24 </v>
  <v type="int" >       22 </v>
  <v type="int" >       20 </v>
  <v type="int" >       25 </v>
  <v type="int" >       17 </v>
  <v type="int" >        5 </v>
  <v type="int" >       12 </v>
  <v type="int" >        4 </v>
  <v type="int" >       15 </v>
 </varray>
 <kpoints>
  <generation param="Monkhorst-Pack">
   <v type="int" name="divisions">       5        2        2 </v>
   <v name="usershift">      0.00000000       0.00000000       0.00000000 </v>
   <v name="genvec1">      0.20000000       0.00000000       0.00000000 </v>
   <v name="genvec2">      0.00000000       0.50000000       0.00000000 </v>
   <v name="genvec3">      0.00000000       0.00000000       0.50000000 </v>
   <v name="shift">      0.00000000       0.50000000       0.50000000 </v>
  </generation>
  <varray name="kpointlist" >
   <v>       0.00000000       0.25000000       0.25000000 </v>
   <v>       0.20000000       0.25000000       0.25000000 </v>
   <v>       0.40000000       0.25000000       0.25000000 </v>
   <v>       0.00000000      -0.25000000       0.25000000 </v>
   <v>       0.20000000      -0.25000000       0.25000000 </v>
   <v>       0.40000000      -0.25000000       0.25000000 </v>
  </varray>
  <varray name="weights" >
   <v>       0.10000000 </v>
   <v>       0.20000000 </v>
   <v>       0.20000000 </v>
   <v>       0.10000000 </v>
   <v>       0.20000000 </v>
   <v>       0.20000000 </v>
  </varray>
 </kpoints>
 <parameters>
  <separator name="general" >
   <i type="string" name="SYSTEM">CIS</i>
   <i type="logical" name="LCOMPAT"> F  </i>
  </separator>
  <separator name="electronic" >
   <i type="string" name="PREC">medium</i>
   <i name="ENMAX">    300.00000000</i>
   <i name="ENAUG">    446.84200000</i>
   <i name="EDIFF">      0.00010000</i>
   <i type="int" name="IALGO">    38</i>
   <i type="int" name="IWAVPR">    11</i>
   <i type="int" name="NBANDS">    98</i>
   <i name="NELECT">    152.00000000</i>
   <i type="int" name="TURBO">     0</i>
   <i type="int" name="IRESTART">     0</i>
   <i type="int" name="NREBOOT">     0</i>
   <i type="int" name="NMIN">     0</i>
   <i name="EREF">      0.00000000</i>
   <separator name="electronic smearing" >
    <i type="int" name="ISMEAR">     0</i>
    <i name="SIGMA">      0.05000000</i>
    <i name="KSPACING">      0.50000000</i>
    <i type="logical" name="KGAMMA"> T  </i>
   </separator>
   <separator name="electronic projectors" >
    <i type="logical" name="LREAL"> T  </i>
    <v name="ROPT">     -0.00200000     -0.00200000     -0.00200000</v>
    <i type="int" name="LMAXPAW">  -100</i>
    <i type="int" name="LMAXMIX">     4</i>
    <i type="logical" name="NLSPLINE"> F  </i>
   </separator>
   <separator name="electronic startup" >
    <i type="int" name="ISTART">     0</i>
    <i type="int" name="ICHARG">     2</i>
    <i type="int" name="INIWAV">     1</i>
   </separator>
   <separator name="electronic spin" >
    <i type="int" name="ISPIN">     1</i>
    <i type="logical" name="LNONCOLLINEAR"> F  </i>
    <v name="MAGMOM">      1.00000000      1.00000000      1.00000000      1.00000000      1.00000000      1.00000000      1.00000000      1.00000000      1.00000000      1.00000000      1.00000000      1.00000000      1.00000000      1.00000000      1.00000000      1.00000000      1.00000000      1.00000000      1.00000000      1.00000000
      1.00000000      1.00000000      1.00000000      1.00000000      1.00000000      1.00000000</v>
    <i name="NUPDOWN">     -1.00000000</i>
    <i type="logical" name="LSORBIT"> F  </i>
    <v name="SAXIS">      0.00000000      0.00000000      1.00000000</v>
    <i type="logical" name="LSPIRAL"> F  </i>
    <v name="QSPIRAL">      0.00000000      0.00000000      0.00000000</v>
    <i type="logical" name="LZEROZ"> F  </i>
   </separator>
   <separator name="electronic exchange-correlation" >
    <i type="logical" name="LASPH"> T  </i>
    <i type="logical" name="LMETAGGA"> F  </i>
   </separator>
   <separator name="electronic convergence" >
    <i type="int" name="NELM">    60</i>
    <i type="int" name="NELMDL">    -5</i>
    <i type="int" name="NELMIN">     2</i>
    <i name="ENINI">    300.00000000</i>
    <separator name="electronic convergence detail" >
     <i type="logical" name="LDIAG"> T  </i>
     <i type="logical" name="LSUBROT"> F  </i>
     <i name="WEIMIN">      0.00100000</i>
     <i name="EBREAK">      0.00000026</i>
     <i name="DEPER">      0.30000000</i>
     <i type="int" name="NRMM">     4</i>
     <i name="TIME">      0.40000000</i>
    </separator>
   </separator>
   <separator name="electronic mixer" >
    <i name="AMIX">      0.40000000</i>
    <i name="BMIX">      1.00000000</i>
    <i name="AMIN">      0.10000000</i>
    <i name="AMIX_MAG">      1.60000000</i>
    <i name="BMIX_MAG">      1.00000000</i>
    <separator name="electronic mixer details" >
     <i type="int" name="IMIX">     4</i>
     <i type="logical" name="MIXFIRST"> F  </i>
     <i type="int" name="MAXMIX">   -45</i>
     <i name="WC">    100.00000000</i>
     <i type="int" name="INIMIX">     1</i>
     <i type="int" name="MIXPRE">     1</i>
     <i type="int" name="MREMOVE">     5</i>
    </separator>
   </separator>
   <separator name="electronic dipolcorrection" >
    <i type="logical" name="LDIPOL"> F  </i>
    <i type="logical" name="LMONO"> F  </i>
    <i type="int" name="IDIPOL">     0</i>
    <i name="EPSILON">      1.00000000</i>
    <v name="DIPOL">   -100.00000000   -100.00000000   -100.00000000</v>
    <i name="EFIELD">      0.00000000</i>
   </separator>
  </separator>
  <separator name="grids" >
   <i type="int" name="NGX">    18</i>
   <i type="int" name="NGY">    56</i>
   <i type="int" name="NGZ">    64</i>
   <i type="int" name="NGXF">    30</i>
   <i type="int" name="NGYF">    90</i>
   <i type="int" name="NGZF">   108</i>
   <i type="logical" name="ADDGRID"> F  </i>
  </separator>
  <separator name="ionic" >
   <i type="int" name="NSW">    99</i>
   <i type="int" name="IBRION">     2</i>
   <i type="int" name="MDALGO">     0</i>
   <i type="int" name="ISIF">     3</i>
   <i name="PSTRESS">      0.00000000</i>
   <i name="EDIFFG">     -0.05000000</i>
   <i type="int" name="NFREE">     1</i>
   <i name="POTIM">      0.10000000</i>
   <i name="SMASS">     -3.00000000</i>
   <i name="SCALEE">      1.00000000</i>
  </separator>
  <separator name="ionic md" >
   <i name="TEBEG">      0.00010000</i>
   <i name="TEEND">      0.00010000</i>
   <i type="int" name="NBLOCK">     1</i>
   <i type="int" name="KBLOCK">    99</i>
   <i type="int" name="NPACO">   256</i>
   <i name="APACO">     16.00000000</i>
  </separator>
  <separator name="symmetry" >
   <i type="int" name="ISYM">     2</i>
   <i name="SYMPREC">      0.00001000</i>
  </separator>
  <separator name="dos" >
   <i type="int" name="LORBIT">    10</i>
   <v name="RWIGS">     -1.00000000     -1.00000000     -1.00000000</v>
   <i type="int" name="NEDOS">   301</i>
   <i name="EMIN">     10.00000000</i>
   <i name="EMAX">    -10.00000000</i>
   <i name="EFERMI">      0.00000000</i>
  </separator>
  <separator name="writing" >
   <i type="int" name="NWRITE">     2</i>
   <i type="logical" name="LWAVE"> F  </i>
   <i type="logical" name="LDOWNSAMPLE"> F  </i>
   <i type="logical" name="LCHARG"> F  </i>
   <i type="logical" name="LPARD"> F  </i>
   <i type="logical" name="LVTOT"> F  </i>
   <i type="logical" name="LVHAR"> F  </i>
   <i type="logical" name="LELF"> F  </i>
   <i type="logical" name="LOPTICS"> F  </i>
   <v name="STM">      0.00000000      0.00000000      0.00000000      0.00000000      0.00000000      0.00000000      0.00000000</v>
  </separator>
  <separator name="performance" >
   <i type="int" name="NPAR">    14</i>
   <i type="int" name="NSIM">     4</i>
   <i type="int" name="NBLK">    -1</i>
   <i type="logical" name="LPLANE"> T  </i>
   <i type="logical" name="LSCALAPACK"> T  </i>
   <i type="logical" name="LSCAAWARE"> F  </i>
   <i type="logical" name="LSCALU"> F  </i>
   <i type="logical" name="LASYNC"> F  </i>
   <i type="logical" name="LORBITALREAL"> F  </i>
  </separator>
  <separator name="miscellaneous" >
   <i type="int" name="IDIOT">     3</i>
   <i type="int" name="ISPECIAL">     0</i>
   <i type="logical" name="LMUSIC"> F  </i>
   <v name="POMASS">     39.09800000    208.98000000     78.96000000</v>
   <v name="DARWINR">      0.00000000      0.00000000      0.00000000</v>
   <v name="DARWINV">      1.00000000      1.00000000      1.00000000</v>
   <i type="logical" name="LCORR"> T  </i>
  </separator>
  <i type="logical" name="GGA_COMPAT"> T  </i>
  <i type="logical" name="LBERRY"> F  </i>
  <i type="int" name="ICORELEVEL">     0</i>
  <i type="logical" name="LDAU"> F  </i>
  <i type="int" name="I_CONSTRAINED_M">     0</i>
  <separator name="electronic exchange-correlation" >
   <i type="string" name="GGA">--</i>
   <i type="int" name="VOSKOWN">     0</i>
   <i type="logical" name="LHFCALC"> F  </i>
   <i type="string" name="PRECFOCK"></i>
   <i type="logical" name="LSYMGRAD"> F  </i>
   <i type="logical" name="LHFONE"> F  </i>
   <i type="logical" name="LRHFCALC"> F  </i>
   <i type="logical" name="LTHOMAS"> F  </i>
   <i type="logical" name="LMODELHF"> F  </i>
   <i name="ENCUT4O">     -1.00000000</i>
   <i type="int" name="EXXOEP">     0</i>
   <i type="int" name="FOURORBIT">     0</i>
   <i name="AEXX">      0.00000000</i>
   <i name="HFALPHA">      0.00000000</i>
   <i name="MCALPHA">      0.00000000</i>
   <i name="ALDAX">      1.00000000</i>
   <i name="AGGAX">      1.00000000</i>
   <i name="ALDAC">      1.00000000</i>
   <i name="AGGAC">      1.00000000</i>
   <i type="int" name="NKREDX">     1</i>
   <i type="int" name="NKREDY">     1</i>
   <i type="int" name="NKREDZ">     1</i>
   <i type="logical" name="SHIFTRED"> F  </i>
   <i type="logical" name="ODDONLY"> F  </i>
   <i type="logical" name="EVENONLY"> F  </i>
   <i type="int" name="LMAXFOCK">     0</i>
   <i type="int" name="NMAXFOCKAE">     0</i>
   <i type="logical" name="LFOCKAEDFT"> F  </i>
   <i name="HFSCREEN">      0.00000000</i>
   <i name="HFSCREENC">      0.00000000</i>
   <i type="int" name="NBANDSGWLOW">     0</i>
  </separator>
  <separator name="vdW DFT" >
   <i type="logical" name="LUSE_VDW"> F  </i>
   <i name="Zab_VDW">     -0.84910000</i>
   <i name="PARAM1">      0.12340000</i>
   <i name="PARAM2">      1.00000000</i>
   <i name="PARAM3">      0.00000000</i>
  </separator>
  <separator name="model GW" >
   <i type="int" name="MODEL_GW">     0</i>
   <i name="MODEL_EPS0">     19.56184675</i>
   <i name="MODEL_ALPHA">      1.00000000</i>
  </separator>
  <separator name="linear response parameters" >
   <i type="logical" name="LEPSILON"> F  </i>
   <i type="logical" name="LRPA"> F  </i>
   <i type="logical" name="LNABLA"> F  </i>
   <i type="logical" name="LVEL"> F  </i>
   <i type="int" name="KINTER">     0</i>
   <i name="CSHIFT">      0.10000000</i>
   <i name="OMEGAMAX">     -1.00000000</i>
   <i name="DEG_THRESHOLD">      0.00200000</i>
   <i name="RTIME">     -0.10000000</i>
   <i name="WPLASMAI">      0.00000000</i>
   <v name="DFIELD">      0.00000000      0.00000000      0.00000000</v>
   <v name="WPLASMA">      0.00000000      0.00000000      0.00000000      0.00000000      0.00000000      0.00000000      0.00000000      0.00000000      0.00000000</v>
  </separator>
  <separator name="orbital magnetization" >
   <i type="logical" name="NUCIND"> F  </i>
   <v name="MAGPOS">      0.00000000      0.00000000      0.00000000</v>
   <i type="logical" name="LNICSALL"> T  </i>
   <i type="logical" name="ORBITALMAG"> F  </i>
   <i type="logical" name="LMAGBLOCH"> F  </i>
   <i type="logical" name="LCHIMAG"> F  </i>
   <i type="logical" name="LGAUGE"> T  </i>
   <i type="int" name="MAGATOM">     0</i>
   <v name="MAGDIPOL">      0.00000000      0.00000000      0.00000000</v>
   <v name="AVECCONST">      0.00000000      0.00000000      0.00000000</v>
  </separator>
  <separator name="response functions" >
   <i type="logical" name="LADDER"> F  </i>
   <i type="logical" name="LRPAFORCE"> F  </i>
   <i type="logical" name="LFXC"> F  </i>
   <i type="logical" name="LHARTREE"> T  </i>
   <i type="int" name="IBSE">     0</i>
   <v type="int" name="KPOINT">    -1     0     0     0</v>
   <i type="logical" name="LTCTE"> F  </i>
   <i type="logical" name="LTETE"> F  </i>
   <i type="logical" name="LTRIPLET"> F  </i>
   <i type="logical" name="LFXCEPS"> F  </i>
   <i type="logical" name="LFXHEG"> F  </i>
   <i type="int" name="NATURALO">     2</i>
   <i type="logical" name="L2ORDER"> F  </i>
   <i type="logical" name="LMP2LT"> F  </i>
   <i type="logical" name="LUSEW"> F  </i>
   <i name="ENCUTGW">     -2.00000000</i>
   <i name="ENCUTGWSOFT">     -2.00000000</i>
   <i name="ENCUTLF">     -1.00000000</i>
   <i type="int" name="LMAXMP2">    -1</i>
   <i name="SCISSOR">      0.00000000</i>
   <i type="int" name="NOMEGA">     0</i>
   <i type="int" name="NOMEGAR">     0</i>
   <i type="int" name="NBANDSGW">    -1</i>
   <i type="int" name="NBANDSO">    -1</i>
   <i type="int" name="NBANDSV">    -1</i>
   <i type="int" name="NELM">     1</i>
   <i type="int" name="NELMHF">     1</i>
   <i type="int" name="DIM">     3</i>
   <i type="int" name="ANTIRES">     0</i>
   <i name="OMEGAMAX">    -30.00000000</i>
   <i name="OMEGAMIN">    -30.00000000</i>
   <i name="OMEGATL">   -200.00000000</i>
   <i type="int" name="OMEGAGRID">   140</i>
   <i name="CSHIFT">     -0.10000000</i>
   <i type="logical" name="SELFENERGY"> F  </i>
   <i type="logical" name="LSPECTRAL"> F  </i>
   <i type="logical" name="LSPECTRALGW"> F  </i>
   <i type="logical" name="LSINGLES"> F  </i>
   <i type="logical" name="LFERMIGW"> F  </i>
   <i type="logical" name="ODDONLYGW"> F  </i>
   <i type="logical" name="EVENONLYGW"> F  </i>
   <i type="int" name="NKREDLFX">     1</i>
   <i type="int" name="NKREDLFY">     1</i>
   <i type="int" name="NKREDLFZ">     1</i>
   <i type="int" name="MAXMEM">  2800</i>
   <i type="int" name="TELESCOPE">     0</i>
   <i type="int" name="TAUPAR">     1</i>
   <i type="int" name="OMEGAPAR">    -1</i>
   <i name="LAMBDA">      1.00000000</i>
  </separator>
  <separator name="External order field" >
   <i name="OFIELD_KAPPA">      0.00000000</i>
   <v name="OFIELD_K">      0.00000000      0.00000000      0.00000000</v>
   <i name="OFIELD_Q6_NEAR">      0.00000000</i>
   <i name="OFIELD_Q6_FAR">      0.00000000</i>
   <i name="OFIELD_A">      0.00000000</i>
  </separator>
 </parameters>
 <atominfo>
  <atoms>      26 </atoms>
  <types>       3 </types>
  <array name="atoms" >
   <dimension dim="1">ion</dimension>
   <field type="string">element</field>
   <field type="int">atomtype</field>
   <set>
    <rc><c>K </c><c>   1</c></rc>
    <rc><c>K </c><c>   1</c></rc>
    <rc><c>K </c><c>   1</c></rc>
    <rc><c>K </c><c>   1</c></rc>
    <rc><c>Bi</c><c>   2</c></rc>
    <rc><c>Bi</c><c>   2</c></rc>
    <rc><c>Bi</c><c>   2</c></rc>
    <rc><c>Bi</c><c>   2</c></rc>
    <rc><c>Bi</c><c>   2</c></rc>
    <rc><c>Bi</c><c>   2</c></rc>
    <rc><c>Bi</c><c>   2</c></rc>
    <rc><c>Bi</c><c>   2</c></rc>
    <rc><c>Se</c><c>   3</c></rc>
    <rc><c>Se</c><c>   3</c></rc>
    <rc><c>Se</c><c>   3</c></rc>
    <rc><c>Se</c><c>   3</c></rc>
    <rc><c>Se</c><c>   3</c></rc>
    <rc><c>Se</c><c>   3</c></rc>
    <rc><c>Se</c><c>   3</c></rc>
    <rc><c>Se</c><c>   3</c></rc>
    <rc><c>Se</c><c>   3</c></rc>
    <rc><c>Se</c><c>   3</c></rc>
    <rc><c>Se</c><c>   3</c></rc>
    <rc><c>Se</c><c>   3</c></rc>
    <rc><c>Se</c><c>   3</c></rc>
    <rc><c>Se</c><c>   3</c></rc>
   </set>
  </array>
  <array name="atomtypes" >
   <dimension dim="1">type</dimension>
   <field type="int">atomspertype</field>
   <field type="string">element</field>
   <field>mass</field>
   <field>valence</field>
   <field type="string">pseudopotential</field>
   <set>
    <rc><c>   4</c><c>K </c><c>     39.09800000</c><c>      7.00000000</c><c>  PAW_PBE K_pv 17Jan2003                </c></rc>
    <rc><c>   8</c><c>Bi</c><c>    208.98000000</c><c>      5.00000000</c><c>  PAW_PBE Bi 08Apr2002                  </c></rc>
    <rc><c>  14</c><c>Se</c><c>     78.96000000</c><c>      6.00000000</c><c>  PAW_PBE Se 06Sep2000                  </c></rc>
   </set>
  </array>
 </atominfo>
 <structure name="initialpos" >
  <crystal>
   <varray name="basis" >
    <v>       4.23494847       0.00000000       0.00000000 </v>
    <v>       0.00000000      13.17589346       0.03228394 </v>
    <v>       0.00000000       0.78292136      15.19352632 </v>
   </varray>
   <i name="volume">    847.68002570 </i>
   <varray name="rec_basis" >
    <v>       0.23613038       0.00000000       0.00000000 </v>
    <v>       0.00000000       0.07590577      -0.00391142 </v>
    <v>       0.00000000      -0.00016129       0.06582582 </v>
   </varray>
  </crystal>
  <varray name="positions" >
   <v>       0.25000000       0.56287362       0.81434274 </v>
   <v>       0.75000000       0.43712638       0.18565726 </v>
   <v>       0.75000000       0.82477716       0.62422061 </v>
   <v>       0.25000000       0.17522284       0.37577939 </v>
   <v>       0.25000000       0.83583609       0.27939005 </v>
   <v>       0.75000000       0.16416391       0.72060995 </v>
   <v>       0.75000000       0.60760829       0.43027165 </v>
   <v>       0.25000000       0.39239171       0.56972835 </v>
   <v>       0.75000000       0.73047871       0.04879347 </v>
   <v>       0.25000000       0.26952129       0.95120653 </v>
   <v>       0.25000000       0.94067172       0.87567108 </v>
   <v>       0.75000000       0.05932828       0.12432892 </v>
   <v>       0.25000000       0.59430441       0.03681554 </v>
   <v>       0.75000000       0.40569559       0.96318446 </v>
   <v>       0.75000000       0.99382978       0.30216774 </v>
   <v>       0.25000000       0.00617022       0.69783226 </v>
   <v>       0.75000000       0.69294834       0.24137769 </v>
   <v>       0.25000000       0.30705166       0.75862231 </v>
   <v>       0.75000000       0.78854610       0.85623793 </v>
   <v>       0.25000000       0.21145390       0.14376207 </v>
   <v>       0.25000000       0.90633944       0.08448382 </v>
   <v>       0.75000000       0.09366056       0.91551618 </v>
   <v>       0.25000000       0.75885563       0.45866794 </v>
   <v>       0.75000000       0.24114437       0.54133206 </v>
   <v>       0.25000000       0.45777002       0.38761582 </v>
   <v>       0.75000000       0.54222998       0.61238418 </v>
  </varray>
 </structure>
 <calculation>
  <scstep>
   <time name="dav">    0.73    0.73</time>
   <time name="total">    0.99    0.99</time>
   <energy>
    <i name="alphaZ">    298.50310769 </i>
    <i name="ewald">  -5517.37249997 </i>
    <i name="hartreedc">  -1059.71632690 </i>
    <i name="XCdc">   -846.41683030 </i>
    <i name="pawpsdc">   6098.70958045 </i>
    <i name="pawaedc">  -4957.31273529 </i>
    <i name="eentropy">     -0.00174269 </i>
    <i name="bandstr">    112.47702582 </i>
    <i name="atom">   6608.17022516 </i>
    <i name="e_fr_energy">    737.03980398 </i>
    <i name="e_wo_entrp">    737.04154667 </i>
    <i name="e_0_energy">    737.04067532 </i>
   </energy>
  </scstep>
  <scstep>
   <time name="dav">    1.09    1.09</time>
   <time name="total">    1.09    1.09</time>
   <energy>
    <i name="e_fr_energy">    -26.84081936 </i>
    <i name="e_wo_entrp">    -26.84081936 </i>
    <i name="e_0_energy">    -26.84081936 </i>
   </energy>
  </scstep>
  <scstep>
   <time name="dav">    0.84    0.84</time>
   <time name="total">    0.84    0.84</time>
   <energy>
    <i name="e_fr_energy">   -103.58263258 </i>
    <i name="e_wo_entrp">   -103.58263258 </i>
    <i name="e_0_energy">   -103.58263258 </i>
   </energy>
  </scstep>
  <scstep>
   <time name="dav">    1.08    1.08</time>
   <time name="total">    1.08    1.08</time>
   <energy>
    <i name="e_fr_energy">   -106.01207118 </i>
    <i name="e_wo_entrp">   -106.01207118 </i>
    <i name="e_0_energy">   -106.01207118 </i>
   </energy>
  </scstep>
  <scstep>
   <time name="dav">    0.75    0.75</time>
   <time name="total">    0.79    0.79</time>
   <energy>
    <i name="e_fr_energy">   -106.04831820 </i>
    <i name="e_wo_entrp">   -106.04831820 </i>
    <i name="e_0_energy">   -106.04831820 </i>
   </energy>
  </scstep>
  <scstep>
   <time name="dav">    1.07    1.07</time>
   <time name="total">    1.35    1.36</time>
   <energy>
    <i name="e_fr_energy">   -100.74005021 </i>
    <i name="e_wo_entrp">   -100.74005021 </i>
    <i name="e_0_energy">   -100.74005021 </i>
   </energy>
  </scstep>
  <scstep>
   <time name="dav">    0.84    0.84</time>
   <time name="total">    1.13    1.13</time>
   <energy>
    <i name="e_fr_energy">   -100.83053027 </i>
    <i name="e_wo_entrp">   -100.83053027 </i>
    <i name="e_0_energy">   -100.83053027 </i>
   </energy>
  </scstep>
  <scstep>
   <time name="dav">    0.97    0.97</time>
   <time name="total">    1.26    1.26</time>
   <energy>
    <i name="e_fr_energy">   -100.84751936 </i>
    <i name="e_wo_entrp">   -100.84751936 </i>
    <i name="e_0_energy">   -100.84751936 </i>
   </energy>
  </scstep>
  <scstep>
   <time name="dav">    1.11    1.11</time>
   <time name="total">    1.40    1.40</time>
   <energy>
    <i name="e_fr_energy">   -100.86478995 </i>
    <i name="e_wo_entrp">   -100.86478995 </i>
    <i name="e_0_energy">   -100.86478995 </i>
   </energy>
  </scstep>
  <scstep>
   <time name="dav">    0.96    0.96</time>
   <time name="total">    1.25    1.25</time>
   <energy>
    <i name="e_fr_energy">   -100.86664140 </i>
    <i name="e_wo_entrp">   -100.86664140 </i>
    <i name="e_0_energy">   -100.86664140 </i>
   </energy>
  </scstep>
  <scstep>
   <time name="dav">    0.91    0.91</time>
   <time name="total">    1.20    1.20</time>
   <energy>
    <i name="e_fr_energy">   -100.86900003 </i>
    <i name="e_wo_entrp">   -100.86900003 </i>
    <i name="e_0_energy">   -100.86900003 </i>
   </energy>
  </scstep>
  <scstep>
   <time name="dav">    1.11    1.11</time>
   <time name="total">    1.39    1.40</time>
   <energy>
    <i name="e_fr_energy">   -100.86965341 </i>
    <i name="e_wo_entrp">   -100.86965341 </i>
    <i name="e_0_energy">   -100.86965341 </i>
   </energy>
  </scstep>
  <scstep>
   <time name="dav">    0.68    0.68</time>
   <time name="total">    0.96    0.96</time>
   <energy>
    <i name="e_fr_energy">   -100.86997578 </i>
    <i name="e_wo_entrp">   -100.86997578 </i>
    <i name="e_0_energy">   -100.86997578 </i>
   </energy>
  </scstep>
  <scstep>
   <time name="dav">    0.76    0.76</time>
   <time name="total">    1.02    1.02</time>
   <energy>
    <i name="alphaZ">    298.50310769 </i>
    <i name="ewald">  -5517.37249997 </i>
    <i name="hartreedc">  -1108.23138757 </i>
    <i name="XCdc">   -840.64481490 </i>
    <i name="pawpsdc">   7829.26911420 </i>
    <i name="pawaedc">  -6687.23782220 </i>
    <i name="eentropy">     -0.00000000 </i>
    <i name="bandstr">   -683.32597795 </i>
    <i name="atom">   6608.17022516 </i>
    <i name="e_fr_energy">   -100.87005554 </i>
    <i name="e_wo_entrp">   -100.87005554 </i>
    <i name="e_0_energy">   -100.87005554 </i>
   </energy>
  </scstep>
  <structure>
   <crystal>
    <varray name="basis" >
     <v>       4.23494847       0.00000000       0.00000000 </v>
     <v>       0.00000000      13.17589346       0.03228394 </v>
     <v>       0.00000000       0.78292136      15.19352632 </v>
    </varray>
    <i name="volume">    847.68002570 </i>
    <varray name="rec_basis" >
     <v>       0.23613038       0.00000000       0.00000000 </v>
     <v>       0.00000000       0.07590577      -0.00391142 </v>
     <v>       0.00000000      -0.00016129       0.06582582 </v>
    </varray>
   </crystal>
   <varray name="positions" >
    <v>       0.25000000       0.56287362       0.81434274 </v>
    <v>       0.75000000       0.43712638       0.18565726 </v>
    <v>       0.75000000       0.82477716       0.62422061 </v>
    <v>       0.25000000       0.17522284       0.37577939 </v>
    <v>       0.25000000       0.83583609       0.27939005 </v>
    <v>       0.75000000       0.16416391       0.72060995 </v>
    <v>       0.75000000       0.60760829       0.43027165 </v>
    <v>       0.25000000       0.39239171       0.56972835 </v>
    <v>       0.75000000       0.73047871       0.04879347 </v>
    <v>       0.25000000       0.26952129       0.95120653 </v>
    <v>       0.25000000       0.94067172       0.87567108 </v>
    <v>       0.75000000       0.05932828       0.12432892 </v>
    <v>       0.25000000       0.59430441       0.03681554 </v>
    <v>       0.75000000       0.40569559       0.96318446 </v>
    <v>       0.75000000       0.99382978       0.30216774 </v>
    <v>       0.25000000       0.00617022       0.69783226 </v>
    <v>       0.75000000       0.69294834       0.24137769 </v>
    <v>       0.25000000       0.30705166       0.75862231 </v>
    <v>       0.75000000       0.78854610       0.85623793 </v>
    <v>       0.25000000       0.21145390       0.14376207 </v>
    <v>       0.25000000       0.90633944       0.08448382 </v>
    <v>       0.75000000       0.09366056       0.91551618 </v>
    <v>       0.25000000       0.75885563       0.45866794 </v>
    <v>       0.75000000       0.24114437       0.54133206 </v>
    <v>       0.25000000       0.45777002       0.38761582 </v>
    <v>       0.75000000       0.54222998       0.61238418 </v>
   </varray>
  </structure>
  <varray name="forces" >
   <v>       0.00000000      -0.03975604       0.08372810 </v>
   <v>       0.00000000       0.03975604      -0.08372810 </v>
   <v>       0.00000000       0.05167314      -0.02005514 </v>
   <v>      -0.00000000      -0.05167314       0.02005514 </v>
   <v>      -0.00000000       0.06870653      -0.04472374 </v>
   <v>       0.00000000      -0.06870653       0.04472374 </v>
   <v>       0.00000000       0.01132574      -0.03126115 </v>
   <v>       0.00000000      -0.01132574       0.03126115 </v>
   <v>       0.00000000       0.16000233      -0.02048366 </v>
   <v>       0.00000000      -0.16000233       0.02048366 </v>
   <v>       0.00000000       0.01008046       0.08547149 </v>
   <v>       0.00000000      -0.01008046      -0.08547149 </v>
   <v>       0.00000000      -0.30875665      -0.08521848 </v>
   <v>       0.00000000       0.30875665       0.08521848 </v>
   <v>       0.00000000       0.19164190       0.17102821 </v>
   <v>       0.00000000      -0.19164190      -0.17102821 </v>
   <v>       0.00000000      -0.18842793      -0.01086851 </v>
   <v>       0.00000000       0.18842793       0.01086851 </v>
   <v>       0.00000000      -0.15488181      -0.09549337 </v>
   <v>      -0.00000000       0.15488181       0.09549337 </v>
   <v>       0.00000000      -0.08976225      -0.05403277 </v>
   <v>       0.00000000       0.08976225       0.05403277 </v>
   <v>      -0.00000000       0.13742584       0.26058993 </v>
   <v>       0.00000000      -0.13742584      -0.26058993 </v>
   <v>       0.00000000      -0.04702556      -0.17837397 </v>
   <v>       0.00000000       0.04702556       0.17837397 </v>
  </varray>
  <varray name="stress" >
   <v>       5.21000792       0.00000000       0.00000000 </v>
   <v>       0.00000000       4.53946737      -2.36898752 </v>
   <v>       0.00000000      -2.36898677       3.25460432 </v>
  </varray>
  <energy>
   <i name="e_fr_energy">   -100.87005554 </i>
   <i name="e_wo_entrp">   -100.87005554 </i>
   <i name="e_0_energy">     -0.00000000 </i>
  </energy>
  <time name="totalsc">   17.12   17.14</time>
 </calculation>
 <calculation>
  <scstep>
   <time name="dav">    0.81    0.81</time>
   <time name="total">    1.09    1.09</time>
   <energy>
    <i name="alphaZ">    297.74233363 </i>
    <i name="ewald">  -5513.98188759 </i>
    <i name="hartreedc">  -1106.21733599 </i>
    <i name="XCdc">   -840.83888083 </i>
    <i name="pawpsdc">   7828.56907990 </i>
    <i name="pawaedc">  -6686.53933895 </i>
    <i name="eentropy">     -0.00000000 </i>
    <i name="bandstr">   -687.79016400 </i>
    <i name="atom">   6608.17022516 </i>
    <i name="e_fr_energy">   -100.88596867 </i>
    <i name="e_wo_entrp">   -100.88596867 </i>
    <i name="e_0_energy">   -100.88596867 </i>
   </energy>
  </scstep>
  <scstep>
   <time name="dav">    1.03    1.03</time>
   <time name="total">    1.32    1.32</time>
   <energy>
    <i name="e_fr_energy">   -100.88427991 </i>
    <i name="e_wo_entrp">   -100.88427991 </i>
    <i name="e_0_energy">   -100.88427991 </i>
   </energy>
  </scstep>
  <scstep>
   <time name="dav">    0.84    0.84</time>
   <time name="total">    1.14    1.14</time>
   <energy>
    <i name="e_fr_energy">   -100.88373953 </i>
    <i name="e_wo_entrp">   -100.88373953 </i>
    <i name="e_0_energy">   -100.88373953 </i>
   </energy>
  </scstep>
  <scstep>
   <time name="dav">    0.76    0.76</time>
   <time name="total">    1.05    1.05</time>
   <energy>
    <i name="e_fr_energy">   -100.88362353 </i>
    <i name="e_wo_entrp">   -100.88362353 </i>
    <i name="e_0_energy">   -100.88362353 </i>
   </energy>
  </scstep>
  <scstep>
   <time name="dav">    0.64    0.64</time>
   <time name="total">    0.89    0.89</time>
   <energy>
    <i name="alphaZ">    297.74233363 </i>
    <i name="ewald">  -5513.98188759 </i>
    <i name="hartreedc">  -1108.69340311 </i>
    <i name="XCdc">   -840.78314528 </i>
    <i name="pawpsdc">   7812.06656900 </i>
    <i name="pawaedc">  -6670.00095049 </i>
    <i name="eentropy">     -0.00000000 </i>
    <i name="bandstr">   -685.40332550 </i>
    <i name="atom">   6608.17022516 </i>
    <i name="e_fr_energy">   -100.88358418 </i>
    <i name="e_wo_entrp">   -100.88358418 </i>
    <i name="e_0_energy">   -100.88358418 </i>
   </energy>
  </scstep>
  <structure>
   <crystal>
    <varray name="basis" >
     <v>       4.23928054       0.00000000       0.00000000 </v>
     <v>       0.00000000      13.18762185       0.02617610 </v>
     <v>       0.00000000       0.77655224      15.20287097 </v>
    </varray>
    <i name="volume">    849.84596888 </i>
    <varray name="rec_basis" >
     <v>       0.23588908       0.00000000       0.00000000 </v>
     <v>       0.00000000       0.07583637      -0.00387367 </v>
     <v>       0.00000000      -0.00013057       0.06578372 </v>
    </varray>
   </crystal>
   <varray name="positions" >
    <v>       0.25000000       0.56284134       0.81439598 </v>
    <v>       0.75000000       0.43715866       0.18560402 </v>
    <v>       0.75000000       0.82481576       0.62420779 </v>
    <v>       0.25000000       0.17518424       0.37579221 </v>
    <v>       0.25000000       0.83588810       0.27936154 </v>
    <v>       0.75000000       0.16411190       0.72063846 </v>
    <v>       0.75000000       0.60761776       0.43025178 </v>
    <v>       0.25000000       0.39238224       0.56974822 </v>
    <v>       0.75000000       0.73059667       0.04878021 </v>
    <v>       0.25000000       0.26940333       0.95121979 </v>
    <v>       0.25000000       0.94067588       0.87572535 </v>
    <v>       0.75000000       0.05932412       0.12427465 </v>
    <v>       0.25000000       0.59408150       0.03676190 </v>
    <v>       0.75000000       0.40591850       0.96323810 </v>
    <v>       0.75000000       0.99396368       0.30227607 </v>
    <v>       0.25000000       0.00603632       0.69772393 </v>
    <v>       0.75000000       0.69281075       0.24137108 </v>
    <v>       0.25000000       0.30718925       0.75862892 </v>
    <v>       0.75000000       0.78843627       0.85617752 </v>
    <v>       0.25000000       0.21156373       0.14382248 </v>
    <v>       0.25000000       0.90627574       0.08444964 </v>
    <v>       0.75000000       0.09372426       0.91555036 </v>
    <v>       0.25000000       0.75894644       0.45883323 </v>
    <v>       0.75000000       0.24105356       0.54116677 </v>
    <v>       0.25000000       0.45774231       0.38750260 </v>
    <v>       0.75000000       0.54225769       0.61249740 </v>
   </varray>
  </structure>
  <varray name="forces" >
   <v>      -0.00000000      -0.04066913       0.08365700 </v>
   <v>      -0.00000000       0.04066913      -0.08365700 </v>
   <v>      -0.00000000       0.05012629      -0.02104674 </v>
   <v>      -0.00000000      -0.05012629       0.02104674 </v>
   <v>      -0.00000000       0.07187536      -0.03567699 </v>
   <v>      -0.00000000      -0.07187536       0.03567699 </v>
   <v>      -0.00000000       0.01826824      -0.03005100 </v>
   <v>      -0.00000000      -0.01826824       0.03005100 </v>
   <v>      -0.00000000       0.12161501      -0.03640185 </v>
   <v>      -0.00000000      -0.12161501       0.03640185 </v>
   <v>      -0.00000000       0.01268551       0.05870051 </v>
   <v>       0.00000000      -0.01268551      -0.05870051 </v>
   <v>      -0.00000000      -0.24773348      -0.11255689 </v>
   <v>       0.00000000       0.24773348       0.11255689 </v>
   <v>      -0.00000000       0.17941384       0.12555175 </v>
   <v>      -0.00000000      -0.17941384      -0.12555175 </v>
   <v>      -0.00000000      -0.14728548      -0.02517392 </v>
   <v>      -0.00000000       0.14728548       0.02517392 </v>
   <v>      -0.00000000      -0.15082854      -0.08319478 </v>
   <v>      -0.00000000       0.15082854       0.08319478 </v>
   <v>      -0.00000000      -0.05858688      -0.04881978 </v>
   <v>      -0.00000000       0.05858688       0.04881978 </v>
   <v>      -0.00000000       0.10212924       0.24309156 </v>
   <v>      -0.00000000      -0.10212924      -0.24309156 </v>
   <v>      -0.00000000      -0.02176556      -0.13873074 </v>
   <v>      -0.00000000       0.02176556       0.13873074 </v>
  </varray>
  <varray name="stress" >
   <v>       3.46380126       0.00000000       0.00000000 </v>
   <v>       0.00000000       2.80611499      -2.14726468 </v>
   <v>       0.00000000      -2.14726435       1.69855699 </v>
  </varray>
  <energy>
   <i name="e_fr_energy">   -100.88358418 </i>
   <i name="e_wo_entrp">   -100.88358418 </i>
   <i name="e_0_energy">     -0.00000000 </i>
  </energy>
  <time name="totalsc">    6.90    6.90</time>
 </calculation>
 <calculation>
  <scstep>
   <time name="dav">    1.10    1.10</time>
   <time name="total">    1.38    1.38</time>
   <energy>
    <i name="alphaZ">    295.47636182 </i>
    <i name="ewald">  -5503.76486569 </i>
    <i name="hartreedc">  -1102.62604342 </i>
    <i name="XCdc">   -841.37351084 </i>
    <i name="pawpsdc">   7812.89236066 </i>
    <i name="pawaedc">  -6670.82312269 </i>
    <i name="eentropy">     -0.00000000 </i>
    <i name="bandstr">   -698.87678228 </i>
    <i name="atom">   6608.17022516 </i>
    <i name="e_fr_energy">   -100.92537728 </i>
    <i name="e_wo_entrp">   -100.92537728 </i>
    <i name="e_0_energy">   -100.92537728 </i>
   </energy>
  </scstep>
  <scstep>
   <time name="dav">    0.85    0.85</time>
   <time name="total">    1.14    1.14</time>
   <energy>
    <i name="e_fr_energy">   -100.91007883 </i>
    <i name="e_wo_entrp">   -100.91007883 </i>
    <i name="e_0_energy">   -100.91007883 </i>
   </energy>
  </scstep>
  <scstep>
   <time name="dav">    0.88    0.88</time>
   <time name="total">    1.17    1.18</time>
   <energy>
    <i name="e_fr_energy">   -100.90534068 </i>
    <i name="e_wo_entrp">   -100.90534068 </i>
    <i name="e_0_energy">   -100.90534068 </i>
   </energy>
  </scstep>
  <scstep>
   <time name="dav">    1.06    1.06</time>
   <time name="total">    1.35    1.35</time>
   <energy>
    <i name="e_fr_energy">   -100.90436728 </i>
    <i name="e_wo_entrp">   -100.90436728 </i>
    <i name="e_0_energy">   -100.90436728 </i>
   </energy>
  </scstep>
  <scstep>
   <time name="dav">    0.73    0.73</time>
   <time name="total">    1.03    1.03</time>
   <energy>
    <i name="e_fr_energy">   -100.90408106 </i>
    <i name="e_wo_entrp">   -100.90408106 </i>
    <i name="e_0_energy">   -100.90408106 </i>
   </energy>
  </scstep>
  <scstep>
   <time name="dav">    0.71    0.71</time>
   <time name="total">    0.97    0.97</time>
   <energy>
    <i name="alphaZ">    295.47636182 </i>
    <i name="ewald">  -5503.76486569 </i>
    <i name="hartreedc">  -1110.04712009 </i>
    <i name="XCdc">   -841.20290275 </i>
    <i name="pawpsdc">   7767.76243393 </i>
    <i name="pawaedc">  -6625.57937360 </i>
    <i name="eentropy">     -0.00000000 </i>
    <i name="bandstr">   -691.71884725 </i>
    <i name="atom">   6608.17022516 </i>
    <i name="e_fr_energy">   -100.90408846 </i>
    <i name="e_wo_entrp">   -100.90408846 </i>
    <i name="e_0_energy">   -100.90408846 </i>
   </energy>
  </scstep>
  <structure>
   <crystal>
    <varray name="basis" >
     <v>       4.25227676       0.00000000       0.00000000 </v>
     <v>       0.00000000      13.22280703       0.00785258 </v>
     <v>       0.00000000       0.75744487      15.23090493 </v>
    </varray>
    <i name="volume">    856.36333288 </i>
    <varray name="rec_basis" >
     <v>       0.23516814       0.00000000       0.00000000 </v>
     <v>       0.00000000       0.07562914      -0.00376110 </v>
     <v>       0.00000000      -0.00003899       0.06565792 </v>
    </varray>
   </crystal>
   <varray name="positions" >
    <v>       0.25000000       0.56274469       0.81455556 </v>
    <v>       0.75000000       0.43725531       0.18544444 </v>
    <v>       0.75000000       0.82493144       0.62416941 </v>
    <v>       0.25000000       0.17506856       0.37583059 </v>
    <v>       0.25000000       0.83604393       0.27927612 </v>
    <v>       0.75000000       0.16395607       0.72072388 </v>
    <v>       0.75000000       0.60764613       0.43019221 </v>
    <v>       0.25000000       0.39235387       0.56980779 </v>
    <v>       0.75000000       0.73095019       0.04874060 </v>
    <v>       0.25000000       0.26904981       0.95125940 </v>
    <v>       0.25000000       0.94068842       0.87588806 </v>
    <v>       0.75000000       0.05931158       0.12411194 </v>
    <v>       0.25000000       0.59341329       0.03660079 </v>
    <v>       0.75000000       0.40658671       0.96339921 </v>
    <v>       0.75000000       0.99436518       0.30260100 </v>
    <v>       0.25000000       0.00563482       0.69739900 </v>
    <v>       0.75000000       0.69239834       0.24135110 </v>
    <v>       0.25000000       0.30760166       0.75864890 </v>
    <v>       0.75000000       0.78810699       0.85599627 </v>
    <v>       0.25000000       0.21189301       0.14400373 </v>
    <v>       0.25000000       0.90608476       0.08434710 </v>
    <v>       0.75000000       0.09391524       0.91565290 </v>
    <v>       0.25000000       0.75921889       0.45932892 </v>
    <v>       0.75000000       0.24078111       0.54067108 </v>
    <v>       0.25000000       0.45765908       0.38716313 </v>
    <v>       0.75000000       0.54234092       0.61283687 </v>
   </varray>
  </structure>
  <varray name="forces" >
   <v>       0.00000000      -0.04259540       0.08262916 </v>
   <v>       0.00000000       0.04259540      -0.08262916 </v>
   <v>       0.00000000       0.04618854      -0.02213964 </v>
   <v>       0.00000000      -0.04618854       0.02213964 </v>
   <v>      -0.00000000       0.02174114       0.01516595 </v>
   <v>       0.00000000      -0.02174114      -0.01516595 </v>
   <v>      -0.00000000       0.01007131       0.02899090 </v>
   <v>       0.00000000      -0.01007131      -0.02899090 </v>
   <v>       0.00000000      -0.02852638      -0.04215747 </v>
   <v>       0.00000000       0.02852638       0.04215747 </v>
   <v>       0.00000000      -0.01938031      -0.00437238 </v>
   <v>       0.00000000       0.01938031       0.00437238 </v>
   <v>       0.00000000      -0.12917783      -0.13699067 </v>
   <v>       0.00000000       0.12917783       0.13699067 </v>
   <v>       0.00000000       0.13967863       0.05917623 </v>
   <v>       0.00000000      -0.13967863      -0.05917623 </v>
   <v>       0.00000000      -0.08791318       0.00124329 </v>
   <v>       0.00000000       0.08791318      -0.00124329 </v>
   <v>       0.00000000      -0.10309766      -0.04791982 </v>
   <v>      -0.00000000       0.10309766       0.04791982 </v>
   <v>       0.00000000      -0.03662632      -0.02896970 </v>
   <v>       0.00000000       0.03662632       0.02896970 </v>
   <v>       0.00000000       0.02967320       0.07007950 </v>
   <v>       0.00000000      -0.02967320      -0.07007950 </v>
   <v>       0.00000000      -0.01637051      -0.01195138 </v>
   <v>       0.00000000       0.01637051       0.01195138 </v>
  </varray>
  <varray name="stress" >
   <v>      -1.20281235       0.00000000       0.00000000 </v>
   <v>       0.00000000      -2.02462143      -1.65266919 </v>
   <v>       0.00000000      -1.65266771      -2.22915155 </v>
  </varray>
  <energy>
   <i name="e_fr_energy">   -100.90408846 </i>
   <i name="e_wo_entrp">   -100.90408846 </i>
   <i name="e_0_energy">     -0.00000000 </i>
  </energy>
  <time name="totalsc">    8.38    8.38</time>
 </calculation>
 <calculation>
  <scstep>
   <time name="dav">    0.84    0.84</time>
   <time name="total">    1.14    1.14</time>
   <energy>
    <i name="alphaZ">    295.12570897 </i>
    <i name="ewald">  -5502.16752024 </i>
    <i name="hartreedc">  -1109.13141934 </i>
    <i name="XCdc">   -841.29168112 </i>
    <i name="pawpsdc">   7769.74027027 </i>
    <i name="pawaedc">  -6627.55288157 </i>
    <i name="eentropy">     -0.00000000 </i>
    <i name="bandstr">   -693.79771895 </i>
    <i name="atom">   6608.17022516 </i>
    <i name="e_fr_energy">   -100.90501682 </i>
    <i name="e_wo_entrp">   -100.90501682 </i>
    <i name="e_0_energy">   -100.90501682 </i>
   </energy>
  </scstep>
  <scstep>
   <time name="dav">    0.95    0.95</time>
   <time name="total">    1.24    1.24</time>
   <energy>
    <i name="e_fr_energy">   -100.90465730 </i>
    <i name="e_wo_entrp">   -100.90465730 </i>
    <i name="e_0_energy">   -100.90465730 </i>
   </energy>
  </scstep>
  <scstep>
   <time name="dav">    0.75    0.75</time>
   <time name="total">    1.04    1.04</time>
   <energy>
    <i name="e_fr_energy">   -100.90453984 </i>
    <i name="e_wo_entrp">   -100.90453984 </i>
    <i name="e_0_energy">   -100.90453984 </i>
   </energy>
  </scstep>
  <scstep>
   <time name="dav">    0.54    0.54</time>
   <time name="total">    0.79    0.79</time>
   <energy>
    <i name="alphaZ">    295.12570897 </i>
    <i name="ewald">  -5502.16752024 </i>
    <i name="hartreedc">  -1110.20173064 </i>
    <i name="XCdc">   -841.26293279 </i>
    <i name="pawpsdc">   7762.03808406 </i>
    <i name="pawaedc">  -6619.84573562 </i>
    <i name="eentropy">     -0.00000000 </i>
    <i name="bandstr">   -692.76061275 </i>
    <i name="atom">   6608.17022516 </i>
    <i name="e_fr_energy">   -100.90451384 </i>
    <i name="e_wo_entrp">   -100.90451384 </i>
    <i name="e_0_energy">   -100.90451384 </i>
   </energy>
  </scstep>
  <structure>
   <crystal>
    <varray name="basis" >
     <v>       4.25430046       0.00000000       0.00000000 </v>
     <v>       0.00000000      13.22828587       0.00499934 </v>
     <v>       0.00000000       0.75446958      15.23527021 </v>
    </varray>
    <i name="volume">    857.38081878 </i>
    <varray name="rec_basis" >
     <v>       0.23505627       0.00000000       0.00000000 </v>
     <v>       0.00000000       0.07559700      -0.00374366 </v>
     <v>       0.00000000      -0.00002481       0.06563840 </v>
    </varray>
   </crystal>
   <varray name="positions" >
    <v>       0.25000000       0.56272971       0.81458035 </v>
    <v>       0.75000000       0.43727029       0.18541965 </v>
    <v>       0.75000000       0.82494939       0.62416346 </v>
    <v>       0.25000000       0.17505061       0.37583654 </v>
    <v>       0.25000000       0.83606811       0.27926287 </v>
    <v>       0.75000000       0.16393189       0.72073713 </v>
    <v>       0.75000000       0.60765052       0.43018296 </v>
    <v>       0.25000000       0.39234948       0.56981704 </v>
    <v>       0.75000000       0.73100508       0.04873451 </v>
    <v>       0.25000000       0.26899492       0.95126549 </v>
    <v>       0.25000000       0.94069041       0.87591335 </v>
    <v>       0.75000000       0.05930959       0.12408665 </v>
    <v>       0.25000000       0.59330949       0.03657563 </v>
    <v>       0.75000000       0.40669051       0.96342437 </v>
    <v>       0.75000000       0.99442761       0.30265158 </v>
    <v>       0.25000000       0.00557239       0.69734842 </v>
    <v>       0.75000000       0.69233430       0.24134791 </v>
    <v>       0.25000000       0.30766570       0.75865209 </v>
    <v>       0.75000000       0.78805582       0.85596804 </v>
    <v>       0.25000000       0.21194418       0.14403196 </v>
    <v>       0.25000000       0.90605508       0.08433112 </v>
    <v>       0.75000000       0.09394492       0.91566888 </v>
    <v>       0.25000000       0.75926132       0.45940601 </v>
    <v>       0.75000000       0.24073868       0.54059399 </v>
    <v>       0.25000000       0.45764608       0.38711035 </v>
    <v>       0.75000000       0.54235392       0.61288965 </v>
   </varray>
  </structure>
  <varray name="forces" >
   <v>      -0.00000000      -0.04213999       0.08341706 </v>
   <v>      -0.00000000       0.04213999      -0.08341706 </v>
   <v>      -0.00000000       0.04564633      -0.02117143 </v>
   <v>      -0.00000000      -0.04564633       0.02117143 </v>
   <v>      -0.00000000       0.00889609       0.05438557 </v>
   <v>      -0.00000000      -0.00889609      -0.05438557 </v>
   <v>      -0.00000000       0.00273428       0.03065943 </v>
   <v>      -0.00000000      -0.00273428      -0.03065943 </v>
   <v>      -0.00000000      -0.04518349      -0.04434535 </v>
   <v>      -0.00000000       0.04518349       0.04434535 </v>
   <v>      -0.00000000      -0.02185886      -0.01225183 </v>
   <v>      -0.00000000       0.02185886       0.01225183 </v>
   <v>      -0.00000000      -0.09445595      -0.12499504 </v>
   <v>      -0.00000000       0.09445595       0.12499504 </v>
   <v>      -0.00000000       0.13797744       0.05030910 </v>
   <v>      -0.00000000      -0.13797744      -0.05030910 </v>
   <v>      -0.00000000      -0.08130211       0.00173842 </v>
   <v>      -0.00000000       0.08130211      -0.00173842 </v>
   <v>      -0.00000000      -0.09558845      -0.04186944 </v>
   <v>      -0.00000000       0.09558845       0.04186944 </v>
   <v>      -0.00000000      -0.03587029      -0.02856671 </v>
   <v>      -0.00000000       0.03587029       0.02856671 </v>
   <v>       0.00000000       0.02739478       0.06472501 </v>
   <v>      -0.00000000      -0.02739478      -0.06472501 </v>
   <v>      -0.00000000      -0.00733490       0.02245650 </v>
   <v>      -0.00000000       0.00733490      -0.02245650 </v>
  </varray>
  <varray name="stress" >
   <v>      -1.54295252       0.00000000       0.00000000 </v>
   <v>       0.00000000      -2.28437795      -1.57210529 </v>
   <v>       0.00000000      -1.57210395      -2.76482680 </v>
  </varray>
  <energy>
   <i name="e_fr_energy">   -100.90451384 </i>
   <i name="e_wo_entrp">   -100.90451384 </i>
   <i name="e_0_energy">     -0.00000000 </i>
  </energy>
  <time name="totalsc">    5.55    5.55</time>
 </calculation>
 <calculation>
  <scstep>
   <time name="dav">    0.72    0.73</time>
   <time name="total">    1.01    1.02</time>
   <energy>
    <i name="alphaZ">    295.49346465 </i>
    <i name="ewald">  -5505.63724426 </i>
    <i name="hartreedc">  -1109.71232109 </i>
    <i name="XCdc">   -841.19948725 </i>
    <i name="pawpsdc">   7762.84629078 </i>
    <i name="pawaedc">  -6620.64659043 </i>
    <i name="eentropy">     -0.00000000 </i>
    <i name="bandstr">   -690.22604578 </i>
    <i name="atom">   6608.17022516 </i>
    <i name="e_fr_energy">   -100.91170823 </i>
    <i name="e_wo_entrp">   -100.91170823 </i>
    <i name="e_0_energy">   -100.91170823 </i>
   </energy>
  </scstep>
  <scstep>
   <time name="dav">    1.02    1.02</time>
   <time name="total">    1.30    1.30</time>
   <energy>
    <i name="e_fr_energy">   -100.91143403 </i>
    <i name="e_wo_entrp">   -100.91143403 </i>
    <i name="e_0_energy">   -100.91143403 </i>
   </energy>
  </scstep>
  <scstep>
   <time name="dav">    0.88    0.88</time>
   <time name="total">    1.17    1.18</time>
   <energy>
    <i name="e_fr_energy">   -100.91116037 </i>
    <i name="e_wo_entrp">   -100.91116037 </i>
    <i name="e_0_energy">   -100.91116037 </i>
   </energy>
  </scstep>
  <scstep>
   <time name="dav">    0.74    0.74</time>
   <time name="total">    1.04    1.04</time>
   <energy>
    <i name="e_fr_energy">   -100.91105672 </i>
    <i name="e_wo_entrp">   -100.91105672 </i>
    <i name="e_0_energy">   -100.91105672 </i>
   </energy>
  </scstep>
  <scstep>
   <time name="dav">    0.74    0.74</time>
   <time name="total">    1.00    1.00</time>
   <energy>
    <i name="alphaZ">    295.49346465 </i>
    <i name="ewald">  -5505.63724426 </i>
    <i name="hartreedc">  -1108.35129526 </i>
    <i name="XCdc">   -841.22662924 </i>
    <i name="pawpsdc">   7767.69487329 </i>
    <i name="pawaedc">  -6625.50067570 </i>
    <i name="eentropy">     -0.00000000 </i>
    <i name="bandstr">   -691.55377637 </i>
    <i name="atom">   6608.17022516 </i>
    <i name="e_fr_energy">   -100.91105772 </i>
    <i name="e_wo_entrp">   -100.91105772 </i>
    <i name="e_0_energy">   -100.91105772 </i>
   </energy>
  </scstep>
  <structure>
   <crystal>
    <varray name="basis" >
     <v>       4.25375040       0.00000000       0.00000000 </v>
     <v>       0.00000000      13.22261042      -0.00434107 </v>
     <v>       0.00000000       0.74339252      15.22427986 </v>
    </varray>
    <i name="volume">    856.31376755 </i>
    <varray name="rec_basis" >
     <v>       0.23508667       0.00000000       0.00000000 </v>
     <v>       0.00000000       0.07562682      -0.00369281 </v>
     <v>       0.00000000       0.00002156       0.06568350 </v>
    </varray>
   </crystal>
   <varray name="positions" >
    <v>       0.25000000       0.56266037       0.81469002 </v>
    <v>       0.75000000       0.43733963       0.18530998 </v>
    <v>       0.75000000       0.82502170       0.62413590 </v>
    <v>       0.25000000       0.17497830       0.37586410 </v>
    <v>       0.25000000       0.83609547       0.27931040 </v>
    <v>       0.75000000       0.16390453       0.72068960 </v>
    <v>       0.75000000       0.60765560       0.43020829 </v>
    <v>       0.25000000       0.39234440       0.56979171 </v>
    <v>       0.75000000       0.73099671       0.04868202 </v>
    <v>       0.25000000       0.26900329       0.95131798 </v>
    <v>       0.25000000       0.94066578       0.87592084 </v>
    <v>       0.75000000       0.05933422       0.12407916 </v>
    <v>       0.25000000       0.59311587       0.03642109 </v>
    <v>       0.75000000       0.40688413       0.96357891 </v>
    <v>       0.75000000       0.99464584       0.30274672 </v>
    <v>       0.25000000       0.00535416       0.69725328 </v>
    <v>       0.75000000       0.69218157       0.24134721 </v>
    <v>       0.25000000       0.30781843       0.75865279 </v>
    <v>       0.75000000       0.78789860       0.85590016 </v>
    <v>       0.25000000       0.21210140       0.14409984 </v>
    <v>       0.25000000       0.90598832       0.08428747 </v>
    <v>       0.75000000       0.09401168       0.91571253 </v>
    <v>       0.25000000       0.75932579       0.45953826 </v>
    <v>       0.75000000       0.24067421       0.54046174 </v>
    <v>       0.25000000       0.45762503       0.38709142 </v>
    <v>       0.75000000       0.54237497       0.61290858 </v>
   </varray>
  </structure>
  <varray name="forces" >
   <v>      -0.00000000      -0.03963145       0.08002399 </v>
   <v>      -0.00000000       0.03963145      -0.08002399 </v>
   <v>      -0.00000000       0.04360197      -0.02010920 </v>
   <v>      -0.00000000      -0.04360197       0.02010920 </v>
   <v>       0.00000000      -0.00196252       0.04037732 </v>
   <v>      -0.00000000       0.00196252      -0.04037732 </v>
   <v>      -0.00000000       0.01006671       0.03565790 </v>
   <v>      -0.00000000      -0.01006671      -0.03565790 </v>
   <v>      -0.00000000      -0.05839783      -0.04930328 </v>
   <v>      -0.00000000       0.05839783       0.04930328 </v>
   <v>      -0.00000000      -0.02915884      -0.01487000 </v>
   <v>      -0.00000000       0.02915884       0.01487000 </v>
   <v>      -0.00000000      -0.07854916      -0.12087543 </v>
   <v>      -0.00000000       0.07854916       0.12087543 </v>
   <v>      -0.00000000       0.14931850       0.06121603 </v>
   <v>      -0.00000000      -0.14931850      -0.06121603 </v>
   <v>      -0.00000000      -0.02650730      -0.00356000 </v>
   <v>      -0.00000000       0.02650730       0.00356000 </v>
   <v>      -0.00000000      -0.08436699      -0.03510142 </v>
   <v>      -0.00000000       0.08436699       0.03510142 </v>
   <v>      -0.00000000      -0.03931875      -0.02935860 </v>
   <v>      -0.00000000       0.03931875       0.02935860 </v>
   <v>       0.00000000       0.03597827       0.07585292 </v>
   <v>      -0.00000000      -0.03597827      -0.07585292 </v>
   <v>      -0.00000000      -0.01742502      -0.01642758 </v>
   <v>      -0.00000000       0.01742502       0.01642758 </v>
  </varray>
  <varray name="stress" >
   <v>      -1.70678583       0.00000000       0.00000000 </v>
   <v>       0.00000000      -2.41586213      -1.50753358 </v>
   <v>       0.00000000      -1.50753230      -2.53441560 </v>
  </varray>
  <energy>
   <i name="e_fr_energy">   -100.91105772 </i>
   <i name="e_wo_entrp">   -100.91105772 </i>
   <i name="e_0_energy">     -0.00000000 </i>
  </energy>
  <time name="totalsc">    6.87    6.88</time>
 </calculation>
 <calculation>
  <scstep>
   <time name="dav">    0.82    0.82</time>
   <time name="total">    1.11    1.11</time>
   <energy>
    <i name="alphaZ">    296.60246450 </i>
    <i name="ewald">  -5515.96610079 </i>
    <i name="hartreedc">  -1106.71325379 </i>
    <i name="XCdc">   -841.03770302 </i>
    <i name="pawpsdc">   7766.99027824 </i>
    <i name="pawaedc">  -6624.79718734 </i>
    <i name="eentropy">     -0.00000000 </i>
    <i name="bandstr">   -684.18166132 </i>
    <i name="atom">   6608.17022516 </i>
    <i name="e_fr_energy">   -100.93293835 </i>
    <i name="e_wo_entrp">   -100.93293835 </i>
    <i name="e_0_energy">   -100.93293835 </i>
   </energy>
  </scstep>
  <scstep>
   <time name="dav">    0.96    0.96</time>
   <time name="total">    1.25    1.25</time>
   <energy>
    <i name="e_fr_energy">   -100.93048464 </i>
    <i name="e_wo_entrp">   -100.93048464 </i>
    <i name="e_0_energy">   -100.93048464 </i>
   </energy>
  </scstep>
  <scstep>
   <time name="dav">    0.83    0.83</time>
   <time name="total">    1.11    1.11</time>
   <energy>
    <i name="e_fr_energy">   -100.92800091 </i>
    <i name="e_wo_entrp">   -100.92800091 </i>
    <i name="e_0_energy">   -100.92800091 </i>
   </energy>
  </scstep>
  <scstep>
   <time name="dav">    0.84    0.84</time>
   <time name="total">    1.13    1.13</time>
   <energy>
    <i name="e_fr_energy">   -100.92709258 </i>
    <i name="e_wo_entrp">   -100.92709258 </i>
    <i name="e_0_energy">   -100.92709258 </i>
   </energy>
  </scstep>
  <scstep>
   <time name="dav">    0.97    0.97</time>
   <time name="total">    1.22    1.22</time>
   <energy>
    <i name="alphaZ">    296.60246450 </i>
    <i name="ewald">  -5515.96610079 </i>
    <i name="hartreedc">  -1102.61117069 </i>
    <i name="XCdc">   -841.12428893 </i>
    <i name="pawpsdc">   7776.17652590 </i>
    <i name="pawaedc">  -6634.00924378 </i>
    <i name="eentropy">     -0.00000000 </i>
    <i name="bandstr">   -688.16548388 </i>
    <i name="atom">   6608.17022516 </i>
    <i name="e_fr_energy">   -100.92707253 </i>
    <i name="e_wo_entrp">   -100.92707253 </i>
    <i name="e_0_energy">   -100.92707253 </i>
   </energy>
  </scstep>
  <structure>
   <crystal>
    <varray name="basis" >
     <v>       4.25210023       0.00000000       0.00000000 </v>
     <v>       0.00000000      13.20558409      -0.03236230 </v>
     <v>       0.00000000       0.71016132      15.19130880 </v>
    </varray>
    <i name="volume">    853.11200104 </i>
    <varray name="rec_basis" >
     <v>       0.23517790       0.00000000       0.00000000 </v>
     <v>       0.00000000       0.07571687      -0.00353960 </v>
     <v>       0.00000000       0.00016130       0.06581957 </v>
    </varray>
   </crystal>
   <varray name="positions" >
    <v>       0.25000000       0.56245250       0.81501917 </v>
    <v>       0.75000000       0.43754750       0.18498083 </v>
    <v>       0.75000000       0.82523864       0.62405327 </v>
    <v>       0.25000000       0.17476136       0.37594673 </v>
    <v>       0.25000000       0.83617771       0.27945314 </v>
    <v>       0.75000000       0.16382229       0.72054686 </v>
    <v>       0.75000000       0.60767090       0.43028438 </v>
    <v>       0.25000000       0.39232910       0.56971562 </v>
    <v>       0.75000000       0.73097147       0.04852440 </v>
    <v>       0.25000000       0.26902853       0.95147560 </v>
    <v>       0.25000000       0.94059189       0.87594326 </v>
    <v>       0.75000000       0.05940811       0.12405674 </v>
    <v>       0.25000000       0.59253439       0.03595677 </v>
    <v>       0.75000000       0.40746561       0.96404323 </v>
    <v>       0.75000000       0.99530104       0.30303273 </v>
    <v>       0.25000000       0.00469896       0.69696727 </v>
    <v>       0.75000000       0.69172322       0.24134480 </v>
    <v>       0.25000000       0.30827678       0.75865520 </v>
    <v>       0.75000000       0.78742659       0.85569607 </v>
    <v>       0.25000000       0.21257341       0.14430393 </v>
    <v>       0.25000000       0.90578789       0.08415632 </v>
    <v>       0.75000000       0.09421211       0.91584368 </v>
    <v>       0.25000000       0.75951959       0.45993540 </v>
    <v>       0.75000000       0.24048041       0.54006460 </v>
    <v>       0.25000000       0.45756183       0.38703454 </v>
    <v>       0.75000000       0.54243817       0.61296546 </v>
   </varray>
  </structure>
  <varray name="forces" >
   <v>      -0.00000000      -0.03404840       0.06551488 </v>
   <v>      -0.00000000       0.03404840      -0.06551488 </v>
   <v>      -0.00000000       0.03681180      -0.01388207 </v>
   <v>      -0.00000000      -0.03681180       0.01388207 </v>
   <v>      -0.00000000      -0.00440333       0.03864142 </v>
   <v>      -0.00000000       0.00440333      -0.03864142 </v>
   <v>      -0.00000000       0.00081525       0.02059823 </v>
   <v>      -0.00000000      -0.00081525      -0.02059823 </v>
   <v>      -0.00000000      -0.08074168      -0.05319520 </v>
   <v>      -0.00000000       0.08074168       0.05319520 </v>
   <v>      -0.00000000      -0.05554177      -0.03705223 </v>
   <v>      -0.00000000       0.05554177       0.03705223 </v>
   <v>      -0.00000000      -0.03367125      -0.08518275 </v>
   <v>      -0.00000000       0.03367125       0.08518275 </v>
   <v>      -0.00000000       0.06447913       0.07121063 </v>
   <v>       0.00000000      -0.06447913      -0.07121063 </v>
   <v>      -0.00000000      -0.01337199      -0.00462811 </v>
   <v>      -0.00000000       0.01337199       0.00462811 </v>
   <v>      -0.00000000      -0.08185892      -0.03896007 </v>
   <v>      -0.00000000       0.08185892       0.03896007 </v>
   <v>       0.00000000      -0.01549906      -0.01380798 </v>
   <v>      -0.00000000       0.01549906       0.01380798 </v>
   <v>      -0.00000000       0.07339849       0.08549849 </v>
   <v>      -0.00000000      -0.07339849      -0.08549849 </v>
   <v>       0.00000000      -0.03195288      -0.04224814 </v>
   <v>      -0.00000000       0.03195288       0.04224814 </v>
  </varray>
  <varray name="stress" >
   <v>      -1.03974913       0.00000000       0.00000000 </v>
   <v>       0.00000000      -1.71337720      -1.27514495 </v>
   <v>       0.00000000      -1.27514401      -1.28291434 </v>
  </varray>
  <energy>
   <i name="e_fr_energy">   -100.92707253 </i>
   <i name="e_wo_entrp">   -100.92707253 </i>
   <i name="e_0_energy">     -0.00000000 </i>
  </energy>
  <time name="totalsc">    7.14    7.14</time>
 </calculation>
 <calculation>
  <scstep>
   <time name="dav">    0.69    0.69</time>
   <time name="total">    0.98    0.98</time>
   <energy>
    <i name="alphaZ">    298.84659483 </i>
    <i name="ewald">  -5536.27101183 </i>
    <i name="hartreedc">  -1099.73234531 </i>
    <i name="XCdc">   -840.74290865 </i>
    <i name="pawpsdc">   7774.72013392 </i>
    <i name="pawaedc">  -6632.55395073 </i>
    <i name="eentropy">     -0.00000000 </i>
    <i name="bandstr">   -673.40361133 </i>
    <i name="atom">   6608.17022516 </i>
    <i name="e_fr_energy">   -100.96687394 </i>
    <i name="e_wo_entrp">   -100.96687394 </i>
    <i name="e_0_energy">   -100.96687394 </i>
   </energy>
  </scstep>
  <scstep>
   <time name="dav">    0.89    0.89</time>
   <time name="total">    1.17    1.17</time>
   <energy>
    <i name="e_fr_energy">   -100.95684353 </i>
    <i name="e_wo_entrp">   -100.95684353 </i>
    <i name="e_0_energy">   -100.95684353 </i>
   </energy>
  </scstep>
  <scstep>
   <time name="dav">    0.85    0.85</time>
   <time name="total">    1.14    1.14</time>
   <energy>
    <i name="e_fr_energy">   -100.94681118 </i>
    <i name="e_wo_entrp">   -100.94681118 </i>
    <i name="e_0_energy">   -100.94681118 </i>
   </energy>
  </scstep>
  <scstep>
   <time name="dav">    1.11    1.11</time>
   <time name="total">    1.40    1.40</time>
   <energy>
    <i name="e_fr_energy">   -100.94328977 </i>
    <i name="e_wo_entrp">   -100.94328977 </i>
    <i name="e_0_energy">   -100.94328977 </i>
   </energy>
  </scstep>
  <scstep>
   <time name="dav">    0.97    0.97</time>
   <time name="total">    1.26    1.26</time>
   <energy>
    <i name="e_fr_energy">   -100.94320151 </i>
    <i name="e_wo_entrp">   -100.94320151 </i>
    <i name="e_0_energy">   -100.94320151 </i>
   </energy>
  </scstep>
  <scstep>
   <time name="dav">    0.58    0.58</time>
   <time name="total">    0.84    0.84</time>
   <energy>
    <i name="alphaZ">    298.84659483 </i>
    <i name="ewald">  -5536.27101183 </i>
    <i name="hartreedc">  -1091.43171367 </i>
    <i name="XCdc">   -840.92324062 </i>
    <i name="pawpsdc">   7791.45714068 </i>
    <i name="pawaedc">  -6649.34726886 </i>
    <i name="eentropy">     -0.00000000 </i>
    <i name="bandstr">   -681.44392836 </i>
    <i name="atom">   6608.17022516 </i>
    <i name="e_fr_energy">   -100.94320267 </i>
    <i name="e_wo_entrp">   -100.94320267 </i>
    <i name="e_0_energy">   -100.94320267 </i>
   </energy>
  </scstep>
  <structure>
   <crystal>
    <varray name="basis" >
     <v>       4.24879989       0.00000000       0.00000000 </v>
     <v>       0.00000000      13.17153143      -0.08840476 </v>
     <v>       0.00000000       0.64369893      15.12536669 </v>
    </varray>
    <i name="volume">    846.70572252 </i>
    <varray name="rec_basis" >
     <v>       0.23536058       0.00000000       0.00000000 </v>
     <v>       0.00000000       0.07589964      -0.00323010 </v>
     <v>       0.00000000       0.00044362       0.06609522 </v>
    </varray>
   </crystal>
   <varray name="positions" >
    <v>       0.25000000       0.56203785       0.81567812 </v>
    <v>       0.75000000       0.43796215       0.18432188 </v>
    <v>       0.75000000       0.82567264       0.62388846 </v>
    <v>       0.25000000       0.17432736       0.37611154 </v>
    <v>       0.25000000       0.83634306       0.27973955 </v>
    <v>       0.75000000       0.16365694       0.72026045 </v>
    <v>       0.75000000       0.60770191       0.43043693 </v>
    <v>       0.25000000       0.39229809       0.56956307 </v>
    <v>       0.75000000       0.73092018       0.04820839 </v>
    <v>       0.25000000       0.26907982       0.95179161 </v>
    <v>       0.25000000       0.94044405       0.87598793 </v>
    <v>       0.75000000       0.05955595       0.12401207 </v>
    <v>       0.25000000       0.59136784       0.03502397 </v>
    <v>       0.75000000       0.40863216       0.96497603 </v>
    <v>       0.75000000       0.99661435       0.30360841 </v>
    <v>       0.25000000       0.00338565       0.69639159 </v>
    <v>       0.75000000       0.69080540       0.24133829 </v>
    <v>       0.25000000       0.30919460       0.75866171 </v>
    <v>       0.75000000       0.78648046       0.85528526 </v>
    <v>       0.25000000       0.21351954       0.14471474 </v>
    <v>       0.25000000       0.90538591       0.08389269 </v>
    <v>       0.75000000       0.09461409       0.91610731 </v>
    <v>       0.25000000       0.75990957       0.46073214 </v>
    <v>       0.75000000       0.24009043       0.53926786 </v>
    <v>       0.25000000       0.45743501       0.38692030 </v>
    <v>       0.75000000       0.54256499       0.61307970 </v>
   </varray>
  </structure>
  <varray name="forces" >
   <v>       0.00000000      -0.01854924       0.03298729 </v>
   <v>       0.00000000       0.01854924      -0.03298729 </v>
   <v>       0.00000000       0.01974068      -0.00617453 </v>
   <v>       0.00000000      -0.01974068       0.00617453 </v>
   <v>       0.00000000       0.00309071       0.09674816 </v>
   <v>       0.00000000      -0.00309071      -0.09674816 </v>
   <v>       0.00000000       0.00646223      -0.00428553 </v>
   <v>       0.00000000      -0.00646223       0.00428553 </v>
   <v>      -0.00000000      -0.16413452      -0.08047518 </v>
   <v>       0.00000000       0.16413452       0.08047518 </v>
   <v>      -0.00000000      -0.07089625      -0.05502495 </v>
   <v>       0.00000000       0.07089625       0.05502495 </v>
   <v>       0.00000000       0.07112066      -0.09812179 </v>
   <v>       0.00000000      -0.07112066       0.09812179 </v>
   <v>       0.00000000       0.01704370       0.06305615 </v>
   <v>       0.00000000      -0.01704370      -0.06305615 </v>
   <v>       0.00000000       0.06126298      -0.00159198 </v>
   <v>       0.00000000      -0.06126298       0.00159198 </v>
   <v>       0.00000000      -0.03036029      -0.03497618 </v>
   <v>      -0.00000000       0.03036029       0.03497618 </v>
   <v>       0.00000000       0.02032318      -0.00776193 </v>
   <v>       0.00000000      -0.02032318       0.00776193 </v>
   <v>      -0.00000000       0.09970709       0.07224832 </v>
   <v>       0.00000000      -0.09970709      -0.07224832 </v>
   <v>       0.00000000      -0.07507630      -0.11874068 </v>
   <v>       0.00000000       0.07507630       0.11874068 </v>
  </varray>
  <varray name="stress" >
   <v>      -0.22118037       0.00000000       0.00000000 </v>
   <v>       0.00000000      -0.66389848      -0.15416433 </v>
   <v>       0.00000000      -0.15416274       1.35210515 </v>
  </varray>
  <energy>
   <i name="e_fr_energy">   -100.94320267 </i>
   <i name="e_wo_entrp">   -100.94320267 </i>
   <i name="e_0_energy">     -0.00000000 </i>
  </energy>
  <time name="totalsc">    8.19    8.19</time>
 </calculation>
 <calculation>
  <scstep>
   <time name="dav">    0.70    0.70</time>
   <time name="total">    0.99    0.99</time>
   <energy>
    <i name="alphaZ">    299.63831849 </i>
    <i name="ewald">  -5543.25877993 </i>
    <i name="hartreedc">  -1090.57840774 </i>
    <i name="XCdc">   -840.79143067 </i>
    <i name="pawpsdc">   7789.19641120 </i>
    <i name="pawaedc">  -6647.08646093 </i>
    <i name="eentropy">     -0.00000000 </i>
    <i name="bandstr">   -676.23617690 </i>
    <i name="atom">   6608.17022516 </i>
    <i name="e_fr_energy">   -100.94630132 </i>
    <i name="e_wo_entrp">   -100.94630132 </i>
    <i name="e_0_energy">   -100.94630132 </i>
   </energy>
  </scstep>
  <scstep>
   <time name="dav">    0.94    0.94</time>
   <time name="total">    1.23    1.23</time>
   <energy>
    <i name="e_fr_energy">   -100.94514510 </i>
    <i name="e_wo_entrp">   -100.94514510 </i>
    <i name="e_0_energy">   -100.94514510 </i>
   </energy>
  </scstep>
  <scstep>
   <time name="dav">    1.02    1.02</time>
   <time name="total">    1.31    1.31</time>
   <energy>
    <i name="e_fr_energy">   -100.94393727 </i>
    <i name="e_wo_entrp">   -100.94393727 </i>
    <i name="e_0_energy">   -100.94393727 </i>
   </energy>
  </scstep>
  <scstep>
   <time name="dav">    0.90    0.90</time>
   <time name="total">    1.19    1.19</time>
   <energy>
    <i name="e_fr_energy">   -100.94349333 </i>
    <i name="e_wo_entrp">   -100.94349333 </i>
    <i name="e_0_energy">   -100.94349333 </i>
   </energy>
  </scstep>
  <scstep>
   <time name="dav">    0.63    0.63</time>
   <time name="total">    0.88    0.88</time>
   <energy>
    <i name="alphaZ">    299.63831849 </i>
    <i name="ewald">  -5543.25877993 </i>
    <i name="hartreedc">  -1087.73378598 </i>
    <i name="XCdc">   -840.85288680 </i>
    <i name="pawpsdc">   7796.49330681 </i>
    <i name="pawaedc">  -6654.40070835 </i>
    <i name="eentropy">     -0.00000000 </i>
    <i name="bandstr">   -678.99917558 </i>
    <i name="atom">   6608.17022516 </i>
    <i name="e_fr_energy">   -100.94348617 </i>
    <i name="e_wo_entrp">   -100.94348617 </i>
    <i name="e_0_energy">   -100.94348617 </i>
   </energy>
  </scstep>
  <structure>
   <crystal>
    <varray name="basis" >
     <v>       4.24764777       0.00000000       0.00000000 </v>
     <v>       0.00000000      13.15964401      -0.10796858 </v>
     <v>       0.00000000       0.62049762      15.10234701 </v>
    </varray>
    <i name="volume">    844.46850213 </i>
    <varray name="rec_basis" >
     <v>       0.23542442       0.00000000       0.00000000 </v>
     <v>       0.00000000       0.07596429      -0.00312108 </v>
     <v>       0.00000000       0.00054308       0.06619256 </v>
    </varray>
   </crystal>
   <varray name="positions" >
    <v>       0.25000000       0.56189386       0.81590863 </v>
    <v>       0.75000000       0.43810614       0.18409137 </v>
    <v>       0.75000000       0.82582424       0.62383124 </v>
    <v>       0.25000000       0.17417576       0.37616876 </v>
    <v>       0.25000000       0.83640141       0.27984019 </v>
    <v>       0.75000000       0.16359859       0.72015981 </v>
    <v>       0.75000000       0.60771301       0.43049045 </v>
    <v>       0.25000000       0.39228699       0.56950955 </v>
    <v>       0.75000000       0.73090169       0.04809752 </v>
    <v>       0.25000000       0.26909831       0.95190248 </v>
    <v>       0.25000000       0.94039239       0.87600340 </v>
    <v>       0.75000000       0.05960761       0.12399660 </v>
    <v>       0.25000000       0.59095806       0.03469539 </v>
    <v>       0.75000000       0.40904194       0.96530461 </v>
    <v>       0.75000000       0.99707489       0.30381196 </v>
    <v>       0.25000000       0.00292511       0.69618804 </v>
    <v>       0.75000000       0.69048422       0.24133482 </v>
    <v>       0.25000000       0.30951578       0.75866518 </v>
    <v>       0.75000000       0.78614870       0.85513999 </v>
    <v>       0.25000000       0.21385130       0.14486001 </v>
    <v>       0.25000000       0.90524480       0.08379973 </v>
    <v>       0.75000000       0.09475520       0.91620027 </v>
    <v>       0.25000000       0.76004737       0.46101199 </v>
    <v>       0.75000000       0.23995263       0.53898801 </v>
    <v>       0.25000000       0.45739044       0.38688009 </v>
    <v>       0.75000000       0.54260956       0.61311991 </v>
   </varray>
  </structure>
  <varray name="forces" >
   <v>       0.00000000      -0.01273163       0.02045880 </v>
   <v>       0.00000000       0.01273163      -0.02045880 </v>
   <v>       0.00000000       0.01218532      -0.00356698 </v>
   <v>       0.00000000      -0.01218532       0.00356698 </v>
   <v>      -0.00000000       0.00165085       0.11286386 </v>
   <v>       0.00000000      -0.00165085      -0.11286386 </v>
   <v>       0.00000000       0.00904624       0.00107244 </v>
   <v>       0.00000000      -0.00904624      -0.00107244 </v>
   <v>       0.00000000      -0.18969266      -0.06570747 </v>
   <v>       0.00000000       0.18969266       0.06570747 </v>
   <v>       0.00000000      -0.09018980      -0.06429811 </v>
   <v>      -0.00000000       0.09018980       0.06429811 </v>
   <v>      -0.00000000       0.11383606      -0.06976165 </v>
   <v>       0.00000000      -0.11383606       0.06976165 </v>
   <v>      -0.00000000      -0.02401497       0.06000616 </v>
   <v>       0.00000000       0.02401497      -0.06000616 </v>
   <v>       0.00000000       0.05592335       0.02116830 </v>
   <v>       0.00000000      -0.05592335      -0.02116830 </v>
   <v>       0.00000000       0.00461820       0.01713153 </v>
   <v>       0.00000000      -0.00461820      -0.01713153 </v>
   <v>      -0.00000000       0.03285337       0.02833514 </v>
   <v>       0.00000000      -0.03285337      -0.02833514 </v>
   <v>       0.00000000       0.12573000       0.05669620 </v>
   <v>       0.00000000      -0.12573000      -0.05669620 </v>
   <v>       0.00000000      -0.08364394      -0.13594516 </v>
   <v>       0.00000000       0.08364394       0.13594516 </v>
  </varray>
  <varray name="stress" >
   <v>       0.38562964       0.00000000       0.00000000 </v>
   <v>       0.00000000       0.18758161       0.37650436 </v>
   <v>       0.00000000       0.37650533       2.72320993 </v>
  </varray>
  <energy>
   <i name="e_fr_energy">   -100.94348617 </i>
   <i name="e_wo_entrp">   -100.94348617 </i>
   <i name="e_0_energy">     -0.00000000 </i>
  </energy>
  <time name="totalsc">    6.88    6.89</time>
 </calculation>
 <calculation>
  <scstep>
   <time name="dav">    0.78    0.78</time>
   <time name="total">    1.07    1.07</time>
   <energy>
    <i name="alphaZ">    299.77755195 </i>
    <i name="ewald">  -5547.38592576 </i>
    <i name="hartreedc">  -1084.85502857 </i>
    <i name="XCdc">   -840.87181045 </i>
    <i name="pawpsdc">   7795.49724671 </i>
    <i name="pawaedc">  -6653.40642002 </i>
    <i name="eentropy">     -0.00000000 </i>
    <i name="bandstr">   -677.87473615 </i>
    <i name="atom">   6608.17022516 </i>
    <i name="e_fr_energy">   -100.94889712 </i>
    <i name="e_wo_entrp">   -100.94889712 </i>
    <i name="e_0_energy">   -100.94889712 </i>
   </energy>
  </scstep>
  <scstep>
   <time name="dav">    0.84    0.84</time>
   <time name="total">    1.13    1.13</time>
   <energy>
    <i name="e_fr_energy">   -100.95133001 </i>
    <i name="e_wo_entrp">   -100.95133001 </i>
    <i name="e_0_energy">   -100.95133001 </i>
   </energy>
  </scstep>
  <scstep>
   <time name="dav">    0.83    0.83</time>
   <time name="total">    1.12    1.12</time>
   <energy>
    <i name="e_fr_energy">   -100.95081834 </i>
    <i name="e_wo_entrp">   -100.95081834 </i>
    <i name="e_0_energy">   -100.95081834 </i>
   </energy>
  </scstep>
  <scstep>
   <time name="dav">    0.99    0.99</time>
   <time name="total">    1.28    1.28</time>
   <energy>
    <i name="e_fr_energy">   -100.95053221 </i>
    <i name="e_wo_entrp">   -100.95053221 </i>
    <i name="e_0_energy">   -100.95053221 </i>
   </energy>
  </scstep>
  <scstep>
   <time name="dav">    0.62    0.62</time>
[...]
        <r>  0.0020  0.0028  0.0037 </r>
        <r>  0.0003  0.0414  0.0007 </r>
        <r>  0.0003  0.0414  0.0007 </r>
        <r>  0.0001  0.0320  0.0006 </r>
        <r>  0.0001  0.0320  0.0006 </r>
        <r>  0.0022  0.0514  0.0013 </r>
        <r>  0.0022  0.0514  0.0013 </r>
        <r>  0.0002  0.0546  0.0015 </r>
        <r>  0.0002  0.0546  0.0015 </r>
        <r>  0.0031  0.0173  0.0015 </r>
        <r>  0.0031  0.0173  0.0015 </r>
        <r>  0.0047  0.0127  0.0007 </r>
        <r>  0.0047  0.0127  0.0007 </r>
        <r>  0.0018  0.0095  0.0013 </r>
        <r>  0.0018  0.0095  0.0013 </r>
        <r>  0.0009  0.0114  0.0014 </r>
        <r>  0.0009  0.0114  0.0014 </r>
        <r>  0.0004  0.0085  0.0031 </r>
        <r>  0.0004  0.0085  0.0031 </r>
        <r>  0.0033  0.0140  0.0010 </r>
        <r>  0.0033  0.0140  0.0010 </r>
        <r>  0.0030  0.0134  0.0006 </r>
        <r>  0.0030  0.0134  0.0006 </r>
       </set>
       <set comment="band 84">
        <r>  0.0018  0.0011  0.0057 </r>
        <r>  0.0018  0.0011  0.0057 </r>
        <r>  0.0007  0.0023  0.0027 </r>
        <r>  0.0007  0.0023  0.0027 </r>
        <r>  0.0000  0.0232  0.0004 </r>
        <r>  0.0000  0.0232  0.0004 </r>
        <r>  0.0004  0.0483  0.0001 </r>
        <r>  0.0004  0.0483  0.0001 </r>
        <r>  0.0024  0.0194  0.0032 </r>
        <r>  0.0024  0.0194  0.0032 </r>
        <r>  0.0003  0.0716  0.0009 </r>
        <r>  0.0003  0.0716  0.0009 </r>
        <r>  0.0003  0.0180  0.0006 </r>
        <r>  0.0003  0.0180  0.0006 </r>
        <r>  0.0014  0.0074  0.0008 </r>
        <r>  0.0014  0.0074  0.0008 </r>
        <r>  0.0001  0.0069  0.0012 </r>
        <r>  0.0001  0.0069  0.0012 </r>
        <r>  0.0045  0.0278  0.0012 </r>
        <r>  0.0045  0.0278  0.0012 </r>
        <r>  0.0021  0.0143  0.0028 </r>
        <r>  0.0021  0.0143  0.0028 </r>
        <r>  0.0048  0.0147  0.0007 </r>
        <r>  0.0048  0.0147  0.0007 </r>
        <r>  0.0041  0.0146  0.0011 </r>
        <r>  0.0041  0.0146  0.0011 </r>
       </set>
       <set comment="band 85">
        <r>  0.0002  0.0031  0.0019 </r>
        <r>  0.0002  0.0031  0.0019 </r>
        <r>  0.0021  0.0078  0.0041 </r>
        <r>  0.0021  0.0078  0.0041 </r>
        <r>  0.0001  0.0795  0.0008 </r>
        <r>  0.0001  0.0795  0.0008 </r>
        <r>  0.0005  0.0495  0.0002 </r>
        <r>  0.0005  0.0495  0.0002 </r>
        <r>  0.0008  0.0306  0.0010 </r>
        <r>  0.0008  0.0306  0.0010 </r>
        <r>  0.0012  0.0257  0.0011 </r>
        <r>  0.0012  0.0257  0.0011 </r>
        <r>  0.0006  0.0085  0.0004 </r>
        <r>  0.0006  0.0085  0.0004 </r>
        <r>  0.0026  0.0202  0.0015 </r>
        <r>  0.0026  0.0202  0.0015 </r>
        <r>  0.0008  0.0165  0.0025 </r>
        <r>  0.0008  0.0165  0.0025 </r>
        <r>  0.0002  0.0130  0.0014 </r>
        <r>  0.0002  0.0130  0.0014 </r>
        <r>  0.0007  0.0042  0.0022 </r>
        <r>  0.0007  0.0042  0.0022 </r>
        <r>  0.0001  0.0223  0.0027 </r>
        <r>  0.0001  0.0223  0.0027 </r>
        <r>  0.0021  0.0122  0.0010 </r>
        <r>  0.0021  0.0122  0.0010 </r>
       </set>
       <set comment="band 86">
        <r>  0.0002  0.0047  0.0052 </r>
        <r>  0.0002  0.0047  0.0052 </r>
        <r>  0.0022  0.0025  0.0067 </r>
        <r>  0.0022  0.0025  0.0067 </r>
        <r>  0.0001  0.0567  0.0006 </r>
        <r>  0.0001  0.0567  0.0006 </r>
        <r>  0.0001  0.0869  0.0004 </r>
        <r>  0.0001  0.0869  0.0004 </r>
        <r>  0.0002  0.0096  0.0012 </r>
        <r>  0.0002  0.0096  0.0012 </r>
        <r>  0.0001  0.0130  0.0005 </r>
        <r>  0.0001  0.0130  0.0005 </r>
        <r>  0.0005  0.0050  0.0003 </r>
        <r>  0.0005  0.0050  0.0003 </r>
        <r>  0.0010  0.0125  0.0020 </r>
        <r>  0.0010  0.0125  0.0020 </r>
        <r>  0.0033  0.0163  0.0013 </r>
        <r>  0.0033  0.0163  0.0013 </r>
        <r>  0.0003  0.0079  0.0004 </r>
        <r>  0.0003  0.0079  0.0004 </r>
        <r>  0.0002  0.0033  0.0005 </r>
        <r>  0.0002  0.0033  0.0005 </r>
        <r>  0.0044  0.0183  0.0016 </r>
        <r>  0.0044  0.0183  0.0016 </r>
        <r>  0.0032  0.0331  0.0034 </r>
        <r>  0.0032  0.0331  0.0034 </r>
       </set>
       <set comment="band 87">
        <r>  0.0011  0.0070  0.0020 </r>
        <r>  0.0011  0.0070  0.0020 </r>
        <r>  0.0006  0.0011  0.0020 </r>
        <r>  0.0006  0.0011  0.0020 </r>
        <r>  0.0006  0.0377  0.0003 </r>
        <r>  0.0006  0.0377  0.0003 </r>
        <r>  0.0001  0.0400  0.0001 </r>
        <r>  0.0001  0.0400  0.0001 </r>
        <r>  0.0024  0.0227  0.0044 </r>
        <r>  0.0024  0.0227  0.0044 </r>
        <r>  0.0002  0.0866  0.0019 </r>
        <r>  0.0002  0.0866  0.0019 </r>
        <r>  0.0003  0.0269  0.0007 </r>
        <r>  0.0003  0.0269  0.0007 </r>
        <r>  0.0002  0.0146  0.0021 </r>
        <r>  0.0002  0.0146  0.0021 </r>
        <r>  0.0009  0.0112  0.0016 </r>
        <r>  0.0009  0.0112  0.0016 </r>
        <r>  0.0009  0.0159  0.0021 </r>
        <r>  0.0009  0.0159  0.0021 </r>
        <r>  0.0005  0.0077  0.0036 </r>
        <r>  0.0005  0.0077  0.0036 </r>
        <r>  0.0004  0.0097  0.0010 </r>
        <r>  0.0004  0.0097  0.0010 </r>
        <r>  0.0006  0.0119  0.0015 </r>
        <r>  0.0006  0.0119  0.0015 </r>
       </set>
       <set comment="band 88">
        <r>  0.0028  0.0010  0.0059 </r>
        <r>  0.0028  0.0010  0.0059 </r>
        <r>  0.0027  0.0068  0.0023 </r>
        <r>  0.0027  0.0068  0.0023 </r>
        <r>  0.0004  0.0595  0.0003 </r>
        <r>  0.0004  0.0595  0.0003 </r>
        <r>  0.0000  0.0422  0.0001 </r>
        <r>  0.0000  0.0422  0.0001 </r>
        <r>  0.0038  0.0170  0.0020 </r>
        <r>  0.0038  0.0170  0.0020 </r>
        <r>  0.0006  0.0571  0.0010 </r>
        <r>  0.0006  0.0571  0.0010 </r>
        <r>  0.0001  0.0287  0.0004 </r>
        <r>  0.0001  0.0287  0.0004 </r>
        <r>  0.0016  0.0224  0.0021 </r>
        <r>  0.0016  0.0224  0.0021 </r>
        <r>  0.0022  0.0158  0.0016 </r>
        <r>  0.0022  0.0158  0.0016 </r>
        <r>  0.0000  0.0095  0.0019 </r>
        <r>  0.0000  0.0095  0.0019 </r>
        <r>  0.0008  0.0063  0.0026 </r>
        <r>  0.0008  0.0063  0.0026 </r>
        <r>  0.0004  0.0145  0.0014 </r>
        <r>  0.0004  0.0145  0.0014 </r>
        <r>  0.0008  0.0093  0.0011 </r>
        <r>  0.0008  0.0093  0.0011 </r>
       </set>
       <set comment="band 89">
        <r>  0.0007  0.0034  0.0059 </r>
        <r>  0.0007  0.0034  0.0059 </r>
        <r>  0.0077  0.0039  0.0056 </r>
        <r>  0.0077  0.0039  0.0056 </r>
        <r>  0.0003  0.0700  0.0003 </r>
        <r>  0.0003  0.0700  0.0003 </r>
        <r>  0.0000  0.0685  0.0006 </r>
        <r>  0.0000  0.0685  0.0006 </r>
        <r>  0.0002  0.0124  0.0004 </r>
        <r>  0.0002  0.0124  0.0004 </r>
        <r>  0.0000  0.0135  0.0009 </r>
        <r>  0.0000  0.0135  0.0009 </r>
        <r>  0.0027  0.0054  0.0004 </r>
        <r>  0.0027  0.0054  0.0004 </r>
        <r>  0.0003  0.0085  0.0024 </r>
        <r>  0.0003  0.0085  0.0024 </r>
        <r>  0.0002  0.0218  0.0028 </r>
        <r>  0.0002  0.0218  0.0028 </r>
        <r>  0.0013  0.0048  0.0009 </r>
        <r>  0.0013  0.0048  0.0009 </r>
        <r>  0.0000  0.0089  0.0001 </r>
        <r>  0.0000  0.0089  0.0001 </r>
        <r>  0.0011  0.0189  0.0025 </r>
        <r>  0.0011  0.0189  0.0025 </r>
        <r>  0.0021  0.0234  0.0031 </r>
        <r>  0.0021  0.0234  0.0031 </r>
       </set>
       <set comment="band 90">
        <r>  0.0055  0.0023  0.0020 </r>
        <r>  0.0055  0.0023  0.0020 </r>
        <r>  0.0038  0.0071  0.0076 </r>
        <r>  0.0038  0.0071  0.0076 </r>
        <r>  0.0001  0.0535  0.0005 </r>
        <r>  0.0001  0.0535  0.0005 </r>
        <r>  0.0004  0.0918  0.0007 </r>
        <r>  0.0004  0.0918  0.0007 </r>
        <r>  0.0005  0.0111  0.0013 </r>
        <r>  0.0005  0.0111  0.0013 </r>
        <r>  0.0004  0.0095  0.0006 </r>
        <r>  0.0004  0.0095  0.0006 </r>
        <r>  0.0008  0.0123  0.0001 </r>
        <r>  0.0008  0.0123  0.0001 </r>
        <r>  0.0043  0.0161  0.0012 </r>
        <r>  0.0043  0.0161  0.0012 </r>
        <r>  0.0023  0.0239  0.0021 </r>
        <r>  0.0023  0.0239  0.0021 </r>
        <r>  0.0004  0.0040  0.0005 </r>
        <r>  0.0004  0.0040  0.0005 </r>
        <r>  0.0000  0.0028  0.0007 </r>
        <r>  0.0000  0.0028  0.0007 </r>
        <r>  0.0002  0.0314  0.0033 </r>
        <r>  0.0002  0.0314  0.0033 </r>
        <r>  0.0009  0.0132  0.0031 </r>
        <r>  0.0009  0.0132  0.0031 </r>
       </set>
       <set comment="band 91">
        <r>  0.0027  0.0032  0.0024 </r>
        <r>  0.0027  0.0032  0.0024 </r>
        <r>  0.0002  0.0067  0.0087 </r>
        <r>  0.0002  0.0067  0.0087 </r>
        <r>  0.0002  0.0778  0.0003 </r>
        <r>  0.0002  0.0778  0.0003 </r>
        <r>  0.0001  0.0739  0.0007 </r>
        <r>  0.0001  0.0739  0.0007 </r>
        <r>  0.0001  0.0084  0.0009 </r>
        <r>  0.0001  0.0084  0.0009 </r>
        <r>  0.0001  0.0123  0.0008 </r>
        <r>  0.0001  0.0123  0.0008 </r>
        <r>  0.0010  0.0076  0.0003 </r>
        <r>  0.0010  0.0076  0.0003 </r>
        <r>  0.0007  0.0146  0.0022 </r>
        <r>  0.0007  0.0146  0.0022 </r>
        <r>  0.0002  0.0219  0.0029 </r>
        <r>  0.0002  0.0219  0.0029 </r>
        <r>  0.0003  0.0037  0.0007 </r>
        <r>  0.0003  0.0037  0.0007 </r>
        <r>  0.0000  0.0075  0.0004 </r>
        <r>  0.0000  0.0075  0.0004 </r>
        <r>  0.0006  0.0205  0.0029 </r>
        <r>  0.0006  0.0205  0.0029 </r>
        <r>  0.0009  0.0267  0.0033 </r>
        <r>  0.0009  0.0267  0.0033 </r>
       </set>
       <set comment="band 92">
        <r>  0.0023  0.0003  0.0021 </r>
        <r>  0.0023  0.0003  0.0021 </r>
        <r>  0.0054  0.0074  0.0039 </r>
        <r>  0.0054  0.0074  0.0039 </r>
        <r>  0.0001  0.1116  0.0007 </r>
        <r>  0.0001  0.1116  0.0007 </r>
        <r>  0.0002  0.0390  0.0004 </r>
        <r>  0.0002  0.0390  0.0004 </r>
        <r>  0.0005  0.0087  0.0018 </r>
        <r>  0.0005  0.0087  0.0018 </r>
        <r>  0.0002  0.0297  0.0006 </r>
        <r>  0.0002  0.0297  0.0006 </r>
        <r>  0.0007  0.0116  0.0004 </r>
        <r>  0.0007  0.0116  0.0004 </r>
        <r>  0.0008  0.0279  0.0042 </r>
        <r>  0.0008  0.0279  0.0042 </r>
        <r>  0.0002  0.0290  0.0039 </r>
        <r>  0.0002  0.0290  0.0039 </r>
        <r>  0.0001  0.0033  0.0004 </r>
        <r>  0.0001  0.0033  0.0004 </r>
        <r>  0.0003  0.0118  0.0006 </r>
        <r>  0.0003  0.0118  0.0006 </r>
        <r>  0.0008  0.0107  0.0015 </r>
        <r>  0.0008  0.0107  0.0015 </r>
        <r>  0.0003  0.0120  0.0016 </r>
        <r>  0.0003  0.0120  0.0016 </r>
       </set>
       <set comment="band 93">
        <r>  0.0034  0.0019  0.0026 </r>
        <r>  0.0034  0.0019  0.0026 </r>
        <r>  0.0002  0.0021  0.0016 </r>
        <r>  0.0002  0.0021  0.0016 </r>
        <r>  0.0001  0.0835  0.0006 </r>
        <r>  0.0001  0.0835  0.0006 </r>
        <r>  0.0001  0.0493  0.0003 </r>
        <r>  0.0001  0.0493  0.0003 </r>
        <r>  0.0002  0.0153  0.0008 </r>
        <r>  0.0002  0.0153  0.0008 </r>
        <r>  0.0001  0.0427  0.0008 </r>
        <r>  0.0001  0.0427  0.0008 </r>
        <r>  0.0003  0.0020  0.0006 </r>
        <r>  0.0003  0.0020  0.0006 </r>
        <r>  0.0006  0.0135  0.0024 </r>
        <r>  0.0006  0.0135  0.0024 </r>
        <r>  0.0007  0.0148  0.0014 </r>
        <r>  0.0007  0.0148  0.0014 </r>
        <r>  0.0007  0.0029  0.0014 </r>
        <r>  0.0007  0.0029  0.0014 </r>
        <r>  0.0003  0.0408  0.0007 </r>
        <r>  0.0003  0.0408  0.0007 </r>
        <r>  0.0009  0.0318  0.0029 </r>
        <r>  0.0009  0.0318  0.0029 </r>
        <r>  0.0009  0.0069  0.0013 </r>
        <r>  0.0009  0.0069  0.0013 </r>
       </set>
       <set comment="band 94">
        <r>  0.0003  0.0042  0.0032 </r>
        <r>  0.0003  0.0042  0.0032 </r>
        <r>  0.0009  0.0017  0.0035 </r>
        <r>  0.0009  0.0017  0.0035 </r>
        <r>  0.0003  0.0474  0.0008 </r>
        <r>  0.0003  0.0474  0.0008 </r>
        <r>  0.0002  0.0705  0.0007 </r>
        <r>  0.0002  0.0705  0.0007 </r>
        <r>  0.0006  0.0292  0.0022 </r>
        <r>  0.0006  0.0292  0.0022 </r>
        <r>  0.0001  0.0369  0.0012 </r>
        <r>  0.0001  0.0369  0.0012 </r>
        <r>  0.0005  0.0035  0.0012 </r>
        <r>  0.0005  0.0035  0.0012 </r>
        <r>  0.0003  0.0179  0.0020 </r>
        <r>  0.0003  0.0179  0.0020 </r>
        <r>  0.0006  0.0313  0.0015 </r>
        <r>  0.0006  0.0313  0.0015 </r>
        <r>  0.0010  0.0044  0.0018 </r>
        <r>  0.0010  0.0044  0.0018 </r>
        <r>  0.0002  0.0279  0.0004 </r>
        <r>  0.0002  0.0279  0.0004 </r>
        <r>  0.0012  0.0189  0.0016 </r>
        <r>  0.0012  0.0189  0.0016 </r>
        <r>  0.0013  0.0115  0.0021 </r>
        <r>  0.0013  0.0115  0.0021 </r>
       </set>
       <set comment="band 95">
        <r>  0.0006  0.0057  0.0058 </r>
        <r>  0.0006  0.0057  0.0058 </r>
        <r>  0.0020  0.0027  0.0080 </r>
        <r>  0.0020  0.0027  0.0080 </r>
        <r>  0.0000  0.0400  0.0017 </r>
        <r>  0.0000  0.0400  0.0017 </r>
        <r>  0.0006  0.0449  0.0021 </r>
        <r>  0.0006  0.0449  0.0021 </r>
        <r>  0.0009  0.0502  0.0017 </r>
        <r>  0.0009  0.0502  0.0017 </r>
        <r>  0.0001  0.0280  0.0012 </r>
        <r>  0.0001  0.0280  0.0012 </r>
        <r>  0.0007  0.0043  0.0018 </r>
        <r>  0.0007  0.0043  0.0018 </r>
        <r>  0.0008  0.0103  0.0017 </r>
        <r>  0.0008  0.0103  0.0017 </r>
        <r>  0.0002  0.0448  0.0015 </r>
        <r>  0.0002  0.0448  0.0015 </r>
        <r>  0.0020  0.0132  0.0025 </r>
        <r>  0.0020  0.0132  0.0025 </r>
        <r>  0.0003  0.0251  0.0003 </r>
        <r>  0.0003  0.0251  0.0003 </r>
        <r>  0.0022  0.0066  0.0012 </r>
        <r>  0.0022  0.0066  0.0012 </r>
        <r>  0.0007  0.0053  0.0028 </r>
        <r>  0.0007  0.0053  0.0028 </r>
       </set>
       <set comment="band 96">
        <r>  0.0002  0.0036  0.0052 </r>
        <r>  0.0002  0.0036  0.0052 </r>
        <r>  0.0000  0.0083  0.0037 </r>
        <r>  0.0000  0.0083  0.0037 </r>
        <r>  0.0000  0.0434  0.0014 </r>
        <r>  0.0000  0.0434  0.0014 </r>
        <r>  0.0003  0.0448  0.0016 </r>
        <r>  0.0003  0.0448  0.0016 </r>
        <r>  0.0004  0.0552  0.0019 </r>
        <r>  0.0004  0.0552  0.0019 </r>
        <r>  0.0000  0.0282  0.0017 </r>
        <r>  0.0000  0.0282  0.0017 </r>
        <r>  0.0002  0.0045  0.0017 </r>
        <r>  0.0002  0.0045  0.0017 </r>
        <r>  0.0012  0.0069  0.0015 </r>
        <r>  0.0012  0.0069  0.0015 </r>
        <r>  0.0001  0.0421  0.0015 </r>
        <r>  0.0001  0.0421  0.0015 </r>
        <r>  0.0034  0.0075  0.0012 </r>
        <r>  0.0034  0.0075  0.0012 </r>
        <r>  0.0003  0.0304  0.0006 </r>
        <r>  0.0003  0.0304  0.0006 </r>
        <r>  0.0019  0.0073  0.0021 </r>
        <r>  0.0019  0.0073  0.0021 </r>
        <r>  0.0010  0.0068  0.0025 </r>
        <r>  0.0010  0.0068  0.0025 </r>
       </set>
       <set comment="band 97">
        <r>  0.0061  0.0009  0.0033 </r>
        <r>  0.0061  0.0009  0.0033 </r>
        <r>  0.0030  0.0026  0.0016 </r>
        <r>  0.0030  0.0026  0.0016 </r>
        <r>  0.0001  0.0260  0.0005 </r>
        <r>  0.0001  0.0260  0.0005 </r>
        <r>  0.0001  0.0210  0.0013 </r>
        <r>  0.0001  0.0210  0.0013 </r>
        <r>  0.0011  0.0819  0.0006 </r>
        <r>  0.0011  0.0819  0.0006 </r>
        <r>  0.0005  0.0439  0.0014 </r>
        <r>  0.0005  0.0439  0.0014 </r>
        <r>  0.0052  0.0172  0.0029 </r>
        <r>  0.0052  0.0172  0.0029 </r>
        <r>  0.0005  0.0078  0.0014 </r>
        <r>  0.0005  0.0078  0.0014 </r>
        <r>  0.0003  0.0258  0.0016 </r>
        <r>  0.0003  0.0258  0.0016 </r>
        <r>  0.0010  0.0061  0.0031 </r>
        <r>  0.0010  0.0061  0.0031 </r>
        <r>  0.0001  0.0596  0.0006 </r>
        <r>  0.0001  0.0596  0.0006 </r>
        <r>  0.0000  0.0017  0.0002 </r>
        <r>  0.0000  0.0017  0.0002 </r>
        <r>  0.0006  0.0090  0.0011 </r>
        <r>  0.0006  0.0090  0.0011 </r>
       </set>
       <set comment="band 98">
        <r>  0.0064  0.0088  0.0069 </r>
        <r>  0.0064  0.0088  0.0069 </r>
        <r>  0.0011  0.0061  0.0114 </r>
        <r>  0.0011  0.0061  0.0114 </r>
        <r>  0.0003  0.0122  0.0009 </r>
        <r>  0.0003  0.0122  0.0009 </r>
        <r>  0.0003  0.0161  0.0004 </r>
        <r>  0.0003  0.0161  0.0004 </r>
        <r>  0.0003  0.0541  0.0030 </r>
        <r>  0.0003  0.0541  0.0030 </r>
        <r>  0.0009  0.0564  0.0031 </r>
        <r>  0.0009  0.0564  0.0031 </r>
        <r>  0.0028  0.0177  0.0017 </r>
        <r>  0.0028  0.0177  0.0017 </r>
        <r>  0.0005  0.0047  0.0012 </r>
        <r>  0.0005  0.0047  0.0012 </r>
        <r>  0.0001  0.0115  0.0006 </r>
        <r>  0.0001  0.0115  0.0006 </r>
        <r>  0.0006  0.0046  0.0048 </r>
        <r>  0.0006  0.0046  0.0048 </r>
        <r>  0.0001  0.0553  0.0015 </r>
        <r>  0.0001  0.0553  0.0015 </r>
        <r>  0.0002  0.0018  0.0005 </r>
        <r>  0.0002  0.0018  0.0005 </r>
        <r>  0.0000  0.0073  0.0008 </r>
        <r>  0.0000  0.0073  0.0008 </r>
       </set>
      </set>
     </set>
    </set>
   </array>
  </projected>
 </calculation>
 <structure name="finalpos" >
  <crystal>
   <varray name="basis" >
    <v>       4.24719328       0.00000000       0.00000000 </v>
    <v>       0.00000000      13.11107892      -0.11011041 </v>
    <v>       0.00000000       0.61585916      15.08979805 </v>
   </varray>
   <i name="volume">    840.56773796 </i>
   <varray name="rec_basis" >
    <v>       0.23544961       0.00000000       0.00000000 </v>
    <v>       0.00000000       0.07624524      -0.00311179 </v>
    <v>       0.00000000       0.00055636       0.06624723 </v>
   </varray>
  </crystal>
  <varray name="positions" >
   <v>       0.25000000       0.56091105       0.81517168 </v>
   <v>       0.75000000       0.43908895       0.18482832 </v>
   <v>       0.75000000       0.82544932       0.62391288 </v>
   <v>       0.25000000       0.17455068       0.37608712 </v>
   <v>       0.25000000       0.83672692       0.28173487 </v>
   <v>       0.75000000       0.16327308       0.71826513 </v>
   <v>       0.75000000       0.60761465       0.43091479 </v>
   <v>       0.25000000       0.39238535       0.56908521 </v>
   <v>       0.75000000       0.72932387       0.04601446 </v>
   <v>       0.25000000       0.27067613       0.95398554 </v>
   <v>       0.25000000       0.93988732       0.87333464 </v>
   <v>       0.75000000       0.06011268       0.12666536 </v>
   <v>       0.25000000       0.59051474       0.03304947 </v>
   <v>       0.75000000       0.40948526       0.96695053 </v>
   <v>       0.75000000       0.99871961       0.30683571 </v>
   <v>       0.25000000       0.00128039       0.69316429 </v>
   <v>       0.75000000       0.69136573       0.24177504 </v>
   <v>       0.25000000       0.30863427       0.75822496 </v>
   <v>       0.75000000       0.78444999       0.85349236 </v>
   <v>       0.25000000       0.21555001       0.14650764 </v>
   <v>       0.25000000       0.90540237       0.08548832 </v>
   <v>       0.75000000       0.09459763       0.91451168 </v>
   <v>       0.25000000       0.76181151       0.46276867 </v>
   <v>       0.75000000       0.23818849       0.53723133 </v>
   <v>       0.25000000       0.45478610       0.38461737 </v>
   <v>       0.75000000       0.54521390       0.61538263 </v>
  </varray>
 </structure>
</modeling>
