CIS                                     
           1
     4.234948    0.000000    0.000000
     0.000000   13.175893    0.032284
     0.000000    0.782921   15.193526
   K    Bi   Se
   4   8  14
Direct configuration=     1
   0.25000000  0.56287362  0.81434274
   0.75000000  0.43712638  0.18565726
   0.75000000  0.82477716  0.62422061
   0.25000000  0.17522284  0.37577939
   0.25000000  0.83583609  0.27939005
   0.75000000  0.16416391  0.72060995
   0.75000000  0.60760829  0.43027165
   0.25000000  0.39239171  0.56972835
   0.75000000  0.73047871  0.04879347
   0.25000000  0.26952129  0.95120653
   0.25000000  0.94067172  0.87567108
   0.75000000  0.05932828  0.12432892
   0.25000000  0.59430441  0.03681554
   0.75000000  0.40569559  0.96318446
   0.75000000  0.99382978  0.30216774
   0.25000000  0.00617022  0.69783226
   0.75000000  0.69294834  0.24137769
   0.25000000  0.30705166  0.75862231
   0.75000000  0.78854610  0.85623793
   0.25000000  0.21145390  0.14376207
   0.25000000  0.90633944  0.08448382
   0.75000000  0.09366056  0.91551618
   0.25000000  0.75885563  0.45866794
   0.75000000  0.24114437  0.54133206
   0.25000000  0.45777002  0.38761582
   0.75000000  0.54222998  0.61238418
CIS                                     
           1
     4.239281    0.000000    0.000000
     0.000000   13.187622    0.026176
     0.000000    0.776552   15.202871
   K    Bi   Se
   4   8  14
Direct configuration=     2
   0.25000000  0.56284134  0.81439598
   0.75000000  0.43715866  0.18560402
   0.75000000  0.82481576  0.62420779
   0.25000000  0.17518424  0.37579221
   0.25000000  0.83588810  0.27936154
   0.75000000  0.16411190  0.72063846
   0.75000000  0.60761776  0.43025178
   0.25000000  0.39238224  0.56974822
   0.75000000  0.73059667  0.04878021
   0.25000000  0.26940333  0.95121979
   0.25000000  0.94067588  0.87572535
   0.75000000  0.05932412  0.12427465
   0.25000000  0.59408150  0.03676190
   0.75000000  0.40591850  0.96323810
   0.75000000  0.99396368  0.30227607
   0.25000000  0.00603632  0.69772393
   0.75000000  0.69281075  0.24137108
   0.25000000  0.30718925  0.75862892
   0.75000000  0.78843627  0.85617752
   0.25000000  0.21156373  0.14382248
   0.25000000  0.90627574  0.08444964
   0.75000000  0.09372426  0.91555036
   0.25000000  0.75894644  0.45883323
   0.75000000  0.24105356  0.54116677
   0.25000000  0.45774231  0.38750260
   0.75000000  0.54225769  0.61249740
CIS                                     
           1
     4.252277    0.000000    0.000000
     0.000000   13.222807    0.007853
     0.000000    0.757445   15.230905
   K    Bi   Se
   4   8  14
Direct configuration=     3
   0.25000000  0.56274469  0.81455556
   0.75000000  0.43725531  0.18544444
   0.75000000  0.82493144  0.62416941
   0.25000000  0.17506856  0.37583059
   0.25000000  0.83604393  0.27927612
   0.75000000  0.16395607  0.72072388
   0.75000000  0.60764613  0.43019221
   0.25000000  0.39235387  0.56980779
   0.75000000  0.73095019  0.04874060
   0.25000000  0.26904981  0.95125940
   0.25000000  0.94068842  0.87588806
   0.75000000  0.05931158  0.12411194
   0.25000000  0.59341329  0.03660079
   0.75000000  0.40658671  0.96339921
   0.75000000  0.99436518  0.30260100
   0.25000000  0.00563482  0.69739900
   0.75000000  0.69239834  0.24135110
   0.25000000  0.30760166  0.75864890
   0.75000000  0.78810699  0.85599627
   0.25000000  0.21189301  0.14400373
   0.25000000  0.90608476  0.08434710
   0.75000000  0.09391524  0.91565290
   0.25000000  0.75921889  0.45932892
   0.75000000  0.24078111  0.54067108
   0.25000000  0.45765908  0.38716313
   0.75000000  0.54234092  0.61283687
CIS                                     
           1
     4.254300    0.000000    0.000000
     0.000000   13.228286    0.004999
     0.000000    0.754470   15.235270
   K    Bi   Se
   4   8  14
Direct configuration=     4
   0.25000000  0.56272971  0.81458035
   0.75000000  0.43727029  0.18541965
   0.75000000  0.82494939  0.62416346
   0.25000000  0.17505061  0.37583654
   0.25000000  0.83606811  0.27926287
   0.75000000  0.16393189  0.72073713
   0.75000000  0.60765052  0.43018296
   0.25000000  0.39234948  0.56981704
   0.75000000  0.73100508  0.04873451
   0.25000000  0.26899492  0.95126549
   0.25000000  0.94069041  0.87591335
   0.75000000  0.05930959  0.12408665
   0.25000000  0.59330949  0.03657563
   0.75000000  0.40669051  0.96342437
   0.75000000  0.99442761  0.30265158
   0.25000000  0.00557239  0.69734842
   0.75000000  0.69233430  0.24134791
   0.25000000  0.30766570  0.75865209
   0.75000000  0.78805582  0.85596804
   0.25000000  0.21194418  0.14403196
   0.25000000  0.90605508  0.08433112
   0.75000000  0.09394492  0.91566888
   0.25000000  0.75926132  0.45940601
   0.75000000  0.24073868  0.54059399
   0.25000000  0.45764608  0.38711035
   0.75000000  0.54235392  0.61288965
CIS                                     
           1
     4.253750    0.000000    0.000000
     0.000000   13.222610   -0.004341
     0.000000    0.743393   15.224280
   K    Bi   Se
   4   8  14
Direct configuration=     5
   0.25000000  0.56266037  0.81469002
   0.75000000  0.43733963  0.18530998
   0.75000000  0.82502170  0.62413590
   0.25000000  0.17497830  0.37586410
   0.25000000  0.83609547  0.27931040
   0.75000000  0.16390453  0.72068960
   0.75000000  0.60765560  0.43020829
   0.25000000  0.39234440  0.56979171
   0.75000000  0.73099671  0.04868202
   0.25000000  0.26900329  0.95131798
   0.25000000  0.94066578  0.87592084
   0.75000000  0.05933422  0.12407916
   0.25000000  0.59311587  0.03642109
   0.75000000  0.40688413  0.96357891
   0.75000000  0.99464584  0.30274672
   0.25000000  0.00535416  0.69725328
   0.75000000  0.69218157  0.24134721
   0.25000000  0.30781843  0.75865279
   0.75000000  0.78789860  0.85590016
   0.25000000  0.21210140  0.14409984
   0.25000000  0.90598832  0.08428747
   0.75000000  0.09401168  0.91571253
   0.25000000  0.75932579  0.45953826
   0.75000000  0.24067421  0.54046174
   0.25000000  0.45762503  0.38709142
   0.75000000  0.54237497  0.61290858
CIS                                     
           1
     4.252100    0.000000    0.000000
     0.000000   13.205584   -0.032362
     0.000000    0.710161   15.191309
   K    Bi   Se
   4   8  14
Direct configuration=     6
   0.25000000  0.56245250  0.81501917
   0.75000000  0.43754750  0.18498083
   0.75000000  0.82523864  0.62405327
   0.25000000  0.17476136  0.37594673
   0.25000000  0.83617771  0.27945314
   0.75000000  0.16382229  0.72054686
   0.75000000  0.60767090  0.43028438
   0.25000000  0.39232910  0.56971562
   0.75000000  0.73097147  0.04852440
   0.25000000  0.26902853  0.95147560
   0.25000000  0.94059189  0.87594326
   0.75000000  0.05940811  0.12405674
   0.25000000  0.59253439  0.03595677
   0.75000000  0.40746561  0.96404323
   0.75000000  0.99530104  0.30303273
   0.25000000  0.00469896  0.69696727
   0.75000000  0.69172322  0.24134480
   0.25000000  0.30827678  0.75865520
   0.75000000  0.78742659  0.85569607
   0.25000000  0.21257341  0.14430393
   0.25000000  0.90578789  0.08415632
   0.75000000  0.09421211  0.91584368
   0.25000000  0.75951959  0.45993540
   0.75000000  0.24048041  0.54006460
   0.25000000  0.45756183  0.38703454
   0.75000000  0.54243817  0.61296546
CIS                                     
           1
     4.248800    0.000000    0.000000
     0.000000   13.171531   -0.088405
     0.000000    0.643699   15.125367
   K    Bi   Se
   4   8  14
Direct configuration=     7
   0.25000000  0.56203785  0.81567812
   0.75000000  0.43796215  0.18432188
   0.75000000  0.82567264  0.62388846
   0.25000000  0.17432736  0.37611154
   0.25000000  0.83634306  0.27973955
   0.75000000  0.16365694  0.72026045
   0.75000000  0.60770191  0.43043693
   0.25000000  0.39229809  0.56956307
   0.75000000  0.73092018  0.04820839
   0.25000000  0.26907982  0.95179161
   0.25000000  0.94044405  0.87598793
   0.75000000  0.05955595  0.12401207
   0.25000000  0.59136784  0.03502397
   0.75000000  0.40863216  0.96497603
   0.75000000  0.99661435  0.30360841
   0.25000000  0.00338565  0.69639159
   0.75000000  0.69080540  0.24133829
   0.25000000  0.30919460  0.75866171
   0.75000000  0.78648046  0.85528526
   0.25000000  0.21351954  0.14471474
   0.25000000  0.90538591  0.08389269
   0.75000000  0.09461409  0.91610731
   0.25000000  0.75990957  0.46073214
   0.75000000  0.24009043  0.53926786
   0.25000000  0.45743501  0.38692030
   0.75000000  0.54256499  0.61307970
CIS                                     
           1
     4.247648    0.000000    0.000000
     0.000000   13.159644   -0.107969
     0.000000    0.620498   15.102347
   K    Bi   Se
   4   8  14
Direct configuration=     8
   0.25000000  0.56189386  0.81590863
   0.75000000  0.43810614  0.18409137
   0.75000000  0.82582424  0.62383124
   0.25000000  0.17417576  0.37616876
   0.25000000  0.83640141  0.27984019
   0.75000000  0.16359859  0.72015981
   0.75000000  0.60771301  0.43049045
   0.25000000  0.39228699  0.56950955
   0.75000000  0.73090169  0.04809752
   0.25000000  0.26909831  0.95190248
   0.25000000  0.94039239  0.87600340
   0.75000000  0.05960761  0.12399660
   0.25000000  0.59095806  0.03469539
   0.75000000  0.40904194  0.96530461
   0.75000000  0.99707489  0.30381196
   0.25000000  0.00292511  0.69618804
   0.75000000  0.69048422  0.24133482
   0.25000000  0.30951578  0.75866518
   0.75000000  0.78614870  0.85513999
   0.25000000  0.21385130  0.14486001
   0.25000000  0.90524480  0.08379973
   0.75000000  0.09475520  0.91620027
   0.25000000  0.76004737  0.46101199
   0.75000000  0.23995263  0.53898801
   0.25000000  0.45739044  0.38688009
   0.75000000  0.54260956  0.61311991
CIS                                     
           1
     4.247564    0.000000    0.000000
     0.000000   13.149470   -0.124388
     0.000000    0.601211   15.106714
   K    Bi   Se
   4   8  14
Direct configuration=     9
   0.25000000  0.56171529  0.81618526
   0.75000000  0.43828471  0.18381474
   0.75000000  0.82600773  0.62376613
   0.25000000  0.17399227  0.37623387
   0.25000000  0.83645317  0.28018455
   0.75000000  0.16354683  0.71981545
   0.75000000  0.60774652  0.43054706
   0.25000000  0.39225348  0.56945294
   0.75000000  0.73042175  0.04784086
   0.25000000  0.26957825  0.95215914
   0.25000000  0.94012434  0.87587924
   0.75000000  0.05987566  0.12412076
   0.25000000  0.59083117  0.03421472
   0.75000000  0.40916883  0.96578528
   0.75000000  0.99747531  0.30414690
   0.25000000  0.00252469  0.69585310
   0.75000000  0.69029541  0.24137735
   0.25000000  0.30970459  0.75862265
   0.75000000  0.78582285  0.85502955
   0.25000000  0.21417715  0.14497045
   0.25000000  0.90518018  0.08376701
   0.75000000  0.09481982  0.91623299
   0.25000000  0.76049138  0.46141920
   0.75000000  0.23950862  0.53858080
   0.25000000  0.45715286  0.38654580
   0.75000000  0.54284714  0.61345420
CIS                                     
           1
     4.247486    0.000000    0.000000
     0.000000   13.139965   -0.139728
     0.000000    0.583191   15.110795
   K    Bi   Se
   4   8  14
Direct configuration=    10
   0.25000000  0.56154872  0.81644345
   0.75000000  0.43845128  0.18355655
   0.75000000  0.82617920  0.62370550
   0.25000000  0.17382080  0.37629450
   0.25000000  0.83650205  0.28050625
   0.75000000  0.16349795  0.71949375
   0.75000000  0.60777793  0.43059996
   0.25000000  0.39222207  0.56940004
   0.75000000  0.72997267  0.04760065
   0.25000000  0.27002733  0.95239935
   0.25000000  0.93987356  0.87576299
   0.75000000  0.06012644  0.12423701
   0.25000000  0.59071188  0.03376563
   0.75000000  0.40928812  0.96623437
   0.75000000  0.99785015  0.30446015
   0.25000000  0.00214985  0.69553985
   0.75000000  0.69011895  0.24141688
   0.25000000  0.30988105  0.75858312
   0.75000000  0.78551805  0.85492607
   0.25000000  0.21448195  0.14507393
   0.25000000  0.90511973  0.08373638
   0.75000000  0.09488027  0.91626362
   0.25000000  0.76090706  0.46179999
   0.75000000  0.23909294  0.53820001
   0.25000000  0.45693027  0.38623332
   0.75000000  0.54306973  0.61376668
CIS                                     
           1
     4.247330    0.000000    0.000000
     0.000000   13.120956   -0.170408
     0.000000    0.547153   15.118955
   K    Bi   Se
   4   8  14
Direct configuration=    11
   0.25000000  0.56121607  0.81695937
   0.75000000  0.43878393  0.18304063
   0.75000000  0.82652219  0.62358462
   0.25000000  0.17347781  0.37641538
   0.25000000  0.83660075  0.28114957
   0.75000000  0.16339925  0.71885043
   0.75000000  0.60784094  0.43070581
   0.25000000  0.39215906  0.56929419
   0.75000000  0.72907324  0.04711944
   0.25000000  0.27092676  0.95288056
   0.25000000  0.93937133  0.87553005
   0.75000000  0.06062867  0.12446995
   0.25000000  0.59047188  0.03286745
   0.75000000  0.40952812  0.96713255
   0.75000000  0.99860120  0.30508725
   0.25000000  0.00139880  0.69491275
   0.75000000  0.68976588  0.24149557
   0.25000000  0.31023412  0.75850443
   0.75000000  0.78490775  0.85471853
   0.25000000  0.21509225  0.14528147
   0.25000000  0.90499866  0.08367501
   0.75000000  0.09500134  0.91632499
   0.25000000  0.76174005  0.46256222
   0.75000000  0.23825995  0.53743778
   0.25000000  0.45648393  0.38560808
   0.75000000  0.54351607  0.61439192
CIS                                     
           1
     4.247389    0.000000    0.000000
     0.000000   13.128089   -0.158895
     0.000000    0.560676   15.115893
   K    Bi   Se
   4   8  14
Direct configuration=    12
   0.25000000  0.56134053  0.81676612
   0.75000000  0.43865947  0.18323388
   0.75000000  0.82639343  0.62362970
   0.25000000  0.17360657  0.37637030
   0.25000000  0.83656299  0.28090821
   0.75000000  0.16343701  0.71909179
   0.75000000  0.60781716  0.43066606
   0.25000000  0.39218284  0.56933394
   0.75000000  0.72941171  0.04730062
   0.25000000  0.27058829  0.95269938
   0.25000000  0.93956029  0.87561781
   0.75000000  0.06043971  0.12438219
   0.25000000  0.59056299  0.03320451
   0.75000000  0.40943701  0.96679549
   0.75000000  0.99831833  0.30485148
   0.25000000  0.00168167  0.69514852
   0.75000000  0.68989847  0.24146633
   0.25000000  0.31010153  0.75853367
   0.75000000  0.78513729  0.85479684
   0.25000000  0.21486271  0.14520316
   0.25000000  0.90504422  0.08369812
   0.75000000  0.09495578  0.91630188
   0.25000000  0.76142625  0.46227570
   0.75000000  0.23857375  0.53772430
   0.25000000  0.45665230  0.38584293
   0.75000000  0.54334770  0.61415707
CIS                                     
           1
     4.248597    0.000000    0.000000
     0.000000   13.126814   -0.139973
     0.000000    0.582288   15.105873
   K    Bi   Se
   4   8  14
Direct configuration=    13
   0.25000000  0.56127106  0.81679931
   0.75000000  0.43872894  0.18320069
   0.75000000  0.82643276  0.62363493
   0.25000000  0.17356724  0.37636507
   0.25000000  0.83656604  0.28127383
   0.75000000  0.16343396  0.71872617
   0.75000000  0.60778641  0.43083214
   0.25000000  0.39221359  0.56916786
   0.75000000  0.72904419  0.04711909
   0.25000000  0.27095581  0.95288091
   0.25000000  0.93940214  0.87538146
   0.75000000  0.06059786  0.12461854
   0.25000000  0.59054702  0.03302166
   0.75000000  0.40945298  0.96697834
   0.75000000  0.99846636  0.30508614
   0.25000000  0.00153364  0.69491386
   0.75000000  0.69002759  0.24149474
   0.25000000  0.30997241  0.75850526
   0.75000000  0.78492794  0.85467076
   0.25000000  0.21507206  0.14532924
   0.25000000  0.90507905  0.08380999
   0.75000000  0.09492095  0.91619001
   0.25000000  0.76194010  0.46226471
   0.75000000  0.23805990  0.53773529
   0.25000000  0.45627709  0.38572304
   0.75000000  0.54372291  0.61427696
CIS                                     
           1
     4.249599    0.000000    0.000000
     0.000000   13.125758   -0.124295
     0.000000    0.600194   15.097571
   K    Bi   Se
   4   8  14
Direct configuration=    14
   0.25000000  0.56121345  0.81682690
   0.75000000  0.43878655  0.18317310
   0.75000000  0.82646534  0.62363924
   0.25000000  0.17353466  0.37636076
   0.25000000  0.83656805  0.28157695
   0.75000000  0.16343195  0.71842305
   0.75000000  0.60776070  0.43096987
   0.25000000  0.39223930  0.56903013
   0.75000000  0.72873988  0.04696898
   0.25000000  0.27126012  0.95303102
   0.25000000  0.93927142  0.87518568
   0.75000000  0.06072858  0.12481432
   0.25000000  0.59053404  0.03287008
   0.75000000  0.40946596  0.96712992
   0.75000000  0.99858870  0.30528055
   0.25000000  0.00141130  0.69471945
   0.75000000  0.69013454  0.24151817
   0.25000000  0.30986546  0.75848183
   0.75000000  0.78475464  0.85456646
   0.25000000  0.21524536  0.14543354
   0.25000000  0.90510777  0.08390270
   0.75000000  0.09489223  0.91609730
   0.25000000  0.76236592  0.46225508
   0.75000000  0.23763408  0.53774492
   0.25000000  0.45596634  0.38562403
   0.75000000  0.54403366  0.61437597
CIS                                     
           1
     4.246691    0.000000    0.000000
     0.000000   13.119027   -0.113027
     0.000000    0.612962   15.109668
   K    Bi   Se
   4   8  14
Direct configuration=    15
   0.25000000  0.56118774  0.81671766
   0.75000000  0.43881226  0.18328234
   0.75000000  0.82645136  0.62368836
   0.25000000  0.17354864  0.37631164
   0.25000000  0.83658695  0.28168045
   0.75000000  0.16341305  0.71831955
   0.75000000  0.60781162  0.43105133
   0.25000000  0.39218838  0.56894867
   0.75000000  0.72873883  0.04683428
   0.25000000  0.27126117  0.95316572
   0.25000000  0.93934028  0.87498839
   0.75000000  0.06065972  0.12501161
   0.25000000  0.59043132  0.03283049
   0.75000000  0.40956868  0.96716951
   0.75000000  0.99842566  0.30559337
   0.25000000  0.00157434  0.69440663
   0.75000000  0.69042675  0.24163582
   0.25000000  0.30957325  0.75836418
   0.75000000  0.78453800  0.85436038
   0.25000000  0.21546200  0.14563962
   0.25000000  0.90523018  0.08411737
   0.75000000  0.09476982  0.91588263
   0.25000000  0.76244101  0.46243730
   0.75000000  0.23755899  0.53756270
   0.25000000  0.45569993  0.38546657
   0.75000000  0.54430007  0.61453343
CIS                                     
           1
     4.242534    0.000000    0.000000
     0.000000   13.109404   -0.096918
     0.000000    0.631215   15.126963
   K    Bi   Se
   4   8  14
Direct configuration=    16
   0.25000000  0.56115111  0.81656163
   0.75000000  0.43884889  0.18343837
   0.75000000  0.82643129  0.62375855
   0.25000000  0.17356871  0.37624145
   0.25000000  0.83661385  0.28182828
   0.75000000  0.16338615  0.71817172
   0.75000000  0.60788436  0.43116763
   0.25000000  0.39211564  0.56883237
   0.75000000  0.72873751  0.04664187
   0.25000000  0.27126249  0.95335813
   0.25000000  0.93943903  0.87470650
   0.75000000  0.06056097  0.12529350
   0.25000000  0.59028444  0.03277406
   0.75000000  0.40971556  0.96722594
   0.75000000  0.99819202  0.30604041
   0.25000000  0.00180798  0.69395959
   0.75000000  0.69084457  0.24180359
   0.25000000  0.30915543  0.75819641
   0.75000000  0.78422839  0.85406622
   0.25000000  0.21577161  0.14593378
   0.25000000  0.90540500  0.08442389
   0.75000000  0.09459500  0.91557611
   0.25000000  0.76254817  0.46269753
   0.75000000  0.23745183  0.53730247
   0.25000000  0.45531905  0.38524192
   0.75000000  0.54468095  0.61475808
CIS                                     
           1
     4.240709    0.000000    0.000000
     0.000000   13.102494   -0.090106
     0.000000    0.638666   15.116591
   K    Bi   Se
   4   8  14
Direct configuration=    17
   0.25000000  0.56111345  0.81633110
   0.75000000  0.43888655  0.18366890
   0.75000000  0.82636999  0.62383092
   0.25000000  0.17363001  0.37616908
   0.25000000  0.83667172  0.28188494
   0.75000000  0.16332828  0.71811506
   0.75000000  0.60783138  0.43118433
   0.25000000  0.39216862  0.56881567
   0.75000000  0.72893501  0.04644832
   0.25000000  0.27106499  0.95355168
   0.25000000  0.93960162  0.87432533
   0.75000000  0.06039838  0.12567467
   0.25000000  0.59031160  0.03305607
   0.75000000  0.40968840  0.96694393
   0.75000000  0.99821548  0.30635753
   0.25000000  0.00178452  0.69364247
   0.75000000  0.69123376  0.24195609
   0.25000000  0.30876624  0.75804391
   0.75000000  0.78421343  0.85387371
   0.25000000  0.21578657  0.14612629
   0.25000000  0.90552924  0.08464930
   0.75000000  0.09447076  0.91535070
   0.25000000  0.76243121  0.46284825
   0.75000000  0.23756879  0.53715175
   0.25000000  0.45498571  0.38501870
   0.75000000  0.54501429  0.61498130
CIS                                     
           1
     4.240319    0.000000    0.000000
     0.000000   13.101020   -0.088653
     0.000000    0.640255   15.114379
   K    Bi   Se
   4   8  14
Direct configuration=    18
   0.25000000  0.56110544  0.81628190
   0.75000000  0.43889456  0.18371810
   0.75000000  0.82635689  0.62384637
   0.25000000  0.17364311  0.37615363
   0.25000000  0.83668406  0.28189703
   0.75000000  0.16331594  0.71810297
   0.75000000  0.60782007  0.43118790
   0.25000000  0.39217993  0.56881210
   0.75000000  0.72897719  0.04640699
   0.25000000  0.27102281  0.95359301
   0.25000000  0.93963636  0.87424397
   0.75000000  0.06036364  0.12575603
   0.25000000  0.59031736  0.03311625
   0.75000000  0.40968264  0.96688375
   0.75000000  0.99822045  0.30642521
   0.25000000  0.00177955  0.69357479
   0.75000000  0.69131679  0.24198860
   0.25000000  0.30868321  0.75801140
   0.75000000  0.78421026  0.85383262
   0.25000000  0.21578974  0.14616738
   0.25000000  0.90555573  0.08469739
   0.75000000  0.09444427  0.91530261
   0.25000000  0.76240623  0.46288043
   0.75000000  0.23759377  0.53711957
   0.25000000  0.45491460  0.38497108
   0.75000000  0.54508540  0.61502892
CIS                                     
           1
     4.245269    0.000000    0.000000
     0.000000   13.107611   -0.087580
     0.000000    0.641716   15.099762
   K    Bi   Se
   4   8  14
Direct configuration=    19
   0.25000000  0.56106850  0.81605249
   0.75000000  0.43893150  0.18394751
   0.75000000  0.82625978  0.62389425
   0.25000000  0.17374022  0.37610575
   0.25000000  0.83678217  0.28184528
   0.75000000  0.16321783  0.71815472
   0.75000000  0.60765813  0.43113560
   0.25000000  0.39234187  0.56886440
   0.75000000  0.72928290  0.04628562
   0.25000000  0.27071710  0.95371438
   0.25000000  0.93983106  0.87385556
   0.75000000  0.06016894  0.12614444
   0.25000000  0.59019743  0.03324423
   0.75000000  0.40980257  0.96675577
   0.75000000  0.99841175  0.30660139
   0.25000000  0.00158825  0.69339861
   0.75000000  0.69131876  0.24191719
   0.25000000  0.30868124  0.75808281
   0.75000000  0.78440998  0.85380945
   0.25000000  0.21559002  0.14619055
   0.25000000  0.90567028  0.08489689
   0.75000000  0.09432972  0.91510311
   0.25000000  0.76221573  0.46294145
   0.75000000  0.23778427  0.53705855
   0.25000000  0.45475562  0.38462671
   0.75000000  0.54524438  0.61537329
CIS                                     
           1
     4.245658    0.000000    0.000000
     0.000000   13.108129   -0.087496
     0.000000    0.641831   15.098613
   K    Bi   Se
   4   8  14
Direct configuration=    20
   0.25000000  0.56106560  0.81603444
   0.75000000  0.43893440  0.18396556
   0.75000000  0.82625215  0.62389802
   0.25000000  0.17374785  0.37610198
   0.25000000  0.83678988  0.28184121
   0.75000000  0.16321012  0.71815879
   0.75000000  0.60764541  0.43113148
   0.25000000  0.39235459  0.56886852
   0.75000000  0.72930692  0.04627606
   0.25000000  0.27069308  0.95372394
   0.25000000  0.93984636  0.87382500
   0.75000000  0.06015364  0.12617500
   0.25000000  0.59018800  0.03325429
   0.75000000  0.40981200  0.96674571
   0.75000000  0.99842678  0.30661526
   0.25000000  0.00157322  0.69338474
   0.75000000  0.69131891  0.24191157
   0.25000000  0.30868109  0.75808843
   0.75000000  0.78442567  0.85380763
   0.25000000  0.21557433  0.14619237
   0.25000000  0.90567928  0.08491259
   0.75000000  0.09432072  0.91508741
   0.25000000  0.76220077  0.46294625
   0.75000000  0.23779923  0.53705375
   0.25000000  0.45474313  0.38459961
   0.75000000  0.54525687  0.61540039
CIS                                     
           1
     4.247619    0.000000    0.000000
     0.000000   13.105458   -0.098687
     0.000000    0.628809   15.098567
   K    Bi   Se
   4   8  14
Direct configuration=    21
   0.25000000  0.56103054  0.81586771
   0.75000000  0.43896946  0.18413229
   0.75000000  0.82613776  0.62390742
   0.25000000  0.17386224  0.37609258
   0.25000000  0.83682612  0.28174730
   0.75000000  0.16317388  0.71825270
   0.75000000  0.60752409  0.43107693
   0.25000000  0.39247591  0.56892307
   0.75000000  0.72936384  0.04620520
   0.25000000  0.27063616  0.95379480
   0.25000000  0.93986794  0.87364826
   0.75000000  0.06013206  0.12635174
   0.25000000  0.59018568  0.03317158
   0.75000000  0.40981432  0.96682842
   0.75000000  0.99852939  0.30664023
   0.25000000  0.00147061  0.69335977
   0.75000000  0.69126305  0.24184328
   0.25000000  0.30873695  0.75815672
   0.75000000  0.78468657  0.85380557
   0.25000000  0.21531343  0.14619443
   0.25000000  0.90574278  0.08503313
   0.75000000  0.09425722  0.91496687
   0.25000000  0.76205698  0.46296920
   0.75000000  0.23794302  0.53703080
   0.25000000  0.45498334  0.38448269
   0.75000000  0.54501666  0.61551731
CIS                                     
           1
     4.247048    0.000000    0.000000
     0.000000   13.106235   -0.095432
     0.000000    0.632597   15.098581
   K    Bi   Se
   4   8  14
Direct configuration=    22
   0.25000000  0.56104079  0.81591622
   0.75000000  0.43895921  0.18408378
   0.75000000  0.82617104  0.62390471
   0.25000000  0.17382896  0.37609529
   0.25000000  0.83681561  0.28177461
   0.75000000  0.16318439  0.71822539
   0.75000000  0.60755940  0.43109283
   0.25000000  0.39244060  0.56890717
   0.75000000  0.72934730  0.04622580
   0.25000000  0.27065270  0.95377420
   0.25000000  0.93986171  0.87369966
   0.75000000  0.06013829  0.12630034
   0.25000000  0.59018638  0.03319564
   0.75000000  0.40981362  0.96680436
   0.75000000  0.99849953  0.30663295
   0.25000000  0.00150047  0.69336705
   0.75000000  0.69127932  0.24186316
   0.25000000  0.30872068  0.75813684
   0.75000000  0.78461067  0.85380612
   0.25000000  0.21538933  0.14619388
   0.25000000  0.90572427  0.08499805
   0.75000000  0.09427573  0.91500195
   0.25000000  0.76209880  0.46296255
   0.75000000  0.23790120  0.53703745
   0.25000000  0.45491349  0.38451665
   0.75000000  0.54508651  0.61548335
CIS                                     
           1
     4.246637    0.000000    0.000000
     0.000000   13.106796   -0.093084
     0.000000    0.635329   15.098590
   K    Bi   Se
   4   8  14
Direct configuration=    23
   0.25000000  0.56104817  0.81595120
   0.75000000  0.43895183  0.18404880
   0.75000000  0.82619504  0.62390275
   0.25000000  0.17380496  0.37609725
   0.25000000  0.83680802  0.28179431
   0.75000000  0.16319198  0.71820569
   0.75000000  0.60758487  0.43110429
   0.25000000  0.39241513  0.56889571
   0.75000000  0.72933537  0.04624066
   0.25000000  0.27066463  0.95375934
   0.25000000  0.93985721  0.87373674
   0.75000000  0.06014279  0.12626326
   0.25000000  0.59018688  0.03321299
   0.75000000  0.40981312  0.96678701
   0.75000000  0.99847800  0.30662769
   0.25000000  0.00152200  0.69337231
   0.75000000  0.69129105  0.24187749
   0.25000000  0.30870895  0.75812251
   0.75000000  0.78455592  0.85380652
   0.25000000  0.21544408  0.14619348
   0.25000000  0.90571093  0.08497275
   0.75000000  0.09428907  0.91502725
   0.25000000  0.76212897  0.46295776
   0.75000000  0.23787103  0.53704224
   0.25000000  0.45486310  0.38454115
   0.75000000  0.54513690  0.61545885
CIS                                     
           1
     4.248161    0.000000    0.000000
     0.000000   13.107863   -0.102929
     0.000000    0.624013   15.094912
   K    Bi   Se
   4   8  14
Direct configuration=    24
   0.25000000  0.56100743  0.81575894
   0.75000000  0.43899257  0.18424106
   0.75000000  0.82603733  0.62390012
   0.25000000  0.17396267  0.37609988
   0.25000000  0.83678284  0.28174108
   0.75000000  0.16321716  0.71825892
   0.75000000  0.60755543  0.43105710
   0.25000000  0.39244457  0.56894290
   0.75000000  0.72932441  0.04616856
   0.25000000  0.27067559  0.95383144
   0.25000000  0.93986185  0.87360969
   0.75000000  0.06013815  0.12639031
   0.25000000  0.59023865  0.03317202
   0.75000000  0.40976135  0.96682798
   0.75000000  0.99859492  0.30661901
   0.25000000  0.00140508  0.69338099
   0.75000000  0.69120278  0.24178535
   0.25000000  0.30879722  0.75821465
   0.75000000  0.78442667  0.85382997
   0.25000000  0.21557333  0.14617003
   0.25000000  0.90565355  0.08510714
   0.75000000  0.09434645  0.91489286
   0.25000000  0.76194548  0.46296602
   0.75000000  0.23805452  0.53703398
   0.25000000  0.45504172  0.38463559
   0.75000000  0.54495828  0.61536441
CIS                                     
           1
     4.247945    0.000000    0.000000
     0.000000   13.107711   -0.101533
     0.000000    0.625618   15.095434
   K    Bi   Se
   4   8  14
Direct configuration=    25
   0.25000000  0.56101323  0.81578622
   0.75000000  0.43898677  0.18421378
   0.75000000  0.82605970  0.62390050
   0.25000000  0.17394030  0.37609950
   0.25000000  0.83678642  0.28174863
   0.75000000  0.16321358  0.71825137
   0.75000000  0.60755961  0.43106380
   0.25000000  0.39244039  0.56893620
   0.75000000  0.72932597  0.04617879
   0.25000000  0.27067403  0.95382121
   0.25000000  0.93986121  0.87362772
   0.75000000  0.06013879  0.12637228
   0.25000000  0.59023131  0.03317783
   0.75000000  0.40976869  0.96682217
   0.75000000  0.99857834  0.30662023
   0.25000000  0.00142166  0.69337977
   0.75000000  0.69121531  0.24179843