 vasp.6.1.0 28Jan20 (build Jul 20 2020 17:48:44) complex                        
  
 executed on             LinuxIFC date 2024.09.22  02:37:29
 running on   16 total cores
 distrk:  each k-point on   16 cores,    1 groups
 distr:  one band on NCORE=   1 cores,   16 groups


--------------------------------------------------------------------------------------------------------


 INCAR:
 POTCAR:    PAW_PBE Li 17Jan2003                  
 POTCAR:    PAW_PBE Sb 06Sep2000                  
 POTCAR:    PAW_PBE S 06Sep2000                   
 -----------------------------------------------------------------------------
|                                                                             |
|           W    W    AA    RRRRR   N    N  II  N    N   GGGG   !!!           |
|           W    W   A  A   R    R  NN   N  II  NN   N  G    G  !!!           |
|           W    W  A    A  R    R  N N  N  II  N N  N  G       !!!           |
|           W WW W  AAAAAA  RRRRR   N  N N  II  N  N N  G  GGG   !            |
|           WW  WW  A    A  R   R   N   NN  II  N   NN  G    G                |
|           W    W  A    A  R    R  N    N  II  N    N   GGGG   !!!           |
|                                                                             |
|     For optimal performance we recommend to set                             |
|       NCORE = 4 - approx SQRT(number of cores).                             |
|     NCORE specifies how many cores store one orbital (NPAR=cpu/NCORE).      |
|     This setting can greatly improve the performance of VASP for DFT.       |
|     The default, NCORE=1 might be grossly inefficient on modern             |
|     multi-core architectures or massively parallel machines. Do your        |
|     own testing!!!!                                                         |
|     Unfortunately you need to use the default for GW and RPA                |
|     calculations (for HF NCORE is supported but not extensively tested      |
|     yet).                                                                   |
|                                                                             |
 -----------------------------------------------------------------------------

 POTCAR:    PAW_PBE Li 17Jan2003                  
   VRHFIN =Li: s1p0                                                                                 
   LEXCH  = PE                                                                                      
   EATOM  =     5.3001 eV,    0.3895 Ry                                                             
                                                                                                    
   TITEL  = PAW_PBE Li 17Jan2003                                                                    
   LULTRA =        F    use ultrasoft PP ?                                                          
   IUNSCR =        1    unscreen: 0-lin 1-nonlin 2-no                                               
   RPACOR =    1.500    partial core radius                                                         
   POMASS =    7.010; ZVAL   =    1.000    mass and valenz                                          
   RCORE  =    2.050    outmost cutoff radius                                                       
   RWIGS  =    2.600; RWIGS  =    1.376    wigner-seitz radius (au A)                               
   ENMAX  =  140.000; ENMIN  =  100.000 eV                                                          
   ICORE  =        2    local potential                                                             
   LCOR   =        T    correct aug charges                                                         
   LPAW   =        T    paw PP                                                                      
   EAUG   =  331.638                                                                                
   DEXC   =    0.000                                                                                
   RMAX   =    2.098    core radius for proj-oper                                                   
   RAUG   =    1.300    factor for augmentation sphere                                              
   RDEP   =    2.094    radius for radial grids                                                     
   RDEPT  =    1.810    core radius for aug-charge                                                  
                                                                                                    
   Atomic configuration                                                                             
    4 entries                                                                                       
     n  l   j            E        occ.                                                              
     1  0  0.50       -51.8549   2.0000                                                             
     2  0  0.50        -2.8742   1.0000                                                             
     2  1  0.50        -1.3606   0.0000                                                             
     3  2  1.50        -1.3606   0.0000                                                             
   Description                                                                                      
     l       E           TYP  RCUT    TYP  RCUT                                                     
     0     -2.8742052     23  2.050                                                                 
     0     27.2116520     23  2.050                                                                 
     1     -1.3605826     23  2.050                                                                 
     2     -1.3605826     23  2.050                                                                 
  local pseudopotential read in
  partial core-charges read in
  partial kinetic energy density read in
  atomic valenz-charges read in
  non local Contribution for L=           0  read in
    real space projection operators read in
  non local Contribution for L=           0  read in
    real space projection operators read in
  non local Contribution for L=           1  read in
    real space projection operators read in
    PAW grid and wavefunctions read in
 
   number of l-projection  operators is LMAX  =           3
   number of lm-projection operators is LMMAX =           5
 
 POTCAR:    PAW_PBE Sb 06Sep2000                  
   VRHFIN =Sb: s2p3                                                                                 
   LEXCH  = PE                                                                                      
   EATOM  =   149.9515 eV,   11.0211 Ry                                                             
                                                                                                    
   TITEL  = PAW_PBE Sb 06Sep2000                                                                    
   LULTRA =        F    use ultrasoft PP ?                                                          
   IUNSCR =        1    unscreen: 0-lin 1-nonlin 2-no                                               
   RPACOR =    2.200    partial core radius                                                         
   POMASS =  121.750; ZVAL   =    5.000    mass and valenz                                          
   RCORE  =    2.300    outmost cutoff radius                                                       
   RWIGS  =    2.980; RWIGS  =    1.577    wigner-seitz radius (au A)                               
   ENMAX  =  172.069; ENMIN  =  129.052 eV                                                          
   ICORE  =        3    local potential                                                             
   LCOR   =        T    correct aug charges                                                         
   LPAW   =        T    paw PP                                                                      
   EAUG   =  380.513                                                                                
   DEXC   =    0.000                                                                                
   RMAX   =    2.346    core radius for proj-oper                                                   
   RAUG   =    1.300    factor for augmentation sphere                                              
   RDEP   =    2.360    radius for radial grids                                                     
   RDEPT  =    2.192    core radius for aug-charge                                                  
                                                                                                    
   Atomic configuration                                                                             
   13 entries                                                                                       
     n  l   j            E        occ.                                                              
     1  0  0.50    -30298.2797   2.0000                                                             
     2  0  0.50     -4610.2252   2.0000                                                             
     2  1  1.50     -4138.3407   6.0000                                                             
     3  0  0.50      -903.8815   2.0000                                                             
     3  1  1.50      -750.1337   6.0000                                                             
     3  2  2.50      -515.7092  10.0000                                                             
     4  0  0.50      -148.8034   2.0000                                                             
     4  1  1.50      -101.7581   6.0000                                                             
     4  2  2.50       -33.5048  10.0000                                                             
     5  0  0.50       -12.8298   2.0000                                                             
     5  1  0.50        -4.8276   3.0000                                                             
     5  2  1.50        -4.0817   0.0000                                                             
     4  3  2.50        -4.0817   0.0000                                                             
   Description                                                                                      
     l       E           TYP  RCUT    TYP  RCUT                                                     
     0    -12.8297861     23  2.300                                                                 
     0     13.6058260     23  2.300                                                                 
     1     -4.8275512     23  2.300                                                                 
     1     -0.7245443     23  2.300                                                                 
     2     -4.0817478     23  2.300                                                                 
     3     -1.3605826     23  2.300                                                                 
  local pseudopotential read in
  partial core-charges read in
  partial kinetic energy density read in
  atomic valenz-charges read in
  non local Contribution for L=           0  read in
    real space projection operators read in
  non local Contribution for L=           0  read in
    real space projection operators read in
  non local Contribution for L=           1  read in
    real space projection operators read in
  non local Contribution for L=           1  read in
    real space projection operators read in
  non local Contribution for L=           2  read in
    real space projection operators read in
    PAW grid and wavefunctions read in
 
   number of l-projection  operators is LMAX  =           5
   number of lm-projection operators is LMMAX =          13
 
 POTCAR:    PAW_PBE S 06Sep2000                   
   VRHFIN =S : s2p4                                                                                 
   LEXCH  = PE                                                                                      
   EATOM  =   276.8230 eV,   20.3459 Ry                                                             
                                                                                                    
   TITEL  = PAW_PBE S 06Sep2000                                                                     
   LULTRA =        F    use ultrasoft PP ?                                                          
   IUNSCR =        1    unscreen: 0-lin 1-nonlin 2-no                                               
   RPACOR =    1.500    partial core radius                                                         
   POMASS =   32.066; ZVAL   =    6.000    mass and valenz                                          
   RCORE  =    1.900    outmost cutoff radius                                                       
   RWIGS  =    2.200; RWIGS  =    1.164    wigner-seitz radius (au A)                               
   ENMAX  =  258.689; ENMIN  =  194.016 eV                                                          
   ICORE  =        2    local potential                                                             
   LCOR   =        T    correct aug charges                                                         
   LPAW   =        T    paw PP                                                                      
   EAUG   =  335.092                                                                                
   DEXC   =    0.000                                                                                
   RMAX   =    1.942    core radius for proj-oper                                                   
   RAUG   =    1.300    factor for augmentation sphere                                              
   RDEP   =    1.954    radius for radial grids                                                     
   RDEPT  =    1.744    core radius for aug-charge                                                  
                                                                                                    
   Atomic configuration                                                                             
    6 entries                                                                                       
     n  l   j            E        occ.                                                              
     1  0  0.50     -2405.8406   2.0000                                                             
     2  0  0.50      -211.7007   2.0000                                                             
     2  1  1.50      -156.4958   6.0000                                                             
     3  0  0.50       -17.2562   2.0000                                                             
     3  1  0.50        -7.0085   4.0000                                                             
     3  2  1.50        -6.8029   0.0000                                                             
   Description                                                                                      
     l       E           TYP  RCUT    TYP  RCUT                                                     
     0    -17.2561641     23  1.900                                                                 
     0    -15.8743224     23  1.900                                                                 
     1     -7.0085400     23  1.900                                                                 
     1     -2.7779785     23  1.900                                                                 
     2     -6.8029130     23  1.900                                                                 
  local pseudopotential read in
  partial core-charges read in
  partial kinetic energy density read in
  atomic valenz-charges read in
  non local Contribution for L=           0  read in
    real space projection operators read in
  non local Contribution for L=           0  read in
    real space projection operators read in
  non local Contribution for L=           1  read in
    real space projection operators read in
  non local Contribution for L=           1  read in
    real space projection operators read in
    PAW grid and wavefunctions read in
 
   number of l-projection  operators is LMAX  =           4
   number of lm-projection operators is LMMAX =           8
 
 Optimization of the real space projectors (new method)

 maximal supplied QI-value         = 18.33
 optimisation between [QCUT,QGAM] = [  8.80, 17.60] = [ 21.68, 86.71] Ry 
 Optimized for a Real-space Cutoff    1.15 Angstroem

   l    n(q)    QCUT    max X(q) W(low)/X(q) W(high)/X(q)  e(spline) 
   0      6     8.799    33.825    0.11E-02    0.11E-02    0.82E-07
   0      6     8.799     8.944    0.75E-03    0.85E-03    0.59E-07
   1      5     8.799     4.214    0.92E-03    0.27E-03    0.41E-07
 Optimization of the real space projectors (new method)

 maximal supplied QI-value         = 16.25
 optimisation between [QCUT,QGAM] = [  8.78, 17.71] = [ 21.57, 87.87] Ry 
 Optimized for a Real-space Cutoff    1.26 Angstroem

   l    n(q)    QCUT    max X(q) W(low)/X(q) W(high)/X(q)  e(spline) 
   0      7     8.776    19.000    0.12E-02    0.42E-03    0.95E-07
   0      7     8.776     9.057    0.14E-02    0.54E-03    0.11E-06
   1      6     8.776   125.345    0.45E-03    0.22E-02    0.77E-07
   1      6     8.776    79.963    0.45E-03    0.21E-02    0.76E-07
   2      6     8.776     6.963    0.11E-02    0.51E-03    0.39E-07
 Optimization of the real space projectors (new method)

 maximal supplied QI-value         = 19.84
 optimisation between [QCUT,QGAM] = [  8.73, 17.66] = [ 21.34, 87.33] Ry 
 Optimized for a Real-space Cutoff    1.22 Angstroem

   l    n(q)    QCUT    max X(q) W(low)/X(q) W(high)/X(q)  e(spline) 
   0      6     8.731   187.594    0.15E-02    0.56E-03    0.90E-07
   0      6     8.731   164.243    0.15E-02    0.56E-03    0.89E-07
   1      6     8.731    67.533    0.37E-03    0.20E-02    0.11E-06
   1      6     8.731    50.729    0.36E-03    0.19E-02    0.10E-06
  PAW_PBE Li 17Jan2003                  :
 energy of atom  1       EATOM=   -5.3001
 kinetic energy error for atom=    0.0000 (will be added to EATOM!!)
  PAW_PBE Sb 06Sep2000                  :
 energy of atom  2       EATOM= -149.9515
 kinetic energy error for atom=    0.0018 (will be added to EATOM!!)
  PAW_PBE S 06Sep2000                   :
 energy of atom  3       EATOM= -276.8230
 kinetic energy error for atom=    0.0077 (will be added to EATOM!!)
 
 
 POSCAR: Li4 Sb20 S32
  positions in direct lattice
  velocities in cartesian coordinates
 exchange correlation table for  LEXCH =        8
   RHO(1)=    0.500       N(1)  =     2000
   RHO(2)=  100.500       N(2)  =     4000
 


--------------------------------------------------------------------------------------------------------


 ion  position               nearest neighbor table
   1  0.505  0.931  0.006-  34 2.44  50 2.45  54 2.46  14 3.48
   2  0.495  0.931  0.506-  33 2.44  49 2.45  53 2.46  13 3.48
   3  0.050  0.098  0.787-  36 2.58  55 2.66  44 2.82  45 2.95
   4  0.950  0.098  0.287-  35 2.58  56 2.66  43 2.82  46 2.95
   5  0.275  0.220  0.542-  51 2.52  47 2.59  53 2.67  45 2.83  27 2.96   9 3.74
   6  0.725  0.220  0.042-  52 2.52  48 2.59  54 2.67  46 2.83  28 2.96  10 3.74
   7  0.454  0.585  0.437-  34 2.48  49 2.53  47 2.76  32 2.77  14 3.76
   8  0.546  0.585  0.937-  33 2.48  50 2.53  48 2.76  31 2.77  13 3.76
   9  0.214  0.377  0.740-  45 2.44  55 2.55  51 2.57  25 3.09  37 3.18   5 3.74  11 3.75
  10  0.786  0.377  0.240-  46 2.44  56 2.55  52 2.57  26 3.09  38 3.18   6 3.74  12 3.75
  11  0.268  0.805  0.984-  27 2.47  55 2.56  29 2.66  51 2.90  31 3.13   9 3.75
  12  0.732  0.805  0.484-  28 2.47  56 2.56  30 2.66  52 2.90  32 3.13  10 3.75
  13  0.367  0.646  0.781-  31 2.47  53 2.50  33 2.62  27 2.97   2 3.48   8 3.76
  14  0.633  0.646  0.281-  32 2.47  54 2.50  34 2.62  28 2.97   1 3.48   7 3.76
  15  0.125  0.016  0.463-  43 2.48  37 2.51  35 2.54  29 3.13  25 3.19
  16  0.875  0.016  0.963-  44 2.48  38 2.51  36 2.54  30 3.13  26 3.19
  17  0.048  0.577  0.202-  39 2.46  35 2.51  38 2.54  29 3.16
  18  0.952  0.577  0.702-  40 2.46  36 2.51  37 2.54  30 3.16
  19  0.144  0.421  0.021-  29 2.51  39 2.53  43 2.72  27 2.84  41 3.26
  20  0.856  0.421  0.521-  30 2.51  40 2.53  44 2.72  28 2.84  42 3.26
  21  0.219  0.810  0.285-  25 2.50  41 2.60  47 2.66  43 2.96  45 2.99  23 3.70
  22  0.781  0.810  0.785-  26 2.50  42 2.60  48 2.66  44 2.96  46 2.99  24 3.70
  23  0.345  0.159  0.260-  41 2.49  49 2.55  25 2.61  31 3.04  21 3.70
  24  0.655  0.159  0.760-  42 2.49  50 2.55  26 2.61  32 3.04  22 3.70
  25  0.269  0.824  0.463-  21 2.50  23 2.61   9 3.09  15 3.19
  26  0.731  0.824  0.963-  22 2.50  24 2.61  10 3.09  16 3.19
  27  0.229  0.782  0.807-  11 2.47  19 2.84   5 2.96  13 2.97
  28  0.771  0.782  0.307-  12 2.47  20 2.84   6 2.96  14 2.97
  29  0.200  0.439  0.193-  19 2.51  11 2.66  15 3.13  17 3.16
  30  0.800  0.439  0.693-  20 2.51  12 2.66  16 3.13  18 3.16
  31  0.405  0.593  0.993-  13 2.47   8 2.77  23 3.04  11 3.13
  32  0.595  0.593  0.493-  14 2.47   7 2.77  24 3.04  12 3.13
  33  0.498  0.577  0.757-   2 2.44   8 2.48  13 2.62
  34  0.502  0.577  0.257-   1 2.44   7 2.48  14 2.62
  35  0.009  0.201  0.416-  17 2.51  15 2.54   4 2.58
  36  0.991  0.201  0.916-  18 2.51  16 2.54   3 2.58
  37  0.084  0.650  0.691-  15 2.51  18 2.54   9 3.18
  38  0.916  0.650  0.191-  16 2.51  17 2.54  10 3.18
  39  0.035  0.618  0.988-  17 2.46  19 2.53
  40  0.965  0.618  0.488-  18 2.46  20 2.53
  41  0.287  0.163  0.081-  23 2.49  21 2.60  19 3.26
  42  0.713  0.163  0.581-  24 2.49  22 2.60  20 3.26
  43  0.093  0.031  0.265-  15 2.48  19 2.72   4 2.82  21 2.96
  44  0.907  0.031  0.765-  16 2.48  20 2.72   3 2.82  22 2.96
  45  0.155  0.400  0.555-   9 2.44   5 2.83   3 2.95  21 2.99
  46  0.845  0.400  0.055-  10 2.44   6 2.83   4 2.95  22 2.99
  47  0.330  0.588  0.322-   5 2.59  21 2.66   7 2.76
  48  0.670  0.588  0.822-   6 2.59  22 2.66   8 2.76
  49  0.461  0.976  0.297-   2 2.45   7 2.53  23 2.55
  50  0.539  0.976  0.797-   1 2.45   8 2.53  24 2.55
  51  0.325  0.217  0.729-   5 2.52   9 2.57  11 2.90
  52  0.675  0.217  0.229-   6 2.52  10 2.57  12 2.90
  53  0.395  0.032  0.572-   2 2.46  13 2.50   5 2.67
  54  0.605  0.032  0.072-   1 2.46  14 2.50   6 2.67
  55  0.160  0.012  0.953-   9 2.55  11 2.56   3 2.66
  56  0.840  0.012  0.453-  10 2.55  12 2.56   4 2.66
 
  LATTYP: Found a simple monoclinic cell.
 ALAT       =    12.5269093250
 B/A-ratio  =     1.5106741063
 C/A-ratio  =     1.5623621198
 COS(beta)  =    -0.9471726381
  
  Lattice vectors:
  
 A1 = (   0.0000000000,  -8.6533810103,  -9.0577289828)
 A2 = ( -18.9240775490,   0.0000000000,   0.0000000000)
 A3 = (   0.0000000000,  17.3442167537,   9.0677694583)


Analysis of symmetry for initial positions (statically):
=====================================================================
 Subroutine PRICEL returns:
 Original cell was already a primitive cell.
 

 Routine SETGRP: Setting up the symmetry group for a 
 simple monoclinic supercell.


 Subroutine GETGRP returns: Found  2 space group operations
 (whereof  1 operations were pure point group operations)
 out of a pool of  4 trial point group operations.


The static configuration has the point symmetry C_1 .
 The point group associated with its full space group is C_1h.


Analysis of symmetry for dynamics (positions and initial velocities):
=====================================================================
 Subroutine PRICEL returns:
 Original cell was already a primitive cell.
 

 Routine SETGRP: Setting up the symmetry group for a 
 simple monoclinic supercell.


 Subroutine GETGRP returns: Found  2 space group operations
 (whereof  1 operations were pure point group operations)
 out of a pool of  4 trial point group operations.


The dynamic configuration has the point symmetry C_1 .
 The point group associated with its full space group is C_1h.


 Subroutine INISYM returns: Found  2 space group operations
 (whereof  1 operations are pure point group operations),
 and found     1 'primitive' translations


----------------------------------------------------------------------------------------

                                     Primitive cell                                     

  volume of cell :    1488.0447

  direct lattice vectors                    reciprocal lattice vectors
    18.924077549  0.000000000  0.000000000     0.052842734  0.000000000  0.000000000
     0.000000000  8.690835743  0.010040476     0.000000000  0.115190871 -0.110048611
     0.000000000  8.653381010  9.057728983     0.000000000 -0.000127689  0.110524939

  length of vectors
    18.924077549  8.690841543 12.526909325     0.052842734  0.159309867  0.110525012

  position of ions in fractional coordinates (direct lattice)
     0.504817224  0.931347337  0.006123677
     0.495182776  0.931347337  0.506123677
     0.050194148  0.098128338  0.787243239
     0.949805852  0.098128338  0.287243239
     0.274804512  0.219553083  0.541592463
     0.725195488  0.219553083  0.041592463
     0.454468416  0.584764474  0.437436833
     0.545531584  0.584764474  0.937436833
     0.214215426  0.376668255  0.739681284
     0.785784574  0.376668255  0.239681284
     0.268002446  0.804979081  0.983983417
     0.731997554  0.804979081  0.483983417
     0.366759207  0.646150278  0.780859962
     0.633240793  0.646150278  0.280859962
     0.125019975  0.015788189  0.463342363
     0.874980025  0.015788189  0.963342363
     0.047514339  0.576909544  0.202477508
     0.952485661  0.576909544  0.702477508
     0.143655824  0.420507757  0.021170293
     0.856344176  0.420507757  0.521170293
     0.219214256  0.810225621  0.285209157
     0.780785744  0.810225621  0.785209157
     0.345176947  0.159393597  0.260395736
     0.654823053  0.159393597  0.760395736
     0.268607975  0.823883699  0.463204085
     0.731392025  0.823883699  0.963204085
     0.229264301  0.782453336  0.807085641
     0.770735699  0.782453336  0.307085641
     0.200177874  0.439094084  0.193073771
     0.799822126  0.439094084  0.693073771
     0.404611796  0.593071799  0.992983451
     0.595388204  0.593071799  0.492983451
     0.497865474  0.577488328  0.756656697
     0.502134526  0.577488328  0.256656697
     0.008748747  0.201105381  0.416477977
     0.991251253  0.201105381  0.916477977
     0.083733800  0.650257156  0.690921854
     0.916266200  0.650257156  0.190921854
     0.034657176  0.617819624  0.988343107
     0.965342824  0.617819624  0.488343107
     0.287175572  0.162523620  0.080761296
     0.712824428  0.162523620  0.580761296
     0.092792586  0.030763816  0.264514081
     0.907207414  0.030763816  0.764514081
     0.154854829  0.400434708  0.555356934
     0.845145171  0.400434708  0.055356934
     0.329667420  0.587786527  0.322300256
     0.670332580  0.587786527  0.822300256
     0.460726145  0.975642649  0.297343651
     0.539273855  0.975642649  0.797343651
     0.325278125  0.217039415  0.728842606
     0.674721875  0.217039415  0.228842606
     0.394998648  0.031753858  0.572107677
     0.605001352  0.031753858  0.072107677
     0.160365338  0.011565446  0.952810984
     0.839634662  0.011565446  0.452810984

  ion indices of the primitive-cell ions
   primitive index   ion index
                 1           1
                 2           2
                 3           3
                 4           4
                 5           5
                 6           6
                 7           7
                 8           8
                 9           9
                10          10
                11          11
                12          12
                13          13
                14          14
                15          15
                16          16
                17          17
                18          18
                19          19
                20          20
                21          21
                22          22
                23          23
                24          24
                25          25
                26          26
                27          27
                28          28
                29          29
                30          30
                31          31
                32          32
                33          33
                34          34
                35          35
                36          36
                37          37
                38          38
                39          39
                40          40
                41          41
                42          42
                43          43
                44          44
                45          45
                46          46
                47          47
                48          48
                49          49
                50          50
                51          51
                52          52
                53          53
                54          54
                55          55
                56          56

----------------------------------------------------------------------------------------

 
 
 KPOINTS: Automatically generated mesh            
  k-points in reciprocal lattice
Space group operators:
 irot       det(A)        alpha          n_x          n_y          n_z        tau_x        tau_y        tau_z
    1     1.000000     0.000000     1.000000     0.000000     0.000000     0.000000     0.000000     0.000000
    2    -1.000000   180.000000     1.000000     0.000000     0.000000     0.000000     0.000000    -0.500000
 -----------------------------------------------------------------------------
|                                                                             |
|           W    W    AA    RRRRR   N    N  II  N    N   GGGG   !!!           |
|           W    W   A  A   R    R  NN   N  II  NN   N  G    G  !!!           |
|           W    W  A    A  R    R  N N  N  II  N N  N  G       !!!           |
|           W WW W  AAAAAA  RRRRR   N  N N  II  N  N N  G  GGG   !            |
|           WW  WW  A    A  R   R   N   NN  II  N   NN  G    G                |
|           W    W  A    A  R    R  N    N  II  N    N   GGGG   !!!           |
|                                                                             |
|     Your generating k-point grid is not commensurate to the symmetry of     |
|     the lattice. This can cause slow convergence with respect to            |
|     k-points for HF-type calculations.                                      |
|     Suggested SOLUTIONS:                                                    |
|      ) If not already the case, use automatic k-point generation.           |
|      ) Shift your grid to Gamma (G) (e.g. required for hex or fcc           |
|     lattice).                                                               |
|                                                                             |
 -----------------------------------------------------------------------------

 
 Subroutine IBZKPT_HF returns following result:
 ==============================================
 
 Found     37 k-points in 1st BZ
 the following     37 k-points will be used (e.g. in the exchange kernel)
 Following reciprocal coordinates:   # in IRBZ
  0.000000  0.000000  0.250000    0.16666667   1 t-inv F
  0.000000  0.333333  0.250000    0.16666667   2 t-inv F
  0.000000 -0.333333  0.250000    0.16666667   3 t-inv F
  0.500000  0.000000  0.000000    0.00000000   4 t-inv F
  0.500000  0.000000  0.000000    0.00000000   5 t-inv F
  0.400000  0.000000  0.100000    0.00000000   6 t-inv F
  0.300000  0.000000  0.200000    0.00000000   7 t-inv F
  0.200000  0.000000  0.300000    0.00000000   8 t-inv F
  0.100000  0.000000  0.400000    0.00000000   9 t-inv F
  0.000000  0.000000  0.500000    0.00000000  10 t-inv F
  0.000000  0.000000  0.400000    0.00000000  11 t-inv F
  0.000000  0.000000  0.300000    0.00000000  12 t-inv F
  0.000000  0.000000  0.200000    0.00000000  13 t-inv F
  0.000000  0.000000  0.100000    0.00000000  14 t-inv F
  0.000000  0.000000  0.000000    0.00000000  15 t-inv F
 -0.100000  0.000000 -0.100000    0.00000000  16 t-inv F
 -0.200000  0.000000 -0.200000    0.00000000  17 t-inv F
 -0.300000  0.000000 -0.300000    0.00000000  18 t-inv F
 -0.400000  0.000000 -0.400000    0.00000000  19 t-inv F
 -0.500000  0.000000 -0.500000    0.00000000  20 t-inv F
 -0.400000 -0.099714 -0.599404    0.00000000  21 t-inv F
 -0.300000 -0.199428 -0.698808    0.00000000  22 t-inv F
 -0.200000 -0.299142 -0.798212    0.00000000  23 t-inv F
 -0.100000 -0.398856 -0.897616    0.00000000  24 t-inv F
  0.000000 -0.498570 -0.997020    0.00000000  25 t-inv F
  0.100000 -0.498570 -0.797020    0.00000000  26 t-inv F
  0.200000 -0.498570 -0.597020    0.00000000  27 t-inv F
  0.300000 -0.498570 -0.397020    0.00000000  28 t-inv F
  0.400000 -0.498570 -0.197020    0.00000000  29 t-inv F
  0.500000 -0.498570  0.002980    0.00000000  30 t-inv F
  0.500000 -0.398856  0.002384    0.00000000  31 t-inv F
  0.500000 -0.299142  0.001788    0.00000000  32 t-inv F
  0.500000 -0.199428  0.001192    0.00000000  33 t-inv F
  0.500000 -0.099714  0.000596    0.00000000  34 t-inv F
  0.000000  0.000000 -0.250000    0.16666667   1 t-inv T
  0.000000 -0.333333 -0.250000    0.16666667   2 t-inv T
  0.000000  0.333333 -0.250000    0.16666667   3 t-inv T


--------------------------------------------------------------------------------------------------------




 Dimension of arrays:
   k-points           NKPTS =     34   k-points in BZ     NKDIM =     37   number of bands    NBANDS=    192
   number of dos      NEDOS =    301   number of ions     NIONS =     56
   non local maximal  LDIM  =      5   non local SUM 2l+1 LMDIM =     13
   total plane-waves  NPLWV = 172800
   max r-space proj   IRMAX =   1019   max aug-charges    IRDMAX=   2705
   dimension x,y,z NGX =    80 NGY =   40 NGZ =   54
   dimension x,y,z NGXF=   120 NGYF=   56 NGZF=   80
   support grid    NGXF=   120 NGYF=   56 NGZF=   80
   ions per type =               4  20  32
   NGX,Y,Z   is equivalent  to a cutoff of   7.03,  7.65,  7.17 a.u.
   NGXF,Y,Z  is equivalent  to a cutoff of  10.54, 10.71, 10.62 a.u.

 SYSTEM =  CIS                                     
 POSCAR =  Li4 Sb20 S32                            

 Startparameter for this run:
   NWRITE =      2    write-flag & timer
   PREC   = medium    normal or accurate (medium, high low for compatibility)
   ISTART =      0    job   : 0-new  1-cont  2-samecut
   ICHARG =      2    charge: 1-file 2-atom 10-const
   ISPIN  =      1    spin polarized calculation?
   LNONCOLLINEAR =      F non collinear calculations
   LSORBIT =      F    spin-orbit coupling
   INIWAV =      1    electr: 0-lowe 1-rand  2-diag
   LASPH  =      T    aspherical Exc in radial PAW
   METAGGA=      F    non-selfconsistent MetaGGA calc.

 Electronic Relaxation 1
   ENCUT  =  300.0 eV  22.05 Ry    4.70 a.u.  26.73 12.27 17.69*2*pi/ulx,y,z
   ENINI  =  300.0     initial cutoff
   ENAUG  =  380.5 eV  augmentation charge cutoff
   NELM   =     60;   NELMIN=  2; NELMDL= -5     # of ELM steps 
   EDIFF  = 0.1E-03   stopping-criterion for ELM
   LREAL  =      T    real-space projection
   NLSPLINE    = F    spline interpolate recip. space projectors
   LCOMPAT=      F    compatible to vasp.4.4
   GGA_COMPAT  = T    GGA compatible to vasp.4.4-vasp.4.6
   LMAXPAW     = -100 max onsite density
   LMAXMIX     =    4 max onsite mixed and CHGCAR
   VOSKOWN=      0    Vosko Wilk Nusair interpolation
   ROPT   =   -0.00200  -0.00200  -0.00200
 Ionic relaxation
   EDIFFG = -.5E-01   stopping-criterion for IOM
   NSW    =      0    number of steps for IOM
   NBLOCK =      1;   KBLOCK =      1    inner block; outer block 
   IBRION =     -1    ionic relax: 0-MD 1-quasi-New 2-CG
   NFREE  =      0    steps in history (QN), initial steepest desc. (CG)
   ISIF   =      3    stress and relaxation
   IWAVPR =     10    prediction:  0-non 1-charg 2-wave 3-comb
   ISYM   =      3    0-nonsym 1-usesym 2-fastsym
   LCORR  =      T    Harris-Foulkes like correction to forces

   POTIM  = 0.1000    time-step for ionic-motion
   TEIN   =    0.0    initial temperature
   TEBEG  =    0.0;   TEEND  =   0.0 temperature during run
   SMASS  =  -3.00    Nose mass-parameter (am)
   estimated Nose-frequenzy (Omega)   =  0.10E-29 period in steps = 0.63E+47 mass=  -0.818E-26a.u.
   SCALEE = 1.0000    scale energy and forces
   NPACO  =    256;   APACO  = 16.0  distance and # of slots for P.C.
   PSTRESS=    0.0 pullay stress

  Mass of Ions in am
   POMASS =   7.01121.75 32.07
  Ionic Valenz
   ZVAL   =   1.00  5.00  6.00
  Atomic Wigner-Seitz radii
   RWIGS  =  -1.00 -1.00 -1.00
  virtual crystal weights 
   VCA    =   1.00  1.00  1.00
   NELECT =     296.0000    total number of electrons
   NUPDOWN=      -1.0000    fix difference up-down

 DOS related values:
   EMIN   =  10.00;   EMAX   =-10.00  energy-range for DOS
   EFERMI =   0.00
   ISMEAR =     0;   SIGMA  =   0.05  broadening in eV -4-tet -1-fermi 0-gaus

 Electronic relaxation 2 (details)
   IALGO  =     38    algorithm
   LDIAG  =      T    sub-space diagonalisation (order eigenvalues)
   LSUBROT=      F    optimize rotation matrix (better conditioning)
   TURBO    =      0    0=normal 1=particle mesh
   IRESTART =      0    0=no restart 2=restart with 2 vectors
   NREBOOT  =      0    no. of reboots
   NMIN     =      0    reboot dimension
   EREF     =   0.00    reference energy to select bands
   IMIX   =      1    mixing-type and parameters
     AMIX     =   0.40;   BMIX     =  1.00
     AMIX_MAG =   1.60;   BMIX_MAG =  1.00
     AMIN     =   0.10
     WC   =   100.;   INIMIX=   1;  MIXPRE=   1;  MAXMIX= -45

 Intra band minimization:
   WEIMIN = 0.0000     energy-eigenvalue tresh-hold
   EBREAK =  0.13E-06  absolut break condition
   DEPER  =   0.30     relativ break condition  

   TIME   =   0.40     timestep for ELM

  volume/ion in A,a.u.               =      26.57       179.32
  Fermi-wavevector in a.u.,A,eV,Ry     =   0.955653  1.805922 12.425820  0.913272
  Thomas-Fermi vector in A             =   2.084510
 
 Write flags
   LWAVE        =      F    write WAVECAR
   LDOWNSAMPLE  =      F    k-point downsampling of WAVECAR
   LCHARG       =      T    write CHGCAR
   LVTOT        =      F    write LOCPOT, total local potential
   LVHAR        =      F    write LOCPOT, Hartree potential only
   LELF         =      F    write electronic localiz. function (ELF)
   LORBIT       =     10    0 simple, 1 ext, 2 COOP (PROOUT), +10 PAW based schemes


 Dipole corrections
   LMONO  =      F    monopole corrections only (constant potential shift)
   LDIPOL =      F    correct potential (dipole corrections)
   IDIPOL =      0    1-x, 2-y, 3-z, 4-all directions 
   EPSILON=  1.0000000 bulk dielectric constant

 Exchange correlation treatment:
   GGA     =    PE    GGA type
   LEXCH   =     8    internal setting for exchange type
   VOSKOWN=      0    Vosko Wilk Nusair interpolation
   EXXOEP  =     0    0=HF, 1=EXX-LHF (local Hartree Fock) 2=EXX OEP
   LHFCALC =     T    Hartree Fock is set to
   LSYMGRAD=     F    symmetrize gradient (conserves proper symmetry)
   PRECFOCK=normal    Normal, Fast or Accurate (Low or Medium for compatibility)
   LRHFCALC=     F    long range Hartree Fock
   LRSCOR  =     F    long range correlation only (use DFT for short range part)
   LTHOMAS =     F    Thomas Fermi screening in HF
   LMODELHF=     F    short range full HF, long range fraction AEXX
   LFOCKACE=     T    use Adeptively-Compressed-Exchange operator
   ENCUT4O =  -1.0   cutoff for four orbital integrals eV
   LMAXFOCK=     4    L truncation for augmentation on plane wave grid
   LMAXFOCKAE=  -1    L truncation for all-electron charge restoration on plane wave grid
   NMAXFOCKAE=   1    number of basis functions for all-electron charge restoration
   LFOCKAEDFT=     F  apply the AE augmentation even for DFT
   NKREDX  =     1    reduce k-point grid by
   NKREDY  =     1    reduce k-point grid by
   NKREDZ  =     1    reduce k-point grid by
   SHIFTRED=     F    shift reduced grid of Gamma
   HFKIDENT=     F    idential grid for each k-point
   ODDONLY =     F    use only odd q-grid points
   EVENONLY=     F    use only even q-grid points
   HFALPHA =   -1.0000 decay constant for conv. correction
   MCALPHA =    0.0000 extent of test-charge in conv. correction in multipole expansion
   AEXX    =    0.2500 exact exchange contribution
   HFSCREEN=    0.2000 screening length (either q_TF or 0.3 A-1)
   HFSCREENC=   0.2000 screening length for correlation (either q_TF or 0.3 A-1)
   HFRCUT  =    0.0000 spherical cutoff for potential kernel
   ALDAX   =    0.7500 LDA exchange part
   AGGAX   =    0.7500 GGA exchange part
   ALDAC   =    1.0000 LDA correlation
   AGGAC   =    1.0000 GGA correlation
   ENCUTFOCK=  -1.0 apply spherical cutoff to Coloumb kernel
   NBANDSGWLOW=     1    first orbital included in HF term
   NBLOCK_FOCK=    64    blocking factor in FOCK_ACC
 Linear response parameters
   LEPSILON=     F    determine dielectric tensor
   LRPA    =     F    only Hartree local field effects (RPA)
   LNABLA  =     F    use nabla operator in PAW spheres
   LVEL    =     F    velocity operator in full k-point grid
   LINTERFAST=   F  fast interpolation
   KINTER  =     0    interpolate to denser k-point grid
   CSHIFT  =0.1000    complex shift for real part using Kramers Kronig
   OMEGAMAX=  -1.0    maximum frequency
   DEG_THRESHOLD= 0.2000000E-02 threshold for treating states as degnerate
   RTIME   =   -0.100 relaxation time in fs
  (WPLASMAI=    0.000 imaginary part of plasma frequency in eV, 0.658/RTIME)
   DFIELD  = 0.0000000 0.0000000 0.0000000 field for delta impulse in time
 
 Orbital magnetization related:
   ORBITALMAG=     F  switch on orbital magnetization
   LCHIMAG   =     F  perturbation theory with respect to B field
   DQ        =  0.001000  dq finite difference perturbation B field
   LLRAUG    =     F  two centre corrections for induced B field



--------------------------------------------------------------------------------------------------------


 Static calculation
 charge density and potential will be updated during run
 non-spin polarized calculation
 Variant of blocked Davidson
 Davidson routine will perform the subspace rotation
 perform sub-space diagonalisation
    after iterative eigenvector-optimisation
 Kerker-like  mixing scheme
 using additional bands           44
 real space projection scheme for non local part
 use partial core corrections
 calculate Harris-corrections to forces 
   (improved forces if not selfconsistent)
 use gradient corrections 
 use of overlap-Matrix (Vanderbilt PP)
 Gauss-broadening in eV      SIGMA  =   0.05


--------------------------------------------------------------------------------------------------------


  energy-cutoff  :      300.00
  volume of cell :     1488.04
      direct lattice vectors                 reciprocal lattice vectors
    18.924077549  0.000000000  0.000000000     0.052842734  0.000000000  0.000000000
     0.000000000  8.690835743  0.010040476     0.000000000  0.115190871 -0.110048611
     0.000000000  8.653381010  9.057728983     0.000000000 -0.000127689  0.110524939

  length of vectors
    18.924077549  8.690841543 12.526909325     0.052842734  0.159309867  0.110525012


 
 k-points in units of 2pi/SCALE and weight: Automatically generated mesh            
   0.00000000 -0.00003192  0.02763123       0.333
   0.00000000  0.03836503 -0.00905164       0.333
   0.00000000 -0.03842888  0.06431411       0.333
   0.02642137  0.00000000  0.00000000       0.000
   0.02642137  0.00000000  0.00000000       0.000
   0.02113709 -0.00001277  0.01105249       0.000
   0.01585282 -0.00002554  0.02210499       0.000
   0.01056855 -0.00003831  0.03315748       0.000
   0.00528427 -0.00005108  0.04420998       0.000
   0.00000000 -0.00006384  0.05526247       0.000
   0.00000000 -0.00005108  0.04420998       0.000
   0.00000000 -0.00003831  0.03315748       0.000
   0.00000000 -0.00002554  0.02210499       0.000
   0.00000000 -0.00001277  0.01105249       0.000
   0.00000000  0.00000000  0.00000000       0.000
  -0.00528427  0.00001277 -0.01105249       0.000
  -0.01056855  0.00002554 -0.02210499       0.000
  -0.01585282  0.00003831 -0.03315748       0.000
  -0.02113709  0.00005108 -0.04420998       0.000
  -0.02642137  0.00006384 -0.05526247       0.000
  -0.02113709 -0.01140961 -0.05527570       0.000
  -0.01585282 -0.02288306 -0.05528894       0.000
  -0.01056855 -0.03435650 -0.05530217       0.000
  -0.00528427 -0.04582995 -0.05531540       0.000
   0.00000000 -0.05730340 -0.05532864       0.000
   0.00528427 -0.05732894 -0.03322365       0.000
   0.01056855 -0.05735448 -0.01111866       0.000
   0.01585282 -0.05738002  0.01098633       0.000
   0.02113709 -0.05740556  0.03309131       0.000
   0.02642137 -0.05743109  0.05519630       0.000
   0.02642137 -0.04594487  0.04415704       0.000
   0.02642137 -0.03445866  0.03311778       0.000
   0.02642137 -0.02297244  0.02207852       0.000
   0.02642137 -0.01148622  0.01103926       0.000
 
 k-points in reciprocal lattice and weights: Automatically generated mesh            
   0.00000000  0.00000000  0.25000000       0.333
   0.00000000  0.33333333  0.25000000       0.333
   0.00000000 -0.33333333  0.25000000       0.333
   0.50000000  0.00000000  0.00000000       0.000
   0.50000000  0.00000000  0.00000000       0.000
   0.40000000  0.00000000  0.10000000       0.000
   0.30000000  0.00000000  0.20000000       0.000
   0.20000000  0.00000000  0.30000000       0.000
   0.10000000  0.00000000  0.40000000       0.000
   0.00000000  0.00000000  0.50000000       0.000
   0.00000000  0.00000000  0.40000000       0.000
   0.00000000  0.00000000  0.30000000       0.000
   0.00000000  0.00000000  0.20000000       0.000
   0.00000000  0.00000000  0.10000000       0.000
   0.00000000  0.00000000  0.00000000       0.000
  -0.10000000  0.00000000 -0.10000000       0.000
  -0.20000000  0.00000000 -0.20000000       0.000
  -0.30000000  0.00000000 -0.30000000       0.000
  -0.40000000  0.00000000 -0.40000000       0.000
  -0.50000000  0.00000000 -0.50000000       0.000
  -0.40000000 -0.09971400 -0.59940400       0.000
  -0.30000000 -0.19942800 -0.69880800       0.000
  -0.20000000 -0.29914200 -0.79821200       0.000
  -0.10000000 -0.39885600 -0.89761600       0.000
   0.00000000 -0.49857000 -0.99702000       0.000
   0.10000000 -0.49857000 -0.79702000       0.000
   0.20000000 -0.49857000 -0.59702000       0.000
   0.30000000 -0.49857000 -0.39702000       0.000
   0.40000000 -0.49857000 -0.19702000       0.000
   0.50000000 -0.49857000  0.00298000       0.000
   0.50000000 -0.39885600  0.00238400       0.000
   0.50000000 -0.29914200  0.00178800       0.000
   0.50000000 -0.19942800  0.00119200       0.000
   0.50000000 -0.09971400  0.00059600       0.000
 
 position of ions in fractional coordinates (direct lattice) 
   0.50481722  0.93134734  0.00612368
   0.49518278  0.93134734  0.50612368
   0.05019415  0.09812834  0.78724324
   0.94980585  0.09812834  0.28724324
   0.27480451  0.21955308  0.54159246
   0.72519549  0.21955308  0.04159246
   0.45446842  0.58476447  0.43743683
   0.54553158  0.58476447  0.93743683
   0.21421543  0.37666826  0.73968128
   0.78578457  0.37666826  0.23968128
   0.26800245  0.80497908  0.98398342
   0.73199755  0.80497908  0.48398342
   0.36675921  0.64615028  0.78085996
   0.63324079  0.64615028  0.28085996
   0.12501998  0.01578819  0.46334236
   0.87498002  0.01578819  0.96334236
   0.04751434  0.57690954  0.20247751
   0.95248566  0.57690954  0.70247751
   0.14365582  0.42050776  0.02117029
   0.85634418  0.42050776  0.52117029
   0.21921426  0.81022562  0.28520916
   0.78078574  0.81022562  0.78520916
   0.34517695  0.15939360  0.26039574
   0.65482305  0.15939360  0.76039574
   0.26860798  0.82388370  0.46320409
   0.73139202  0.82388370  0.96320409
   0.22926430  0.78245334  0.80708564
   0.77073570  0.78245334  0.30708564
   0.20017787  0.43909408  0.19307377
   0.79982213  0.43909408  0.69307377
   0.40461180  0.59307180  0.99298345
   0.59538820  0.59307180  0.49298345
   0.49786547  0.57748833  0.75665670
   0.50213453  0.57748833  0.25665670
   0.00874875  0.20110538  0.41647798
   0.99125125  0.20110538  0.91647798
   0.08373380  0.65025716  0.69092185
   0.91626620  0.65025716  0.19092185
   0.03465718  0.61781962  0.98834311
   0.96534282  0.61781962  0.48834311
   0.28717557  0.16252362  0.08076130
   0.71282443  0.16252362  0.58076130
   0.09279259  0.03076382  0.26451408
   0.90720741  0.03076382  0.76451408
   0.15485483  0.40043471  0.55535693
   0.84514517  0.40043471  0.05535693
   0.32966742  0.58778653  0.32230026
   0.67033258  0.58778653  0.82230026
   0.46072615  0.97564265  0.29734365
   0.53927385  0.97564265  0.79734365
   0.32527813  0.21703942  0.72884261
   0.67472187  0.21703942  0.22884261
   0.39499865  0.03175386  0.57210768
   0.60500135  0.03175386  0.07210768
   0.16036534  0.01156545  0.95281098
   0.83963466  0.01156545  0.45281098
 
 position of ions in cartesian coordinates  (Angst):
   9.55320030  8.14717724  0.06481778
   9.37087725 12.47386774  4.59368227
   0.94987796  7.66513296  7.13162115
  17.97419959  3.33844245  2.60275666
   5.20042190  6.59470572  4.90780216
  13.72365565  2.26801521  0.37893767
   8.60039554  8.86739958  3.96805559
  10.32368201 13.19409008  8.49692009
   4.05382933  9.67430592  6.70361453
  14.87024822  5.34761541  2.17475004
   5.07169906 15.51072439  8.92073749
  13.85237848 11.18403388  4.39187300
   6.94057968 12.37266470  7.07930557
  11.98349787  8.04597419  2.55044107
   2.36588771  4.14669056  4.19698807
  16.55818984  8.47338107  8.72585256
   0.89916504  6.76594111  1.83977884
  18.02491251 11.09263161  6.36864333
   2.71855395  3.83775845  0.19597687
  16.20552360  8.16444896  4.72484137
   4.14842758  9.50956129  2.59148230
  14.77564997 13.83625179  7.12034679
   6.53215532  3.63856708  2.36019439
  12.39192223  7.96525759  6.88905888
   5.08315815 11.16851933  4.20384925
  13.84091940 15.49520984  8.73271374
   4.33861542 13.78419299  7.31821921
  14.58546213  9.45750248  2.78935472
   3.78818162  5.48683547  1.75321861
  15.13589593  9.81352598  6.28208310
   7.65690500 13.74695373  9.00012970
  11.26717255  9.42026322  4.47126521
   9.42164483 11.56649490  6.85938955
   9.50243271  7.23980440  2.33052506
   0.16556197  5.35171645  3.77436384
  18.75851558  9.67840695  8.30322833
   1.58458492 11.63008819  6.26471180
  17.33949262  7.30339769  1.73584730
   0.65585508 13.92187834  8.95834721
  18.26822247  9.59518784  4.42948272
   5.43453279  2.11132434  0.73314574
  13.48954476  6.43801485  5.26201023
   1.75601410  2.55630440  2.39620574
  17.16806345  6.88299491  6.92507023
   2.93048480  8.28582742  5.03429315
  15.99359275  3.95913691  0.50542866
   6.23865181  7.89734307  2.92521002
  12.68542574 12.22403357  7.45407451
   8.71881731 11.05217791  2.70305412
  10.20526024 15.37886842  7.23191861
   6.15558847  8.19320668  6.60383798
  12.76848908  3.86651617  2.07497349
   7.47498505  5.22663327  5.18231511
  11.44909250  0.89994276  0.65345062
   3.03476610  8.34554987  8.63041979
  15.88931145  4.01885936  4.10155530
 


--------------------------------------------------------------------------------------------------------


 k-point   1 :   0.0000 0.0000 0.2500  plane waves:   17544
 k-point   2 :   0.0000 0.3333 0.2500  plane waves:   17543
 k-point   3 :   0.0000-0.3333 0.2500  plane waves:   17555
 k-point   4 :   0.5000 0.0000 0.0000  plane waves:   17562
 k-point   5 :   0.5000 0.0000 0.0000  plane waves:   17562
 k-point   6 :   0.4000 0.0000 0.1000  plane waves:   17559
 k-point   7 :   0.3000 0.0000 0.2000  plane waves:   17548
 k-point   8 :   0.2000 0.0000 0.3000  plane waves:   17571
 k-point   9 :   0.1000 0.0000 0.4000  plane waves:   17578
 k-point  10 :   0.0000 0.0000 0.5000  plane waves:   17576
 k-point  11 :   0.0000 0.0000 0.4000  plane waves:   17581
 k-point  12 :   0.0000 0.0000 0.3000  plane waves:   17558
 k-point  13 :   0.0000 0.0000 0.2000  plane waves:   17559
 k-point  14 :   0.0000 0.0000 0.1000  plane waves:   17571
 k-point  15 :   0.0000 0.0000 0.0000  plane waves:   17589
 k-point  16 :  -0.1000 0.0000-0.1000  plane waves:   17568
 k-point  17 :  -0.2000 0.0000-0.2000  plane waves:   17557
 k-point  18 :  -0.3000 0.0000-0.3000  plane waves:   17555
 k-point  19 :  -0.4000 0.0000-0.4000  plane waves:   17562
 k-point  20 :  -0.5000 0.0000-0.5000  plane waves:   17592
 k-point  21 :  -0.4000-0.0997-0.5994  plane waves:   17575
 k-point  22 :  -0.3000-0.1994-0.6988  plane waves:   17550
 k-point  23 :  -0.2000-0.2991-0.7982  plane waves:   17565
 k-point  24 :  -0.1000-0.3989-0.8976  plane waves:   17550
 k-point  25 :   0.0000-0.4986-0.9970  plane waves:   17541
 k-point  26 :   0.1000-0.4986-0.7970  plane waves:   17541
 k-point  27 :   0.2000-0.4986-0.5970  plane waves:   17561
 k-point  28 :   0.3000-0.4986-0.3970  plane waves:   17550
 k-point  29 :   0.4000-0.4986-0.1970  plane waves:   17574
 k-point  30 :   0.5000-0.4986 0.0030  plane waves:   17558
 k-point  31 :   0.5000-0.3989 0.0024  plane waves:   17584
 k-point  32 :   0.5000-0.2991 0.0018  plane waves:   17548
 k-point  33 :   0.5000-0.1994 0.0012  plane waves:   17556
 k-point  34 :   0.5000-0.0997 0.0006  plane waves:   17574

 maximum and minimum number of plane-waves per node :     17592    17541

 maximum number of plane-waves:     17592
 maximum index in each direction: 
   IXMAX=   27   IYMAX=   12   IZMAX=   18
   IXMIN=  -27   IYMIN=  -12   IZMIN=  -18


 serial   3D FFT for wavefunctions
 parallel 3D FFT for charge:
    minimum data exchange during FFTs selected (reduces bandwidth)


 FFT grid for exact exchange (Hartree Fock) 
  NGX = 84; NGY = 40; NGZ = 54

 
 Radii for the augmentation spheres in the non-local exchange
 for species   1 augmentation radius   1.219 (default was   0.975)
       energy cutoff for augmentation   1200.0
 for species   2 augmentation radius   1.464 (default was   1.171)
       energy cutoff for augmentation   1200.0
 for species   3 augmentation radius   1.212 (default was   0.970)
       energy cutoff for augmentation   1200.0
 Maximum index for augmentation-charges in exchange         1610
  SETUP_FOCK is finished

 total amount of memory used by VASP MPI-rank0   178833. kBytes
=======================================================================

   base      :      30000. kBytes
   nonlr-proj:      16391. kBytes
   fftplans  :       3900. kBytes
   grid      :       9543. kBytes
   one-center:        454. kBytes
   HF        :        101. kBytes
   wavefun   :     118444. kBytes
 
     INWAV:  cpu time    0.0000: real time    0.0001
 initial charge density was supplied:
 charge density of overlapping atoms calculated
 number of electron     296.0000000 magnetization 
 keeping initial charge density in first step


--------------------------------------------------------------------------------------------------------


 Maximum index for non-local projection operator          950
 Maximum index for augmentation-charges          326 (set IRDMAX)


--------------------------------------------------------------------------------------------------------


 First call to EWALD:  gamma=   0.155
 Maximum number of real-space cells 2x 5x 3
 Maximum number of reciprocal cells 4x 2x 3

    FEWALD:  cpu time    0.0020: real time    0.0026


--------------------------------------- Iteration      1(   1)  ---------------------------------------


    POTLOK:  cpu time    0.0401: real time    0.0417
    SETDIJ:  cpu time    0.4693: real time    0.4703
     EDDAV:  cpu time   21.9252: real time   21.9562
       DOS:  cpu time    0.0013: real time    0.0013
    --------------------------------------------
      LOOP:  cpu time   22.4360: real time   22.4695

 eigenvalue-minimisations  : 13056
 total energy-change (2. order) :-0.2580669E+05  (-0.8278719E+04)
 number of electron     296.0000000 magnetization 
 augmentation part      296.0000000 magnetization 

 Free energy of the ion-electron system (eV)
  ---------------------------------------------------
  alpha Z        PSCENC =       114.80077763
  Ewald energy   TEWEN  =    -10258.44930362
  -Hartree energ DENC   =     -2050.29204731
  -exchange      EXHF   =         0.00000000
  -V(xc)+E(xc)   XCENC  =      -551.07562163
  PAW double counting   =     10263.73208800   -36031.76707961
  entropy T*S    EENTRO =        -0.02476032
  eigenvalues    EBANDS =       908.94221942
  atomic energy  EATOM  =     11797.44236444
  Solvation  Ediel_sol  =         0.00000000
  ---------------------------------------------------
  free energy    TOTEN  =    -25806.69136300 eV

  energy without entropy =   -25806.66660268  energy(sigma->0) =   -25806.67898284
  exchange ACFDT corr.  =         0.00000000  see jH, gK, PRB 81, 115126


--------------------------------------------------------------------------------------------------------




--------------------------------------- Iteration      1(   2)  ---------------------------------------


     EDDAV:  cpu time   26.7223: real time   26.7524
       DOS:  cpu time    0.0009: real time    0.0009
    --------------------------------------------
      LOOP:  cpu time   26.7232: real time   26.7533

 eigenvalue-minimisations  : 16960
 total energy-change (2. order) :-0.1524488E+04  (-0.1462573E+04)
 number of electron     296.0000000 magnetization 
 augmentation part      296.0000000 magnetization 

 Free energy of the ion-electron system (eV)
  ---------------------------------------------------
  alpha Z        PSCENC =       114.80077763
  Ewald energy   TEWEN  =    -10258.44930362
  -Hartree energ DENC   =     -2050.29204731
  -exchange      EXHF   =         0.00000000
  -V(xc)+E(xc)   XCENC  =      -551.07562163
  PAW double counting   =     10263.73208800   -36031.76707961
  entropy T*S    EENTRO =        -0.00000000
  eigenvalues    EBANDS =      -615.57081397
  atomic energy  EATOM  =     11797.44236444
  Solvation  Ediel_sol  =         0.00000000
  ---------------------------------------------------
  free energy    TOTEN  =    -27331.17963607 eV

  energy without entropy =   -27331.17963607  energy(sigma->0) =   -27331.17963607
  exchange ACFDT corr.  =         0.00000000  see jH, gK, PRB 81, 115126


--------------------------------------------------------------------------------------------------------




--------------------------------------- Iteration      1(   3)  ---------------------------------------


     EDDAV:  cpu time   24.4675: real time   24.5037
       DOS:  cpu time    0.0010: real time    0.0010
    --------------------------------------------
      LOOP:  cpu time   24.4685: real time   24.5047

 eigenvalue-minimisations  : 15200
 total energy-change (2. order) :-0.1717944E+03  (-0.1692152E+03)
 number of electron     296.0000000 magnetization 
 augmentation part      296.0000000 magnetization 

 Free energy of the ion-electron system (eV)
  ---------------------------------------------------
  alpha Z        PSCENC =       114.80077763
  Ewald energy   TEWEN  =    -10258.44930362
  -Hartree energ DENC   =     -2050.29204731
  -exchange      EXHF   =         0.00000000
  -V(xc)+E(xc)   XCENC  =      -551.07562163
  PAW double counting   =     10263.73208800   -36031.76707961
  entropy T*S    EENTRO =        -0.00000000
  eigenvalues    EBANDS =      -787.36522580
  atomic energy  EATOM  =     11797.44236444
  Solvation  Ediel_sol  =         0.00000000
  ---------------------------------------------------
  free energy    TOTEN  =    -27502.97404790 eV

  energy without entropy =   -27502.97404790  energy(sigma->0) =   -27502.97404790
  exchange ACFDT corr.  =         0.00000000  see jH, gK, PRB 81, 115126


--------------------------------------------------------------------------------------------------------




--------------------------------------- Iteration      1(   4)  ---------------------------------------


     EDDAV:  cpu time   27.9818: real time   28.0153
       DOS:  cpu time    0.0008: real time    0.0008
    --------------------------------------------
      LOOP:  cpu time   27.9826: real time   28.0161

 eigenvalue-minimisations  : 17984
 total energy-change (2. order) :-0.6183080E+01  (-0.6142842E+01)
 number of electron     296.0000000 magnetization 
 augmentation part      296.0000000 magnetization 

 Free energy of the ion-electron system (eV)
  ---------------------------------------------------
  alpha Z        PSCENC =       114.80077763
  Ewald energy   TEWEN  =    -10258.44930362
  -Hartree energ DENC   =     -2050.29204731
  -exchange      EXHF   =         0.00000000
  -V(xc)+E(xc)   XCENC  =      -551.07562163
  PAW double counting   =     10263.73208800   -36031.76707961
  entropy T*S    EENTRO =        -0.00000000
  eigenvalues    EBANDS =      -793.54830567
  atomic energy  EATOM  =     11797.44236444
  Solvation  Ediel_sol  =         0.00000000
  ---------------------------------------------------
  free energy    TOTEN  =    -27509.15712777 eV

  energy without entropy =   -27509.15712777  energy(sigma->0) =   -27509.15712777
  exchange ACFDT corr.  =         0.00000000  see jH, gK, PRB 81, 115126


--------------------------------------------------------------------------------------------------------




--------------------------------------- Iteration      1(   5)  ---------------------------------------


    POTLOK:  cpu time    0.0667: real time    0.0669
    SETDIJ:  cpu time    0.9431: real time    0.9438
     EDDAV:  cpu time 4590.4877: real time 4600.2253
       DOS:  cpu time    0.0008: real time    0.0009
    CHARGE:  cpu time    0.2489: real time    0.2492
    MIXING:  cpu time    0.0007: real time    0.0008
    --------------------------------------------
      LOOP:  cpu time 4591.7479: real time 4601.4869

 eigenvalue-minimisations  : 13600
 total energy-change (2. order) : 0.2719605E+05  (-0.1063218E+02)
 number of electron     295.9999818 magnetization 
 augmentation part      -42.5862551 magnetization 

 Free energy of the ion-electron system (eV)
  ---------------------------------------------------
  alpha Z        PSCENC =       114.80077763
  Ewald energy   TEWEN  =    -10258.44930362
  -Hartree energ DENC   =     -2050.29204731
  -exchange      EXHF   =       507.66243722
  -V(xc)+E(xc)   XCENC  =      -458.61777036
  PAW double counting   =     10156.11444957    -9191.18578040
  entropy T*S    EENTRO =        -0.00000000
  eigenvalues    EBANDS =      -930.57813094
  atomic energy  EATOM  =     11797.44236444
  Solvation  Ediel_sol  =         0.00000000
  ---------------------------------------------------
  free energy    TOTEN  =      -313.10300376 eV

  energy without entropy =     -313.10300376  energy(sigma->0) =     -313.10300376
  exchange ACFDT corr.  =         0.00000000  see jH, gK, PRB 81, 115126


--------------------------------------------------------------------------------------------------------




--------------------------------------- Iteration      1(   6)  ---------------------------------------


    POTLOK:  cpu time    0.0660: real time    0.0665
    SETDIJ:  cpu time    0.9572: real time    0.9581
     EDDAV:  cpu time 4641.5422: real time 4651.8925
       DOS:  cpu time    0.0009: real time    0.0009
    CHARGE:  cpu time    0.2442: real time    0.2444
    MIXING:  cpu time    0.0008: real time    0.0008
    --------------------------------------------
      LOOP:  cpu time 4642.8112: real time 4653.1631

 eigenvalue-minimisations  : 14688
 total energy-change (2. order) : 0.1784863E+02  (-0.3041555E+01)
 number of electron     295.9999714 magnetization 
 augmentation part      -41.4486465 magnetization 

 Free energy of the ion-electron system (eV)
  ---------------------------------------------------
  alpha Z        PSCENC =       114.80077763
  Ewald energy   TEWEN  =    -10258.44930362
  -Hartree energ DENC   =     -2168.85152157
  -exchange      EXHF   =       505.25778703
  -V(xc)+E(xc)   XCENC  =      -450.77924420
  PAW double counting   =     20293.72993281   -19332.49420454
  entropy T*S    EENTRO =        -0.00000000
  eigenvalues    EBANDS =      -795.91095873
  atomic energy  EATOM  =     11797.44236444
  Solvation  Ediel_sol  =         0.00000000
  ---------------------------------------------------
  free energy    TOTEN  =      -295.25437075 eV

  energy without entropy =     -295.25437075  energy(sigma->0) =     -295.25437075
  exchange ACFDT corr.  =         0.00000000  see jH, gK, PRB 81, 115126


--------------------------------------------------------------------------------------------------------




--------------------------------------- Iteration      1(   7)  ---------------------------------------


    POTLOK:  cpu time    0.0653: real time    0.0656
    SETDIJ:  cpu time    0.9448: real time    0.9461
     EDDAV:  cpu time 4647.0458: real time 4656.6989
       DOS:  cpu time    0.0009: real time    0.0009
    CHARGE:  cpu time    0.1755: real time    0.1757
    MIXING:  cpu time    0.0008: real time    0.0008
    --------------------------------------------
      LOOP:  cpu time 4648.2330: real time 4657.8880

 eigenvalue-minimisations  : 14720
 total energy-change (2. order) :-0.1034728E+01  (-0.1681530E+01)
 number of electron     295.9999655 magnetization 
 augmentation part      -41.1157498 magnetization 

 Free energy of the ion-electron system (eV)
  ---------------------------------------------------
  alpha Z        PSCENC =       114.80077763
  Ewald energy   TEWEN  =    -10258.44930362
  -Hartree energ DENC   =     -2201.90209368
  -exchange      EXHF   =       492.32741065
  -V(xc)+E(xc)   XCENC  =      -447.76904119
  PAW double counting   =     34131.89120651   -33171.36943923
  entropy T*S    EENTRO =        -0.00000000
  eigenvalues    EBANDS =      -753.26098041
  atomic energy  EATOM  =     11797.44236444
  Solvation  Ediel_sol  =         0.00000000
  ---------------------------------------------------
  free energy    TOTEN  =      -296.28909890 eV

  energy without entropy =     -296.28909890  energy(sigma->0) =     -296.28909890
  exchange ACFDT corr.  =         0.00000000  see jH, gK, PRB 81, 115126


--------------------------------------------------------------------------------------------------------




--------------------------------------- Iteration      1(   8)  ---------------------------------------


    POTLOK:  cpu time    0.0586: real time    0.0605
    SETDIJ:  cpu time    0.9407: real time    0.9459
     EDDAV:  cpu time 4693.6098: real time 4707.0016
       DOS:  cpu time    0.0008: real time    0.0009
    CHARGE:  cpu time    0.2543: real time    0.2546
    MIXING:  cpu time    0.0005: real time    0.0006
    --------------------------------------------
      LOOP:  cpu time 4694.8647: real time 4708.2641

 eigenvalue-minimisations  : 16320
 total energy-change (2. order) :-0.2568970E+00  (-0.1131982E+00)
 number of electron     295.9999619 magnetization 
 augmentation part      -41.2089896 magnetization 

 Free energy of the ion-electron system (eV)
  ---------------------------------------------------
  alpha Z        PSCENC =       114.80077763
  Ewald energy   TEWEN  =    -10258.44930362
  -Hartree energ DENC   =     -2191.72379083
  -exchange      EXHF   =       484.54034385
  -V(xc)+E(xc)   XCENC  =      -447.63074539
  PAW double counting   =     46492.01321910   -45531.05445459
  entropy T*S    EENTRO =        -0.00000000
  eigenvalues    EBANDS =      -756.48440645
  atomic energy  EATOM  =     11797.44236444
  Solvation  Ediel_sol  =         0.00000000
  ---------------------------------------------------
  free energy    TOTEN  =      -296.54599586 eV

  energy without entropy =     -296.54599586  energy(sigma->0) =     -296.54599586
  exchange ACFDT corr.  =         0.00000000  see jH, gK, PRB 81, 115126


--------------------------------------------------------------------------------------------------------




--------------------------------------- Iteration      1(   9)  ---------------------------------------


    POTLOK:  cpu time    0.0683: real time    0.0690
    SETDIJ:  cpu time    0.9345: real time    0.9404
     EDDAV:  cpu time 4527.1404: real time 4547.0997
       DOS:  cpu time    0.0012: real time    0.0012
    CHARGE:  cpu time    0.1491: real time    0.1493
    MIXING:  cpu time    0.0006: real time    0.0006
    --------------------------------------------
      LOOP:  cpu time 4528.2941: real time 4548.2601

 eigenvalue-minimisations  : 15008
 total energy-change (2. order) : 0.2202353E+00  (-0.3057493E-01)
 number of electron     295.9999597 magnetization 
 augmentation part      -41.3057471 magnetization 

 Free energy of the ion-electron system (eV)
  ---------------------------------------------------
  alpha Z        PSCENC =       114.80077763
  Ewald energy   TEWEN  =    -10258.44930362
  -Hartree energ DENC   =     -2183.11893489
  -exchange      EXHF   =       483.94548731
  -V(xc)+E(xc)   XCENC  =      -447.71717558
  PAW double counting   =     54435.72279473   -53474.49939908
  entropy T*S    EENTRO =        -0.00000000
  eigenvalues    EBANDS =      -764.45237154
  atomic energy  EATOM  =     11797.44236444
  Solvation  Ediel_sol  =         0.00000000
  ---------------------------------------------------
  free energy    TOTEN  =      -296.32576060 eV

  energy without entropy =     -296.32576060  energy(sigma->0) =     -296.32576060
  exchange ACFDT corr.  =         0.00000000  see jH, gK, PRB 81, 115126


--------------------------------------------------------------------------------------------------------




--------------------------------------- Iteration      1(  10)  ---------------------------------------


    POTLOK:  cpu time    0.0572: real time    0.0585
    SETDIJ:  cpu time    0.9178: real time    0.9318
     EDDAV:  cpu time 4555.7424: real time 4575.8807
       DOS:  cpu time    0.0014: real time    0.0014
    CHARGE:  cpu time    0.2454: real time    0.2456
    MIXING:  cpu time    0.0006: real time    0.0006
    --------------------------------------------
      LOOP:  cpu time 4556.9648: real time 4577.1185

 eigenvalue-minimisations  : 15232
 total energy-change (2. order) : 0.3189297E-03  (-0.1890849E-01)
 number of electron     295.9999583 magnetization 
 augmentation part      -41.3649875 magnetization 

 Free energy of the ion-electron system (eV)
  ---------------------------------------------------
  alpha Z        PSCENC =       114.80077763
  Ewald energy   TEWEN  =    -10258.44930362
  -Hartree energ DENC   =     -2182.18466211
  -exchange      EXHF   =       484.95164241
  -V(xc)+E(xc)   XCENC  =      -447.54583780
  PAW double counting   =     58931.64329648   -57970.40877022
  entropy T*S    EENTRO =        -0.00000000
  eigenvalues    EBANDS =      -766.57494889
  atomic energy  EATOM  =     11797.44236444
  Solvation  Ediel_sol  =         0.00000000
  ---------------------------------------------------
  free energy    TOTEN  =      -296.32544167 eV

  energy without entropy =     -296.32544167  energy(sigma->0) =     -296.32544167
  exchange ACFDT corr.  =         0.00000000  see jH, gK, PRB 81, 115126


--------------------------------------------------------------------------------------------------------




--------------------------------------- Iteration      1(  11)  ---------------------------------------


    POTLOK:  cpu time    0.0672: real time    0.0677
    SETDIJ:  cpu time    0.9534: real time    0.9540
     EDDAV:  cpu time 4680.7140: real time 4696.3009
       DOS:  cpu time    0.0009: real time    0.0009
    CHARGE:  cpu time    0.2285: real time    0.2288
    MIXING:  cpu time    0.0005: real time    0.0005
    --------------------------------------------
      LOOP:  cpu time 4681.9646: real time 4697.5528

 eigenvalue-minimisations  : 15360
 total energy-change (2. order) :-0.5132688E-03  (-0.1243031E-02)
 number of electron     295.9999575 magnetization 
 augmentation part      -41.3741353 magnetization 

 Free energy of the ion-electron system (eV)
  ---------------------------------------------------
  alpha Z        PSCENC =       114.80077763
  Ewald energy   TEWEN  =    -10258.44930362
  -Hartree energ DENC   =     -2184.82206562
  -exchange      EXHF   =       485.60953200
  -V(xc)+E(xc)   XCENC  =      -447.27391600
  PAW double counting   =     61520.46101833   -60559.29806041
  entropy T*S    EENTRO =        -0.00000000
  eigenvalues    EBANDS =      -764.79630169
  atomic energy  EATOM  =     11797.44236444
  Solvation  Ediel_sol  =         0.00000000
  ---------------------------------------------------
  free energy    TOTEN  =      -296.32595494 eV

  energy without entropy =     -296.32595494  energy(sigma->0) =     -296.32595494
  exchange ACFDT corr.  =         0.00000000  see jH, gK, PRB 81, 115126


--------------------------------------------------------------------------------------------------------




--------------------------------------- Iteration      1(  12)  ---------------------------------------


    POTLOK:  cpu time    0.0625: real time    0.0639
    SETDIJ:  cpu time    0.9301: real time    0.9399
     EDDAV:  cpu time 4817.4463: real time 4830.4796
       DOS:  cpu time    0.0013: real time    0.0013
    CHARGE:  cpu time    0.2507: real time    0.2509
    MIXING:  cpu time    0.0005: real time    0.0005
    --------------------------------------------
      LOOP:  cpu time 4818.6914: real time 4831.7361

 eigenvalue-minimisations  : 15136
 total energy-change (2. order) : 0.6974119E-03  (-0.6677535E-03)
 number of electron     295.9999570 magnetization 
 augmentation part      -41.3782545 magnetization 

 Free energy of the ion-electron system (eV)
  ---------------------------------------------------
  alpha Z        PSCENC =       114.80077763
  Ewald energy   TEWEN  =    -10258.44930362
  -Hartree energ DENC   =     -2186.92114163
  -exchange      EXHF   =       485.63355855
  -V(xc)+E(xc)   XCENC  =      -447.08676496
  PAW double counting   =     63138.34025109   -62177.22373702
  entropy T*S    EENTRO =        -0.00000000
  eigenvalues    EBANDS =      -762.86126202
  atomic energy  EATOM  =     11797.44236444
  Solvation  Ediel_sol  =         0.00000000
  ---------------------------------------------------
  free energy    TOTEN  =      -296.32525753 eV

  energy without entropy =     -296.32525753  energy(sigma->0) =     -296.32525753
  exchange ACFDT corr.  =         0.00000000  see jH, gK, PRB 81, 115126


--------------------------------------------------------------------------------------------------------




--------------------------------------- Iteration      1(  13)  ---------------------------------------


    POTLOK:  cpu time    0.0648: real time    0.0662
    SETDIJ:  cpu time    0.9242: real time    0.9389
     EDDAV:  cpu time 4641.3305: real time 4655.9644
       DOS:  cpu time    0.0008: real time    0.0008
    CHARGE:  cpu time    0.2538: real time    0.2541
    MIXING:  cpu time    0.0006: real time    0.0006
    --------------------------------------------
      LOOP:  cpu time 4642.5748: real time 4657.2250

 eigenvalue-minimisations  : 15296
 total energy-change (2. order) :-0.1415978E-02  (-0.3305372E-03)
 number of electron     295.9999567 magnetization 
 augmentation part      -41.3802921 magnetization 

 Free energy of the ion-electron system (eV)
  ---------------------------------------------------
  alpha Z        PSCENC =       114.80077763
  Ewald energy   TEWEN  =    -10258.44930362
  -Hartree energ DENC   =     -2188.02556224
  -exchange      EXHF   =       485.52704861
  -V(xc)+E(xc)   XCENC  =      -446.98910572
  PAW double counting   =     64159.39904068   -63198.29982351
  entropy T*S    EENTRO =        -0.00000000
  eigenvalues    EBANDS =      -761.73210977
  atomic energy  EATOM  =     11797.44236444
  Solvation  Ediel_sol  =         0.00000000
  ---------------------------------------------------
  free energy    TOTEN  =      -296.32667351 eV

  energy without entropy =     -296.32667351  energy(sigma->0) =     -296.32667351
  exchange ACFDT corr.  =         0.00000000  see jH, gK, PRB 81, 115126


--------------------------------------------------------------------------------------------------------




--------------------------------------- Iteration      1(  14)  ---------------------------------------


    POTLOK:  cpu time    0.0677: real time    0.0689
    SETDIJ:  cpu time    0.9411: real time    0.9431
     EDDAV:  cpu time 4673.8711: real time 4691.7415
       DOS:  cpu time    0.0009: real time    0.0009
    CHARGE:  cpu time    0.2514: real time    0.2517
    MIXING:  cpu time    0.0005: real time    0.0005
    --------------------------------------------
      LOOP:  cpu time 4675.1328: real time 4693.0067

 eigenvalue-minimisations  : 13600
 total energy-change (2. order) :-0.8939092E-03  (-0.4647234E-04)
 number of electron     295.9999565 magnetization 
 augmentation part      -41.3814473 magnetization 

 Free energy of the ion-electron system (eV)
  ---------------------------------------------------
  alpha Z        PSCENC =       114.80077763
  Ewald energy   TEWEN  =    -10258.44930362
  -Hartree energ DENC   =     -2188.52479426
  -exchange      EXHF   =       485.45323567
  -V(xc)+E(xc)   XCENC  =      -446.94292153
  PAW double counting   =     64782.29194141   -63821.19625245
  entropy T*S    EENTRO =        -0.00000000
  eigenvalues    EBANDS =      -761.20261470
  atomic energy  EATOM  =     11797.44236444
  Solvation  Ediel_sol  =         0.00000000
  ---------------------------------------------------
  free energy    TOTEN  =      -296.32756742 eV

  energy without entropy =     -296.32756742  energy(sigma->0) =     -296.32756742
  exchange ACFDT corr.  =         0.00000000  see jH, gK, PRB 81, 115126


--------------------------------------------------------------------------------------------------------




--------------------------------------- Iteration      1(  15)  ---------------------------------------


    POTLOK:  cpu time    0.0652: real time    0.0656
    SETDIJ:  cpu time    0.9430: real time    0.9440
     EDDAV:  cpu time 4721.8863: real time 4739.0140
       DOS:  cpu time    0.0008: real time    0.0008
    CHARGE:  cpu time    0.1694: real time    0.1696
    MIXING:  cpu time    0.0005: real time    0.0005
    --------------------------------------------
      LOOP:  cpu time 4723.0652: real time 4740.1946

 eigenvalue-minimisations  : 12400
 total energy-change (2. order) :-0.5405310E-03  (-0.2962945E-04)
 number of electron     295.9999564 magnetization 
 augmentation part      -41.3828105 magnetization 

 Free energy of the ion-electron system (eV)
  ---------------------------------------------------
  alpha Z        PSCENC =       114.80077763
  Ewald energy   TEWEN  =    -10258.44930362
  -Hartree energ DENC   =     -2188.85393045
  -exchange      EXHF   =       485.44227657
  -V(xc)+E(xc)   XCENC  =      -446.91432051
  PAW double counting   =     65151.57720566   -64190.48311639
  entropy T*S    EENTRO =        -0.00000000
  eigenvalues    EBANDS =      -760.89006128
  atomic energy  EATOM  =     11797.44236444
  Solvation  Ediel_sol  =         0.00000000
  ---------------------------------------------------
  free energy    TOTEN  =      -296.32810795 eV

  energy without entropy =     -296.32810795  energy(sigma->0) =     -296.32810795
  exchange ACFDT corr.  =         0.00000000  see jH, gK, PRB 81, 115126


[...]
   49        1.348   2.351   0.000   3.698
   50        1.348   2.351   0.000   3.698
   51        1.356   2.329   0.000   3.685
   52        1.356   2.329   0.000   3.685
   53        1.344   2.363   0.000   3.707
   54        1.344   2.363   0.000   3.707
   55        1.350   2.350   0.000   3.700
   56        1.350   2.350   0.000   3.700
--------------------------------------------------
tot         69.595  96.130   1.465 167.190
 
    CHARGE:  cpu time    0.1556: real time    0.1559
    FORLOC:  cpu time    0.0104: real time    0.0104
    FORHF :  cpu time 6785.2415: real time 6797.3610
    FORNL :  cpu time    4.6566: real time    4.6624
    STRESS:  cpu time   13.9899: real time   14.0082
    FORCOR:  cpu time    0.0682: real time    0.0683
    FORHAR:  cpu time    0.0170: real time    0.0170
    MIXING:  cpu time    0.0004: real time    0.0004
    OFIELD:  cpu time    0.0001: real time    0.0001

  FORCE on cell =-STRESS in cart. coord.  units (eV):
  Direction    XX          YY          ZZ          XY          YZ          ZX
  --------------------------------------------------------------------------------------
  Alpha Z   114.80078   114.80078   114.80078
  Ewald   -3577.21366 -3545.94635 -3135.34733    -0.00000  -206.50836    -0.00000
  Hartree   575.34605   732.36032   882.19820    -0.00003  -144.82929     0.00001
  E(xc)    -821.37594  -824.84294  -822.88743    -0.00000    -2.34255     0.00000
  Local   -2352.92894 -2573.98761 -3081.82219     0.00003   342.84437    -0.00001
  n-local  3770.70796  3799.64776  3781.57968     0.00001    19.63796    -0.00001
  augment  -868.97303  -877.35573  -868.30269    -0.00000    -3.68929    -0.00000
  Kinetic  3220.47479  3234.25186  3190.18421    -0.00000    -7.15828     0.00001
  Fock      -82.90843   -81.16196   -83.35512     0.00000     0.60312     0.00000
  -------------------------------------------------------------------------------------
  Total     -22.07043   -22.23387   -22.95189     0.00000    -1.44231     0.00000
  in kB     -23.76323   -23.93920   -24.71230     0.00000    -1.55294     0.00000
  external pressure =      -24.14 kB  Pullay stress =        0.00 kB


 VOLUME and BASIS-vectors are now :
 -----------------------------------------------------------------------------
  energy-cutoff  :      300.00
  volume of cell :     1488.04
      direct lattice vectors                 reciprocal lattice vectors
    18.924077549  0.000000000  0.000000000     0.052842734  0.000000000  0.000000000
     0.000000000  8.690835743  0.010040476     0.000000000  0.115190871 -0.110048611
     0.000000000  8.653381010  9.057728983     0.000000000 -0.000127689  0.110524939

  length of vectors
    18.924077549  8.690841543 12.526909325     0.052842734  0.159309867  0.110525012


 FORCES acting on ions
    electron-ion (+dipol)            ewald-force                    non-local-force                 convergence-correction
 -----------------------------------------------------------------------------------------------
   0.140E+02 -.659E+01 0.651E+01   -.129E+02 0.596E+01 -.613E+01   -.104E+01 0.629E+00 -.359E+00   0.580E-03 -.660E-03 0.954E-04
   -.140E+02 -.659E+01 0.651E+01   0.129E+02 0.596E+01 -.613E+01   0.104E+01 0.629E+00 -.359E+00   -.577E-03 -.658E-03 0.912E-04
   -.833E+00 0.777E+01 0.739E+01   0.808E+00 -.721E+01 -.680E+01   0.570E-01 -.575E+00 -.567E+00   0.113E-03 0.748E-05 0.505E-04
   0.833E+00 0.777E+01 0.739E+01   -.808E+00 -.721E+01 -.680E+01   -.570E-01 -.575E+00 -.567E+00   -.115E-03 0.596E-05 0.483E-04
   -.677E+00 0.232E+02 0.156E+02   -.681E+01 -.314E+02 -.190E+02   0.750E+01 0.815E+01 0.330E+01   0.542E-02 0.330E-03 -.155E-03
   0.677E+00 0.232E+02 0.156E+02   0.681E+01 -.314E+02 -.190E+02   -.750E+01 0.815E+01 0.330E+01   -.542E-02 0.328E-03 -.133E-03
   -.303E+01 0.319E+00 -.414E+02   -.157E+00 -.185E+01 0.535E+02   0.324E+01 0.145E+01 -.121E+02   0.252E-02 0.590E-04 0.236E-02
   0.303E+01 0.319E+00 -.414E+02   0.157E+00 -.185E+01 0.535E+02   -.324E+01 0.145E+01 -.121E+02   -.252E-02 0.720E-04 0.239E-02
   -.182E+02 -.381E+02 -.172E+02   0.196E+02 0.497E+02 0.187E+02   -.157E+01 -.117E+02 -.151E+01   0.704E-02 0.751E-03 0.171E-02
   0.182E+02 -.381E+02 -.172E+02   -.196E+02 0.497E+02 0.187E+02   0.157E+01 -.117E+02 -.151E+01   -.705E-02 0.746E-03 0.169E-02
   -.573E+02 -.253E+02 -.194E+02   0.668E+02 0.292E+02 0.245E+02   -.948E+01 -.386E+01 -.505E+01   0.107E-01 0.338E-02 0.593E-03
   0.573E+02 -.253E+02 -.194E+02   -.668E+02 0.292E+02 0.245E+02   0.948E+01 -.386E+01 -.505E+01   -.107E-01 0.338E-02 0.562E-03
   -.112E+02 0.521E+02 0.220E+01   0.380E+01 -.622E+02 -.265E+01   0.736E+01 0.993E+01 0.366E+00   0.749E-02 -.505E-02 0.113E-02
   0.112E+02 0.521E+02 0.220E+01   -.380E+01 -.622E+02 -.265E+01   -.736E+01 0.993E+01 0.366E+00   -.748E-02 -.506E-02 0.110E-02
   -.133E+02 -.276E+02 -.266E+02   0.233E+02 0.346E+02 0.284E+02   -.100E+02 -.683E+01 -.180E+01   0.225E-02 0.196E-02 0.173E-02
   0.133E+02 -.276E+02 -.266E+02   -.233E+02 0.346E+02 0.284E+02   0.100E+02 -.683E+01 -.180E+01   -.226E-02 0.196E-02 0.175E-02
   -.176E+02 -.464E+02 -.138E+02   0.253E+02 0.563E+02 0.149E+02   -.770E+01 -.964E+01 -.114E+01   0.132E-02 0.298E-02 0.114E-02
   0.176E+02 -.464E+02 -.138E+02   -.253E+02 0.563E+02 0.149E+02   0.770E+01 -.964E+01 -.114E+01   -.133E-02 0.297E-02 0.115E-02
   0.849E+01 0.334E+02 0.257E+02   -.647E+01 -.425E+02 -.318E+02   -.201E+01 0.920E+01 0.622E+01   0.241E-02 -.187E-02 -.983E-03
   -.849E+01 0.334E+02 0.257E+02   0.647E+01 -.425E+02 -.318E+02   0.201E+01 0.920E+01 0.622E+01   -.241E-02 -.187E-02 -.995E-03
   0.200E+02 0.268E+02 0.152E+02   -.281E+02 -.332E+02 -.185E+02   0.800E+01 0.641E+01 0.332E+01   0.469E-02 -.174E-02 -.154E-02
   -.200E+02 0.268E+02 0.152E+02   0.281E+02 -.332E+02 -.185E+02   -.800E+01 0.641E+01 0.332E+01   -.469E-02 -.173E-02 -.151E-02
   -.531E+02 -.311E+02 -.198E+01   0.530E+02 0.426E+02 0.321E+01   0.141E-01 -.115E+02 -.112E+01   0.899E-02 0.628E-03 -.113E-02
   0.531E+02 -.311E+02 -.198E+01   -.530E+02 0.426E+02 0.321E+01   -.141E-01 -.115E+02 -.112E+01   -.897E-02 0.618E-03 -.110E-02
   -.401E+02 -.179E+02 -.476E+02   0.405E+02 0.191E+02 0.515E+02   -.445E+00 -.131E+01 -.390E+01   0.840E-02 -.360E-03 0.138E-02
   0.401E+02 -.179E+02 -.476E+02   -.405E+02 0.191E+02 0.515E+02   0.445E+00 -.131E+01 -.390E+01   -.841E-02 -.359E-03 0.138E-02
   0.137E+02 0.254E+02 0.352E+02   -.155E+02 -.272E+02 -.378E+02   0.178E+01 0.190E+01 0.274E+01   0.562E-02 -.227E-04 -.103E-02
   -.137E+02 0.254E+02 0.352E+02   0.155E+02 -.272E+02 -.378E+02   -.178E+01 0.190E+01 0.274E+01   -.562E-02 -.455E-05 -.106E-02
   -.254E+02 -.254E+02 -.394E+02   0.267E+02 0.266E+02 0.432E+02   -.127E+01 -.129E+01 -.378E+01   0.624E-02 0.161E-02 0.109E-02
   0.254E+02 -.254E+02 -.394E+02   -.267E+02 0.266E+02 0.432E+02   0.127E+01 -.129E+01 -.378E+01   -.623E-02 0.160E-02 0.110E-02
   -.415E+02 -.321E+02 -.440E+02   0.417E+02 0.352E+02 0.466E+02   -.164E+00 -.306E+01 -.270E+01   0.758E-02 0.287E-02 0.200E-02
   0.415E+02 -.321E+02 -.440E+02   -.417E+02 0.352E+02 0.466E+02   0.164E+00 -.306E+01 -.270E+01   -.757E-02 0.287E-02 0.198E-02
   -.104E+02 0.660E+02 0.219E+02   0.117E+02 -.699E+02 -.239E+02   -.128E+01 0.386E+01 0.209E+01   -.623E-03 -.511E-02 -.136E-02
   0.104E+02 0.660E+02 0.219E+02   -.117E+02 -.699E+02 -.239E+02   0.128E+01 0.386E+01 0.209E+01   0.620E-03 -.512E-02 -.138E-02
   0.311E+02 -.133E+02 -.488E+02   -.353E+02 0.133E+02 0.513E+02   0.413E+01 0.385E-01 -.251E+01   -.799E-03 0.868E-03 0.339E-02
   -.311E+02 -.133E+02 -.488E+02   0.353E+02 0.133E+02 0.513E+02   -.413E+01 0.385E-01 -.251E+01   0.783E-03 0.875E-03 0.341E-02
   -.342E+01 -.129E+02 -.208E+02   0.606E+01 0.121E+02 0.245E+02   -.262E+01 0.760E+00 -.356E+01   0.162E-02 0.147E-02 0.137E-02
   0.342E+01 -.129E+02 -.208E+02   -.606E+01 0.121E+02 0.245E+02   0.262E+01 0.760E+00 -.356E+01   -.164E-02 0.148E-02 0.136E-02
   0.424E+02 0.107E+02 0.535E+02   -.466E+02 -.116E+02 -.571E+02   0.414E+01 0.803E+00 0.358E+01   -.923E-04 -.642E-03 -.274E-02
   -.424E+02 0.107E+02 0.535E+02   0.466E+02 -.116E+02 -.571E+02   -.414E+01 0.803E+00 0.358E+01   0.838E-04 -.641E-03 -.276E-02
   -.560E+02 0.271E+02 0.588E+02   0.560E+02 -.283E+02 -.630E+02   -.253E-04 0.117E+01 0.432E+01   0.128E-01 -.432E-02 -.334E-02
   0.560E+02 0.271E+02 0.588E+02   -.560E+02 -.283E+02 -.630E+02   0.253E-04 0.117E+01 0.432E+01   -.128E-01 -.431E-02 -.334E-02
   0.541E+02 0.537E+02 0.214E+02   -.571E+02 -.570E+02 -.224E+02   0.294E+01 0.325E+01 0.108E+01   -.278E-03 -.243E-02 -.190E-02
   -.541E+02 0.537E+02 0.214E+02   0.571E+02 -.570E+02 -.224E+02   -.294E+01 0.325E+01 0.108E+01   0.256E-03 -.243E-02 -.187E-02
   0.668E+02 0.341E+02 0.207E+02   -.704E+02 -.356E+02 -.223E+02   0.355E+01 0.154E+01 0.170E+01   0.273E-02 -.265E-02 -.563E-03
   -.668E+02 0.341E+02 0.207E+02   0.704E+02 -.356E+02 -.223E+02   -.355E+01 0.154E+01 0.170E+01   -.275E-02 -.266E-02 -.554E-03
   -.566E+02 0.131E+02 0.397E+02   0.581E+02 -.146E+02 -.433E+02   -.147E+01 0.145E+01 0.355E+01   0.101E-01 0.552E-03 -.431E-02
   0.566E+02 0.131E+02 0.397E+02   -.581E+02 -.146E+02 -.433E+02   0.147E+01 0.145E+01 0.355E+01   -.101E-01 0.566E-03 -.427E-02
   -.479E+02 -.301E+02 0.229E+02   0.526E+02 0.322E+02 -.254E+02   -.460E+01 -.212E+01 0.242E+01   0.577E-02 0.296E-02 -.165E-02
   0.479E+02 -.301E+02 0.229E+02   -.526E+02 0.322E+02 -.254E+02   0.460E+01 -.212E+01 0.242E+01   -.575E-02 0.295E-02 -.162E-02
   -.113E+03 -.398E+02 -.356E+02   0.118E+03 0.410E+02 0.369E+02   -.500E+01 -.118E+01 -.137E+01   0.156E-01 0.419E-02 0.674E-02
   0.113E+03 -.398E+02 -.356E+02   -.118E+03 0.410E+02 0.369E+02   0.500E+01 -.118E+01 -.137E+01   -.156E-01 0.419E-02 0.672E-02
   -.764E+02 -.113E+02 0.365E+02   0.802E+02 0.125E+02 -.382E+02   -.374E+01 -.119E+01 0.181E+01   0.114E-01 0.111E-03 -.176E-02
   0.764E+02 -.113E+02 0.365E+02   -.802E+02 0.125E+02 -.382E+02   0.374E+01 -.119E+01 0.181E+01   -.114E-01 0.113E-03 -.176E-02
   0.422E+02 -.116E+02 -.194E+02   -.461E+02 0.120E+02 0.215E+02   0.384E+01 -.404E+00 -.205E+01   0.412E-02 0.926E-03 0.816E-03
   -.422E+02 -.116E+02 -.194E+02   0.461E+02 0.120E+02 0.215E+02   -.384E+01 -.404E+00 -.205E+01   -.412E-02 0.925E-03 0.790E-03
 -----------------------------------------------------------------------------------------------
   0.781E-04 0.796E+01 0.138E+02   0.171E-12 -.711E-13 0.711E-13   -.888E-15 -.824E+01 -.140E+02   -.286E-04 0.160E-02 0.631E-02
 
 
 POSITION                                       TOTAL-FORCE (eV/Angst)
 -----------------------------------------------------------------------------------
      9.55320      8.14718      0.06482         0.011140     -0.001728      0.023276
      9.37088     12.47387      4.59368        -0.011140     -0.001728      0.023276
      0.94988      7.66513      7.13162         0.031619     -0.014642      0.032874
     17.97420      3.33844      2.60276        -0.031619     -0.014642      0.032874
      5.20042      6.59471      4.90780         0.397278      0.347141      0.037558
     13.72366      2.26802      0.37894        -0.397278      0.347141      0.037558
      8.60040      8.86740      3.96806         0.228123     -0.012860     -0.559226
     10.32368     13.19409      8.49692        -0.228123     -0.012860     -0.559226
      4.05383      9.67431      6.70361        -0.229816     -0.685673     -0.100274
     14.87025      5.34762      2.17475         0.229816     -0.685673     -0.100274
      5.07170     15.51072      8.92074        -0.496126     -0.207545     -0.266784
     13.85238     11.18403      4.39187         0.496126     -0.207545     -0.266784
      6.94058     12.37266      7.07931         0.388238      0.399944     -0.055178
     11.98350      8.04597      2.55044        -0.388238      0.399944     -0.055178
      2.36589      4.14669      4.19699        -0.515340     -0.179701     -0.156779
     16.55819      8.47338      8.72585         0.515340     -0.179701     -0.156779
      0.89917      6.76594      1.83978        -0.461590     -0.244931     -0.122166
     18.02491     11.09263      6.36864         0.461590     -0.244931     -0.122166
      2.71855      3.83776      0.19598        -0.082408      0.517507      0.389338
     16.20552      8.16445      4.72484         0.082408      0.517507      0.389338
      4.14843      9.50956      2.59148         0.374717      0.345054      0.197070
     14.77565     13.83625      7.12035        -0.374717      0.345054      0.197070
      6.53216      3.63857      2.36019        -0.131533     -0.628591      0.056391
     12.39192      7.96526      6.88906         0.131533     -0.628591      0.056391
      5.08316     11.16852      4.20385        -0.011106     -0.186739     -0.479063
     13.84092     15.49521      8.73271         0.011106     -0.186739     -0.479063
      4.33862     13.78419      7.31822         0.159982      0.288615      0.357757
     14.58546      9.45750      2.78935        -0.159982      0.288615      0.357757
      3.78818      5.48684      1.75322        -0.084261     -0.176131     -0.454855
     15.13590      9.81353      6.28208         0.084261     -0.176131     -0.454855
      7.65690     13.74695      9.00013         0.012690     -0.347102     -0.404739
     11.26717      9.42026      4.47127        -0.012690     -0.347102     -0.404739
      9.42164     11.56649      6.85939        -0.099737      0.381491      0.290506
      9.50243      7.23980      2.33053         0.099737      0.381491      0.290506
      0.16556      5.35172      3.77436         0.390698     -0.009585     -0.265395
     18.75852      9.67841      8.30323        -0.390698     -0.009585     -0.265395
      1.58458     11.63009      6.26471        -0.242482      0.092962     -0.294622
     17.33949      7.30340      1.73585         0.242482      0.092962     -0.294622
      0.65586     13.92188      8.95835         0.398325      0.030410      0.402801
     18.26822      9.59519      4.42948        -0.398325      0.030410      0.402801
      5.43453      2.11132      0.73315         0.017756      0.116851      0.523885
     13.48954      6.43801      5.26201        -0.017756      0.116851      0.523885
      1.75601      2.55630      2.39621         0.263825      0.350206      0.211064
     17.16806      6.88299      6.92507        -0.263825      0.350206      0.211064
      2.93048      8.28583      5.03429         0.392715      0.240166      0.286578
     15.99359      3.95914      0.50543        -0.392715      0.240166      0.286578
      6.23865      7.89734      2.92521        -0.174971      0.063866      0.312285
     12.68543     12.22403      7.45407         0.174971      0.063866      0.312285
      8.71882     11.05218      2.70305        -0.345400     -0.193130      0.151593
     10.20526     15.37887      7.23192         0.345400     -0.193130      0.151593
      6.15559      8.19321      6.60384        -0.509871     -0.127777     -0.206686
     12.76849      3.86652      2.07497         0.509871     -0.127777     -0.206686
      7.47499      5.22663      5.18232        -0.320169     -0.133772      0.305728
     11.44909      0.89994      0.65345         0.320169     -0.133772      0.305728
      3.03477      8.34555      8.63042         0.417864     -0.024305     -0.212936
     15.88931      4.01886      4.10156        -0.417864     -0.024305     -0.212936
 -----------------------------------------------------------------------------------
    total drift:                                0.000049     -0.148029     -0.317082


--------------------------------------------------------------------------------------------------------



  FREE ENERGIE OF THE ION-ELECTRON SYSTEM (eV)
  ---------------------------------------------------
  free  energy   TOTEN  =      -296.32879853 eV

  energy  without entropy=     -296.32879853  energy(sigma->0) =     -296.32879853
 


--------------------------------------------------------------------------------------------------------


    POTLOK:  cpu time    0.9968: real time    0.9979


--------------------------------------------------------------------------------------------------------


     LOOP+:  cpu time76853.3461: real time77094.1551
    4ORBIT:  cpu time    0.0000: real time    0.0000
 


 total charge     
 
# of ion       s       p       d       tot
------------------------------------------
    1        0.076   0.121   0.000   0.197
    2        0.076   0.121   0.000   0.197
    3        0.050   0.076   0.000   0.126
    4        0.050   0.076   0.000   0.126
    5        1.320   0.995   0.077   2.391
    6        1.320   0.995   0.077   2.391
    7        1.301   1.030   0.069   2.400
    8        1.301   1.030   0.069   2.400
    9        1.291   1.070   0.074   2.436
   10        1.291   1.070   0.074   2.436
   11        1.320   1.018   0.075   2.413
   12        1.320   1.018   0.075   2.413
   13        1.282   1.081   0.074   2.438
   14        1.282   1.081   0.074   2.438
   15        1.290   1.079   0.074   2.443
   16        1.290   1.079   0.074   2.443
   17        1.281   1.094   0.071   2.446
   18        1.281   1.094   0.071   2.446
   19        1.319   1.003   0.073   2.395
   20        1.319   1.003   0.073   2.395
   21        1.331   0.985   0.075   2.391
   22        1.331   0.985   0.075   2.391
   23        1.317   1.016   0.071   2.404
   24        1.317   1.016   0.071   2.404
   25        1.350   2.346   0.000   3.696
   26        1.350   2.346   0.000   3.696
   27        1.351   2.345   0.000   3.696
   28        1.351   2.345   0.000   3.696
   29        1.351   2.340   0.000   3.691
   30        1.351   2.340   0.000   3.691
   31        1.354   2.334   0.000   3.688
   32        1.354   2.334   0.000   3.688
   33        1.346   2.362   0.000   3.708
   34        1.346   2.362   0.000   3.708
   35        1.352   2.348   0.000   3.700
   36        1.352   2.348   0.000   3.700
   37        1.352   2.343   0.000   3.694
   38        1.352   2.343   0.000   3.694
   39        1.356   2.334   0.000   3.691
   40        1.356   2.334   0.000   3.691
   41        1.351   2.341   0.000   3.691
   42        1.351   2.341   0.000   3.691
   43        1.353   2.337   0.000   3.689
   44        1.353   2.337   0.000   3.689
   45        1.350   2.344   0.000   3.695
   46        1.350   2.344   0.000   3.695
   47        1.354   2.331   0.000   3.685
   48        1.354   2.331   0.000   3.685
   49        1.348   2.351   0.000   3.698
   50        1.348   2.351   0.000   3.698
   51        1.356   2.329   0.000   3.685
   52        1.356   2.329   0.000   3.685
   53        1.344   2.363   0.000   3.707
   54        1.344   2.363   0.000   3.707
   55        1.350   2.350   0.000   3.700
   56        1.350   2.350   0.000   3.700
--------------------------------------------------
tot         69.595  96.130   1.465 167.190
 

 total amount of memory used by VASP MPI-rank0   601855. kBytes
=======================================================================

   base      :      30000. kBytes
   nonlr-proj:      30665. kBytes
   fftplans  :       3900. kBytes
   grid      :       9543. kBytes
   one-center:        454. kBytes
   HF        :        101. kBytes
   wavefun   :     118444. kBytes
   fock_wrk  :     408748. kBytes
 
  
  
 General timing and accounting informations for this job:
 ========================================================
  
                  Total CPU time used (sec):    76884.781
                            User time (sec):    76509.112
                          System time (sec):      375.671
                         Elapsed time (sec):    77125.648
  
                   Maximum memory used (kb):     2153780.
                   Average memory used (kb):           0.
  
                          Minor page faults:     57306441
                          Major page faults:            0
                 Voluntary context switches:        17981
