  26  26   1   0
  0.3395270E+02  0.4244012E-09  0.1341347E-08  0.1555955E-08  0.1000000E-15
  1.000000000000000E-004
  CAR 
 CIS                                     
      8.63187118    -11.17583757  301      3.61804491      1.00000000
    -11.176  0.0000E+00  0.0000E+00
    -11.110  0.0000E+00  0.0000E+00
    -11.044  0.0000E+00  0.0000E+00
    -10.978  0.0000E+00  0.0000E+00
    -10.912  0.0000E+00  0.0000E+00
    -10.846  0.0000E+00  0.0000E+00
    -10.780  0.0000E+00  0.0000E+00
    -10.714  0.0000E+00  0.0000E+00
    -10.648  0.0000E+00  0.0000E+00
    -10.582  0.0000E+00  0.0000E+00
    -10.516  0.1706E-12  0.1126E-13
    -10.450  0.1303E-07  0.8605E-09
    -10.384  0.3471E-04  0.2293E-05
    -10.318  0.3852E-02  0.2566E-03
    -10.251  0.2890E-01  0.2164E-02
    -10.185  0.2928E-01  0.4098E-02
    -10.119  0.2201E-01  0.5551E-02
    -10.053  0.1014E-01  0.6220E-02
     -9.987  0.5120E-01  0.9600E-02
     -9.921  0.1090E+00  0.1679E-01
     -9.855  0.5606E-01  0.2050E-01
     -9.789  0.2510E-01  0.2215E-01
     -9.723  0.1593E-01  0.2320E-01
     -9.657  0.9538E-01  0.2950E-01
     -9.591  0.8885E-01  0.3537E-01
     -9.525  0.4049E-01  0.3804E-01
     -9.459  0.6420E-02  0.3847E-01
     -9.393  0.3289E-01  0.4064E-01
     -9.327  0.1126E+00  0.4807E-01
     -9.261  0.9403E-01  0.5428E-01
     -9.195  0.8484E-01  0.5988E-01
     -9.129  0.1213E+00  0.6789E-01
     -9.063  0.8372E-01  0.7342E-01
     -8.997  0.3558E-01  0.7577E-01
     -8.931  0.1243E+00  0.8397E-01
     -8.865  0.1522E+00  0.9402E-01
     -8.799  0.8525E-01  0.9965E-01
     -8.733  0.3998E-01  0.1023E+00
     -8.667  0.9632E-01  0.1086E+00
     -8.601  0.1456E+00  0.1183E+00
     -8.535  0.8179E-01  0.1237E+00
     -8.469  0.3256E-01  0.1258E+00
     -8.403  0.8783E-01  0.1316E+00
     -8.337  0.2063E+00  0.1452E+00
     -8.271  0.2813E+00  0.1638E+00
     -8.205  0.2962E+00  0.1834E+00
     -8.139  0.3711E+00  0.2079E+00
     -8.073  0.3705E+00  0.2323E+00
     -8.007  0.2813E+00  0.2509E+00
     -7.941  0.2156E+00  0.2651E+00
     -7.875  0.1843E+00  0.2773E+00
     -7.809  0.7865E-01  0.2825E+00
     -7.743  0.4997E-02  0.2828E+00
     -7.676  0.1830E-04  0.2828E+00
     -7.610  0.2601E-08  0.2828E+00
     -7.544  0.1272E-13  0.2828E+00
     -7.478  0.0000E+00  0.2828E+00
     -7.412  0.0000E+00  0.2828E+00
     -7.346  0.0000E+00  0.2828E+00
     -7.280  0.0000E+00  0.2828E+00
     -7.214  0.0000E+00  0.2828E+00
     -7.148  0.5412E-13  0.2828E+00
     -7.082  0.6641E-08  0.2828E+00
     -7.016  0.2787E-04  0.2828E+00
     -6.950  0.4479E-02  0.2831E+00
     -6.884  0.3622E-01  0.2855E+00
     -6.818  0.3203E-01  0.2876E+00
     -6.752  0.4521E-01  0.2906E+00
     -6.686  0.8533E-01  0.2963E+00
     -6.620  0.1087E+00  0.3034E+00
     -6.554  0.9004E-01  0.3094E+00
     -6.488  0.8247E-01  0.3148E+00
     -6.422  0.1350E+00  0.3237E+00
     -6.356  0.5404E-01  0.3273E+00
     -6.290  0.7874E-01  0.3325E+00
     -6.224  0.1566E+00  0.3428E+00
     -6.158  0.7994E-01  0.3481E+00
     -6.092  0.5730E-01  0.3519E+00
     -6.026  0.8436E-01  0.3575E+00
     -5.960  0.9161E-01  0.3635E+00
     -5.894  0.1020E+00  0.3703E+00
     -5.828  0.9765E-01  0.3767E+00
     -5.762  0.1703E+00  0.3880E+00
     -5.696  0.1297E+00  0.3965E+00
     -5.630  0.7117E-01  0.4012E+00
     -5.564  0.6588E-01  0.4056E+00
     -5.498  0.5063E-01  0.4089E+00
     -5.432  0.5992E-01  0.4129E+00
     -5.366  0.4606E-01  0.4159E+00
     -5.300  0.1814E-01  0.4171E+00
     -5.234  0.4896E-01  0.4203E+00
     -5.167  0.3349E-01  0.4225E+00
     -5.101  0.5380E-01  0.4261E+00
     -5.035  0.3186E-01  0.4282E+00
     -4.969  0.2493E-02  0.4284E+00
     -4.903  0.1652E-01  0.4295E+00
     -4.837  0.4955E-01  0.4327E+00
     -4.771  0.9541E-01  0.4390E+00
     -4.705  0.2057E-01  0.4404E+00
     -4.639  0.2974E-03  0.4404E+00
     -4.573  0.2388E-06  0.4404E+00
     -4.507  0.8297E-04  0.4404E+00
     -4.441  0.7803E-02  0.4409E+00
     -4.375  0.3916E-01  0.4435E+00
     -4.309  0.1386E-01  0.4444E+00
     -4.243  0.2834E-03  0.4444E+00
     -4.177  0.2408E-06  0.4444E+00
     -4.111  0.7239E-11  0.4444E+00
     -4.045  0.1019E-16  0.4444E+00
     -3.979  0.0000E+00  0.4444E+00
     -3.913  0.0000E+00  0.4444E+00
     -3.847  0.0000E+00  0.4444E+00
     -3.781  0.0000E+00  0.4444E+00
     -3.715  0.0000E+00  0.4444E+00
     -3.649  0.0000E+00  0.4444E+00
     -3.583  0.0000E+00  0.4444E+00
     -3.517  0.0000E+00  0.4444E+00
     -3.451  0.0000E+00  0.4444E+00
     -3.385  0.0000E+00  0.4444E+00
     -3.319  0.0000E+00  0.4444E+00
     -3.253  0.0000E+00  0.4444E+00
     -3.187  0.0000E+00  0.4444E+00
     -3.121  0.0000E+00  0.4444E+00
     -3.055  0.0000E+00  0.4444E+00
     -2.989  0.0000E+00  0.4444E+00
     -2.923  0.0000E+00  0.4444E+00
     -2.857  0.0000E+00  0.4444E+00
     -2.791  0.0000E+00  0.4444E+00
     -2.725  0.0000E+00  0.4444E+00
     -2.659  0.0000E+00  0.4444E+00
     -2.592  0.0000E+00  0.4444E+00
     -2.526  0.0000E+00  0.4444E+00
     -2.460  0.0000E+00  0.4444E+00
     -2.394  0.0000E+00  0.4444E+00
     -2.328  0.0000E+00  0.4444E+00
     -2.262  0.0000E+00  0.4444E+00
     -2.196  0.0000E+00  0.4444E+00
     -2.130  0.0000E+00  0.4444E+00
     -2.064  0.0000E+00  0.4444E+00
     -1.998  0.0000E+00  0.4444E+00
     -1.932  0.0000E+00  0.4444E+00
     -1.866  0.0000E+00  0.4444E+00
     -1.800  0.0000E+00  0.4444E+00
     -1.734  0.0000E+00  0.4444E+00
     -1.668  0.0000E+00  0.4444E+00
     -1.602  0.4834E-14  0.4444E+00
     -1.536  0.9122E-09  0.4444E+00
     -1.470  0.5838E-05  0.4444E+00
     -1.404  0.1402E-02  0.4445E+00
     -1.338  0.1634E-01  0.4456E+00
     -1.272  0.2111E-01  0.4470E+00
     -1.206  0.2288E-01  0.4485E+00
     -1.140  0.5970E-01  0.4525E+00
     -1.074  0.1408E+00  0.4618E+00
     -1.008  0.1450E+00  0.4713E+00
     -0.942  0.1001E+00  0.4779E+00
     -0.876  0.1076E+00  0.4850E+00
     -0.810  0.8639E-01  0.4908E+00
     -0.744  0.1078E+00  0.4979E+00
     -0.678  0.3823E-01  0.5004E+00
     -0.612  0.7620E-01  0.5054E+00
     -0.546  0.9310E-01  0.5116E+00
     -0.480  0.1066E+00  0.5186E+00
     -0.414  0.1511E+00  0.5286E+00
     -0.348  0.9855E-01  0.5351E+00
     -0.282  0.7773E-01  0.5402E+00
     -0.216  0.2077E+00  0.5539E+00
     -0.150  0.2470E+00  0.5702E+00
     -0.084  0.1505E+00  0.5802E+00
     -0.017  0.1289E+00  0.5887E+00
      0.049  0.1183E+00  0.5965E+00
      0.115  0.1770E+00  0.6082E+00
      0.181  0.1298E+00  0.6168E+00
      0.247  0.1680E+00  0.6279E+00
      0.313  0.2170E+00  0.6422E+00
      0.379  0.2569E+00  0.6591E+00
      0.445  0.2266E+00  0.6741E+00
      0.511  0.1653E+00  0.6850E+00
      0.577  0.2155E+00  0.6993E+00
      0.643  0.2438E+00  0.7153E+00
      0.709  0.2364E+00  0.7310E+00
      0.775  0.2377E+00  0.7466E+00
      0.841  0.1882E+00  0.7591E+00
      0.907  0.1600E+00  0.7696E+00
      0.973  0.1348E+00  0.7785E+00
      1.039  0.2600E+00  0.7957E+00
      1.105  0.1427E+00  0.8051E+00
      1.171  0.2149E+00  0.8193E+00
      1.237  0.2871E+00  0.8383E+00
      1.303  0.2884E+00  0.8573E+00
      1.369  0.1904E+00  0.8699E+00
      1.435  0.1994E+00  0.8830E+00
      1.501  0.1208E+00  0.8910E+00
      1.567  0.1554E+00  0.9013E+00
      1.633  0.1854E+00  0.9135E+00
      1.699  0.2067E+00  0.9272E+00
      1.765  0.2422E+00  0.9432E+00
      1.831  0.2288E+00  0.9583E+00
      1.897  0.1528E+00  0.9684E+00
      1.963  0.2457E+00  0.9846E+00
      2.029  0.2812E+00  0.1003E+01
      2.095  0.2342E+00  0.1019E+01
      2.161  0.2428E+00  0.1035E+01
      2.227  0.3243E+00  0.1056E+01
      2.293  0.2629E+00  0.1073E+01
      2.359  0.3037E+00  0.1093E+01
      2.425  0.3483E+00  0.1116E+01
      2.491  0.2685E+00  0.1134E+01
      2.558  0.1966E+00  0.1147E+01
      2.624  0.1919E+00  0.1160E+01
      2.690  0.2446E+00  0.1176E+01
      2.756  0.2272E+00  0.1191E+01
      2.822  0.1179E+00  0.1199E+01
      2.888  0.1209E+00  0.1207E+01
      2.954  0.2261E+00  0.1222E+01
      3.020  0.2749E+00  0.1240E+01
      3.086  0.1648E+00  0.1251E+01
      3.152  0.1835E+00  0.1263E+01
      3.218  0.2012E+00  0.1276E+01
      3.284  0.1343E+00  0.1285E+01
      3.350  0.8424E-01  0.1291E+01
      3.416  0.2917E-01  0.1292E+01
      3.482  0.7060E-02  0.1293E+01
      3.548  0.1425E-03  0.1293E+01
      3.614  0.1210E-06  0.1293E+01
      3.680  0.3628E-11  0.1293E+01
      3.746  0.3397E-17  0.1293E+01
      3.812  0.0000E+00  0.1293E+01
      3.878  0.0000E+00  0.1293E+01
      3.944  0.0000E+00  0.1293E+01
      4.010  0.0000E+00  0.1293E+01
      4.076  0.0000E+00  0.1293E+01
      4.142  0.0000E+00  0.1293E+01
      4.208  0.0000E+00  0.1293E+01
      4.274  0.0000E+00  0.1293E+01
      4.340  0.0000E+00  0.1293E+01
      4.406  0.5805E-14  0.1293E+01
      4.472  0.1047E-08  0.1293E+01
      4.538  0.6411E-05  0.1293E+01
      4.604  0.1476E-02  0.1293E+01
      4.670  0.1633E-01  0.1294E+01
      4.736  0.1221E-01  0.1295E+01
      4.802  0.5803E-03  0.1295E+01
      4.868  0.1371E-05  0.1295E+01
      4.934  0.1537E-03  0.1295E+01
      5.000  0.7478E-02  0.1295E+01
      5.066  0.2899E-01  0.1297E+01
      5.133  0.2497E-01  0.1299E+01
      5.199  0.5811E-01  0.1303E+01
      5.265  0.1338E+00  0.1312E+01
      5.331  0.8167E-01  0.1317E+01
      5.397  0.5065E-01  0.1320E+01
      5.463  0.6156E-01  0.1324E+01
      5.529  0.9841E-01  0.1331E+01
      5.595  0.5391E-01  0.1335E+01
      5.661  0.8056E-01  0.1340E+01
      5.727  0.1450E+00  0.1349E+01
      5.793  0.1254E+00  0.1358E+01
      5.859  0.1497E+00  0.1368E+01
      5.925  0.1637E+00  0.1378E+01
      5.991  0.2339E+00  0.1394E+01
      6.057  0.1263E+00  0.1402E+01
      6.123  0.1415E+00  0.1412E+01
      6.189  0.2553E+00  0.1428E+01
      6.255  0.1931E+00  0.1441E+01
      6.321  0.1777E+00  0.1453E+01
      6.387  0.2311E+00  0.1468E+01
      6.453  0.2703E+00  0.1486E+01
      6.519  0.2262E+00  0.1501E+01
      6.585  0.1981E+00  0.1514E+01
      6.651  0.2014E+00  0.1527E+01
      6.717  0.2136E+00  0.1541E+01
      6.783  0.2788E+00  0.1560E+01
      6.849  0.2665E+00  0.1577E+01
      6.915  0.1870E+00  0.1590E+01
      6.981  0.1919E+00  0.1602E+01
      7.047  0.1549E+00  0.1613E+01
      7.113  0.1461E+00  0.1622E+01
      7.179  0.1823E+00  0.1634E+01
      7.245  0.1532E+00  0.1644E+01
      7.311  0.1141E+00  0.1652E+01
      7.377  0.1591E+00  0.1662E+01
      7.443  0.1573E+00  0.1673E+01
      7.509  0.1272E+00  0.1681E+01
      7.575  0.7634E-01  0.1686E+01
      7.641  0.3724E-01  0.1689E+01
      7.708  0.3429E-01  0.1691E+01
      7.774  0.7673E-01  0.1696E+01
      7.840  0.1308E-01  0.1697E+01
      7.906  0.1172E-03  0.1697E+01
      7.972  0.4137E-07  0.1697E+01
      8.038  0.5079E-12  0.1697E+01
      8.104  0.0000E+00  0.1697E+01
      8.170  0.0000E+00  0.1697E+01
      8.236  0.0000E+00  0.1697E+01
      8.302  0.0000E+00  0.1697E+01
      8.368  0.0000E+00  0.1697E+01
      8.434  0.0000E+00  0.1697E+01
      8.500  0.0000E+00  0.1697E+01
      8.566  0.0000E+00  0.1697E+01
      8.632  0.0000E+00  0.1697E+01
      8.63187118    -11.17583757  301      3.61804491      1.00000000
    -11.176  0.0000E+00  0.0000E+00  0.0000E+00
    -11.110  0.0000E+00  0.0000E+00  0.0000E+00
    -11.044  0.0000E+00  0.0000E+00  0.0000E+00
    -10.978  0.0000E+00  0.0000E+00  0.0000E+00
    -10.912  0.0000E+00  0.0000E+00  0.0000E+00
    -10.846  0.0000E+00  0.0000E+00  0.0000E+00
    -10.780  0.0000E+00  0.0000E+00  0.0000E+00
    -10.714  0.0000E+00  0.0000E+00  0.0000E+00
    -10.648  0.0000E+00  0.0000E+00  0.0000E+00
    -10.582  0.0000E+00  0.0000E+00  0.0000E+00
    -10.516  0.1871E-14  0.1218E-14  0.0000E+00
    -10.450  0.1429E-09  0.9298E-10  0.0000E+00
    -10.384  0.3796E-06  0.2454E-06  0.0000E+00
    -10.318  0.4129E-04  0.2561E-04  0.0000E+00
    -10.251  0.2862E-03  0.1459E-03  0.0000E+00
    -10.185  0.2991E-03  0.1367E-03  0.0000E+00
    -10.119  0.4455E-03  0.3952E-03  0.0000E+00
    -10.053  0.1928E-03  0.1742E-03  0.0000E+00
     -9.987  0.6011E-03  0.4161E-03  0.0000E+00
     -9.921  0.1319E-02  0.8036E-03  0.0000E+00
     -9.855  0.8499E-03  0.8628E-03  0.0000E+00
     -9.789  0.4537E-03  0.5590E-03  0.0000E+00
     -9.723  0.2744E-03  0.2511E-03  0.0000E+00
     -9.657  0.1351E-02  0.1298E-02  0.0000E+00
     -9.591  0.1216E-02  0.1283E-02  0.0000E+00
     -9.525  0.7075E-03  0.7600E-03  0.0000E+00
     -9.459  0.9692E-04  0.1210E-03  0.0000E+00
     -9.393  0.2055E-03  0.3439E-03  0.0000E+00
     -9.327  0.1316E-02  0.1701E-02  0.0000E+00
     -9.261  0.1387E-02  0.1883E-02  0.0000E+00
     -9.195  0.9052E-03  0.1224E-02  0.0000E+00
     -9.129  0.1910E-02  0.2235E-02  0.0000E+00
     -9.063  0.1362E-02  0.2266E-02  0.0000E+00
     -8.997  0.4882E-03  0.8455E-03  0.0000E+00
     -8.931  0.1689E-02  0.2613E-02  0.0000E+00
     -8.865  0.3478E-02  0.4494E-02  0.0000E+00
     -8.799  0.2205E-02  0.3040E-02  0.0000E+00
     -8.733  0.5610E-03  0.9055E-03  0.0000E+00
     -8.667  0.4130E-03  0.9652E-03  0.0000E+00
     -8.601  0.1108E-02  0.3007E-02  0.0000E+00
     -8.535  0.1452E-02  0.2989E-02  0.0000E+00
     -8.469  0.6072E-03  0.7522E-03  0.0000E+00
     -8.403  0.1001E-02  0.1124E-02  0.0000E+00
     -8.337  0.3803E-02  0.4436E-02  0.0000E+00
     -8.271  0.6481E-02  0.7235E-02  0.0000E+00
     -8.205  0.6048E-02  0.9021E-02  0.0000E+00
     -8.139  0.8753E-02  0.1565E-01  0.0000E+00
     -8.073  0.5984E-02  0.1290E-01  0.0000E+00
     -8.007  0.5160E-02  0.7799E-02  0.0000E+00
     -7.941  0.4280E-02  0.5980E-02  0.0000E+00
     -7.875  0.6584E-02  0.1098E-01  0.0000E+00
     -7.809  0.4032E-02  0.5821E-02  0.0000E+00
     -7.743  0.2781E-03  0.3769E-03  0.0000E+00
     -7.676  0.1034E-05  0.1371E-05  0.0000E+00
     -7.610  0.1479E-09  0.1933E-09  0.0000E+00
     -7.544  0.7274E-15  0.9378E-15  0.0000E+00
     -7.478  0.0000E+00  0.0000E+00  0.0000E+00
     -7.412  0.0000E+00  0.0000E+00  0.0000E+00
     -7.346  0.0000E+00  0.0000E+00  0.0000E+00
     -7.280  0.0000E+00  0.0000E+00  0.0000E+00
     -7.214  0.0000E+00  0.0000E+00  0.0000E+00
     -7.148  0.6131E-15  0.1193E-14  0.0000E+00
     -7.082  0.7524E-10  0.1464E-09  0.0000E+00
     -7.016  0.3158E-06  0.6143E-06  0.0000E+00
     -6.950  0.5075E-04  0.9872E-04  0.0000E+00
     -6.884  0.4109E-03  0.7993E-03  0.0000E+00
     -6.818  0.3941E-03  0.7642E-03  0.0000E+00
     -6.752  0.5644E-03  0.1135E-02  0.0000E+00
     -6.686  0.1989E-03  0.1141E-02  0.0000E+00
     -6.620  0.2330E-03  0.1304E-02  0.0000E+00
     -6.554  0.6812E-03  0.1222E-02  0.0000E+00
     -6.488  0.5846E-03  0.1464E-02  0.0000E+00
     -6.422  0.8673E-03  0.2985E-02  0.0000E+00
     -6.356  0.5011E-03  0.1300E-02  0.0000E+00
     -6.290  0.7398E-03  0.1461E-02  0.0000E+00
     -6.224  0.1184E-02  0.2424E-02  0.0000E+00
     -6.158  0.2926E-03  0.1570E-02  0.0000E+00
     -6.092  0.2439E-03  0.1992E-02  0.0000E+00
     -6.026  0.9765E-03  0.1577E-02  0.0000E+00
     -5.960  0.9431E-03  0.1587E-02  0.0000E+00
     -5.894  0.1175E-02  0.3139E-02  0.0000E+00
     -5.828  0.2121E-02  0.3729E-02  0.0000E+00
     -5.762  0.2100E-02  0.3391E-02  0.0000E+00
     -5.696  0.1172E-02  0.2819E-02  0.0000E+00
     -5.630  0.2126E-02  0.2323E-02  0.0000E+00
     -5.564  0.2373E-02  0.2522E-02  0.0000E+00
     -5.498  0.1956E-02  0.2131E-02  0.0000E+00
     -5.432  0.1658E-02  0.2475E-02  0.0000E+00
     -5.366  0.1221E-02  0.2244E-02  0.0000E+00
     -5.300  0.1210E-02  0.1009E-02  0.0000E+00
     -5.234  0.2270E-02  0.2116E-02  0.0000E+00
     -5.167  0.9689E-03  0.1199E-02  0.0000E+00
     -5.101  0.2363E-02  0.2218E-02  0.0000E+00
     -5.035  0.1504E-02  0.1346E-02  0.0000E+00
     -4.969  0.1053E-03  0.1063E-03  0.0000E+00
     -4.903  0.5527E-03  0.6786E-03  0.0000E+00
     -4.837  0.1379E-02  0.1473E-02  0.0000E+00
     -4.771  0.2199E-02  0.2384E-02  0.0000E+00
     -4.705  0.4150E-03  0.5025E-03  0.0000E+00
     -4.639  0.5331E-05  0.7161E-05  0.0000E+00
     -4.573  0.4117E-08  0.6278E-08  0.0000E+00
     -4.507  0.1687E-05  0.3317E-05  0.0000E+00
     -4.441  0.1617E-03  0.3110E-03  0.0000E+00
     -4.375  0.8249E-03  0.1557E-02  0.0000E+00
     -4.309  0.2966E-03  0.5494E-03  0.0000E+00
     -4.243  0.6173E-05  0.1120E-04  0.0000E+00
     -4.177  0.5342E-08  0.9485E-08  0.0000E+00
     -4.111  0.1636E-12  0.2842E-12  0.0000E+00
     -4.045  0.2443E-18  0.3956E-18  0.0000E+00
     -3.979  0.0000E+00  0.0000E+00  0.0000E+00
     -3.913  0.0000E+00  0.0000E+00  0.0000E+00
     -3.847  0.0000E+00  0.0000E+00  0.0000E+00
     -3.781  0.0000E+00  0.0000E+00  0.0000E+00
     -3.715  0.0000E+00  0.0000E+00  0.0000E+00
     -3.649  0.0000E+00  0.0000E+00  0.0000E+00
     -3.583  0.0000E+00  0.0000E+00  0.0000E+00
     -3.517  0.0000E+00  0.0000E+00  0.0000E+00
     -3.451  0.0000E+00  0.0000E+00  0.0000E+00
     -3.385  0.0000E+00  0.0000E+00  0.0000E+00
     -3.319  0.0000E+00  0.0000E+00  0.0000E+00
     -3.253  0.0000E+00  0.0000E+00  0.0000E+00
     -3.187  0.0000E+00  0.0000E+00  0.0000E+00
     -3.121  0.0000E+00  0.0000E+00  0.0000E+00
     -3.055  0.0000E+00  0.0000E+00  0.0000E+00
     -2.989  0.0000E+00  0.0000E+00  0.0000E+00
     -2.923  0.0000E+00  0.0000E+00  0.0000E+00
     -2.857  0.0000E+00  0.0000E+00  0.0000E+00
     -2.791  0.0000E+00  0.0000E+00  0.0000E+00
     -2.725  0.0000E+00  0.0000E+00  0.0000E+00
     -2.659  0.0000E+00  0.0000E+00  0.0000E+00
     -2.592  0.0000E+00  0.0000E+00  0.0000E+00
     -2.526  0.0000E+00  0.0000E+00  0.0000E+00
     -2.460  0.0000E+00  0.0000E+00  0.0000E+00
     -2.394  0.0000E+00  0.0000E+00  0.0000E+00
     -2.328  0.0000E+00  0.0000E+00  0.0000E+00
     -2.262  0.0000E+00  0.0000E+00  0.0000E+00
     -2.196  0.0000E+00  0.0000E+00  0.0000E+00
     -2.130  0.0000E+00  0.0000E+00  0.0000E+00
     -2.064  0.0000E+00  0.0000E+00  0.0000E+00
     -1.998  0.0000E+00  0.0000E+00  0.0000E+00
     -1.932  0.0000E+00  0.0000E+00  0.0000E+00
     -1.866  0.0000E+00  0.0000E+00  0.0000E+00
     -1.800  0.0000E+00  0.0000E+00  0.0000E+00
     -1.734  0.0000E+00  0.0000E+00  0.0000E+00
     -1.668  0.0000E+00  0.0000E+00  0.0000E+00
     -1.602  0.1181E-15  0.8503E-16  0.0000E+00
     -1.536  0.2229E-10  0.1604E-10  0.0000E+00
     -1.470  0.1427E-06  0.1027E-06  0.0000E+00
     -1.404  0.3426E-04  0.2465E-04  0.0000E+00
     -1.338  0.3957E-03  0.2841E-03  0.0000E+00
     -1.272  0.3806E-03  0.2500E-03  0.0000E+00
     -1.206  0.3355E-03  0.2325E-03  0.0000E+00
     -1.140  0.2498E-02  0.2275E-02  0.0000E+00
     -1.074  0.5080E-02  0.4421E-02  0.0000E+00
     -1.008  0.4493E-02  0.4412E-02  0.0000E+00
     -0.942  0.5840E-02  0.9701E-02  0.0000E+00
     -0.876  0.1341E-01  0.1808E-01  0.0000E+00
     -0.810  0.1357E-01  0.1218E-01  0.0000E+00
     -0.744  0.1130E-01  0.9676E-02  0.0000E+00
     -0.678  0.2195E-02  0.1693E-02  0.0000E+00
     -0.612  0.3015E-02  0.4301E-02  0.0000E+00
     -0.546  0.4254E-02  0.6116E-02  0.0000E+00
     -0.480  0.4701E-02  0.4843E-02  0.0000E+00
     -0.414  0.9016E-02  0.6453E-02  0.0000E+00
     -0.348  0.5967E-02  0.5735E-02  0.0000E+00
     -0.282  0.3260E-02  0.5265E-02  0.0000E+00
     -0.216  0.8481E-02  0.1344E-01  0.0000E+00
     -0.150  0.8066E-02  0.1396E-01  0.0000E+00
     -0.084  0.9789E-02  0.1107E-01  0.0000E+00
     -0.017  0.1047E-01  0.1060E-01  0.0000E+00
      0.049  0.8857E-02  0.7665E-02  0.0000E+00
      0.115  0.1878E-01  0.1357E-01  0.0000E+00
      0.181  0.1278E-01  0.9371E-02  0.0000E+00
      0.247  0.1059E-01  0.2306E-01  0.0000E+00
      0.313  0.1115E-01  0.2556E-01  0.0000E+00
      0.379  0.1568E-01  0.2849E-01  0.0000E+00
      0.445  0.1323E-01  0.2590E-01  0.0000E+00
      0.511  0.8993E-02  0.1337E-01  0.0000E+00
      0.577  0.1352E-01  0.1712E-01  0.0000E+00
      0.643  0.1362E-01  0.2079E-01  0.0000E+00
      0.709  0.1691E-01  0.1998E-01  0.0000E+00
      0.775  0.2202E-01  0.2258E-01  0.0000E+00
      0.841  0.1556E-01  0.1908E-01  0.0000E+00
      0.907  0.7041E-02  0.2003E-01  0.0000E+00
      0.973  0.3697E-02  0.1285E-01  0.0000E+00
      1.039  0.1145E-01  0.2159E-01  0.0000E+00
      1.105  0.7652E-02  0.1736E-01  0.0000E+00
      1.171  0.2108E-01  0.2843E-01  0.0000E+00
      1.237  0.3124E-01  0.3145E-01  0.0000E+00
      1.303  0.3380E-01  0.3117E-01  0.0000E+00
      1.369  0.2389E-01  0.2226E-01  0.0000E+00
      1.435  0.2001E-01  0.3219E-01  0.0000E+00
      1.501  0.1893E-01  0.2078E-01  0.0000E+00
      1.567  0.4269E-01  0.2322E-01  0.0000E+00
      1.633  0.3386E-01  0.2919E-01  0.0000E+00
      1.699  0.3229E-01  0.3547E-01  0.0000E+00
      1.765  0.5377E-01  0.5317E-01  0.0000E+00
      1.831  0.4426E-01  0.5760E-01  0.0000E+00
      1.897  0.1516E-01  0.3596E-01  0.0000E+00
      1.963  0.1615E-01  0.5707E-01  0.0000E+00
      2.029  0.2152E-01  0.5457E-01  0.0000E+00
      2.095  0.2395E-01  0.3513E-01  0.0000E+00
      2.161  0.1957E-01  0.5546E-01  0.0000E+00
      2.227  0.2638E-01  0.8226E-01  0.0000E+00
      2.293  0.3242E-01  0.6121E-01  0.0000E+00
      2.359  0.4328E-01  0.6359E-01  0.0000E+00
      2.425  0.2916E-01  0.6783E-01  0.0000E+00
      2.491  0.1402E-01  0.4166E-01  0.0000E+00
      2.558  0.1391E-01  0.2967E-01  0.0000E+00
      2.624  0.1522E-01  0.3411E-01  0.0000E+00
      2.690  0.2054E-01  0.5227E-01  0.0000E+00
      2.756  0.1657E-01  0.5044E-01  0.0000E+00
      2.822  0.5301E-02  0.2276E-01  0.0000E+00
      2.888  0.8300E-02  0.1418E-01  0.0000E+00
      2.954  0.1074E-01  0.2747E-01  0.0000E+00
      3.020  0.7178E-02  0.2456E-01  0.0000E+00
      3.086  0.3541E-02  0.1198E-01  0.0000E+00
      3.152  0.4071E-02  0.1795E-01  0.0000E+00
      3.218  0.6487E-02  0.1707E-01  0.0000E+00
      3.284  0.3984E-02  0.9283E-02  0.0000E+00
      3.350  0.1005E-02  0.5427E-02  0.0000E+00
      3.416  0.1000E-03  0.1332E-02  0.0000E+00
      3.482  0.7224E-05  0.2102E-03  0.0000E+00
      3.548  0.1342E-06  0.4109E-05  0.0000E+00
      3.614  0.1137E-09  0.3486E-08  0.0000E+00
      3.680  0.3408E-14  0.1045E-12  0.0000E+00
      3.746  0.3191E-20  0.9785E-19  0.0000E+00
      3.812  0.0000E+00  0.0000E+00  0.0000E+00
      3.878  0.0000E+00  0.0000E+00  0.0000E+00
      3.944  0.0000E+00  0.0000E+00  0.0000E+00
      4.010  0.0000E+00  0.0000E+00  0.0000E+00
      4.076  0.0000E+00  0.0000E+00  0.0000E+00
      4.142  0.0000E+00  0.0000E+00  0.0000E+00
      4.208  0.0000E+00  0.0000E+00  0.0000E+00
      4.274  0.0000E+00  0.0000E+00  0.0000E+00
      4.340  0.0000E+00  0.0000E+00  0.0000E+00
      4.406  0.6745E-15  0.7823E-15  0.0000E+00
      4.472  0.1216E-09  0.1411E-09  0.0000E+00
      4.538  0.7449E-06  0.8639E-06  0.0000E+00
      4.604  0.1714E-03  0.1988E-03  0.0000E+00
      4.670  0.1897E-02  0.2200E-02  0.0000E+00
      4.736  0.1418E-02  0.1645E-02  0.0000E+00
      4.802  0.6742E-04  0.7819E-04  0.0000E+00
      4.868  0.1650E-06  0.1919E-06  0.0000E+00
      4.934  0.2430E-04  0.2870E-04  0.0000E+00
      5.000  0.1150E-02  0.1349E-02  0.0000E+00
      5.066  0.3489E-02  0.3802E-02  0.0000E+00
      5.133  0.1636E-02  0.1170E-02  0.0000E+00
      5.199  0.4259E-02  0.6134E-02  0.0000E+00
      5.265  0.7815E-02  0.1841E-01  0.0000E+00
      5.331  0.4474E-02  0.1029E-01  0.0000E+00
      5.397  0.1765E-02  0.7594E-02  0.0000E+00
      5.463  0.4262E-02  0.8753E-02  0.0000E+00
      5.529  0.1361E-01  0.1248E-01  0.0000E+00
      5.595  0.9565E-02  0.8094E-02  0.0000E+00
      5.661  0.6614E-02  0.1362E-01  0.0000E+00
      5.727  0.1542E-01  0.1979E-01  0.0000E+00
      5.793  0.2210E-01  0.1943E-01  0.0000E+00
      5.859  0.1294E-01  0.3119E-01  0.0000E+00
      5.925  0.1114E-01  0.2630E-01  0.0000E+00
      5.991  0.2476E-01  0.2783E-01  0.0000E+00
      6.057  0.1961E-01  0.1290E-01  0.0000E+00
      6.123  0.9157E-02  0.2350E-01  0.0000E+00
      6.189  0.1334E-01  0.5461E-01  0.0000E+00
      6.255  0.1558E-01  0.4616E-01  0.0000E+00
      6.321  0.9937E-02  0.2768E-01  0.0000E+00
      6.387  0.1494E-01  0.3224E-01  0.0000E+00
      6.453  0.1276E-01  0.3840E-01  0.0000E+00
      6.519  0.1492E-01  0.5376E-01  0.0000E+00
      6.585  0.1459E-01  0.3913E-01  0.0000E+00
      6.651  0.1021E-01  0.3664E-01  0.0000E+00
      6.717  0.1449E-01  0.4860E-01  0.0000E+00
      6.783  0.1690E-01  0.4651E-01  0.0000E+00
      6.849  0.2666E-01  0.3914E-01  0.0000E+00
      6.915  0.2376E-01  0.3129E-01  0.0000E+00
      6.981  0.1963E-01  0.4290E-01  0.0000E+00
      7.047  0.2447E-01  0.3183E-01  0.0000E+00
      7.113  0.2818E-01  0.2823E-01  0.0000E+00
      7.179  0.1713E-01  0.3124E-01  0.0000E+00
      7.245  0.7866E-02  0.2813E-01  0.0000E+00
      7.311  0.1401E-01  0.1835E-01  0.0000E+00
      7.377  0.9814E-02  0.2103E-01  0.0000E+00
      7.443  0.4753E-02  0.1428E-01  0.0000E+00
      7.509  0.2416E-02  0.1112E-01  0.0000E+00
      7.575  0.3380E-03  0.6854E-02  0.0000E+00
      7.641  0.2785E-03  0.4284E-02  0.0000E+00
      7.708  0.4529E-02  0.5040E-02  0.0000E+00
      7.774  0.1133E-01  0.1126E-01  0.0000E+00
      7.840  0.2002E-02  0.1890E-02  0.0000E+00
      7.906  0.1863E-04  0.1662E-04  0.0000E+00
      7.972  0.6832E-08  0.5757E-08  0.0000E+00
      8.038  0.8693E-13  0.6934E-13  0.0000E+00
      8.104  0.0000E+00  0.0000E+00  0.0000E+00
      8.170  0.0000E+00  0.0000E+00  0.0000E+00
      8.236  0.0000E+00  0.0000E+00  0.0000E+00
      8.302  0.0000E+00  0.0000E+00  0.0000E+00
      8.368  0.0000E+00  0.0000E+00  0.0000E+00
      8.434  0.0000E+00  0.0000E+00  0.0000E+00
      8.500  0.0000E+00  0.0000E+00  0.0000E+00
      8.566  0.0000E+00  0.0000E+00  0.0000E+00
      8.632  0.0000E+00  0.0000E+00  0.0000E+00
      8.63187118    -11.17583757  301      3.61804491      1.00000000
    -11.176  0.0000E+00  0.0000E+00  0.0000E+00
    -11.110  0.0000E+00  0.0000E+00  0.0000E+00
    -11.044  0.0000E+00  0.0000E+00  0.0000E+00
    -10.978  0.0000E+00  0.0000E+00  0.0000E+00
    -10.912  0.0000E+00  0.0000E+00  0.0000E+00
    -10.846  0.0000E+00  0.0000E+00  0.0000E+00
    -10.780  0.0000E+00  0.0000E+00  0.0000E+00
    -10.714  0.0000E+00  0.0000E+00  0.0000E+00
    -10.648  0.0000E+00  0.0000E+00  0.0000E+00
    -10.582  0.0000E+00  0.0000E+00  0.0000E+00
    -10.516  0.1871E-14  0.1218E-14  0.0000E+00
    -10.450  0.1429E-09  0.9298E-10  0.0000E+00
    -10.384  0.3796E-06  0.2454E-06  0.0000E+00
    -10.318  0.4129E-04  0.2561E-04  0.0000E+00
    -10.251  0.2862E-03  0.1459E-03  0.0000E+00
    -10.185  0.2991E-03  0.1367E-03  0.0000E+00
    -10.119  0.4455E-03  0.3952E-03  0.0000E+00
    -10.053  0.1928E-03  0.1742E-03  0.0000E+00
     -9.987  0.6011E-03  0.4161E-03  0.0000E+00
     -9.921  0.1319E-02  0.8036E-03  0.0000E+00
     -9.855  0.8499E-03  0.8628E-03  0.0000E+00
     -9.789  0.4537E-03  0.5590E-03  0.0000E+00
     -9.723  0.2744E-03  0.2511E-03  0.0000E+00
     -9.657  0.1351E-02  0.1298E-02  0.0000E+00
     -9.591  0.1216E-02  0.1283E-02  0.0000E+00
     -9.525  0.7075E-03  0.7600E-03  0.0000E+00
     -9.459  0.9692E-04  0.1210E-03  0.0000E+00
     -9.393  0.2055E-03  0.3439E-03  0.0000E+00
     -9.327  0.1316E-02  0.1701E-02  0.0000E+00
     -9.261  0.1387E-02  0.1883E-02  0.0000E+00
     -9.195  0.9052E-03  0.1224E-02  0.0000E+00
     -9.129  0.1910E-02  0.2235E-02  0.0000E+00
     -9.063  0.1362E-02  0.2266E-02  0.0000E+00
     -8.997  0.4882E-03  0.8455E-03  0.0000E+00
     -8.931  0.1689E-02  0.2613E-02  0.0000E+00
     -8.865  0.3478E-02  0.4494E-02  0.0000E+00
     -8.799  0.2205E-02  0.3040E-02  0.0000E+00
     -8.733  0.5610E-03  0.9055E-03  0.0000E+00
     -8.667  0.4130E-03  0.9652E-03  0.0000E+00
     -8.601  0.1108E-02  0.3007E-02  0.0000E+00
     -8.535  0.1452E-02  0.2989E-02  0.0000E+00
     -8.469  0.6072E-03  0.7522E-03  0.0000E+00
     -8.403  0.1001E-02  0.1124E-02  0.0000E+00
     -8.337  0.3803E-02  0.4436E-02  0.0000E+00
     -8.271  0.6481E-02  0.7235E-02  0.0000E+00
     -8.205  0.6048E-02  0.9021E-02  0.0000E+00
     -8.139  0.8753E-02  0.1565E-01  0.0000E+00
     -8.073  0.5984E-02  0.1290E-01  0.0000E+00
     -8.007  0.5160E-02  0.7799E-02  0.0000E+00
     -7.941  0.4280E-02  0.5980E-02  0.0000E+00
     -7.875  0.6584E-02  0.1098E-01  0.0000E+00
     -7.809  0.4032E-02  0.5821E-02  0.0000E+00
     -7.743  0.2781E-03  0.3769E-03  0.0000E+00
     -7.676  0.1034E-05  0.1371E-05  0.0000E+00
     -7.610  0.1479E-09  0.1933E-09  0.0000E+00
     -7.544  0.7274E-15  0.9378E-15  0.0000E+00
     -7.478  0.0000E+00  0.0000E+00  0.0000E+00
     -7.412  0.0000E+00  0.0000E+00  0.0000E+00
     -7.346  0.0000E+00  0.0000E+00  0.0000E+00
     -7.280  0.0000E+00  0.0000E+00  0.0000E+00
     -7.214  0.0000E+00  0.0000E+00  0.0000E+00
     -7.148  0.6131E-15  0.1193E-14  0.0000E+00
     -7.082  0.7524E-10  0.1464E-09  0.0000E+00
     -7.016  0.3158E-06  0.6143E-06  0.0000E+00
     -6.950  0.5075E-04  0.9872E-04  0.0000E+00
     -6.884  0.4109E-03  0.7993E-03  0.0000E+00
     -6.818  0.3941E-03  0.7642E-03  0.0000E+00
     -6.752  0.5644E-03  0.1135E-02  0.0000E+00
     -6.686  0.1989E-03  0.1141E-02  0.0000E+00
     -6.620  0.2330E-03  0.1304E-02  0.0000E+00
     -6.554  0.6812E-03  0.1222E-02  0.0000E+00
     -6.488  0.5846E-03  0.1464E-02  0.0000E+00
     -6.422  0.8673E-03  0.2985E-02  0.0000E+00
     -6.356  0.5011E-03  0.1300E-02  0.0000E+00
     -6.290  0.7398E-03  0.1461E-02  0.0000E+00
     -6.224  0.1184E-02  0.2424E-02  0.0000E+00
     -6.158  0.2926E-03  0.1570E-02  0.0000E+00
     -6.092  0.2439E-03  0.1992E-02  0.0000E+00
     -6.026  0.9765E-03  0.1577E-02  0.0000E+00
     -5.960  0.9431E-03  0.1587E-02  0.0000E+00
     -5.894  0.1175E-02  0.3139E-02  0.0000E+00
     -5.828  0.2121E-02  0.3729E-02  0.0000E+00
     -5.762  0.2100E-02  0.3391E-02  0.0000E+00
     -5.696  0.1172E-02  0.2819E-02  0.0000E+00
     -5.630  0.2126E-02  0.2323E-02  0.0000E+00
     -5.564  0.2373E-02  0.2522E-02  0.0000E+00
     -5.498  0.1956E-02  0.2131E-02  0.0000E+00
     -5.432  0.1658E-02  0.2475E-02  0.0000E+00
     -5.366  0.1221E-02  0.2244E-02  0.0000E+00
     -5.300  0.1210E-02  0.1009E-02  0.0000E+00