Automatically generated mesh
       6
Reciprocal lattice
    0.00000000000000    0.25000000000000    0.25000000000000             2
    0.20000000000000    0.25000000000000    0.25000000000000             4
    0.40000000000000    0.25000000000000    0.25000000000000             4
    0.00000000000000   -0.25000000000000    0.25000000000000             2
    0.20000000000000   -0.25000000000000    0.25000000000000             4
    0.40000000000000   -0.25000000000000    0.25000000000000             4
