 vasp.5.4.4.18Apr17-6-g9f103f2a35 (build Oct 27 2022 13:04:57) complex          
  
 executed on             LinuxIFC date 2024.07.04  08:32:38
 running on   14 total cores
 distrk:  each k-point on   14 cores,    1 groups
 distr:  one band on NCORES_PER_BAND=   1 cores,   14 groups


--------------------------------------------------------------------------------------------------------


 INCAR:
 POTCAR:    PAW_PBE Li 17Jan2003                  
 POTCAR:    PAW_PBE Bi 08Apr2002                  
 POTCAR:    PAW_PBE S 06Sep2000                   

 ----------------------------------------------------------------------------- 
|                                                                             |
|           W    W    AA    RRRRR   N    N  II  N    N   GGGG   !!!           |
|           W    W   A  A   R    R  NN   N  II  NN   N  G    G  !!!           |
|           W    W  A    A  R    R  N N  N  II  N N  N  G       !!!           |
|           W WW W  AAAAAA  RRRRR   N  N N  II  N  N N  G  GGG   !            |
|           WW  WW  A    A  R   R   N   NN  II  N   NN  G    G                |
|           W    W  A    A  R    R  N    N  II  N    N   GGGG   !!!           |
|                                                                             |
|      For optimal performance we recommend to set                            |
|        NCORE= 4 - approx SQRT( number of cores)                             |
|      NCORE specifies how many cores store one orbital (NPAR=cpu/NCORE).     |
|      This setting can  greatly improve the performance of VASP for DFT.     |
|      The default,   NCORE=1            might be grossly inefficient         |
|      on modern multi-core architectures or massively parallel machines.     |
|      Do your own testing !!!!                                               |
|      Unfortunately you need to use the default for GW and RPA calculations. |
|      (for HF NCORE is supported but not extensively tested yet)             |
|                                                                             |
 ----------------------------------------------------------------------------- 

 POTCAR:    PAW_PBE Li 17Jan2003                  
   VRHFIN =Li: s1p0                                                             
   LEXCH  = PE                                                                  
   EATOM  =     5.3001 eV,    0.3895 Ry                                         
                                                                                
   TITEL  = PAW_PBE Li 17Jan2003                                                
   LULTRA =        F    use ultrasoft PP ?                                      
   IUNSCR =        1    unscreen: 0-lin 1-nonlin 2-no                           
   RPACOR =    1.500    partial core radius                                     
   POMASS =    7.010; ZVAL   =    1.000    mass and valenz                      
   RCORE  =    2.050    outmost cutoff radius                                   
   RWIGS  =    2.600; RWIGS  =    1.376    wigner-seitz radius (au A)           
   ENMAX  =  140.000; ENMIN  =  100.000 eV                                      
   ICORE  =        2    local potential                                         
   LCOR   =        T    correct aug charges                                     
   LPAW   =        T    paw PP                                                  
   EAUG   =  331.638                                                            
   DEXC   =    0.000                                                            
   RMAX   =    2.098    core radius for proj-oper                               
   RAUG   =    1.300    factor for augmentation sphere                          
   RDEP   =    2.094    radius for radial grids                                 
   RDEPT  =    1.810    core radius for aug-charge                              
                                                                                
   Atomic configuration                                                         
    4 entries                                                                   
     n  l   j            E        occ.                                          
     1  0  0.50       -51.8549   2.0000                                         
     2  0  0.50        -2.8742   1.0000                                         
     2  1  0.50        -1.3606   0.0000                                         
     3  2  1.50        -1.3606   0.0000                                         
   Description                                                                  
     l       E           TYP  RCUT    TYP  RCUT                                 
     0     -2.8742052     23  2.050                                             
     0     27.2116520     23  2.050                                             
     1     -1.3605826     23  2.050                                             
     2     -1.3605826     23  2.050                                             
  local pseudopotential read in
  partial core-charges read in
  partial kinetic energy density read in
  atomic valenz-charges read in
  non local Contribution for L=           0  read in
    real space projection operators read in
  non local Contribution for L=           0  read in
    real space projection operators read in
  non local Contribution for L=           1  read in
    real space projection operators read in
    PAW grid and wavefunctions read in
 
   number of l-projection  operators is LMAX  =           3
   number of lm-projection operators is LMMAX =           5
 
 POTCAR:    PAW_PBE Bi 08Apr2002                  
   VRHFIN =Bi:                                                                  
   LEXCH  = PE                                                                  
   EATOM  =   150.8133 eV,   11.0845 Ry                                         
                                                                                
   TITEL  = PAW_PBE Bi 08Apr2002                                                
   LULTRA =        F    use ultrasoft PP ?                                      
   IUNSCR =        1    unscreen: 0-lin 1-nonlin 2-no                           
   RPACOR =    2.200    partial core radius                                     
   POMASS =  208.980; ZVAL   =    5.000    mass and valenz                      
   RCORE  =    3.000    outmost cutoff radius                                   
   RWIGS  =    3.090; RWIGS  =    1.635    wigner-seitz radius (au A)           
   ENMAX  =  105.037; ENMIN  =   78.777 eV                                      
   ICORE  =        3    local potential                                         
   LCOR   =        T    correct aug charges                                     
   LPAW   =        T    paw PP                                                  
   EAUG   =  265.427                                                            
   DEXC   =    0.000                                                            
   RMAX   =    3.067    core radius for proj-oper                               
   RAUG   =    1.300    factor for augmentation sphere                          
   RDEP   =    3.012    radius for radial grids                                 
   RDEPT  =    2.604    core radius for aug-charge                              
                                                                                
   Atomic configuration                                                         
   17 entries                                                                   
     n  l   j            E        occ.                                          
     1  0  0.50    -90639.6582   2.0000                                         
     2  0  0.50    -16282.4667   2.0000                                         
     2  1  1.50    -13922.8287   6.0000                                         
     3  0  0.50     -3930.4763   2.0000                                         
     3  1  1.50     -3256.7013   6.0000                                         
     3  2  2.50     -2581.6169  10.0000                                         
     4  0  0.50      -902.2614   2.0000                                         
     4  1  1.50      -681.5915   6.0000                                         
     4  2  2.50      -429.8249  10.0000                                         
     4  3  3.50      -152.6004  14.0000                                         
     5  0  0.50      -157.7156   2.0000                                         
     5  1  1.50       -95.8054   6.0000                                         
     5  2  2.50       -27.0806  10.0000                                         
     6  0  0.50       -14.4732   2.0000                                         
     6  1  1.50        -4.5702   3.0000                                         
     6  2  2.50        -2.7212   0.0000                                         
     5  3  2.50        -2.7212   0.0000                                         
   Description                                                                  
     l       E           TYP  RCUT    TYP  RCUT                                 
     0    -14.4732299     23  3.000                                             
     0    -12.2452434     23  3.000                                             
     1     -4.5701666     23  3.000                                             
     1    -13.6058260     23  3.000                                             
     2     -2.7211652     23  3.000                                             
     3     -1.3605826      7  3.000                                             
  local pseudopotential read in
  partial core-charges read in
  partial kinetic energy density read in
  kinetic energy density of atom read in
  atomic valenz-charges read in
  non local Contribution for L=           0  read in
    real space projection operators read in
  non local Contribution for L=           0  read in
    real space projection operators read in
  non local Contribution for L=           1  read in
    real space projection operators read in
  non local Contribution for L=           1  read in
    real space projection operators read in
  non local Contribution for L=           2  read in
    real space projection operators read in
    PAW grid and wavefunctions read in
 
   number of l-projection  operators is LMAX  =           5
   number of lm-projection operators is LMMAX =          13
 
 POTCAR:    PAW_PBE S 06Sep2000                   
   VRHFIN =S : s2p4                                                             
   LEXCH  = PE                                                                  
   EATOM  =   276.8230 eV,   20.3459 Ry                                         
                                                                                
   TITEL  = PAW_PBE S 06Sep2000                                                 
   LULTRA =        F    use ultrasoft PP ?                                      
   IUNSCR =        1    unscreen: 0-lin 1-nonlin 2-no                           
   RPACOR =    1.500    partial core radius                                     
   POMASS =   32.066; ZVAL   =    6.000    mass and valenz                      
   RCORE  =    1.900    outmost cutoff radius                                   
   RWIGS  =    2.200; RWIGS  =    1.164    wigner-seitz radius (au A)           
   ENMAX  =  258.689; ENMIN  =  194.016 eV                                      
   ICORE  =        2    local potential                                         
   LCOR   =        T    correct aug charges                                     
   LPAW   =        T    paw PP                                                  
   EAUG   =  335.092                                                            
   DEXC   =    0.000                                                            
   RMAX   =    1.942    core radius for proj-oper                               
   RAUG   =    1.300    factor for augmentation sphere                          
   RDEP   =    1.954    radius for radial grids                                 
   RDEPT  =    1.744    core radius for aug-charge                              
                                                                                
   Atomic configuration                                                         
    6 entries                                                                   
     n  l   j            E        occ.                                          
     1  0  0.50     -2405.8406   2.0000                                         
     2  0  0.50      -211.7007   2.0000                                         
     2  1  1.50      -156.4958   6.0000                                         
     3  0  0.50       -17.2562   2.0000                                         
     3  1  0.50        -7.0085   4.0000                                         
     3  2  1.50        -6.8029   0.0000                                         
   Description                                                                  
     l       E           TYP  RCUT    TYP  RCUT                                 
     0    -17.2561641     23  1.900                                             
     0    -15.8743224     23  1.900                                             
     1     -7.0085400     23  1.900                                             
     1     -2.7779785     23  1.900                                             
     2     -6.8029130     23  1.900                                             
  local pseudopotential read in
  partial core-charges read in
  partial kinetic energy density read in
  atomic valenz-charges read in
  non local Contribution for L=           0  read in
    real space projection operators read in
  non local Contribution for L=           0  read in
    real space projection operators read in
  non local Contribution for L=           1  read in
    real space projection operators read in
  non local Contribution for L=           1  read in
    real space projection operators read in
    PAW grid and wavefunctions read in
 
   number of l-projection  operators is LMAX  =           4
   number of lm-projection operators is LMMAX =           8
 
 Optimization of the real space projectors (new method)

 maximal supplied QI-value         = 18.33
 optimisation between [QCUT,QGAM] = [  8.80, 17.60] = [ 21.68, 86.71] Ry 
 Optimized for a Real-space Cutoff    1.15 Angstroem

   l    n(q)    QCUT    max X(q) W(low)/X(q) W(high)/X(q)  e(spline) 
   0      6     8.799    33.825    0.11E-02    0.11E-02    0.82E-07
   0      6     8.799     8.944    0.75E-03    0.85E-03    0.59E-07
   1      5     8.799     4.214    0.92E-03    0.27E-03    0.41E-07
 Optimization of the real space projectors (new method)

 maximal supplied QI-value         = 12.47
 optimisation between [QCUT,QGAM] = [  8.86, 17.71] = [ 21.96, 87.83] Ry 
 Optimized for a Real-space Cutoff    1.59 Angstroem

   l    n(q)    QCUT    max X(q) W(low)/X(q) W(high)/X(q)  e(spline) 
   0      8     8.855    93.365    0.12E-03    0.22E-03    0.92E-07
   0      8     8.855    75.373    0.13E-03    0.24E-03    0.10E-06
   1      8     8.855    32.978    0.17E-02    0.62E-03    0.17E-06
   1      8     8.855    35.433    0.19E-02    0.68E-03    0.19E-06
   2      7     8.855     8.108    0.22E-03    0.34E-03    0.64E-07
 Optimization of the real space projectors (new method)

 maximal supplied QI-value         = 19.84
 optimisation between [QCUT,QGAM] = [  8.73, 17.66] = [ 21.34, 87.33] Ry 
 Optimized for a Real-space Cutoff    1.22 Angstroem

   l    n(q)    QCUT    max X(q) W(low)/X(q) W(high)/X(q)  e(spline) 
   0      6     8.731   187.594    0.15E-02    0.56E-03    0.90E-07
   0      6     8.731   164.243    0.15E-02    0.56E-03    0.89E-07
   1      6     8.731    67.533    0.37E-03    0.20E-02    0.11E-06
   1      6     8.731    50.729    0.36E-03    0.19E-02    0.10E-06
  PAW_PBE Li 17Jan2003                  :
 energy of atom  1       EATOM=   -5.3001
 kinetic energy error for atom=    0.0000 (will be added to EATOM!!)
  PAW_PBE Bi 08Apr2002                  :
 energy of atom  2       EATOM= -150.8133
 kinetic energy error for atom=    0.0003 (will be added to EATOM!!)
  PAW_PBE S 06Sep2000                   :
 energy of atom  3       EATOM= -276.8230
 kinetic energy error for atom=    0.0077 (will be added to EATOM!!)
 
 
 POSCAR: Li4 Bi8 S14                             
  positions in direct lattice
  No initial velocities read in
 exchange correlation table for  LEXCH =        8
   RHO(1)=    0.500       N(1)  =     2000
   RHO(2)=  100.500       N(2)  =     4000
 


--------------------------------------------------------------------------------------------------------


 ion  position               nearest neighbor table
   1  0.250  0.568  0.812-
   2  0.750  0.432  0.188-
   3  0.750  0.829  0.623-
   4  0.250  0.171  0.377-
   5  0.250  0.946  0.880-  18 2.80  19 2.93  19 2.93  26 3.02  26 3.02  25 3.17
   6  0.750  0.054  0.120-  17 2.80  20 2.93  20 2.93  25 3.02  25 3.02  26 3.17
   7  0.250  0.832  0.275-  21 2.85  23 2.91  23 2.91  17 3.00  17 3.00  25 3.06
   8  0.750  0.168  0.725-  22 2.85  24 2.91  24 2.91  18 3.00  18 3.00  26 3.06
   9  0.750  0.731  0.051-  15 2.79  15 2.79  23 2.96  19 2.98  25 3.21  25 3.21
  10  0.250  0.269  0.949-  16 2.79  16 2.79  24 2.96  20 2.98  26 3.21  26 3.21
  11  0.750  0.607  0.428-  14 2.84  21 2.96  21 2.96  13 2.99  13 2.99  23 3.05
  12  0.250  0.393  0.572-  13 2.84  22 2.96  22 2.96  14 2.99  14 2.99  24 3.05
  13  0.250  0.458  0.393-  12 2.84  11 2.99  11 2.99
  14  0.750  0.542  0.607-  11 2.84  12 2.99  12 2.99
  15  0.250  0.598  0.038-   9 2.79   9 2.79
  16  0.750  0.402  0.962-  10 2.79  10 2.79
  17  0.750  0.986  0.295-   6 2.80   7 3.00   7 3.00
  18  0.250  0.014  0.705-   5 2.80   8 3.00   8 3.00
  19  0.750  0.798  0.863-   5 2.93   5 2.93   9 2.98
  20  0.250  0.202  0.137-   6 2.93   6 2.93  10 2.98
  21  0.250  0.755  0.452-   7 2.85  11 2.96  11 2.96
  22  0.750  0.245  0.548-   8 2.85  12 2.96  12 2.96
  23  0.750  0.692  0.240-   7 2.91   7 2.91   9 2.96  11 3.05
  24  0.250  0.308  0.760-   8 2.91   8 2.91  10 2.96  12 3.05
  25  0.250  0.904  0.083-   6 3.02   6 3.02   7 3.06   5 3.17   9 3.21   9 3.21
  26  0.750  0.096  0.917-   5 3.02   5 3.02   8 3.06   6 3.17  10 3.21  10 3.21
 
  LATTYP: Found a simple monoclinic cell.
 ALAT       =    21.3605926023
 B/A-ratio  =     0.1986841797
 C/A-ratio  =     1.5026816239
 COS(beta)  =    -0.9528717542
  
  Lattice vectors:
  
 A1 = (   0.0000000000, -14.6430014100, -15.5517660100)
 A2 = (  -4.2440118200,   0.0000000000,   0.0000000000)
 A3 = (   0.0000000000,  28.0564101800,  15.5926381300)


Analysis of symmetry for initial positions (statically):
=====================================================================
 Subroutine PRICEL returns:
 Original cell was already a primitive cell.
 

 Routine SETGRP: Setting up the symmetry group for a 
 simple monoclinic supercell.


 Subroutine GETGRP returns: Found  4 space group operations
 (whereof  2 operations were pure point group operations)
 out of a pool of  4 trial point group operations.


The static configuration has the point symmetry S_2 .
 The point group associated with its full space group is C_2h.


Analysis of symmetry for dynamics (positions and initial velocities):
=====================================================================
 Subroutine PRICEL returns:
 Original cell was already a primitive cell.
 

 Routine SETGRP: Setting up the symmetry group for a 
 simple monoclinic supercell.


 Subroutine GETGRP returns: Found  4 space group operations
 (whereof  2 operations were pure point group operations)
 out of a pool of  4 trial point group operations.


The dynamic configuration has the point symmetry S_2 .
 The point group associated with its full space group is C_2h.


 Subroutine INISYM returns: Found  4 space group operations
 (whereof  2 operations are pure point group operations),
 and found     1 'primitive' translations

 
 
 KPOINTS: pymatgen with grid density = 807 / numbe

Automatic generation of k-mesh.
Space group operators:
 irot       det(A)        alpha          n_x          n_y          n_z        tau_x        tau_y        tau_z
    1     1.000000     0.000000     1.000000     0.000000     0.000000     0.000000     0.000000     0.000000
    2    -1.000000     0.000000     1.000000     0.000000     0.000000     0.000000     0.000000     0.000000
    3     1.000000   180.000000     1.000000     0.000000     0.000000    -0.500000    -0.000000    -0.000000
    4    -1.000000   180.000000     1.000000     0.000000     0.000000    -0.500000     0.000000     0.000000
 
 Subroutine IBZKPT returns following result:
 ===========================================
 
 Found      6 irreducible k-points:
 
 Following reciprocal coordinates:
            Coordinates               Weight
  0.000000  0.250000  0.250000      2.000000
  0.200000  0.250000  0.250000      4.000000
  0.400000  0.250000  0.250000      4.000000
  0.000000 -0.250000  0.250000      2.000000
  0.200000 -0.250000  0.250000      4.000000
  0.400000 -0.250000  0.250000      4.000000
 
 Following cartesian coordinates:
            Coordinates               Weight
  0.000000  0.018593  0.014644      2.000000
  0.047125  0.018593  0.014644      4.000000
  0.094250  0.018593  0.014644      4.000000
  0.000000 -0.018692  0.017599      2.000000
  0.047125 -0.018692  0.017599      4.000000
  0.094250 -0.018692  0.017599      4.000000
 


--------------------------------------------------------------------------------------------------------




 Dimension of arrays:
   k-points           NKPTS =      6   k-points in BZ     NKDIM =      6   number of bands    NBANDS=     84
   number of dos      NEDOS =    301   number of ions     NIONS =     26
   non local maximal  LDIM  =      5   non local SUM 2l+1 LMDIM =     13
   total plane-waves  NPLWV =  75600
   max r-space proj   IRMAX =   1503   max aug-charges    IRDMAX=   3100
   dimension x,y,z NGX =    18 NGY =   60 NGZ =   70
   dimension x,y,z NGXF=    28 NGYF=   80 NGZF=   96
   support grid    NGXF=    28 NGYF=   80 NGZF=   96
   ions per type =               4   8  14
   NGX,Y,Z   is equivalent  to a cutoff of   7.05,  7.44,  7.48 a.u.
   NGXF,Y,Z  is equivalent  to a cutoff of  10.97,  9.92, 10.26 a.u.

 SYSTEM =  CIS                                     
 POSCAR =  Li4 Bi8 S14                             

 Startparameter for this run:
   NWRITE =      2    write-flag & timer
   PREC   = medium    normal or accurate (medium, high low for compatibility)
   ISTART =      0    job   : 0-new  1-cont  2-samecut
   ICHARG =      2    charge: 1-file 2-atom 10-const
   ISPIN  =      1    spin polarized calculation?
   LNONCOLLINEAR =      F non collinear calculations
   LSORBIT =      F    spin-orbit coupling
   INIWAV =      1    electr: 0-lowe 1-rand  2-diag
   LASPH  =      T    aspherical Exc in radial PAW
   METAGGA=      F    non-selfconsistent MetaGGA calc.

 Electronic Relaxation 1
   ENCUT  =  300.0 eV  22.05 Ry    4.70 a.u.   5.99 18.94 21.97*2*pi/ulx,y,z
   ENINI  =  300.0     initial cutoff
   ENAUG  =  335.1 eV  augmentation charge cutoff
   NELM   =     60;   NELMIN=  2; NELMDL= -5     # of ELM steps 
   EDIFF  = 0.1E-03   stopping-criterion for ELM
   LREAL  =      T    real-space projection
   NLSPLINE    = F    spline interpolate recip. space projectors
   LCOMPAT=      F    compatible to vasp.4.4
   GGA_COMPAT  = T    GGA compatible to vasp.4.4-vasp.4.6
   LMAXPAW     = -100 max onsite density
   LMAXMIX     =    4 max onsite mixed and CHGCAR
   VOSKOWN=      0    Vosko Wilk Nusair interpolation
   ROPT   =   -0.00200  -0.00200  -0.00200
 Ionic relaxation
   EDIFFG = -.5E-01   stopping-criterion for IOM
   NSW    =     99    number of steps for IOM
   NBLOCK =      1;   KBLOCK =     99    inner block; outer block 
   IBRION =      2    ionic relax: 0-MD 1-quasi-New 2-CG
   NFREE  =      1    steps in history (QN), initial steepest desc. (CG)
   ISIF   =      3    stress and relaxation
   IWAVPR =     11    prediction:  0-non 1-charg 2-wave 3-comb
   ISYM   =      2    0-nonsym 1-usesym 2-fastsym
   LCORR  =      T    Harris-Foulkes like correction to forces

   POTIM  = 0.1000    time-step for ionic-motion
   TEIN   =    0.0    initial temperature
   TEBEG  =    0.0;   TEEND  =   0.0 temperature during run
   SMASS  =  -3.00    Nose mass-parameter (am)
   estimated Nose-frequenzy (Omega)   =  0.10E-29 period in steps =****** mass=  -0.412E-27a.u.
   SCALEE = 1.0000    scale energy and forces
   NPACO  =    256;   APACO  = 16.0  distance and # of slots for P.C.
   PSTRESS=    0.0 pullay stress

  Mass of Ions in am
   POMASS =   7.01208.98 32.07
  Ionic Valenz
   ZVAL   =   1.00  5.00  6.00
  Atomic Wigner-Seitz radii
   RWIGS  =  -1.00 -1.00 -1.00
  virtual crystal weights 
   VCA    =   1.00  1.00  1.00
   NELECT =     128.0000    total number of electrons
   NUPDOWN=      -1.0000    fix difference up-down

 DOS related values:
   EMIN   =  10.00;   EMAX   =-10.00  energy-range for DOS
   EFERMI =   0.00
   ISMEAR =     0;   SIGMA  =   0.05  broadening in eV -4-tet -1-fermi 0-gaus

 Electronic relaxation 2 (details)
   IALGO  =     38    algorithm
   LDIAG  =      T    sub-space diagonalisation (order eigenvalues)
   LSUBROT=      F    optimize rotation matrix (better conditioning)
   TURBO    =      0    0=normal 1=particle mesh
   IRESTART =      0    0=no restart 2=restart with 2 vectors
   NREBOOT  =      0    no. of reboots
   NMIN     =      0    reboot dimension
   EREF     =   0.00    reference energy to select bands
   IMIX   =      4    mixing-type and parameters
     AMIX     =   0.40;   BMIX     =  1.00
     AMIX_MAG =   1.60;   BMIX_MAG =  1.00
     AMIN     =   0.10
     WC   =   100.;   INIMIX=   1;  MIXPRE=   1;  MAXMIX= -45

 Intra band minimization:
   WEIMIN = 0.0010     energy-eigenvalue tresh-hold
   EBREAK =  0.30E-06  absolut break condition
   DEPER  =   0.30     relativ break condition  

   TIME   =   0.40     timestep for ELM

  volume/ion in A,a.u.               =      33.95       229.12
  Fermi-wavevector in a.u.,A,eV,Ry     =   0.860060  1.625278 10.064282  0.739704
  Thomas-Fermi vector in A             =   1.977509
 
 Write flags
   LWAVE        =      F    write WAVECAR
   LDOWNSAMPLE  =      F    k-point downsampling of WAVECAR
   LCHARG       =      F    write CHGCAR
   LVTOT        =      F    write LOCPOT, total local potential
   LVHAR        =      F    write LOCPOT, Hartree potential only
   LELF         =      F    write electronic localiz. function (ELF)
   LORBIT       =     10    0 simple, 1 ext, 2 COOP (PROOUT), +10 PAW based schemes


 Dipole corrections
   LMONO  =      F    monopole corrections only (constant potential shift)
   LDIPOL =      F    correct potential (dipole corrections)
   IDIPOL =      0    1-x, 2-y, 3-z, 4-all directions 
   EPSILON=  1.0000000 bulk dielectric constant

 Exchange correlation treatment:
   GGA     =    --    GGA type
   LEXCH   =     8    internal setting for exchange type
   VOSKOWN=      0    Vosko Wilk Nusair interpolation
   LHFCALC =     F    Hartree Fock is set to
   LHFONE  =     F    Hartree Fock one center treatment
   AEXX    =    0.0000 exact exchange contribution

 Linear response parameters
   LEPSILON=     F    determine dielectric tensor
   LRPA    =     F    only Hartree local field effects (RPA)
   LNABLA  =     F    use nabla operator in PAW spheres
   LVEL    =     F    velocity operator in full k-point grid
   LINTERFAST=   F  fast interpolation
   KINTER  =     0    interpolate to denser k-point grid
   CSHIFT  =0.1000    complex shift for real part using Kramers Kronig
   OMEGAMAX=  -1.0    maximum frequency
   DEG_THRESHOLD= 0.2000000E-02 threshold for treating states as degnerate
   RTIME   =   -0.100 relaxation time in fs
  (WPLASMAI=    0.000 imaginary part of plasma frequency in eV, 0.658/RTIME)
   DFIELD  = 0.0000000 0.0000000 0.0000000 field for delta impulse in time
 
 Orbital magnetization related:
   ORBITALMAG=     F  switch on orbital magnetization
   LCHIMAG   =     F  perturbation theory with respect to B field
   DQ        =  0.001000  dq finite difference perturbation B field
   LLRAUG    =     F  two centre corrections for induced B field



--------------------------------------------------------------------------------------------------------


 conjugate gradient relaxation of ions
 charge density and potential will be updated during run
 non-spin polarized calculation
 Variant of blocked Davidson
 Davidson routine will perform the subspace rotation
 perform sub-space diagonalisation
    after iterative eigenvector-optimisation
 modified Broyden-mixing scheme, WC =      100.0
 initial mixing is a Kerker type mixing with AMIX =  0.4000 and BMIX =      1.0000
 Hartree-type preconditioning will be used
 using additional bands           20
 real space projection scheme for non local part
 use partial core corrections
 calculate Harris-corrections to forces 
   (improved forces if not selfconsistent)
 use gradient corrections 
 use of overlap-Matrix (Vanderbilt PP)
 Gauss-broadening in eV      SIGMA  =   0.05


--------------------------------------------------------------------------------------------------------


  energy-cutoff  :      300.00
  volume of cell :      882.77
      direct lattice vectors                 reciprocal lattice vectors
     4.244011820  0.000000000  0.000000000     0.235626111  0.000000000  0.000000000
     0.000000000 13.413408770  0.040872120     0.000000000  0.074570277 -0.005911398
     0.000000000  1.229592640 15.510893890     0.000000000 -0.000196497  0.064486394

  length of vectors
     4.244011820 13.413471041 15.559554214     0.235626111  0.074804217  0.064486693


 
 k-points in units of 2pi/SCALE and weight: pymatgen with grid density = 807 / numbe
   0.00000000  0.01859345  0.01464375       0.100
   0.04712522  0.01859345  0.01464375       0.200
   0.09425044  0.01859345  0.01464375       0.200
   0.00000000 -0.01869169  0.01759945       0.100
   0.04712522 -0.01869169  0.01759945       0.200
   0.09425044 -0.01869169  0.01759945       0.200
 
 k-points in reciprocal lattice and weights: pymatgen with grid density = 807 / numbe
   0.00000000  0.25000000  0.25000000       0.100
   0.20000000  0.25000000  0.25000000       0.200
   0.40000000  0.25000000  0.25000000       0.200
   0.00000000 -0.25000000  0.25000000       0.100
   0.20000000 -0.25000000  0.25000000       0.200
   0.40000000 -0.25000000  0.25000000       0.200
 
 position of ions in fractional coordinates (direct lattice) 
   0.25000000  0.56849279  0.81209004
   0.75000000  0.43150721  0.18790996
   0.75000000  0.82875309  0.62285478
   0.25000000  0.17124691  0.37714522
   0.25000000  0.94612343  0.87977359
   0.75000000  0.05387657  0.12022641
   0.25000000  0.83155606  0.27488852
   0.75000000  0.16844394  0.72511148
   0.75000000  0.73146608  0.05056020
   0.25000000  0.26853392  0.94943980
   0.75000000  0.60668333  0.42829721
   0.25000000  0.39331667  0.57170279
   0.25000000  0.45798711  0.39320698
   0.75000000  0.54201289  0.60679302
   0.25000000  0.59813812  0.03793755
   0.75000000  0.40186188  0.96206245
   0.75000000  0.98566906  0.29540055
   0.25000000  0.01433094  0.70459945
   0.75000000  0.79785506  0.86286623
   0.25000000  0.20214494  0.13713377
   0.25000000  0.75545718  0.45156839
   0.75000000  0.24454282  0.54843161
   0.75000000  0.69160821  0.24041933
   0.25000000  0.30839179  0.75958067
   0.25000000  0.90357682  0.08303846
   0.75000000  0.09642318  0.91696154
 
 position of ions in cartesian coordinates  (Angst):
   1.06100295  8.62396611 12.61947795
   3.18300886  6.01903530  2.93228806
   3.18300886 11.88226162  9.69490730
   1.06100295  2.76073979  5.85685871
   1.06100295 13.77250344 13.68474487
   3.18300886  0.87049797  1.86702114
   1.06100295 11.49200225  4.29775412
   3.18300886  3.15099916 11.25401189
   3.18300886  9.87362198  0.81413047
   1.06100295  4.76937943 14.73763554
   3.18300886  8.66432260  6.66806901
   1.06100295  5.97867881  8.88369700
   1.06100295  6.62665273  6.11771065
   3.18300886  8.01634868  9.43405536
   1.06100295  8.06971884  0.61289249
   3.18300886  6.57328257 14.93887352
   3.18300886 13.58440436  4.62221297
   1.06100295  1.05859705 10.92955304
   3.18300886 11.76293002 13.41643656
   1.06100295  2.88007139  2.13532945
   1.06100295 10.68850113  7.03510652
   3.18300886  3.95450028  8.51665949
   3.18300886  9.57244147  3.75738621
   1.06100295  5.07055994 11.79437980
   1.06100295 12.22214872  1.32493184
   3.18300886  2.42085269 14.22683417
 


--------------------------------------------------------------------------------------------------------


 k-point  1 :   0.0000 0.2500 0.2500  plane waves:   10345
 k-point  2 :   0.2000 0.2500 0.2500  plane waves:   10416
 k-point  3 :   0.4000 0.2500 0.2500  plane waves:   10443
 k-point  4 :   0.0000-0.2500 0.2500  plane waves:   10347
 k-point  5 :   0.2000-0.2500 0.2500  plane waves:   10416
 k-point  6 :   0.4000-0.2500 0.2500  plane waves:   10459

 maximum and minimum number of plane-waves per node :     10459    10345

 maximum number of plane-waves:     10459
 maximum index in each direction: 
   IXMAX=    5   IYMAX=   19   IZMAX=   21
   IXMIN=   -6   IYMIN=  -19   IZMIN=  -22


 serial   3D FFT for wavefunctions
 parallel 3D FFT for charge:
    minimum data exchange during FFTs selected (reduces bandwidth)


 total amount of memory used by VASP MPI-rank0    43982. kBytes
=======================================================================

   base      :      30000. kBytes
   nonlr-proj:       2660. kBytes
   fftplans  :        905. kBytes
   grid      :       4039. kBytes
   one-center:        210. kBytes
   wavefun   :       6168. kBytes
 
     INWAV:  cpu time    0.0000: real time    0.0001
 Broyden mixing: mesh for mixing (old mesh)
   NGX = 11   NGY = 37   NGZ = 43
  (NGX  = 28   NGY  = 80   NGZ  = 96)
  gives a total of  17501 points

 initial charge density was supplied:
 charge density of overlapping atoms calculated
 number of electron     128.0000000 magnetization 
 keeping initial charge density in first step


--------------------------------------------------------------------------------------------------------


 Maximum index for non-local projection operator         1414
 Maximum index for augmentation-charges          196 (set IRDMAX)


--------------------------------------------------------------------------------------------------------


 First call to EWALD:  gamma=   0.185
 Maximum number of real-space cells 6x 2x 2
 Maximum number of reciprocal cells 1x 4x 4

    FEWALD:  cpu time    0.0020: real time    0.0020


--------------------------------------- Iteration      1(   1)  ---------------------------------------


    POTLOK:  cpu time    0.0288: real time    0.1548
    SETDIJ:  cpu time    0.1623: real time    0.1642
     EDDAV:  cpu time    0.9036: real time    0.9071
       DOS:  cpu time    0.0005: real time    0.0005
    --------------------------------------------
      LOOP:  cpu time    1.0952: real time    1.2266

 eigenvalue-minimisations  :  1008
 total energy-change (2. order) : 0.5486318E+03  (-0.3443969E+04)
 number of electron     128.0000000 magnetization 
 augmentation part      128.0000000 magnetization 

 Free energy of the ion-electron system (eV)
  ---------------------------------------------------
  alpha Z        PSCENC =        66.50579053
  Ewald energy   TEWEN  =     -3311.06114051
  -Hartree energ DENC   =     -1710.87964274
  -exchange      EXHF   =         0.00000000
  -V(xc)+E(xc)   XCENC  =      -735.06069855
  PAW double counting   =      4876.17098501    -3873.83484206
  entropy T*S    EENTRO =        -0.00503495
  eigenvalues    EBANDS =       133.67713940
  atomic energy  EATOM  =      5103.11921817
  Solvation  Ediel_sol  =         0.00000000
  ---------------------------------------------------
  free energy    TOTEN  =       548.63177430 eV

  energy without entropy =      548.63680925  energy(sigma->0) =      548.63429178


--------------------------------------------------------------------------------------------------------




--------------------------------------- Iteration      1(   2)  ---------------------------------------


     EDDAV:  cpu time    0.8019: real time    0.8044
       DOS:  cpu time    0.0002: real time    0.0002
    --------------------------------------------
      LOOP:  cpu time    0.8021: real time    0.8046

 eigenvalue-minimisations  :  1372
 total energy-change (2. order) :-0.5879303E+03  (-0.5674750E+03)
 number of electron     128.0000000 magnetization 
 augmentation part      128.0000000 magnetization 

 Free energy of the ion-electron system (eV)
  ---------------------------------------------------
  alpha Z        PSCENC =        66.50579053
  Ewald energy   TEWEN  =     -3311.06114051
  -Hartree energ DENC   =     -1710.87964274
  -exchange      EXHF   =         0.00000000
  -V(xc)+E(xc)   XCENC  =      -735.06069855
  PAW double counting   =      4876.17098501    -3873.83484206
  entropy T*S    EENTRO =        -0.00000000
  eigenvalues    EBANDS =      -454.25821003
  atomic energy  EATOM  =      5103.11921817
  Solvation  Ediel_sol  =         0.00000000
  ---------------------------------------------------
  free energy    TOTEN  =       -39.29854018 eV

  energy without entropy =      -39.29854018  energy(sigma->0) =      -39.29854018


--------------------------------------------------------------------------------------------------------




--------------------------------------- Iteration      1(   3)  ---------------------------------------


     EDDAV:  cpu time    0.9375: real time    0.9375
       DOS:  cpu time    0.0002: real time    0.0002
    --------------------------------------------
      LOOP:  cpu time    0.9377: real time    0.9378

 eigenvalue-minimisations  :  1232
 total energy-change (2. order) :-0.7199846E+02  (-0.7124825E+02)
 number of electron     128.0000000 magnetization 
 augmentation part      128.0000000 magnetization 

 Free energy of the ion-electron system (eV)
  ---------------------------------------------------
  alpha Z        PSCENC =        66.50579053
  Ewald energy   TEWEN  =     -3311.06114051
  -Hartree energ DENC   =     -1710.87964274
  -exchange      EXHF   =         0.00000000
  -V(xc)+E(xc)   XCENC  =      -735.06069855
  PAW double counting   =      4876.17098501    -3873.83484206
  entropy T*S    EENTRO =        -0.00000000
  eigenvalues    EBANDS =      -526.25667347
  atomic energy  EATOM  =      5103.11921817
  Solvation  Ediel_sol  =         0.00000000
  ---------------------------------------------------
  free energy    TOTEN  =      -111.29700362 eV

  energy without entropy =     -111.29700362  energy(sigma->0) =     -111.29700362


--------------------------------------------------------------------------------------------------------




--------------------------------------- Iteration      1(   4)  ---------------------------------------


     EDDAV:  cpu time    1.1765: real time    1.1766
       DOS:  cpu time    0.0005: real time    0.0005
    --------------------------------------------
      LOOP:  cpu time    1.1770: real time    1.1771

 eigenvalue-minimisations  :  1596
 total energy-change (2. order) :-0.2622766E+01  (-0.2614817E+01)
 number of electron     128.0000000 magnetization 
 augmentation part      128.0000000 magnetization 

 Free energy of the ion-electron system (eV)
  ---------------------------------------------------
  alpha Z        PSCENC =        66.50579053
  Ewald energy   TEWEN  =     -3311.06114051
  -Hartree energ DENC   =     -1710.87964274
  -exchange      EXHF   =         0.00000000
  -V(xc)+E(xc)   XCENC  =      -735.06069855
  PAW double counting   =      4876.17098501    -3873.83484206
  entropy T*S    EENTRO =        -0.00000000
  eigenvalues    EBANDS =      -528.87943922
  atomic energy  EATOM  =      5103.11921817
  Solvation  Ediel_sol  =         0.00000000
  ---------------------------------------------------
  free energy    TOTEN  =      -113.91976937 eV

  energy without entropy =     -113.91976937  energy(sigma->0) =     -113.91976937


--------------------------------------------------------------------------------------------------------




--------------------------------------- Iteration      1(   5)  ---------------------------------------


     EDDAV:  cpu time    1.2803: real time    1.2805
       DOS:  cpu time    0.0002: real time    0.0002
    CHARGE:  cpu time    0.0436: real time    0.0436
    MIXING:  cpu time    0.0007: real time    0.0007
    --------------------------------------------
      LOOP:  cpu time    1.3248: real time    1.3250

 eigenvalue-minimisations  :  1330
 total energy-change (2. order) :-0.3630794E-01  (-0.3627486E-01)
 number of electron     127.9999397 magnetization 
 augmentation part      -23.8488472 magnetization 

 Broyden mixing:
  rms(total) = 0.16539E+01    rms(broyden)= 0.16538E+01
  rms(prec ) = 0.19961E+01
  weight for this iteration     100.00

 Free energy of the ion-electron system (eV)
  ---------------------------------------------------
  alpha Z        PSCENC =        66.50579053
  Ewald energy   TEWEN  =     -3311.06114051
  -Hartree energ DENC   =     -1710.87964274
  -exchange      EXHF   =         0.00000000
  -V(xc)+E(xc)   XCENC  =      -735.06069855
  PAW double counting   =      4876.17098501    -3873.83484206
  entropy T*S    EENTRO =        -0.00000000
  eigenvalues    EBANDS =      -528.91574716
  atomic energy  EATOM  =      5103.11921817
  Solvation  Ediel_sol  =         0.00000000
  ---------------------------------------------------
  free energy    TOTEN  =      -113.95607731 eV

  energy without entropy =     -113.95607731  energy(sigma->0) =     -113.95607731


--------------------------------------------------------------------------------------------------------




--------------------------------------- Iteration      1(   6)  ---------------------------------------


    POTLOK:  cpu time    0.0106: real time    0.0107
    SETDIJ:  cpu time    0.1634: real time    0.1634
     EDDAV:  cpu time    1.0779: real time    1.0779
       DOS:  cpu time    0.0005: real time    0.0005
    CHARGE:  cpu time    0.0458: real time    0.0458
    MIXING:  cpu time    0.0009: real time    0.0009
    --------------------------------------------
      LOOP:  cpu time    1.2990: real time    1.2992

 eigenvalue-minimisations  :  1162
 total energy-change (2. order) : 0.9366091E+01  (-0.2629719E+01)
 number of electron     127.9999402 magnetization 
 augmentation part      -23.8727240 magnetization 

 Broyden mixing:
  rms(total) = 0.11384E+01    rms(broyden)= 0.11382E+01
  rms(prec ) = 0.11823E+01
  weight for this iteration     100.00

 eigenvalues of (default mixing * dielectric matrix)
  average eigenvalue GAMMA=   0.9938
  0.9938

 Free energy of the ion-electron system (eV)
  ---------------------------------------------------
  alpha Z        PSCENC =        66.50579053
  Ewald energy   TEWEN  =     -3311.06114051
  -Hartree energ DENC   =     -1783.69141292
  -exchange      EXHF   =         0.00000000
  -V(xc)+E(xc)   XCENC  =      -729.18912602
  PAW double counting   =      5745.33596905    -4744.02811995
  entropy T*S    EENTRO =        -0.00000000
  eigenvalues    EBANDS =      -451.58116497
  atomic energy  EATOM  =      5103.11921817
  Solvation  Ediel_sol  =         0.00000000
  ---------------------------------------------------
  free energy    TOTEN  =      -104.58998662 eV

  energy without entropy =     -104.58998662  energy(sigma->0) =     -104.58998662


--------------------------------------------------------------------------------------------------------




--------------------------------------- Iteration      1(   7)  ---------------------------------------


    POTLOK:  cpu time    0.0115: real time    0.0116
    SETDIJ:  cpu time    0.1649: real time    0.1649
     EDDAV:  cpu time    1.1640: real time    1.1641
       DOS:  cpu time    0.0003: real time    0.0003
    CHARGE:  cpu time    0.0413: real time    0.0413
    MIXING:  cpu time    0.0006: real time    0.0006
    --------------------------------------------
      LOOP:  cpu time    1.3826: real time    1.3828

 eigenvalue-minimisations  :  1204
 total energy-change (2. order) :-0.3013380E-01  (-0.4153945E+00)
 number of electron     127.9999416 magnetization 
 augmentation part      -24.1448150 magnetization 

 Broyden mixing:
  rms(total) = 0.77366E+00    rms(broyden)= 0.77364E+00
  rms(prec ) = 0.80004E+00
  weight for this iteration     100.00

 eigenvalues of (default mixing * dielectric matrix)
  average eigenvalue GAMMA=   1.4031
  0.9203  1.8858

 Free energy of the ion-electron system (eV)
  ---------------------------------------------------
  alpha Z        PSCENC =        66.50579053
  Ewald energy   TEWEN  =     -3311.06114051
  -Hartree energ DENC   =     -1797.08617241
  -exchange      EXHF   =         0.00000000
  -V(xc)+E(xc)   XCENC  =      -728.35148914
  PAW double counting   =      6619.75888116    -5618.36609780
  entropy T*S    EENTRO =        -0.00000000
  eigenvalues    EBANDS =      -439.13911042
  atomic energy  EATOM  =      5103.11921817
  Solvation  Ediel_sol  =         0.00000000
  ---------------------------------------------------
  free energy    TOTEN  =      -104.62012042 eV

  energy without entropy =     -104.62012042  energy(sigma->0) =     -104.62012042


--------------------------------------------------------------------------------------------------------




--------------------------------------- Iteration      1(   8)  ---------------------------------------


    POTLOK:  cpu time    0.0093: real time    0.0094
    SETDIJ:  cpu time    0.1610: real time    0.1610
     EDDAV:  cpu time    0.9397: real time    0.9397
       DOS:  cpu time    0.0004: real time    0.0003
    CHARGE:  cpu time    0.0412: real time    0.0412
    MIXING:  cpu time    0.0010: real time    0.0010
    --------------------------------------------
      LOOP:  cpu time    1.1525: real time    1.1527

 eigenvalue-minimisations  :  1554
 total energy-change (2. order) : 0.7274403E-01  (-0.5526760E-01)
 number of electron     127.9999420 magnetization 
 augmentation part      -24.2357504 magnetization 

 Broyden mixing:
  rms(total) = 0.21712E+00    rms(broyden)= 0.21712E+00
  rms(prec ) = 0.23854E+00
  weight for this iteration     100.00

 eigenvalues of (default mixing * dielectric matrix)
  average eigenvalue GAMMA=   1.4428
  2.3390  0.9946  0.9946

 Free energy of the ion-electron system (eV)
  ---------------------------------------------------
  alpha Z        PSCENC =        66.50579053
  Ewald energy   TEWEN  =     -3311.06114051
  -Hartree energ DENC   =     -1806.11091179
  -exchange      EXHF   =         0.00000000
  -V(xc)+E(xc)   XCENC  =      -728.02613043
  PAW double counting   =      7676.66542510    -6674.85181183
  entropy T*S    EENTRO =        -0.00000000
  eigenvalues    EBANDS =      -430.78781562
  atomic energy  EATOM  =      5103.11921817
  Solvation  Ediel_sol  =         0.00000000
  ---------------------------------------------------
  free energy    TOTEN  =      -104.54737638 eV

  energy without entropy =     -104.54737638  energy(sigma->0) =     -104.54737638


--------------------------------------------------------------------------------------------------------




--------------------------------------- Iteration      1(   9)  ---------------------------------------


    POTLOK:  cpu time    0.0097: real time    0.0098
    SETDIJ:  cpu time    0.1631: real time    0.1631
     EDDAV:  cpu time    1.2781: real time    1.2782
       DOS:  cpu time    0.0002: real time    0.0002
    CHARGE:  cpu time    0.0367: real time    0.0367
    MIXING:  cpu time    0.0005: real time    0.0005
    --------------------------------------------
      LOOP:  cpu time    1.4882: real time    1.4885

 eigenvalue-minimisations  :  1414
 total energy-change (2. order) : 0.9356780E-02  (-0.1381577E-01)
 number of electron     127.9999417 magnetization 
 augmentation part      -24.2451517 magnetization 

 Broyden mixing:
  rms(total) = 0.87646E-01    rms(broyden)= 0.87644E-01
  rms(prec ) = 0.99366E-01
  weight for this iteration     100.00

 eigenvalues of (default mixing * dielectric matrix)
  average eigenvalue GAMMA=   1.2539
  2.3034  0.9579  0.9579  0.7963

 Free energy of the ion-electron system (eV)
  ---------------------------------------------------
  alpha Z        PSCENC =        66.50579053
  Ewald energy   TEWEN  =     -3311.06114051
  -Hartree energ DENC   =     -1812.24270842
  -exchange      EXHF   =         0.00000000
  -V(xc)+E(xc)   XCENC  =      -727.70195975
  PAW double counting   =      8027.93951902    -7025.87446803
  entropy T*S    EENTRO =        -0.00000000
  eigenvalues    EBANDS =      -425.22227061
  atomic energy  EATOM  =      5103.11921817
  Solvation  Ediel_sol  =         0.00000000
  ---------------------------------------------------
  free energy    TOTEN  =      -104.53801960 eV

  energy without entropy =     -104.53801960  energy(sigma->0) =     -104.53801960


--------------------------------------------------------------------------------------------------------




--------------------------------------- Iteration      1(  10)  ---------------------------------------


    POTLOK:  cpu time    0.0087: real time    0.0088
    SETDIJ:  cpu time    0.1615: real time    0.1615
     EDDAV:  cpu time    1.2575: real time    1.2576
       DOS:  cpu time    0.0003: real time    0.0003
    CHARGE:  cpu time    0.0381: real time    0.0381
    MIXING:  cpu time    0.0007: real time    0.0007
    --------------------------------------------
      LOOP:  cpu time    1.4668: real time    1.4670

 eigenvalue-minimisations  :  1274
 total energy-change (2. order) :-0.2627163E-02  (-0.2028165E-02)
 number of electron     127.9999418 magnetization 
 augmentation part      -24.2509607 magnetization 

 Broyden mixing:
  rms(total) = 0.57163E-01    rms(broyden)= 0.57163E-01
  rms(prec ) = 0.67815E-01
  weight for this iteration     100.00

 eigenvalues of (default mixing * dielectric matrix)
  average eigenvalue GAMMA=   1.3465
  2.1779  0.9607  0.9607  1.3166  1.3166

 Free energy of the ion-electron system (eV)
  ---------------------------------------------------
  alpha Z        PSCENC =        66.50579053
  Ewald energy   TEWEN  =     -3311.06114051
  -Hartree energ DENC   =     -1813.36768665
  -exchange      EXHF   =         0.00000000
  -V(xc)+E(xc)   XCENC  =      -727.69875584
  PAW double counting   =      7977.73102609    -6975.62014744
  entropy T*S    EENTRO =        -0.00000000
  eigenvalues    EBANDS =      -424.14895111
  atomic energy  EATOM  =      5103.11921817
  Solvation  Ediel_sol  =         0.00000000
  ---------------------------------------------------
  free energy    TOTEN  =      -104.54064676 eV

  energy without entropy =     -104.54064676  energy(sigma->0) =     -104.54064676


--------------------------------------------------------------------------------------------------------




--------------------------------------- Iteration      1(  11)  ---------------------------------------


    POTLOK:  cpu time    0.0105: real time    0.0105
    SETDIJ:  cpu time    0.1617: real time    0.1617
     EDDAV:  cpu time    1.1110: real time    1.1110
       DOS:  cpu time    0.0003: real time    0.0003
    CHARGE:  cpu time    0.0373: real time    0.0373
    MIXING:  cpu time    0.0007: real time    0.0007
    --------------------------------------------
      LOOP:  cpu time    1.3215: real time    1.3216

 eigenvalue-minimisations  :  1218
 total energy-change (2. order) :-0.5090198E-02  (-0.9876547E-03)
 number of electron     127.9999419 magnetization 
 augmentation part      -24.2452888 magnetization 

 Broyden mixing:
  rms(total) = 0.22574E-01    rms(broyden)= 0.22574E-01
  rms(prec ) = 0.30071E-01
  weight for this iteration     100.00

 eigenvalues of (default mixing * dielectric matrix)
  average eigenvalue GAMMA=   1.4854
  2.5148  2.5148  1.0227  1.0028  0.9285  0.9285

 Free energy of the ion-electron system (eV)
  ---------------------------------------------------
  alpha Z        PSCENC =        66.50579053
  Ewald energy   TEWEN  =     -3311.06114051
  -Hartree energ DENC   =     -1815.49484779
  -exchange      EXHF   =         0.00000000
  -V(xc)+E(xc)   XCENC  =      -727.68195354
  PAW double counting   =      7897.99012442    -6895.77741566
  entropy T*S    EENTRO =        -0.00000000
  eigenvalues    EBANDS =      -422.14551260
  atomic energy  EATOM  =      5103.11921817
  Solvation  Ediel_sol  =         0.00000000
  ---------------------------------------------------
  free energy    TOTEN  =      -104.54573696 eV

  energy without entropy =     -104.54573696  energy(sigma->0) =     -104.54573696


--------------------------------------------------------------------------------------------------------




--------------------------------------- Iteration      1(  12)  ---------------------------------------


    POTLOK:  cpu time    0.0095: real time    0.0097
    SETDIJ:  cpu time    0.1625: real time    0.1625
     EDDAV:  cpu time    0.9795: real time    0.9795
       DOS:  cpu time    0.0002: real time    0.0002
    CHARGE:  cpu time    0.0342: real time    0.0342
    MIXING:  cpu time    0.0007: real time    0.0007
    --------------------------------------------
      LOOP:  cpu time    1.1866: real time    1.1868

 eigenvalue-minimisations  :  1190
 total energy-change (2. order) :-0.3596861E-02  (-0.7636492E-03)
 number of electron     127.9999420 magnetization 
 augmentation part      -24.2387428 magnetization 

 Broyden mixing:
  rms(total) = 0.11320E-01    rms(broyden)= 0.11320E-01
  rms(prec ) = 0.13511E-01
  weight for this iteration     100.00

 eigenvalues of (default mixing * dielectric matrix)
  average eigenvalue GAMMA=   1.4874
  2.6941  2.6941  0.9329  1.0137  1.0137  1.0315  1.0315

 Free energy of the ion-electron system (eV)
  ---------------------------------------------------
  alpha Z        PSCENC =        66.50579053
  Ewald energy   TEWEN  =     -3311.06114051
  -Hartree energ DENC   =     -1817.44287031
  -exchange      EXHF   =         0.00000000
  -V(xc)+E(xc)   XCENC  =      -727.63903245
  PAW double counting   =      7846.38231433    -6844.09962375
  entropy T*S    EENTRO =        -0.00000000
  eigenvalues    EBANDS =      -420.31398983
  atomic energy  EATOM  =      5103.11921817
  Solvation  Ediel_sol  =         0.00000000
  ---------------------------------------------------
  free energy    TOTEN  =      -104.54933382 eV

  energy without entropy =     -104.54933382  energy(sigma->0) =     -104.54933382


--------------------------------------------------------------------------------------------------------




--------------------------------------- Iteration      1(  13)  ---------------------------------------


    POTLOK:  cpu time    0.0083: real time    0.0084
    SETDIJ:  cpu time    0.1600: real time    0.1600
     EDDAV:  cpu time    1.1242: real time    1.1243
       DOS:  cpu time    0.0002: real time    0.0002
    CHARGE:  cpu time    0.0378: real time    0.0378
    MIXING:  cpu time    0.0008: real time    0.0008
    --------------------------------------------
      LOOP:  cpu time    1.3313: real time    1.3315

 eigenvalue-minimisations  :  1358
 total energy-change (2. order) :-0.8104818E-03  (-0.1307453E-03)
 number of electron     127.9999420 magnetization 
 augmentation part      -24.2359513 magnetization 

 Broyden mixing:
  rms(total) = 0.78238E-02    rms(broyden)= 0.78233E-02
  rms(prec ) = 0.88879E-02
  weight for this iteration     100.00

 eigenvalues of (default mixing * dielectric matrix)
  average eigenvalue GAMMA=   1.5192
  2.6936  2.6936  1.4286  1.4286  1.0722  0.9461  0.9455  0.9455

 Free energy of the ion-electron system (eV)
  ---------------------------------------------------
  alpha Z        PSCENC =        66.50579053
  Ewald energy   TEWEN  =     -3311.06114051
  -Hartree energ DENC   =     -1817.82890043
  -exchange      EXHF   =         0.00000000
  -V(xc)+E(xc)   XCENC  =      -727.63024714
  PAW double counting   =      7832.37401072    -6830.08998726
  entropy T*S    EENTRO =        -0.00000000
  eigenvalues    EBANDS =      -419.93888837
  atomic energy  EATOM  =      5103.11921817
  Solvation  Ediel_sol  =         0.00000000
  ---------------------------------------------------
  free energy    TOTEN  =      -104.55014431 eV

  energy without entropy =     -104.55014431  energy(sigma->0) =     -104.55014431


--------------------------------------------------------------------------------------------------------




--------------------------------------- Iteration      1(  14)  ---------------------------------------


    POTLOK:  cpu time    0.0094: real time    0.0095
    SETDIJ:  cpu time    0.1603: real time    0.1603
     EDDAV:  cpu time    0.7578: real time    0.7578
       DOS:  cpu time    0.0003: real time    0.0003
    CHARGE:  cpu time    0.0370: real time    0.0370
    MIXING:  cpu time    0.0008: real time    0.0008
    --------------------------------------------
      LOOP:  cpu time    0.9656: real time    0.9657

 eigenvalue-minimisations  :  1008
 total energy-change (2. order) :-0.3483410E-03  (-0.2423544E-04)
 number of electron     127.9999420 magnetization 
 augmentation part      -24.2362235 magnetization 

 Broyden mixing:
  rms(total) = 0.26498E-02    rms(broyden)= 0.26496E-02
  rms(prec ) = 0.38985E-02
  weight for this iteration     100.00

 eigenvalues of (default mixing * dielectric matrix)
  average eigenvalue GAMMA=   1.5753
  3.2846  2.6718  2.0712  1.2205  0.9802  0.9802  0.8891  1.0403  1.0403

 Free energy of the ion-electron system (eV)
  ---------------------------------------------------
  alpha Z        PSCENC =        66.50579053
  Ewald energy   TEWEN  =     -3311.06114051
  -Hartree energ DENC   =     -1818.00799685
  -exchange      EXHF   =         0.00000000
  -V(xc)+E(xc)   XCENC  =      -727.61812517
  PAW double counting   =      7835.57103170    -6833.29421652
  entropy T*S    EENTRO =        -0.00000000
  eigenvalues    EBANDS =      -419.76505398
  atomic energy  EATOM  =      5103.11921817
  Solvation  Ediel_sol  =         0.00000000
  ---------------------------------------------------
  free energy    TOTEN  =      -104.55049265 eV

  energy without entropy =     -104.55049265  energy(sigma->0) =     -104.55049265


--------------------------------------------------------------------------------------------------------




--------------------------------------- Iteration      1(  15)  ---------------------------------------


    POTLOK:  cpu time    0.0079: real time    0.0080
    SETDIJ:  cpu time    0.1621: real time    0.1621
     EDDAV:  cpu time    1.0503: real time    1.0503
       DOS:  cpu time    0.0002: real time    0.0002
    CHARGE:  cpu time    0.0435: real time    0.0435
    MIXING:  cpu time    0.0010: real time    0.0010
    --------------------------------------------
      LOOP:  cpu time    1.2650: real time    1.2652

 eigenvalue-minimisations  :  1050
 total energy-change (2. order) :-0.1669000E-03  (-0.2842526E-04)
 number of electron     127.9999420 magnetization 
 augmentation part      -24.2364178 magnetization 

 Broyden mixing:
  rms(total) = 0.18699E-02    rms(broyden)= 0.18698E-02
  rms(prec ) = 0.20591E-02
  weight for this iteration     100.00

 eigenvalues of (default mixing * dielectric matrix)
  average eigenvalue GAMMA=   1.5309
  3.4328  2.4003  2.4003  1.0952  1.0952  1.1896  0.9384  0.9384  0.9095  0.9095

 Free energy of the ion-electron system (eV)
  ---------------------------------------------------
  alpha Z        PSCENC =        66.50579053
  Ewald energy   TEWEN  =     -3311.06114051
  -Hartree energ DENC   =     -1818.29082052
  -exchange      EXHF   =         0.00000000
  -V(xc)+E(xc)   XCENC  =      -727.60958635
  PAW double counting   =      7834.15148802    -6831.87037849
  entropy T*S    EENTRO =        -0.00000000
  eigenvalues    EBANDS =      -419.49523038
  atomic energy  EATOM  =      5103.11921817
  Solvation  Ediel_sol  =         0.00000000
  ---------------------------------------------------
  free energy    TOTEN  =      -104.55065955 eV

  energy without entropy =     -104.55065955  energy(sigma->0) =     -104.55065955


--------------------------------------------------------------------------------------------------------




--------------------------------------- Iteration      1(  16)  ---------------------------------------


    POTLOK:  cpu time    0.0098: real time    0.0099
    SETDIJ:  cpu time    0.1630: real time    0.1630
     EDDAV:  cpu time    0.9062: real time    0.9062
       DOS:  cpu time    0.0002: real time    0.0002
    --------------------------------------------
      LOOP:  cpu time    1.0792: real time    1.0794

 eigenvalue-minimisations  :   980
 total energy-change (2. order) :-0.1668198E-04  (-0.2417448E-05)
 number of electron     127.9999420 magnetization 
 augmentation part      -24.2364178 magnetization 

 Free energy of the ion-electron system (eV)
  ---------------------------------------------------
  alpha Z        PSCENC =        66.50579053
  Ewald energy   TEWEN  =     -3311.06114051
  -Hartree energ DENC   =     -1818.32206074
  -exchange      EXHF   =         0.00000000
  -V(xc)+E(xc)   XCENC  =      -727.60864805
  PAW double counting   =      7835.66513176    -6833.38422311
  entropy T*S    EENTRO =        -0.00000000
  eigenvalues    EBANDS =      -419.46474428
  atomic energy  EATOM  =      5103.11921817
  Solvation  Ediel_sol  =         0.00000000
  ---------------------------------------------------
  free energy    TOTEN  =      -104.55067623 eV

  energy without entropy =     -104.55067623  energy(sigma->0) =     -104.55067623


--------------------------------------------------------------------------------------------------------




 average (electrostatic) potential at core
  the test charge radii are     0.9748  1.4024  0.9698
  (the norm of the test charge is              1.0000)
       1 -31.2160       2 -31.2160       3 -31.3202       4 -31.3202       5 -65.7081
       6 -65.7081       7 -65.6251       8 -65.6251       9 -65.5456      10 -65.5456
      11 -65.6437      12 -65.6437      13 -88.8483      14 -88.8483      15 -88.6657
      16 -88.6657      17 -88.8623      18 -88.8623      19 -88.9098      20 -88.9098
      21 -88.8633      22 -88.8633      23 -88.9314      24 -88.9314      25 -88.9926
      26 -88.9926
 
 
 
 E-fermi :   1.7763     XC(G=0):  -7.5415     alpha+bet : -7.1131


 k-point     1 :       0.0000    0.2500    0.2500
  band No.  band energies     occupation 
      1     -11.3658      2.00000
      2     -11.1062      2.00000
      3     -11.0476      2.00000
      4     -10.6883      2.00000
      5     -10.3987      2.00000
      6     -10.3887      2.00000
      7     -10.3309      2.00000
      8      -9.7803      2.00000
      9      -9.7548      2.00000
     10      -9.6942      2.00000
     11      -9.6056      2.00000
     12      -9.5508      2.00000
     13      -9.5196      2.00000
     14      -9.5030      2.00000
     15      -8.1671      2.00000
     16      -7.8600      2.00000
     17      -7.6819      2.00000
     18      -7.5405      2.00000
     19      -7.3628      2.00000
     20      -7.0310      2.00000
     21      -6.8896      2.00000
     22      -6.5648      2.00000
     23      -2.4886      2.00000
     24      -1.9222      2.00000
     25      -1.7001      2.00000
     26      -1.2288      2.00000
     27      -1.0347      2.00000
     28      -0.9623      2.00000
     29      -0.9577      2.00000
     30      -0.6922      2.00000
     31      -0.6279      2.00000
     32      -0.6063      2.00000
     33      -0.5682      2.00000
     34      -0.5257      2.00000
     35      -0.4204      2.00000
     36      -0.3079      2.00000
     37      -0.2990      2.00000
     38      -0.0997      2.00000
     39      -0.0361      2.00000
     40      -0.0022      2.00000
     41       0.0042      2.00000
     42       0.0229      2.00000
     43       0.0564      2.00000
     44       0.1376      2.00000
     45       0.2030      2.00000
     46       0.2589      2.00000
     47       0.3324      2.00000
     48       0.3659      2.00000
     49       0.4345      2.00000
     50       0.5589      2.00000
     51       0.6381      2.00000
     52       0.6844      2.00000
     53       0.7015      2.00000
     54       0.7084      2.00000
     55       0.8027      2.00000
     56       0.8104      2.00000
     57       0.8585      2.00000
     58       0.8844      2.00000
     59       0.8908      2.00000
     60       0.9386      2.00000
     61       0.9984      2.00000
     62       1.1545      2.00000
     63       1.2948      2.00000
     64       1.5432      2.00000
     65       2.8343      0.00000
     66       2.8719      0.00000
     67       2.9696      0.00000
     68       3.1815      0.00000
     69       3.4430      0.00000
     70       3.4904      0.00000
     71       3.6186      0.00000
     72       3.7167      0.00000
     73       4.0116      0.00000
     74       4.0526      0.00000
     75       4.1190      0.00000
     76       4.1733      0.00000
     77       4.1913      0.00000
     78       4.2565      0.00000
     79       4.3078      0.00000
     80       4.4962      0.00000
     81       4.4982      0.00000
     82       4.5336      0.00000
     83       4.7159      0.00000
     84       4.7283      0.00000

 k-point     2 :       0.2000    0.2500    0.2500
  band No.  band energies     occupation 
      1     -11.1328      2.00000
      2     -10.8824      2.00000
      3     -10.8248      2.00000
      4     -10.4846      2.00000
      5     -10.2036      2.00000
      6     -10.1927      2.00000
      7     -10.1389      2.00000
      8      -9.6864      2.00000
      9      -9.6383      2.00000
     10      -9.6000      2.00000
     11      -9.5465      2.00000
     12      -9.5020      2.00000
     13      -9.4703      2.00000
     14      -9.4388      2.00000
     15      -8.3661      2.00000
     16      -8.0474      2.00000
     17      -7.9133      2.00000
     18      -7.7051      2.00000
     19      -7.5660      2.00000
     20      -7.3063      2.00000
     21      -7.1847      2.00000
     22      -6.8882      2.00000
     23      -2.2762      2.00000
     24      -1.7613      2.00000
     25      -1.6813      2.00000
     26      -1.6428      2.00000
     27      -1.5983      2.00000
     28      -1.4871      2.00000
     29      -1.4106      2.00000
     30      -1.1836      2.00000
     31      -1.0688      2.00000
     32      -1.0292      2.00000
     33      -0.8725      2.00000
     34      -0.7772      2.00000
     35      -0.7178      2.00000
     36      -0.6651      2.00000
     37      -0.6095      2.00000
     38      -0.4605      2.00000
     39      -0.4021      2.00000
     40      -0.3136      2.00000
     41      -0.2783      2.00000
     42      -0.1967      2.00000
     43      -0.1616      2.00000
     44      -0.1386      2.00000
     45      -0.0700      2.00000
     46       0.1161      2.00000
     47       0.2011      2.00000
     48       0.3322      2.00000
     49       0.3623      2.00000
     50       0.4107      2.00000
     51       0.5227      2.00000
     52       0.5819      2.00000
     53       0.6821      2.00000
     54       0.7426      2.00000
     55       0.7797      2.00000
     56       0.9586      2.00000
     57       1.0180      2.00000
     58       1.0434      2.00000
     59       1.1264      2.00000
     60       1.1944      2.00000
     61       1.2011      2.00000
     62       1.2096      2.00000
     63       1.2672      2.00000
     64       1.3450      2.00000
     65       3.0554      0.00000
     66       3.2862      0.00000
     67       3.4048      0.00000
     68       3.6630      0.00000
     69       3.7401      0.00000
     70       3.8384      0.00000
     71       3.9276      0.00000
     72       3.9512      0.00000
     73       4.1117      0.00000
     74       4.1199      0.00000
     75       4.2218      0.00000
     76       4.3182      0.00000
     77       4.3586      0.00000
     78       4.4259      0.00000
     79       4.5987      0.00000
     80       4.6819      0.00000
     81       4.7068      0.00000
     82       4.7592      0.00000
     83       4.8285      0.00000
     84       4.9089      0.00000

 k-point     3 :       0.4000    0.2500    0.2500
  band No.  band energies     occupation 
      1     -10.4968      2.00000
      2     -10.2902      2.00000
      3     -10.2355      2.00000
      4     -10.0027      2.00000
      5      -9.8137      2.00000
      6      -9.7621      2.00000
      7      -9.7553      2.00000
      8      -9.7340      2.00000
      9      -9.6483      2.00000
     10      -9.6009      2.00000
     11      -9.5418      2.00000
     12      -9.5280      2.00000
     13      -9.3400      2.00000
     14      -9.2656      2.00000
     15      -8.4111      2.00000
     16      -8.3551      2.00000
     17      -8.3494      2.00000
     18      -8.1379      2.00000
     19      -8.0435      2.00000
     20      -7.9008      2.00000
     21      -7.8086      2.00000
     22      -7.6560      2.00000
     23      -2.3406      2.00000
     24      -2.2616      2.00000
     25      -2.0509      2.00000
     26      -1.9501      2.00000
     27      -1.8608      2.00000
     28      -1.8430      2.00000
     29      -1.6168      2.00000
     30      -1.4247      2.00000
     31      -1.3802      2.00000
     32      -1.2570      2.00000
     33      -1.2049      2.00000
     34      -1.1628      2.00000
     35      -1.1261      2.00000
     36      -1.0381      2.00000
     37      -0.9122      2.00000
     38      -0.8390      2.00000
     39      -0.7516      2.00000
     40      -0.7075      2.00000
     41      -0.6662      2.00000
     42      -0.4939      2.00000
     43      -0.4548      2.00000
     44      -0.3330      2.00000
     45      -0.2945      2.00000
     46      -0.0704      2.00000
     47       0.3220      2.00000
     48       0.3662      2.00000
     49       0.4194      2.00000
     50       0.4672      2.00000
     51       0.4903      2.00000
     52       0.5237      2.00000
     53       0.6172      2.00000
     54       0.6197      2.00000
     55       0.6454      2.00000
     56       0.6954      2.00000
     57       0.8176      2.00000
     58       0.8455      2.00000
     59       0.9225      2.00000
     60       0.9798      2.00000
     61       1.0026      2.00000
     62       1.1138      2.00000
     63       1.2033      2.00000
     64       1.2656      2.00000
     65       3.2267      0.00000
     66       3.5076      0.00000
     67       3.6392      0.00000
     68       3.7799      0.00000
     69       3.9487      0.00000
     70       4.0528      0.00000
     71       4.1471      0.00000
     72       4.2191      0.00000
     73       4.3619      0.00000
     74       4.4038      0.00000
     75       4.4943      0.00000
     76       4.5342      0.00000
     77       4.6958      0.00000
     78       4.8021      0.00000
     79       4.8327      0.00000
     80       4.8864      0.00000
     81       4.9605      0.00000
     82       5.0847      0.00000
     83       5.1975      0.00000
     84       5.2720      0.00000

 k-point     4 :       0.0000   -0.2500    0.2500
  band No.  band energies     occupation 
      1     -11.3371      2.00000
      2     -11.2329      2.00000
      3     -10.8162      2.00000
      4     -10.7209      2.00000
      5     -10.6871      2.00000
      6     -10.3456      2.00000
      7     -10.0864      2.00000
      8      -9.8946      2.00000
      9      -9.7555      2.00000
     10      -9.7053      2.00000
     11      -9.6030      2.00000
     12      -9.5772      2.00000
     13      -9.5026      2.00000
     14      -9.4705      2.00000
     15      -8.1669      2.00000
     16      -7.9012      2.00000
     17      -7.6360      2.00000
     18      -7.4726      2.00000
     19      -7.3714      2.00000
     20      -7.1850      2.00000
     21      -6.7682      2.00000
     22      -6.5957      2.00000
     23      -2.4028      2.00000
     24      -2.2080      2.00000
     25      -1.3251      2.00000
     26      -1.1552      2.00000
     27      -1.0349      2.00000
     28      -1.0179      2.00000
     29      -0.9484      2.00000
     30      -0.8098      2.00000
     31      -0.7775      2.00000
     32      -0.6775      2.00000
     33      -0.5609      2.00000
     34      -0.4342      2.00000
     35      -0.3600      2.00000
     36      -0.3378      2.00000
     37      -0.3069      2.00000
     38      -0.2782      2.00000
     39      -0.0892      2.00000
     40      -0.0138      2.00000
     41      -0.0077      2.00000
     42       0.0355      2.00000
     43       0.1235      2.00000
     44       0.1412      2.00000
     45       0.1977      2.00000
     46       0.3156      2.00000
     47       0.3228      2.00000
     48       0.3864      2.00000
     49       0.5686      2.00000
     50       0.6289      2.00000
     51       0.6385      2.00000
     52       0.6727      2.00000
     53       0.6982      2.00000
     54       0.7376      2.00000
     55       0.8139      2.00000
     56       0.8214      2.00000
     57       0.8408      2.00000
     58       0.8903      2.00000
     59       0.8960      2.00000
     60       0.9395      2.00000
     61       1.0477      2.00000
     62       1.0976      2.00000
     63       1.2346      2.00000
     64       1.5534      2.00000
     65       2.6055      0.00000
     66       2.9379      0.00000
     67       2.9596      0.00000
     68       3.1237      0.00000
     69       3.3557      0.00000
     70       3.5777      0.00000
     71       3.7595      0.00000
     72       3.9368      0.00000
     73       4.0067      0.00000
     74       4.0433      0.00000
     75       4.1158      0.00000
     76       4.1951      0.00000
     77       4.2581      0.00000
     78       4.2794      0.00000
     79       4.3210      0.00000
     80       4.3584      0.00000
     81       4.4609      0.00000
     82       4.4813      0.00000
     83       4.6529      0.00000
     84       4.7564      0.00000

 k-point     5 :       0.2000   -0.2500    0.2500
  band No.  band energies     occupation 
      1     -11.1044      2.00000
      2     -11.0054      2.00000
      3     -10.6006      2.00000
      4     -10.5130      2.00000
      5     -10.4818      2.00000
      6     -10.1536      2.00000
      7      -9.9085      2.00000
      8      -9.7412      2.00000
      9      -9.6746      2.00000
     10      -9.6278      2.00000
     11      -9.5437      2.00000
     12      -9.5126      2.00000
     13      -9.4626      2.00000
     14      -9.4126      2.00000
     15      -8.3697      2.00000
     16      -8.1146      2.00000
     17      -7.7645      2.00000
     18      -7.6537      2.00000
     19      -7.6352      2.00000
     20      -7.4663      2.00000
     21      -7.0359      2.00000
     22      -6.9368      2.00000
     23      -2.2068      2.00000
     24      -2.0152      2.00000
     25      -1.6868      2.00000
     26      -1.6486      2.00000
     27      -1.4626      2.00000
     28      -1.3813      2.00000
     29      -1.2991      2.00000
     30      -1.1984      2.00000
     31      -1.0524      2.00000
     32      -1.0075      2.00000
     33      -0.9288      2.00000
     34      -0.8167      2.00000
     35      -0.7331      2.00000
     36      -0.7164      2.00000
     37      -0.5928      2.00000
     38      -0.5543      2.00000
     39      -0.4433      2.00000
     40      -0.3982      2.00000
     41      -0.3355      2.00000
     42      -0.2010      2.00000
     43      -0.1413      2.00000
     44      -0.0913      2.00000
     45       0.1012      2.00000
     46       0.1637      2.00000
     47       0.1863      2.00000
     48       0.3602      2.00000
     49       0.4285      2.00000
     50       0.4946      2.00000
     51       0.5031      2.00000
     52       0.5216      2.00000
     53       0.5743      2.00000
     54       0.7001      2.00000
     55       0.8128      2.00000
     56       0.9624      2.00000
     57       1.0073      2.00000
     58       1.0552      2.00000
     59       1.1104      2.00000
     60       1.1483      2.00000
     61       1.2201      2.00000
     62       1.2334      2.00000
     63       1.2657      2.00000
     64       1.3419      2.00000
     65       3.1590      0.00000
     66       3.2904      0.00000
     67       3.5211      0.00000
     68       3.5902      0.00000
     69       3.6962      0.00000
     70       3.7331      0.00000
     71       3.8734      0.00000
     72       3.9274      0.00000
     73       4.0238      0.00000
     74       4.1637      0.00000
     75       4.2307      0.00000
     76       4.3090      0.00000
     77       4.4040      0.00000
     78       4.4568      0.00000
     79       4.5345      0.00000
     80       4.6033      0.00000
     81       4.7565      0.00000
     82       4.8480      0.00000
     83       4.9254      0.00000
     84       4.9570      0.00000

 k-point     6 :       0.4000   -0.2500    0.2500
  band No.  band energies     occupation 
      1     -10.4724      2.00000
      2     -10.3903      2.00000
      3     -10.0555      2.00000
      4     -10.0076      2.00000
      5      -9.9875      2.00000
      6      -9.7971      2.00000
      7      -9.7461      2.00000
      8      -9.6587      2.00000
      9      -9.6174      2.00000
     10      -9.5769      2.00000
     11      -9.5485      2.00000
     12      -9.5419      2.00000
     13      -9.3415      2.00000
     14      -9.2666      2.00000
     15      -8.4998      2.00000
     16      -8.3503      2.00000
     17      -8.2311      2.00000
     18      -8.1346      2.00000
     19      -8.0264      2.00000
     20      -8.0143      2.00000
     21      -7.7167      2.00000
     22      -7.6962      2.00000
     23      -2.3363      2.00000
     24      -2.2507      2.00000
     25      -2.0606      2.00000
     26      -2.0321      2.00000
     27      -1.8071      2.00000
     28      -1.7442      2.00000
     29      -1.6040      2.00000
     30      -1.4879      2.00000
     31      -1.4506      2.00000
     32      -1.3813      2.00000
     33      -1.2230      2.00000
     34      -1.0639      2.00000
     35      -1.0024      2.00000
     36      -0.9500      2.00000
     37      -0.9227      2.00000
     38      -0.8539      2.00000
     39      -0.8234      2.00000
     40      -0.7587      2.00000
     41      -0.6604      2.00000
     42      -0.5284      2.00000
     43      -0.4128      2.00000
     44      -0.3167      2.00000
     45      -0.2385      2.00000
     46      -0.1189      2.00000
     47       0.3404      2.00000
     48       0.3744      2.00000
     49       0.4166      2.00000
     50       0.4963      2.00000
     51       0.5009      2.00000
     52       0.5356      2.00000
     53       0.6006      2.00000
     54       0.6219      2.00000
     55       0.6443      2.00000
     56       0.6915      2.00000
     57       0.7152      2.00000
     58       0.7498      2.00000
     59       0.9046      2.00000
[...]
     18      -5.7995      2.00000
     19      -5.7507      2.00000
     20      -5.5689      2.00000
     21      -5.1176      2.00000
     22      -4.8199      2.00000
     23      -1.0151      2.00000
     24      -0.7775      2.00000
     25      -0.4577      2.00000
     26      -0.2305      2.00000
     27      -0.2144      2.00000
     28      -0.0857      2.00000
     29      -0.0314      2.00000
     30       0.1259      2.00000
     31       0.2243      2.00000
     32       0.3231      2.00000
     33       0.4726      2.00000
     34       0.5527      2.00000
     35       0.5769      2.00000
     36       0.6477      2.00000
     37       0.8634      2.00000
     38       0.9783      2.00000
     39       0.9988      2.00000
     40       1.0229      2.00000
     41       1.1784      2.00000
     42       1.2618      2.00000
     43       1.3116      2.00000
     44       1.3871      2.00000
     45       1.5157      2.00000
     46       1.6418      2.00000
     47       1.7121      2.00000
     48       1.8222      2.00000
     49       1.9425      2.00000
     50       2.0189      2.00000
     51       2.1547      2.00000
     52       2.2364      2.00000
     53       2.3211      2.00000
     54       2.3336      2.00000
     55       2.3902      2.00000
     56       2.6157      2.00000
     57       2.6789      2.00000
     58       2.7439      2.00000
     59       2.9494      2.00000
     60       3.0002      2.00000
     61       3.0203      2.00000
     62       3.1221      2.00000
     63       3.2146      2.00000
     64       3.2844      2.00000
     65       5.2530      0.00000
     66       5.7047      0.00000
     67       5.8044      0.00000
     68       5.9347      0.00000
     69       5.9720      0.00000
     70       6.0383      0.00000
     71       6.1333      0.00000
     72       6.2186      0.00000
     73       6.2936      0.00000
     74       6.4679      0.00000
     75       6.4947      0.00000
     76       6.5755      0.00000
     77       6.6614      0.00000
     78       6.7600      0.00000
     79       6.8460      0.00000
     80       6.9526      0.00000
     81       7.1599      0.00000
     82       7.1808      0.00000
     83       7.3378      0.00000
     84       7.4224      0.00000

 k-point     6 :       0.4000   -0.2500    0.2500
  band No.  band energies     occupation 
      1      -9.1701      2.00000
      2      -9.0948      2.00000
      3      -8.7128      2.00000
      4      -8.6456      2.00000
      5      -8.6223      2.00000
      6      -8.3454      2.00000
      7      -8.2683      2.00000
      8      -8.1939      2.00000
      9      -8.1691      2.00000
     10      -8.1042      2.00000
     11      -8.0966      2.00000
     12      -8.0514      2.00000
     13      -7.9215      2.00000
     14      -7.8682      2.00000
     15      -6.8990      2.00000
     16      -6.5809      2.00000
     17      -6.4854      2.00000
     18      -6.4640      2.00000
     19      -6.2794      2.00000
     20      -6.2032      2.00000
     21      -5.9066      2.00000
     22      -5.7835      2.00000
     23      -1.1251      2.00000
     24      -1.0654      2.00000
     25      -0.9491      2.00000
     26      -0.8945      2.00000
     27      -0.6177      2.00000
     28      -0.5442      2.00000
     29      -0.4354      2.00000
     30      -0.2090      2.00000
     31      -0.1999      2.00000
     32      -0.0913      2.00000
     33       0.0657      2.00000
     34       0.2407      2.00000
     35       0.3403      2.00000
     36       0.3949      2.00000
     37       0.4141      2.00000
     38       0.5062      2.00000
     39       0.5532      2.00000
     40       0.7205      2.00000
     41       0.7473      2.00000
     42       0.8557      2.00000
     43       0.9993      2.00000
     44       1.1639      2.00000
     45       1.2937      2.00000
     46       1.4204      2.00000
     47       1.6588      2.00000
     48       1.7576      2.00000
     49       1.8023      2.00000
     50       1.8995      2.00000
     51       1.9608      2.00000
     52       2.0093      2.00000
     53       2.0789      2.00000
     54       2.1771      2.00000
     55       2.2951      2.00000
     56       2.3479      2.00000
     57       2.4103      2.00000
     58       2.4647      2.00000
     59       2.5151      2.00000
     60       2.6186      2.00000
     61       2.8763      2.00000
     62       2.9128      2.00000
     63       3.0015      2.00000
     64       3.1795      2.00000
     65       5.3711      0.00000
     66       5.4614      0.00000
     67       5.7324      0.00000
     68       5.9277      0.00000
     69       5.9511      0.00000
     70       6.1553      0.00000
     71       6.3758      0.00000
     72       6.4027      0.00000
     73       6.5214      0.00000
     74       6.6874      0.00000
     75       6.7202      0.00000
     76       6.7715      0.00000
     77       6.9018      0.00000
     78       7.0627      0.00000
     79       7.0906      0.00000
     80       7.2296      0.00000
     81       7.3366      0.00000
     82       7.4264      0.00000
     83       7.5259      0.00000
     84       7.7315      0.00000


--------------------------------------------------------------------------------------------------------


 soft charge-density along one line, spin component           1
         0         1         2         3         4         5         6         7         8         9
 total charge-density along one line
 
 pseudopotential strength for first ion, spin component:           1
  1.171   5.249  -0.001  -0.002  -0.000
  5.249  22.487  -0.002  -0.005  -0.000
 -0.001  -0.002  -0.376   0.007  -0.000
 -0.002  -0.005   0.007  -0.356   0.000
 -0.000  -0.000  -0.000   0.000  -0.366
 total augmentation occupancy for first ion, spin component:           1
  0.766  -0.015   0.005   0.039   0.000
 -0.015   0.000  -0.000  -0.001   0.000
  0.005  -0.000   0.023   0.026   0.000
  0.039  -0.001   0.026   0.091   0.000
  0.000   0.000  -0.000   0.000   0.058


------------------------ aborting loop because EDIFF is reached ----------------------------------------


 


 total charge     
 
# of ion       s       p       d       tot
------------------------------------------
    1        0.077   0.124   0.000   0.202
    2        0.077   0.124   0.000   0.202
    3        0.059   0.098   0.000   0.157
    4        0.059   0.098   0.000   0.157
    5        1.838   1.454   0.178   3.470
    6        1.838   1.454   0.178   3.470
    7        1.845   1.417   0.176   3.438
    8        1.845   1.417   0.176   3.438
    9        1.826   1.474   0.163   3.463
   10        1.826   1.474   0.163   3.463
   11        1.847   1.399   0.176   3.423
   12        1.847   1.399   0.176   3.423
   13        1.339   2.368   0.000   3.707
   14        1.339   2.368   0.000   3.707
   15        1.352   2.347   0.000   3.699
   16        1.352   2.347   0.000   3.699
   17        1.347   2.348   0.000   3.695
   18        1.347   2.348   0.000   3.695
   19        1.354   2.330   0.000   3.684
   20        1.354   2.330   0.000   3.684
   21        1.349   2.340   0.000   3.690
   22        1.349   2.340   0.000   3.690
   23        1.355   2.325   0.000   3.680
   24        1.355   2.325   0.000   3.680
   25        1.351   2.338   0.000   3.689
   26        1.351   2.338   0.000   3.689
--------------------------------------------------
tot         33.879  44.724   1.388  79.991
 
    CHARGE:  cpu time    0.0383: real time    0.0383
    FORLOC:  cpu time    0.0020: real time    0.0020
    FORNL :  cpu time    0.2597: real time    0.2602
    STRESS:  cpu time    0.7519: real time    0.7525
    FORCOR:  cpu time    0.0087: real time    0.0087
    FORHAR:  cpu time    0.0033: real time    0.0033
    MIXING:  cpu time    0.0005: real time    0.0005
    OFIELD:  cpu time    0.0000: real time    0.0000

  FORCE on cell =-STRESS in cart. coord.  units (eV):
  Direction    XX          YY          ZZ          XY          YZ          ZX
  --------------------------------------------------------------------------------------
  Alpha Z    89.39046    89.39046    89.39046
  Ewald   -1289.02624 -1613.86612 -1591.71099     0.00000  -161.42349     0.00000
  Hartree   418.40295   204.27987   239.80177    -0.00000  -116.51856    -0.00000
  E(xc)    -480.44293  -479.99134  -479.86899    -0.00000    -0.05576     0.00000
  Local   -1336.67586  -798.60363  -855.90775     0.00000   277.44276     0.00000
  n-local  1620.58105  1612.09120  1612.72861    -0.30545     0.33450     0.63826
  augment  -459.86620  -459.32151  -459.35486     0.00000    -0.13470     0.00000
  Kinetic  1437.72229  1446.22468  1444.94001     0.11493     0.50578     1.06006
  Fock        0.00000     0.00000     0.00000     0.00000     0.00000     0.00000
  -------------------------------------------------------------------------------------
  Total       0.08552     0.20360     0.01825     0.00000     0.15053     0.00000
  in kB       0.20862     0.49667     0.04452     0.00000     0.36721     0.00000
  external pressure =        0.25 kB  Pullay stress =        0.00 kB


 VOLUME and BASIS-vectors are now :
 -----------------------------------------------------------------------------
  energy-cutoff  :      300.00
  volume of cell :      656.77
      direct lattice vectors                 reciprocal lattice vectors
     3.997358033  0.000000000  0.000000000     0.250165232  0.000000000  0.000000000
     0.000000000 13.365808494 -0.945809578     0.000000000  0.074864225  0.000656465
     0.000000000 -0.107858566 12.300343573     0.000000000  0.005756530  0.081349020

  length of vectors
     3.997358033 13.399231040 12.300816456     0.250165232  0.074867103  0.081552441


 FORCES acting on ions
    electron-ion (+dipol)            ewald-force                    non-local-force                 convergence-correction
 -----------------------------------------------------------------------------------------------
   -.796E-14 -.268E+01 -.244E+01   -.672E-16 0.275E+01 0.287E+01   0.000E+00 -.573E-01 -.459E+00   -.247E-15 0.141E-02 0.155E-02
   -.748E-14 0.268E+01 0.244E+01   0.336E-15 -.275E+01 -.287E+01   0.000E+00 0.573E-01 0.459E+00   0.432E-16 -.141E-02 -.155E-02
   -.730E-12 0.421E+01 0.428E+01   0.952E-15 -.407E+01 -.391E+01   0.217E-18 -.138E+00 -.399E+00   0.126E-16 -.315E-03 0.107E-02
   -.729E-12 -.421E+01 -.428E+01   0.525E-15 0.407E+01 0.391E+01   -.217E-18 0.138E+00 0.399E+00   -.239E-15 0.315E-03 -.107E-02
   0.183E-11 0.205E+02 0.991E+01   -.119E-13 -.193E+02 -.739E+01   0.000E+00 -.112E+01 -.253E+01   -.457E-14 -.764E-02 -.143E-01
   0.182E-11 -.205E+02 -.991E+01   0.678E-14 0.193E+02 0.739E+01   0.000E+00 0.112E+01 0.253E+01   0.390E-14 0.764E-02 0.143E-01
   0.111E-11 0.635E+01 -.179E+02   0.415E-14 -.458E+01 0.177E+02   0.000E+00 -.177E+01 0.165E+00   -.189E-14 0.406E-02 -.109E-02
   0.109E-11 -.635E+01 0.179E+02   0.424E-14 0.458E+01 -.177E+02   0.000E+00 0.177E+01 -.165E+00   0.192E-14 -.406E-02 0.109E-02
   0.193E-11 0.424E+02 0.857E+01   -.102E-14 -.391E+02 -.615E+01   -.694E-17 -.330E+01 -.242E+01   -.105E-15 -.782E-02 -.404E-02
   0.195E-11 -.424E+02 -.857E+01   -.115E-14 0.391E+02 0.615E+01   0.694E-17 0.330E+01 0.242E+01   -.224E-14 0.782E-02 0.404E-02
   0.153E-12 0.111E+02 -.132E+02   0.239E-14 -.112E+02 0.124E+02   0.000E+00 0.804E-01 0.836E+00   0.278E-14 0.593E-02 0.358E-03
   0.168E-12 -.111E+02 0.132E+02   -.196E-14 0.112E+02 -.124E+02   0.000E+00 -.804E-01 -.836E+00   -.463E-14 -.593E-02 -.358E-03
   0.126E-12 0.347E+02 0.565E+02   -.931E-14 -.358E+02 -.590E+02   -.108E-18 0.105E+01 0.252E+01   -.117E-14 -.163E-02 -.183E-01
   0.110E-12 -.347E+02 -.565E+02   0.103E-13 0.358E+02 0.590E+02   0.108E-18 -.105E+01 -.252E+01   0.141E-13 0.163E-02 0.183E-01
   0.339E-12 0.664E+02 0.186E+02   -.646E-14 -.707E+02 -.183E+02   0.000E+00 0.425E+01 -.298E+00   0.546E-14 0.171E-01 -.973E-03
   0.325E-12 -.664E+02 -.186E+02   0.892E-14 0.707E+02 0.183E+02   0.000E+00 -.425E+01 0.298E+00   0.962E-14 -.171E-01 0.973E-03
   -.307E-12 -.219E+02 -.560E+02   -.454E-14 0.233E+02 0.587E+02   0.000E+00 -.141E+01 -.282E+01   0.122E-13 0.290E-01 0.101E-01
   -.303E-12 0.219E+02 0.560E+02   -.455E-16 -.233E+02 -.587E+02   0.000E+00 0.141E+01 0.282E+01   -.150E-14 -.290E-01 -.101E-01
   -.516E-12 0.757E+02 0.476E+02   0.931E-14 -.781E+02 -.502E+02   0.694E-17 0.241E+01 0.261E+01   0.105E-13 -.144E-01 -.421E-01
   -.503E-12 -.757E+02 -.476E+02   -.106E-13 0.781E+02 0.502E+02   -.694E-17 -.241E+01 -.261E+01   0.391E-15 0.144E-01 0.421E-01
   -.451E-12 -.360E+01 -.538E+02   0.262E-14 0.556E+01 0.565E+02   -.347E-17 -.201E+01 -.268E+01   0.347E-14 0.268E-01 0.287E-01
   -.456E-12 0.360E+01 0.538E+02   -.520E-14 -.556E+01 -.565E+02   0.347E-17 0.201E+01 0.268E+01   0.990E-14 -.268E-01 -.287E-01
   0.284E-11 0.736E+02 0.248E+02   0.255E-14 -.762E+02 -.263E+02   0.000E+00 0.259E+01 0.144E+01   0.156E-13 -.371E-02 -.126E-01
   0.285E-11 -.736E+02 -.248E+02   -.669E-14 0.762E+02 0.263E+02   0.000E+00 -.259E+01 -.144E+01   -.397E-14 0.371E-02 0.126E-01
   0.297E-11 0.240E+02 0.611E+01   -.653E-14 -.243E+02 -.673E+01   0.000E+00 0.381E+00 0.604E+00   0.127E-14 -.133E-01 0.468E-02
   0.296E-11 -.240E+02 -.611E+01   0.175E-13 0.243E+02 0.673E+01   0.000E+00 -.381E+00 -.604E+00   0.161E-13 0.133E-01 -.468E-02
 -----------------------------------------------------------------------------------------------
   0.186E-10 -.467E-09 -.400E-09   0.503E-14 0.711E-14 0.000E+00   0.000E+00 -.139E-14 -.222E-15   0.867E-13 0.266E-12 0.547E-12
 
 
 POSITION                                       TOTAL-FORCE (eV/Angst)
 -----------------------------------------------------------------------------------
      0.99934      7.33352      8.80806         0.000000      0.015256     -0.029003
      2.99802      5.92443      2.54648         0.000000     -0.015256      0.029003
      2.99802     11.76710      6.56138         0.000000      0.003448     -0.024473
      0.99934      1.49085      4.79315         0.000000     -0.003448      0.024473
      0.99934     12.63314      9.55966         0.000000      0.027196     -0.022267
      2.99802      0.62481      1.79487         0.000000     -0.027196      0.022267
      0.99934     11.07335      2.88601         0.000000      0.004951      0.010446
      2.99802      2.18460      8.46852         0.000000     -0.004951     -0.010446
      2.99802      9.72000     -0.72353         0.000000      0.002867     -0.012227
      0.99934      3.64581     -0.22228         0.000000     -0.002867      0.012227
      2.99802      8.26622      4.95683         0.000000     -0.004689      0.004308
      0.99934      4.99173      6.39770         0.000000      0.004689     -0.004308
      0.99934      6.39909      3.98983         0.000000     -0.009358      0.021213
      2.99802      6.85886      7.36470         0.000000      0.009358     -0.021213
      0.99934      8.06258     -1.21507         0.000000     -0.020164      0.011713
      2.99802      5.30323      0.26926         0.000000      0.020164     -0.011713
      2.99802     -0.19836      4.37850         0.000000      0.008008     -0.013333
      0.99934      0.09050      7.92184         0.000000     -0.008008      0.013333
      2.99802     10.79478      9.01821         0.000000      0.007962      0.023612
      0.99934      2.46317      2.33632         0.000000     -0.007962     -0.023612
      0.99934     10.16046      5.54383         0.000000     -0.018949     -0.000133
      2.99802      3.09749      5.81071         0.000000      0.018949      0.000133
      2.99802      9.25325      2.24408         0.000000      0.008876      0.005909
      0.99934      4.00470      9.11045         0.000000     -0.008876     -0.005909
      0.99934     11.95012      0.14443         0.000000      0.005805     -0.012479
      2.99802      1.30783     11.21010         0.000000     -0.005805      0.012479
 -----------------------------------------------------------------------------------
    total drift:                                0.000000     -0.000000     -0.000000


--------------------------------------------------------------------------------------------------------



  FREE ENERGIE OF THE ION-ELECTRON SYSTEM (eV)
  ---------------------------------------------------
  free  energy   TOTEN  =      -111.41238408 eV

  energy  without entropy=     -111.41238408  energy(sigma->0) =     -111.41238408
 
 d Force = 0.1102789E-02[ 0.854E-03, 0.135E-02]  d Energy = 0.1070641E-02 0.321E-04
 d Force =-0.4727007E+00[-0.475E+00,-0.470E+00]  d Ewald  =-0.5274184E+00 0.547E-01


--------------------------------------------------------------------------------------------------------


    POTLOK:  cpu time    0.1760: real time    0.1761


--------------------------------------------------------------------------------------------------------


 Conjugate gradient step on ions:
 trial-energy change:   -0.001071  1 .order   -0.001093   -0.001347   -0.000840
  (g-gl).g = 0.187E-03      g.g   = 0.237E-03  gl.gl    = 0.878E-03
 g(Force)  = 0.230E-03   g(Stress)= 0.672E-05 ortho     = 0.106E-04
 gamma     =   0.21271
 trial     =   5.63520
 opt step  =  14.97417  (harmonic =  14.97417) maximal distance =0.00922236
 next E    =  -111.413103   (d E  =  -0.00179)


--------------------------------------------------------------------------------------------------------


  
 reached required accuracy - stopping structural energy minimisation
     LOOP+:  cpu time    5.0565: real time    5.3477
    4ORBIT:  cpu time    0.0000: real time    0.0000
 


 total charge     
 
# of ion       s       p       d       tot
------------------------------------------
    1        0.077   0.124   0.000   0.202
    2        0.077   0.124   0.000   0.202
    3        0.059   0.098   0.000   0.157
    4        0.059   0.098   0.000   0.157
    5        1.838   1.454   0.178   3.470
    6        1.838   1.454   0.178   3.470
    7        1.845   1.417   0.176   3.438
    8        1.845   1.417   0.176   3.438
    9        1.826   1.474   0.163   3.463
   10        1.826   1.474   0.163   3.463
   11        1.847   1.399   0.176   3.423
   12        1.847   1.399   0.176   3.423
   13        1.339   2.368   0.000   3.707
   14        1.339   2.368   0.000   3.707
   15        1.352   2.347   0.000   3.699
   16        1.352   2.347   0.000   3.699
   17        1.347   2.348   0.000   3.695
   18        1.347   2.348   0.000   3.695
   19        1.354   2.330   0.000   3.684
   20        1.354   2.330   0.000   3.684
   21        1.349   2.340   0.000   3.690
   22        1.349   2.340   0.000   3.690
   23        1.355   2.325   0.000   3.680
   24        1.355   2.325   0.000   3.680
   25        1.351   2.338   0.000   3.689
   26        1.351   2.338   0.000   3.689
--------------------------------------------------
tot         33.879  44.724   1.388  79.991
 

 total amount of memory used by VASP MPI-rank0    44813. kBytes
=======================================================================

   base      :      30000. kBytes
   nonlr-proj:       3491. kBytes
   fftplans  :        905. kBytes
   grid      :       4039. kBytes
   one-center:        210. kBytes
   wavefun   :       6168. kBytes
 
  
  
 General timing and accounting informations for this job:
 ========================================================
  
                  Total CPU time used (sec):      803.481
                            User time (sec):      789.159
                          System time (sec):       14.322
                         Elapsed time (sec):      824.984
  
                   Maximum memory used (kb):      105548.
                   Average memory used (kb):           0.
  
                          Minor page faults:       582586
                          Major page faults:            0
                 Voluntary context switches:         3786
