PROCAR new format
# of k-points:    6         # of bands:   84         # of ions:   26

 k-point     1 :    0.00000000 0.25000000 0.25000000     weight = 0.10000000

band     1 # energy  -10.27548717 # occ.  2.00000000
 
ion      s      p      d    tot
    1  0.000  0.000  0.000  0.000
    2  0.000  0.000  0.000  0.000
    3  0.000  0.000  0.000  0.000
    4  0.000  0.000  0.000  0.000
    5  0.055  0.000  0.000  0.055
    6  0.055  0.000  0.000  0.055
    7  0.052  0.000  0.000  0.052
    8  0.052  0.000  0.000  0.052
    9  0.028  0.000  0.000  0.028
   10  0.028  0.000  0.000  0.028
   11  0.040  0.000  0.000  0.040
   12  0.040  0.000  0.000  0.040
   13  0.016  0.000  0.000  0.017
   14  0.016  0.000  0.000  0.017
   15  0.008  0.000  0.000  0.008
   16  0.008  0.000  0.000  0.008
   17  0.020  0.000  0.000  0.020
   18  0.020  0.000  0.000  0.020
   19  0.024  0.001  0.000  0.024
   20  0.024  0.001  0.000  0.024
   21  0.022  0.000  0.000  0.022
   22  0.022  0.000  0.000  0.022
   23  0.033  0.000  0.000  0.034
   24  0.033  0.000  0.000  0.034
   25  0.046  0.000  0.000  0.046
   26  0.046  0.000  0.000  0.046
tot    0.687  0.006  0.000  0.693
 
band     2 # energy   -9.96058424 # occ.  2.00000000
 
ion      s      p      d    tot
    1  0.000  0.000  0.000  0.001
    2  0.000  0.000  0.000  0.001
    3  0.000  0.000  0.000  0.000
    4  0.000  0.000  0.000  0.000
    5  0.046  0.000  0.000  0.046
    6  0.046  0.000  0.000  0.046
    7  0.003  0.002  0.000  0.005
    8  0.003  0.002  0.000  0.005
    9  0.017  0.000  0.000  0.017
   10  0.017  0.000  0.000  0.017
   11  0.103  0.000  0.000  0.103
   12  0.103  0.000  0.000  0.103
   13  0.062  0.001  0.000  0.063
   14  0.062  0.001  0.000  0.063
   15  0.006  0.000  0.000  0.007
   16  0.006  0.000  0.000  0.007
   17  0.004  0.000  0.000  0.004
   18  0.004  0.000  0.000  0.004
   19  0.027  0.001  0.000  0.028
   20  0.027  0.001  0.000  0.028
   21  0.038  0.001  0.000  0.038
   22  0.038  0.001  0.000  0.038
   23  0.009  0.000  0.000  0.009
   24  0.009  0.000  0.000  0.009
   25  0.028  0.000  0.000  0.028
   26  0.028  0.000  0.000  0.028
tot    0.686  0.014  0.000  0.699
 
band     3 # energy   -9.95338349 # occ.  2.00000000
 
ion      s      p      d    tot
    1  0.000  0.000  0.000  0.000
    2  0.000  0.000  0.000  0.000
    3  0.000  0.000  0.000  0.000
    4  0.000  0.000  0.000  0.000
    5  0.013  0.001  0.000  0.014
    6  0.013  0.001  0.000  0.014
    7  0.099  0.001  0.000  0.100
    8  0.099  0.001  0.000  0.100
    9  0.019  0.000  0.000  0.019
   10  0.019  0.000  0.000  0.019
   11  0.035  0.002  0.000  0.037
   12  0.035  0.002  0.000  0.037
   13  0.002  0.000  0.000  0.002
   14  0.002  0.000  0.000  0.002
   15  0.008  0.000  0.000  0.008
   16  0.008  0.000  0.000  0.008
   17  0.026  0.001  0.000  0.027
   18  0.026  0.001  0.000  0.027
   19  0.001  0.000  0.000  0.001
   20  0.001  0.000  0.000  0.001
   21  0.041  0.001  0.000  0.042
   22  0.041  0.001  0.000  0.042
   23  0.073  0.001  0.000  0.074
   24  0.073  0.001  0.000  0.074
   25  0.024  0.000  0.000  0.024
   26  0.024  0.000  0.000  0.024
tot    0.683  0.016  0.000  0.699
 
band     4 # energy   -9.61312656 # occ.  2.00000000
 
ion      s      p      d    tot
    1  0.000  0.000  0.000  0.000
    2  0.000  0.000  0.000  0.000
    3  0.000  0.000  0.000  0.000
    4  0.000  0.000  0.000  0.000
    5  0.067  0.003  0.000  0.070
    6  0.067  0.003  0.000  0.070
    7  0.002  0.001  0.000  0.003
    8  0.002  0.001  0.000  0.003
    9  0.094  0.002  0.000  0.097
   10  0.094  0.002  0.000  0.097
   11  0.001  0.000  0.000  0.001
   12  0.001  0.000  0.000  0.001
   13  0.000  0.000  0.000  0.000
   14  0.000  0.000  0.000  0.000
   15  0.061  0.001  0.000  0.062
   16  0.061  0.001  0.000  0.062
   17  0.020  0.000  0.000  0.020
   18  0.020  0.000  0.000  0.020
   19  0.098  0.001  0.000  0.100
   20  0.098  0.001  0.000  0.100
   21  0.000  0.000  0.000  0.001
   22  0.000  0.000  0.000  0.001
   23  0.002  0.000  0.000  0.002
   24  0.002  0.000  0.000  0.002
   25  0.001  0.001  0.000  0.002
   26  0.001  0.001  0.000  0.002
tot    0.695  0.022  0.000  0.717
 
band     5 # energy   -9.21652169 # occ.  2.00000000
 
ion      s      p      d    tot
    1  0.000  0.000  0.000  0.000
    2  0.000  0.000  0.000  0.000
    3  0.000  0.000  0.000  0.000
    4  0.000  0.000  0.000  0.000
    5  0.045  0.002  0.000  0.046
    6  0.045  0.002  0.000  0.046
    7  0.004  0.004  0.000  0.008
    8  0.004  0.004  0.000  0.008
    9  0.039  0.001  0.000  0.041
   10  0.039  0.001  0.000  0.041
   11  0.056  0.002  0.000  0.058
   12  0.056  0.002  0.000  0.058
   13  0.007  0.001  0.000  0.008
   14  0.007  0.001  0.000  0.008
   15  0.044  0.001  0.000  0.045
   16  0.044  0.001  0.000  0.045
   17  0.024  0.001  0.000  0.024
   18  0.024  0.001  0.000  0.024
   19  0.015  0.001  0.000  0.016
   20  0.015  0.001  0.000  0.016
   21  0.067  0.001  0.000  0.068
   22  0.067  0.001  0.000  0.068
   23  0.005  0.001  0.000  0.006
   24  0.005  0.001  0.000  0.006
   25  0.036  0.000  0.000  0.037
   26  0.036  0.000  0.000  0.037
tot    0.684  0.027  0.002  0.713
 
band     6 # energy   -9.15564811 # occ.  2.00000000
 
ion      s      p      d    tot
    1  0.000  0.000  0.000  0.001
    2  0.000  0.000  0.000  0.001
    3  0.000  0.000  0.000  0.000
    4  0.000  0.000  0.000  0.000
    5  0.011  0.002  0.000  0.012
    6  0.011  0.002  0.000  0.012
    7  0.033  0.001  0.000  0.034
    8  0.033  0.001  0.000  0.034
    9  0.100  0.005  0.001  0.106
   10  0.100  0.005  0.001  0.106
   11  0.010  0.001  0.000  0.012
   12  0.010  0.001  0.000  0.012
   13  0.015  0.000  0.000  0.015
   14  0.015  0.000  0.000  0.015
   15  0.115  0.002  0.000  0.117
   16  0.115  0.002  0.000  0.117
   17  0.038  0.000  0.000  0.038
   18  0.038  0.000  0.000  0.038
   19  0.003  0.001  0.000  0.004
   20  0.003  0.001  0.000  0.004
   21  0.010  0.000  0.000  0.010
   22  0.010  0.000  0.000  0.010
   23  0.003  0.001  0.000  0.004
   24  0.003  0.001  0.000  0.004
   25  0.010  0.001  0.000  0.010
   26  0.010  0.001  0.000  0.010
tot    0.698  0.028  0.001  0.727
 
band     7 # energy   -9.08377815 # occ.  2.00000000
 
ion      s      p      d    tot
    1  0.000  0.000  0.000  0.000
    2  0.000  0.000  0.000  0.000
    3  0.000  0.000  0.000  0.000
    4  0.000  0.000  0.000  0.000
    5  0.044  0.001  0.000  0.045
    6  0.044  0.001  0.000  0.045
    7  0.055  0.002  0.000  0.057
    8  0.055  0.002  0.000  0.057
    9  0.018  0.003  0.000  0.021
   10  0.018  0.003  0.000  0.021
   11  0.017  0.005  0.000  0.022
   12  0.017  0.005  0.000  0.022
   13  0.054  0.001  0.000  0.055
   14  0.054  0.001  0.000  0.055
   15  0.026  0.000  0.000  0.026
   16  0.026  0.000  0.000  0.026
   17  0.000  0.000  0.000  0.001
   18  0.000  0.000  0.000  0.001
   19  0.037  0.001  0.000  0.038
   20  0.037  0.001  0.000  0.038
   21  0.001  0.000  0.000  0.002
   22  0.001  0.000  0.000  0.002
   23  0.083  0.001  0.000  0.084
   24  0.083  0.001  0.000  0.084
   25  0.004  0.001  0.000  0.005
   26  0.004  0.001  0.000  0.005
tot    0.680  0.032  0.001  0.713
 
band     8 # energy   -8.53192252 # occ.  2.00000000
 
ion      s      p      d    tot
    1  0.000  0.000  0.000  0.000
    2  0.000  0.000  0.000  0.000
    3  0.000  0.000  0.000  0.000
    4  0.000  0.000  0.000  0.000
    5  0.017  0.004  0.000  0.021
    6  0.017  0.004  0.000  0.021
    7  0.033  0.002  0.000  0.035
    8  0.033  0.002  0.000  0.035
    9  0.019  0.006  0.001  0.026
   10  0.019  0.006  0.001  0.026
   11  0.026  0.002  0.000  0.028
   12  0.026  0.002  0.000  0.028
   13  0.002  0.000  0.000  0.002
   14  0.002  0.000  0.000  0.002
   15  0.083  0.001  0.000  0.083
   16  0.083  0.001  0.000  0.083
   17  0.004  0.000  0.000  0.005
   18  0.004  0.000  0.000  0.005
   19  0.050  0.001  0.000  0.050
   20  0.050  0.001  0.000  0.050
   21  0.055  0.000  0.000  0.055
   22  0.055  0.000  0.000  0.055
   23  0.034  0.001  0.000  0.034
   24  0.034  0.001  0.000  0.034
   25  0.019  0.000  0.000  0.019
   26  0.019  0.000  0.000  0.019
tot    0.681  0.034  0.003  0.719
 
band     9 # energy   -8.41204188 # occ.  2.00000000
 
ion      s      p      d    tot
    1  0.000  0.000  0.000  0.000
    2  0.000  0.000  0.000  0.000
    3  0.001  0.000  0.000  0.001
    4  0.001  0.000  0.000  0.001
    5  0.002  0.009  0.000  0.011
    6  0.002  0.009  0.000  0.011
    7  0.001  0.005  0.000  0.007
    8  0.001  0.005  0.000  0.007
    9  0.000  0.003  0.000  0.004
   10  0.000  0.003  0.000  0.004
   11  0.002  0.005  0.000  0.007
   12  0.002  0.005  0.000  0.007
   13  0.038  0.000  0.000  0.038
   14  0.038  0.000  0.000  0.038
   15  0.009  0.000  0.000  0.009
   16  0.009  0.000  0.000  0.009
   17  0.043  0.000  0.000  0.043
   18  0.043  0.000  0.000  0.043
   19  0.058  0.000  0.000  0.058
   20  0.058  0.000  0.000  0.058
   21  0.051  0.000  0.000  0.051
   22  0.051  0.000  0.000  0.051
   23  0.021  0.000  0.000  0.021
   24  0.021  0.000  0.000  0.021
   25  0.087  0.000  0.000  0.087
   26  0.087  0.000  0.000  0.087
tot    0.623  0.047  0.001  0.670
 
band    10 # energy   -8.31377938 # occ.  2.00000000
 
ion      s      p      d    tot
    1  0.001  0.000  0.000  0.001
    2  0.001  0.000  0.000  0.001
    3  0.000  0.000  0.000  0.000
    4  0.000  0.000  0.000  0.000
    5  0.000  0.003  0.000  0.004
    6  0.000  0.003  0.000  0.004
    7  0.000  0.005  0.001  0.005
    8  0.000  0.005  0.001  0.005
    9  0.000  0.002  0.000  0.002
   10  0.000  0.002  0.000  0.002
   11  0.000  0.011  0.000  0.012
   12  0.000  0.011  0.000  0.012
   13  0.099  0.000  0.000  0.099
   14  0.099  0.000  0.000  0.099
   15  0.002  0.000  0.000  0.002
   16  0.002  0.000  0.000  0.002
   17  0.015  0.000  0.000  0.015
   18  0.015  0.000  0.000  0.015
   19  0.026  0.000  0.000  0.026
   20  0.026  0.000  0.000  0.026
   21  0.085  0.000  0.000  0.085
   22  0.085  0.000  0.000  0.085
   23  0.061  0.000  0.000  0.061
   24  0.061  0.000  0.000  0.061
   25  0.025  0.000  0.000  0.025
   26  0.025  0.000  0.000  0.025
tot    0.630  0.044  0.002  0.676
 
band    11 # energy   -8.20486054 # occ.  2.00000000
 
ion      s      p      d    tot
    1  0.000  0.000  0.000  0.000
    2  0.000  0.000  0.000  0.000
    3  0.000  0.000  0.000  0.001
    4  0.000  0.000  0.000  0.001
    5  0.001  0.006  0.000  0.007
    6  0.001  0.006  0.000  0.007
    7  0.004  0.001  0.001  0.006
    8  0.004  0.001  0.001  0.006
    9  0.000  0.001  0.000  0.001
   10  0.000  0.001  0.000  0.001
   11  0.001  0.008  0.000  0.009
   12  0.001  0.008  0.000  0.009
   13  0.043  0.000  0.000  0.043
   14  0.043  0.000  0.000  0.043
   15  0.001  0.000  0.000  0.001
   16  0.001  0.000  0.000  0.001
   17  0.068  0.000  0.000  0.068
   18  0.068  0.000  0.000  0.068
   19  0.013  0.000  0.000  0.013
   20  0.013  0.000  0.000  0.013
   21  0.108  0.000  0.000  0.108
   22  0.108  0.000  0.000  0.108
   23  0.017  0.000  0.000  0.017
   24  0.017  0.000  0.000  0.017
   25  0.064  0.000  0.000  0.064
   26  0.064  0.000  0.000  0.064
tot    0.643  0.034  0.005  0.681
 
band    12 # energy   -8.14316730 # occ.  2.00000000
 
ion      s      p      d    tot
    1  0.001  0.001  0.000  0.001
    2  0.001  0.001  0.000  0.001
    3  0.000  0.000  0.000  0.000
    4  0.000  0.000  0.000  0.000
    5  0.001  0.004  0.000  0.005
    6  0.001  0.004  0.000  0.005
    7  0.008  0.002  0.001  0.011
    8  0.008  0.002  0.001  0.011
    9  0.000  0.003  0.000  0.003
   10  0.000  0.003  0.000  0.003
   11  0.010  0.002  0.002  0.015
   12  0.010  0.002  0.002  0.015
   13  0.144  0.000  0.000  0.144
   14  0.144  0.000  0.000  0.144
   15  0.009  0.000  0.000  0.009
   16  0.009  0.000  0.000  0.009
   17  0.001  0.000  0.000  0.001
   18  0.001  0.000  0.000  0.001
   19  0.012  0.000  0.000  0.012
   20  0.012  0.000  0.000  0.012
   21  0.006  0.000  0.000  0.006
   22  0.006  0.000  0.000  0.006
   23  0.055  0.000  0.000  0.056
   24  0.055  0.000  0.000  0.056
   25  0.084  0.000  0.000  0.084
   26  0.084  0.000  0.000  0.084
tot    0.660  0.025  0.006  0.691
 
band    13 # energy   -8.10156212 # occ.  2.00000000
 
ion      s      p      d    tot
    1  0.000  0.000  0.000  0.000
    2  0.000  0.000  0.000  0.000
    3  0.000  0.000  0.000  0.001
    4  0.000  0.000  0.000  0.001
    5  0.001  0.005  0.001  0.008
    6  0.001  0.005  0.001  0.008
    7  0.001  0.007  0.000  0.008
    8  0.001  0.007  0.000  0.008
    9  0.002  0.002  0.001  0.005
   10  0.002  0.002  0.001  0.005
   11  0.001  0.002  0.000  0.002
   12  0.001  0.002  0.000  0.002
   13  0.008  0.000  0.000  0.008
   14  0.008  0.000  0.000  0.008
   15  0.028  0.000  0.000  0.028
   16  0.028  0.000  0.000  0.028
   17  0.108  0.000  0.000  0.108
   18  0.108  0.000  0.000  0.108
   19  0.072  0.000  0.000  0.072
   20  0.072  0.000  0.000  0.072
   21  0.001  0.000  0.000  0.001
   22  0.001  0.000  0.000  0.001
   23  0.056  0.000  0.000  0.056
   24  0.056  0.000  0.000  0.056
   25  0.045  0.000  0.000  0.045
   26  0.045  0.000  0.000  0.045
tot    0.646  0.035  0.005  0.686
 
band    14 # energy   -8.02928356 # occ.  2.00000000
 
ion      s      p      d    tot
    1  0.000  0.000  0.000  0.000
    2  0.000  0.000  0.000  0.000
    3  0.000  0.000  0.000  0.001
    4  0.000  0.000  0.000  0.001
    5  0.001  0.002  0.002  0.005
    6  0.001  0.002  0.002  0.005
    7  0.003  0.006  0.000  0.010
    8  0.003  0.006  0.000  0.010
    9  0.000  0.002  0.000  0.003
   10  0.000  0.002  0.000  0.003
   11  0.001  0.001  0.000  0.002
   12  0.001  0.001  0.000  0.002
   13  0.030  0.000  0.000  0.030
   14  0.030  0.000  0.000  0.030
   15  0.010  0.000  0.000  0.010
   16  0.010  0.000  0.000  0.010
   17  0.147  0.000  0.000  0.147
   18  0.147  0.000  0.000  0.147
   19  0.036  0.000  0.000  0.036
   20  0.036  0.000  0.000  0.036
   21  0.005  0.000  0.000  0.005
   22  0.005  0.000  0.000  0.005
   23  0.031  0.000  0.000  0.031
   24  0.031  0.000  0.000  0.031
   25  0.063  0.000  0.000  0.063
   26  0.063  0.000  0.000  0.063
tot    0.653  0.027  0.006  0.686
 
band    15 # energy   -6.44503237 # occ.  2.00000000
 
ion      s      p      d    tot
    1  0.000  0.000  0.000  0.000
    2  0.000  0.000  0.000  0.000
    3  0.000  0.000  0.000  0.000
    4  0.000  0.000  0.000  0.000
    5  0.018  0.001  0.000  0.020
    6  0.018  0.001  0.000  0.020
    7  0.085  0.001  0.000  0.087
    8  0.085  0.001  0.000  0.087
    9  0.002  0.000  0.000  0.002
   10  0.002  0.000  0.000  0.002
   11  0.187  0.001  0.001  0.188
   12  0.187  0.001  0.001  0.188
   13  0.018  0.004  0.000  0.022
   14  0.018  0.004  0.000  0.022
   15  0.004  0.000  0.000  0.004
   16  0.004  0.000  0.000  0.004
   17  0.015  0.001  0.000  0.017
   18  0.015  0.001  0.000  0.017
   19  0.011  0.000  0.000  0.011
   20  0.011  0.000  0.000  0.011
   21  0.044  0.004  0.000  0.048
   22  0.044  0.004  0.000  0.048
   23  0.011  0.002  0.000  0.013
   24  0.011  0.002  0.000  0.013
   25  0.000  0.000  0.000  0.000
   26  0.000  0.000  0.000  0.000
tot    0.791  0.030  0.003  0.824
 
band    16 # energy   -6.06034948 # occ.  2.00000000
 
ion      s      p      d    tot
    1  0.000  0.000  0.000  0.000
    2  0.000  0.000  0.000  0.000
    3  0.000  0.000  0.000  0.000
    4  0.000  0.000  0.000  0.000
    5  0.096  0.001  0.000  0.097
    6  0.096  0.001  0.000  0.097
    7  0.119  0.001  0.000  0.120
    8  0.119  0.001  0.000  0.120
    9  0.018  0.003  0.000  0.021
   10  0.018  0.003  0.000  0.021
   11  0.032  0.002  0.000  0.034
   12  0.032  0.002  0.000  0.034
   13  0.023  0.000  0.000  0.024
   14  0.023  0.000  0.000  0.024
   15  0.015  0.000  0.000  0.016
   16  0.015  0.000  0.000  0.016
   17  0.004  0.003  0.000  0.007
   18  0.004  0.003  0.000  0.007
   19  0.029  0.002  0.000  0.031
   20  0.029  0.002  0.000  0.031
   21  0.000  0.002  0.000  0.002
   22  0.000  0.002  0.000  0.002
   23  0.043  0.002  0.000  0.045
   24  0.043  0.002  0.000  0.045
   25  0.006  0.004  0.000  0.010
   26  0.006  0.004  0.000  0.010
tot    0.772  0.041  0.002  0.815
 
band    17 # energy   -5.74726739 # occ.  2.00000000
 
ion      s      p      d    tot
    1  0.000  0.000  0.000  0.000
    2  0.000  0.000  0.000  0.000
    3  0.000  0.000  0.000  0.000
    4  0.000  0.000  0.000  0.000
    5  0.186  0.001  0.000  0.187
    6  0.186  0.001  0.000  0.187
    7  0.020  0.001  0.000  0.021
    8  0.020  0.001  0.000  0.021
    9  0.012  0.001  0.001  0.013
   10  0.012  0.001  0.001  0.013
   11  0.049  0.001  0.000  0.050
   12  0.049  0.001  0.000  0.050
   13  0.002  0.001  0.000  0.003
   14  0.002  0.001  0.000  0.003
   15  0.012  0.000  0.000  0.012
   16  0.012  0.000  0.000  0.012
   17  0.007  0.002  0.000  0.009
   18  0.007  0.002  0.000  0.009
   19  0.058  0.003  0.000  0.061
   20  0.058  0.003  0.000  0.061
   21  0.026  0.001  0.000  0.026
   22  0.026  0.001  0.000  0.026
   23  0.014  0.001  0.000  0.015
   24  0.014  0.001  0.000  0.015
   25  0.013  0.002  0.000  0.015
   26  0.013  0.002  0.000  0.015
tot    0.798  0.027  0.003  0.828
 
band    18 # energy   -5.67709340 # occ.  2.00000000
 
ion      s      p      d    tot
    1  0.000  0.001  0.000  0.001
    2  0.000  0.001  0.000  0.001
    3  0.000  0.000  0.000  0.000
    4  0.000  0.000  0.000  0.000
    5  0.039  0.000  0.000  0.039
    6  0.039  0.000  0.000  0.039
    7  0.071  0.000  0.000  0.072
    8  0.071  0.000  0.000  0.072
    9  0.120  0.006  0.000  0.126
   10  0.120  0.006  0.000  0.126
   11  0.019  0.000  0.000  0.020
   12  0.019  0.000  0.000  0.020
   13  0.011  0.000  0.000  0.011
   14  0.011  0.000  0.000  0.011
   15  0.077  0.002  0.000  0.079
   16  0.077  0.002  0.000  0.079
   17  0.038  0.001  0.000  0.039
   18  0.038  0.001  0.000  0.039
   19  0.001  0.002  0.000  0.003
   20  0.001  0.002  0.000  0.003
   21  0.000  0.001  0.000  0.001
   22  0.000  0.001  0.000  0.001
   23  0.005  0.002  0.000  0.007
   24  0.005  0.002  0.000  0.007
   25  0.004  0.004  0.000  0.007
   26  0.004  0.004  0.000  0.007
tot    0.771  0.038  0.002  0.810
 
band    19 # energy   -5.48216124 # occ.  2.00000000
 
ion      s      p      d    tot
    1  0.000  0.000  0.000  0.001
    2  0.000  0.000  0.000  0.001
    3  0.001  0.000  0.000  0.001
    4  0.001  0.000  0.000  0.001
    5  0.045  0.003  0.000  0.048
    6  0.045  0.003  0.000  0.048
    7  0.065  0.000  0.000  0.066
    8  0.065  0.000  0.000  0.066
    9  0.097  0.005  0.000  0.102
   10  0.097  0.005  0.000  0.102
   11  0.020  0.000  0.000  0.020
   12  0.020  0.000  0.000  0.020
   13  0.002  0.001  0.000  0.002
   14  0.002  0.001  0.000  0.002
   15  0.053  0.002  0.000  0.055
   16  0.053  0.002  0.000  0.055
   17  0.027  0.001  0.000  0.028
   18  0.027  0.001  0.000  0.028
   19  0.033  0.001  0.000  0.034
   20  0.033  0.001  0.000  0.034
   21  0.016  0.001  0.000  0.017
   22  0.016  0.001  0.000  0.017
   23  0.013  0.003  0.000  0.016
   24  0.013  0.003  0.000  0.016
   25  0.000  0.006  0.000  0.006
   26  0.000  0.006  0.000  0.006
tot    0.745  0.048  0.001  0.794
 
band    20 # energy   -5.10734099 # occ.  2.00000000
 
ion      s      p      d    tot
    1  0.001  0.000  0.000  0.001
    2  0.001  0.000  0.000  0.001
    3  0.000  0.000  0.000  0.000
    4  0.000  0.000  0.000  0.000
    5  0.025  0.000  0.000  0.025
    6  0.025  0.000  0.000  0.025
    7  0.018  0.001  0.000  0.020
    8  0.018  0.001  0.000  0.020
    9  0.020  0.001  0.000  0.021
   10  0.020  0.001  0.000  0.021
   11  0.169  0.000  0.000  0.169
   12  0.169  0.000  0.000  0.169
   13  0.069  0.004  0.000  0.073
   14  0.069  0.004  0.000  0.073
   15  0.009  0.001  0.000  0.010
   16  0.009  0.001  0.000  0.010
   17  0.001  0.001  0.000  0.001
   18  0.001  0.001  0.000  0.001
   19  0.013  0.000  0.000  0.013
   20  0.013  0.000  0.000  0.013
   21  0.049  0.003  0.000  0.053
   22  0.049  0.003  0.000  0.053
   23  0.015  0.003  0.000  0.018
   24  0.015  0.003  0.000  0.018
   25  0.008  0.001  0.000  0.009
   26  0.008  0.001  0.000  0.009
tot    0.792  0.033  0.001  0.826
 
band    21 # energy   -4.90774272 # occ.  2.00000000
 
ion      s      p      d    tot
    1  0.000  0.000  0.000  0.001
    2  0.000  0.000  0.000  0.001
    3  0.000  0.000  0.000  0.000
    4  0.000  0.000  0.000  0.000
    5  0.008  0.002  0.000  0.009
    6  0.008  0.002  0.000  0.009
    7  0.089  0.000  0.000  0.090
    8  0.089  0.000  0.000  0.090
    9  0.123  0.002  0.000  0.125
   10  0.123  0.002  0.000  0.125
   11  0.022  0.001  0.000  0.023
   12  0.022  0.001  0.000  0.023
   13  0.000  0.001  0.000  0.001
   14  0.000  0.001  0.000  0.001
   15  0.051  0.003  0.000  0.055
   16  0.051  0.003  0.000  0.055
   17  0.018  0.001  0.000  0.019
   18  0.018  0.001  0.000  0.019
   19  0.001  0.002  0.000  0.003
   20  0.001  0.002  0.000  0.003
   21  0.016  0.001  0.000  0.017
   22  0.016  0.001  0.000  0.017
   23  0.046  0.002  0.000  0.048
   24  0.046  0.002  0.000  0.048
   25  0.026  0.002  0.000  0.027
   26  0.026  0.002  0.000  0.027
tot    0.802  0.035  0.000  0.837
 
band    22 # energy   -4.40023183 # occ.  2.00000000
 
ion      s      p      d    tot
    1  0.000  0.000  0.000  0.001
    2  0.000  0.000  0.000  0.001
    3  0.000  0.000  0.000  0.001
    4  0.000  0.000  0.000  0.001
    5  0.092  0.000  0.000  0.092
    6  0.092  0.000  0.000  0.092
    7  0.047  0.000  0.000  0.047
    8  0.047  0.000  0.000  0.047
    9  0.085  0.000  0.000  0.086
   10  0.085  0.000  0.000  0.086
   11  0.014  0.000  0.000  0.014
   12  0.014  0.000  0.000  0.014
   13  0.004  0.001  0.000  0.005
   14  0.004  0.001  0.000  0.005
   15  0.027  0.003  0.000  0.030
   16  0.027  0.003  0.000  0.030
   17  0.020  0.002  0.000  0.022
   18  0.020  0.002  0.000  0.022
   19  0.035  0.003  0.000  0.038
   20  0.035  0.003  0.000  0.038
   21  0.009  0.001  0.000  0.010
   22  0.009  0.001  0.000  0.010
   23  0.021  0.001  0.000  0.022
   24  0.021  0.001  0.000  0.022
   25  0.057  0.000  0.000  0.057
   26  0.057  0.000  0.000  0.057
tot    0.824  0.025  0.001  0.850
 
band    23 # energy   -1.34446265 # occ.  2.00000000
 
ion      s      p      d    tot
    1  0.000  0.000  0.000  0.000
    2  0.000  0.000  0.000  0.000
    3  0.000  0.001  0.000  0.001
    4  0.000  0.001  0.000  0.001
    5  0.000  0.042  0.000  0.042
    6  0.000  0.042  0.000  0.042
    7  0.000  0.042  0.000  0.042
    8  0.000  0.042  0.000  0.042
    9  0.000  0.020  0.000  0.020
   10  0.000  0.020  0.000  0.020
   11  0.000  0.027  0.000  0.028
   12  0.000  0.027  0.000  0.028
   13  0.001  0.011  0.000  0.011
   14  0.001  0.011  0.000  0.011
   15  0.000  0.001  0.000  0.001
   16  0.000  0.001  0.000  0.001
   17  0.002  0.017  0.000  0.019
   18  0.002  0.017  0.000  0.019
   19  0.000  0.013  0.000  0.013
   20  0.000  0.013  0.000  0.013
   21  0.002  0.014  0.000  0.016
   22  0.002  0.014  0.000  0.016
   23  0.000  0.024  0.000  0.024
   24  0.000  0.024  0.000  0.024
   25  0.000  0.041  0.000  0.041
   26  0.000  0.041  0.000  0.041
tot    0.013  0.506  0.002  0.520
 
band    24 # energy   -0.68195192 # occ.  2.00000000
 
ion      s      p      d    tot
    1  0.000  0.000  0.000  0.001
    2  0.000  0.000  0.000  0.001
    3  0.001  0.001  0.000  0.002
    4  0.001  0.001  0.000  0.002
    5  0.000  0.008  0.001  0.010
    6  0.000  0.008  0.001  0.010
    7  0.000  0.043  0.001  0.044
    8  0.000  0.043  0.001  0.044
    9  0.000  0.042  0.000  0.043
   10  0.000  0.042  0.000  0.043
   11  0.001  0.027  0.001  0.029
   12  0.001  0.027  0.001  0.029
   13  0.001  0.006  0.000  0.007
   14  0.001  0.006  0.000  0.007
   15  0.000  0.006  0.000  0.006
   16  0.000  0.006  0.000  0.006
   17  0.000  0.004  0.000  0.004
   18  0.000  0.004  0.000  0.004
   19  0.001  0.024  0.000  0.025
   20  0.001  0.024  0.000  0.025
   21  0.001  0.024  0.000  0.025
   22  0.001  0.024  0.000  0.025
   23  0.000  0.045  0.000  0.045
   24  0.000  0.045  0.000  0.045
   25  0.001  0.024  0.000  0.025
   26  0.001  0.024  0.000  0.025
tot    0.015  0.507  0.007  0.530
 
band    25 # energy   -0.42697579 # occ.  2.00000000
 
ion      s      p      d    tot
    1  0.001  0.001  0.000  0.002
    2  0.001  0.001  0.000  0.002
    3  0.000  0.000  0.000  0.001
    4  0.000  0.000  0.000  0.001
    5  0.000  0.034  0.000  0.035
    6  0.000  0.034  0.000  0.035
    7  0.000  0.004  0.002  0.006
    8  0.000  0.004  0.002  0.006
    9  0.002  0.004  0.000  0.007
   10  0.002  0.004  0.000  0.007
   11  0.000  0.076  0.001  0.077
   12  0.000  0.076  0.001  0.077
   13  0.002  0.059  0.000  0.060
   14  0.002  0.059  0.000  0.060
   15  0.001  0.001  0.000  0.002
   16  0.001  0.001  0.000  0.002
   17  0.001  0.016  0.000  0.018
   18  0.001  0.016  0.000  0.018
   19  0.000  0.005  0.000  0.005
   20  0.000  0.005  0.000  0.005
   21  0.000  0.006  0.000  0.006
   22  0.000  0.006  0.000  0.006
   23  0.004  0.026  0.000  0.029
   24  0.004  0.026  0.000  0.029
   25  0.001  0.023  0.000  0.024
   26  0.001  0.023  0.000  0.024
tot    0.025  0.508  0.008  0.541
 
band    26 # energy    0.02296875 # occ.  2.00000000
 
ion      s      p      d    tot
    1  0.000  0.000  0.000  0.001
    2  0.000  0.000  0.000  0.001
    3  0.002  0.002  0.000  0.004
    4  0.002  0.002  0.000  0.004
    5  0.002  0.038  0.002  0.041
    6  0.002  0.038  0.002  0.041
    7  0.001  0.036  0.001  0.037
    8  0.001  0.036  0.001  0.037
    9  0.003  0.019  0.001  0.023
   10  0.003  0.019  0.001  0.023
   11  0.000  0.009  0.001  0.010
   12  0.000  0.009  0.001  0.010
   13  0.001  0.000  0.000  0.002
   14  0.001  0.000  0.000  0.002
   15  0.001  0.009  0.000  0.010
   16  0.001  0.009  0.000  0.010
   17  0.001  0.049  0.000  0.051
   18  0.001  0.049  0.000  0.051
   19  0.000  0.036  0.000  0.036
   20  0.000  0.036  0.000  0.036
   21  0.001  0.028  0.000  0.029
   22  0.001  0.028  0.000  0.029
   23  0.000  0.014  0.000  0.014
   24  0.000  0.014  0.000  0.014
   25  0.003  0.008  0.000  0.011
   26  0.003  0.008  0.000  0.011
tot    0.032  0.493  0.009  0.534
 
band    27 # energy    0.25610511 # occ.  2.00000000
 
ion      s      p      d    tot
    1  0.001  0.000  0.000  0.001
    2  0.001  0.000  0.000  0.001
    3  0.002  0.001  0.000  0.003
    4  0.002  0.001  0.000  0.003
    5  0.000  0.037  0.001  0.038
    6  0.000  0.037  0.001  0.038
    7  0.001  0.022  0.001  0.024
    8  0.001  0.022  0.001  0.024
    9  0.001  0.037  0.002  0.040
   10  0.001  0.037  0.002  0.040
   11  0.000  0.004  0.000  0.005
   12  0.000  0.004  0.000  0.005
   13  0.000  0.004  0.000  0.004
   14  0.000  0.004  0.000  0.004
   15  0.001  0.013  0.000  0.014
   16  0.001  0.013  0.000  0.014
   17  0.000  0.020  0.000  0.020
   18  0.000  0.020  0.000  0.020
   19  0.001  0.050  0.000  0.052
   20  0.001  0.050  0.000  0.052
   21  0.000  0.020  0.000  0.020
   22  0.000  0.020  0.000  0.020
   23  0.003  0.003  0.000  0.006
   24  0.003  0.003  0.000  0.006
   25  0.001  0.045  0.000  0.046
   26  0.001  0.045  0.000  0.046
tot    0.025  0.511  0.008  0.543
 
band    28 # energy    0.32607616 # occ.  2.00000000
 
ion      s      p      d    tot
    1  0.001  0.001  0.000  0.002
    2  0.001  0.001  0.000  0.002
    3  0.001  0.001  0.000  0.002
    4  0.001  0.001  0.000  0.002
    5  0.000  0.010  0.001  0.011
    6  0.000  0.010  0.001  0.011
    7  0.000  0.021  0.001  0.022
    8  0.000  0.021  0.001  0.022
    9  0.001  0.016  0.000  0.016
   10  0.001  0.016  0.000  0.016
   11  0.000  0.047  0.000  0.047
   12  0.000  0.047  0.000  0.047
   13  0.002  0.042  0.000  0.044
   14  0.002  0.042  0.000  0.044
   15  0.000  0.008  0.000  0.008
   16  0.000  0.008  0.000  0.008
   17  0.001  0.022  0.000  0.024
   18  0.001  0.022  0.000  0.024
   19  0.002  0.012  0.000  0.013
   20  0.002  0.012  0.000  0.013
   21  0.001  0.042  0.000  0.043
   22  0.001  0.042  0.000  0.043
   23  0.000  0.023  0.000  0.023
   24  0.000  0.023  0.000  0.023
   25  0.000  0.010  0.000  0.011
   26  0.000  0.010  0.000  0.011
tot    0.022  0.507  0.005  0.533
 
band    29 # energy    0.61221904 # occ.  2.00000000
 
ion      s      p      d    tot
    1  0.000  0.001  0.000  0.001
    2  0.000  0.001  0.000  0.001
    3  0.000  0.001  0.000  0.001
    4  0.000  0.001  0.000  0.001
    5  0.000  0.036  0.000  0.036
    6  0.000  0.036  0.000  0.036
    7  0.000  0.032  0.000  0.032
    8  0.000  0.032  0.000  0.032
    9  0.000  0.023  0.000  0.023
   10  0.000  0.023  0.000  0.023
   11  0.000  0.031  0.000  0.031
   12  0.000  0.031  0.000  0.031
   13  0.000  0.022  0.000  0.022
   14  0.000  0.022  0.000  0.022
   15  0.000  0.014  0.000  0.014
   16  0.000  0.014  0.000  0.014
   17  0.000  0.017  0.000  0.017
   18  0.000  0.017  0.000  0.017
   19  0.000  0.024  0.000  0.024
   20  0.000  0.024  0.000  0.024
   21  0.000  0.025  0.000  0.025
   22  0.000  0.025  0.000  0.025
   23  0.000  0.028  0.000  0.028
   24  0.000  0.028  0.000  0.028
   25  0.000  0.038  0.000  0.038
   26  0.000  0.038  0.000  0.038
tot    0.000  0.584  0.001  0.585
 
band    30 # energy    0.61805393 # occ.  2.00000000
 
ion      s      p      d    tot
    1  0.001  0.001  0.000  0.002
    2  0.001  0.001  0.000  0.002
    3  0.002  0.001  0.000  0.003
    4  0.002  0.001  0.000  0.003
    5  0.001  0.023  0.001  0.025
    6  0.001  0.023  0.001  0.025
    7  0.001  0.020  0.000  0.021
    8  0.001  0.020  0.000  0.021
    9  0.002  0.032  0.000  0.034
   10  0.002  0.032  0.000  0.034
   11  0.000  0.012  0.002  0.014
   12  0.000  0.012  0.002  0.014
   13  0.000  0.011  0.000  0.011
   14  0.000  0.011  0.000  0.011
   15  0.001  0.016  0.000  0.017
   16  0.001  0.016  0.000  0.017