 running on   14 total cores
 distrk:  each k-point on   14 cores,    1 groups
 distr:  one band on    1 cores,   14 groups
 using from now: INCAR     
 vasp.5.4.4.18Apr17-6-g9f103f2a35 (build Oct 27 2022 13:04:57) complex          
  
 POSCAR found type information on POSCAR  Li Bi S 
 POSCAR found :  3 types and      26 ions
 scaLAPACK will be used

 ----------------------------------------------------------------------------- 
|                                                                             |
|           W    W    AA    RRRRR   N    N  II  N    N   GGGG   !!!           |
|           W    W   A  A   R    R  NN   N  II  NN   N  G    G  !!!           |
|           W    W  A    A  R    R  N N  N  II  N N  N  G       !!!           |
|           W WW W  AAAAAA  RRRRR   N  N N  II  N  N N  G  GGG   !            |
|           WW  WW  A    A  R   R   N   NN  II  N   NN  G    G                |
|           W    W  A    A  R    R  N    N  II  N    N   GGGG   !!!           |
|                                                                             |
|      For optimal performance we recommend to set                            |
|        NCORE= 4 - approx SQRT( number of cores)                             |
|      NCORE specifies how many cores store one orbital (NPAR=cpu/NCORE).     |
|      This setting can  greatly improve the performance of VASP for DFT.     |
|      The default,   NCORE=1            might be grossly inefficient         |
|      on modern multi-core architectures or massively parallel machines.     |
|      Do your own testing !!!!                                               |
|      Unfortunately you need to use the default for GW and RPA calculations. |
|      (for HF NCORE is supported but not extensively tested yet)             |
|                                                                             |
 ----------------------------------------------------------------------------- 

 LDA part: xc-table for Pade appr. of Perdew
 POSCAR, INCAR and KPOINTS ok, starting setup
 FFT: planning ...
 WAVECAR not read
 entering main loop
       N       E                     dE             d eps       ncg     rms          rms(c)
DAV:   1     0.548631774300E+03    0.54863E+03   -0.34440E+04  1008   0.781E+02
DAV:   2    -0.392985401771E+02   -0.58793E+03   -0.56747E+03  1372   0.164E+02
DAV:   3    -0.111297003618E+03   -0.71998E+02   -0.71248E+02  1232   0.631E+01
DAV:   4    -0.113919769370E+03   -0.26228E+01   -0.26148E+01  1596   0.130E+01
DAV:   5    -0.113956077310E+03   -0.36308E-01   -0.36275E-01  1330   0.164E+00    0.165E+01
DAV:   6    -0.104589986616E+03    0.93661E+01   -0.26297E+01  1162   0.111E+01    0.114E+01
DAV:   7    -0.104620120416E+03   -0.30134E-01   -0.41539E+00  1204   0.458E+00    0.774E+00
DAV:   8    -0.104547376382E+03    0.72744E-01   -0.55268E-01  1554   0.208E+00    0.217E+00
DAV:   9    -0.104538019602E+03    0.93568E-02   -0.13816E-01  1414   0.124E+00    0.876E-01
DAV:  10    -0.104540646765E+03   -0.26272E-02   -0.20282E-02  1274   0.371E-01    0.572E-01
DAV:  11    -0.104545736962E+03   -0.50902E-02   -0.98765E-03  1218   0.264E-01    0.226E-01
DAV:  12    -0.104549333823E+03   -0.35969E-02   -0.76365E-03  1190   0.209E-01    0.113E-01
DAV:  13    -0.104550144305E+03   -0.81048E-03   -0.13075E-03  1358   0.763E-02    0.782E-02
DAV:  14    -0.104550492646E+03   -0.34834E-03   -0.24235E-04  1008   0.382E-02    0.265E-02
DAV:  15    -0.104550659546E+03   -0.16690E-03   -0.28425E-04  1050   0.368E-02    0.187E-02
DAV:  16    -0.104550676228E+03   -0.16682E-04   -0.24174E-05   980   0.118E-02
   1 F= -.10455068E+03 E0= -.10455068E+03  d E =-.104551E+03
 curvature:   0.00 expect dE= 0.000E+00 dE for cont linesearch  0.000E+00
 trial: gam= 0.00000 g(F)=  0.451E-01 g(S)=  0.101E+01 ort = 0.000E+00 (trialstep = 0.100E+01)
 search vector abs. value=  0.106E+01
 bond charge predicted
       N       E                     dE             d eps       ncg     rms          rms(c)
DAV:   1    -0.106004340112E+03   -0.14537E+01   -0.10394E+01  1232   0.802E+00    0.469E+00
DAV:   2    -0.105574643207E+03    0.42970E+00   -0.11497E+00  1134   0.260E+00    0.163E+00
DAV:   3    -0.105518045911E+03    0.56597E-01   -0.22076E-01  1274   0.109E+00    0.705E-01
DAV:   4    -0.105509330816E+03    0.87151E-02   -0.18508E-02  1400   0.361E-01    0.581E-01
DAV:   5    -0.105506530376E+03    0.28004E-02   -0.48152E-03  1400   0.160E-01    0.388E-01
DAV:   6    -0.105504890973E+03    0.16394E-02   -0.59907E-03  1316   0.170E-01    0.189E-01
DAV:   7    -0.105505037105E+03   -0.14613E-03   -0.10680E-03  1288   0.692E-02    0.601E-02
DAV:   8    -0.105505038256E+03   -0.11515E-05   -0.42123E-05   784   0.190E-02
   2 F= -.10550504E+03 E0= -.10550504E+03  d E =-.954362E+00
 trial-energy change:   -0.954362  1 .order   -0.948039   -1.059840   -0.836238
 step:   3.3774(harm=  4.7399)  dis= 0.02214  next Energy=  -106.584058 (dE=-0.203E+01)
 bond charge predicted
       N       E                     dE             d eps       ncg     rms          rms(c)
DAV:   1    -0.109686518699E+03   -0.41815E+01   -0.60768E+01  1204   0.199E+01    0.121E+01
DAV:   2    -0.107213825867E+03    0.24727E+01   -0.65419E+00  1148   0.624E+00    0.471E+00
DAV:   3    -0.106874157909E+03    0.33967E+00   -0.14093E+00  1260   0.266E+00    0.197E+00
DAV:   4    -0.106834136849E+03    0.40021E-01   -0.86232E-02  1372   0.815E-01    0.166E+00
DAV:   5    -0.106815388175E+03    0.18749E-01   -0.26991E-02  1372   0.375E-01    0.113E+00
DAV:   6    -0.106804617345E+03    0.10771E-01   -0.34583E-02  1386   0.407E-01    0.401E-01
DAV:   7    -0.106805247078E+03   -0.62973E-03   -0.64141E-03  1414   0.168E-01    0.180E-01
DAV:   8    -0.106805217742E+03    0.29336E-04   -0.22888E-04   952   0.434E-02
   3 F= -.10680522E+03 E0= -.10680522E+03  d E =-.225454E+01
 curvature:  -2.06 expect dE=-0.213E+00 dE for cont linesearch -0.859E-01
 ZBRENT: extrapolating
 opt :   4.1767  next Energy=  -106.889302 (dE=-0.234E+01)
 bond charge predicted
       N       E                     dE             d eps       ncg     rms          rms(c)
DAV:   1    -0.107209971887E+03   -0.40472E+00   -0.68649E+00  1204   0.665E+00    0.400E+00
DAV:   2    -0.106930344629E+03    0.27963E+00   -0.73350E-01  1176   0.211E+00    0.145E+00
DAV:   3    -0.106889180095E+03    0.41165E-01   -0.15861E-01  1260   0.886E-01    0.550E-01
DAV:   4    -0.106883607936E+03    0.55722E-02   -0.10593E-02  1372   0.287E-01    0.438E-01
DAV:   5    -0.106881863413E+03    0.17445E-02   -0.31856E-03  1372   0.128E-01    0.315E-01
DAV:   6    -0.106881051503E+03    0.81191E-03   -0.27322E-03  1344   0.115E-01    0.161E-01
DAV:   7    -0.106881121296E+03   -0.69793E-04   -0.59526E-04  1134   0.509E-02
   4 F= -.10688112E+03 E0= -.10688112E+03  d E =-.233045E+01
 curvature:  -2.01 expect dE=-0.211E+00 dE for cont linesearch -0.205E-02
 ZBRENT: bracketing found
 ZBRENT: interpolating
 opt :   4.0688  next Energy=  -106.882894 (dE=-0.233E+01)
 bond charge predicted
       N       E                     dE             d eps       ncg     rms          rms(c)
DAV:   1    -0.106888739752E+03   -0.76882E-02   -0.12532E-01  1218   0.890E-01    0.532E-01
DAV:   2    -0.106883750810E+03    0.49889E-02   -0.13330E-02  1162   0.285E-01    0.186E-01
DAV:   3    -0.106882982573E+03    0.76824E-03   -0.28158E-03  1260   0.119E-01    0.712E-02
DAV:   4    -0.106882840596E+03    0.14198E-03   -0.18706E-04   910   0.405E-02    0.477E-02
DAV:   5    -0.106882789600E+03    0.50996E-04   -0.81111E-05   700   0.229E-02
   5 F= -.10688279E+03 E0= -.10688279E+03  d E =-.233211E+01
 curvature:  -1.74 expect dE=-0.167E+00 dE for cont linesearch -0.190E-04
 trial: gam= 0.09388 g(F)=  0.736E-01 g(S)=  0.225E-01 ort =-0.340E-02 (trialstep = 0.161E+01)
 search vector abs. value=  0.105E+00
 bond charge predicted
       N       E                     dE             d eps       ncg     rms          rms(c)
DAV:   1    -0.107049102857E+03   -0.16626E+00   -0.28335E+00  1008   0.398E+00    0.136E+00
DAV:   2    -0.107042183762E+03    0.69191E-02   -0.17958E-01  1176   0.118E+00    0.561E-01
DAV:   3    -0.107036176948E+03    0.60068E-02   -0.80295E-03  1274   0.263E-01    0.384E-01
DAV:   4    -0.107033316029E+03    0.28609E-02   -0.66922E-03  1260   0.203E-01    0.199E-01
DAV:   5    -0.107033153912E+03    0.16212E-03   -0.14705E-03  1344   0.958E-02    0.688E-02
DAV:   6    -0.107033089657E+03    0.64255E-04   -0.25888E-04   980   0.380E-02
   6 F= -.10703309E+03 E0= -.10703309E+03  d E =-.150300E+00
 ZBRENT: can't locate minimum, use default step
 trial-energy change:   -0.150300  1 .order   -0.150815   -0.154554   -0.147076
 step:   6.4550(harm= 33.3522)  dis= 0.05379  next Energy=  -108.479909 (dE=-0.160E+01)
 bond charge predicted
       N       E                     dE             d eps       ncg     rms          rms(c)
DAV:   1    -0.107584036532E+03   -0.55088E+00   -0.25600E+01  1008   0.119E+01    0.425E+00
DAV:   2    -0.107510686019E+03    0.73351E-01   -0.16413E+00  1190   0.356E+00    0.165E+00
DAV:   3    -0.107455040086E+03    0.55646E-01   -0.81627E-02  1274   0.829E-01    0.118E+00
DAV:   4    -0.107432460137E+03    0.22580E-01   -0.53540E-02  1260   0.570E-01    0.661E-01
DAV:   5    -0.107430389921E+03    0.20702E-02   -0.10819E-02  1330   0.259E-01    0.224E-01
DAV:   6    -0.107429586899E+03    0.80302E-03   -0.36997E-03  1260   0.141E-01    0.123E-01
DAV:   7    -0.107429709949E+03   -0.12305E-03   -0.62385E-04  1302   0.600E-02    0.650E-02
DAV:   8    -0.107429775439E+03   -0.65489E-04   -0.89692E-05   868   0.301E-02
   7 F= -.10742978E+03 E0= -.10742978E+03  d E =-.546986E+00
 curvature:  -5.14 expect dE=-0.353E+00 dE for cont linesearch -0.278E+00
 ZBRENT: increasing intervall
 opt :  16.1375  next Energy=  -108.005404 (dE=-0.112E+01)
 bond charge predicted
       N       E                     dE             d eps       ncg     rms          rms(c)
DAV:   1    -0.108671286743E+03   -0.12416E+01   -0.10410E+02  1008   0.240E+01    0.103E+01
DAV:   2    -0.108320049411E+03    0.35124E+00   -0.68693E+00  1176   0.725E+00    0.356E+00
DAV:   3    -0.108096488758E+03    0.22356E+00   -0.39547E-01  1274   0.179E+00    0.278E+00
DAV:   4    -0.108021096724E+03    0.75392E-01   -0.19083E-01  1260   0.107E+00    0.171E+00
DAV:   5    -0.108010966368E+03    0.10130E-01   -0.33329E-02  1372   0.450E-01    0.647E-01
DAV:   6    -0.108005673002E+03    0.52934E-02   -0.20555E-02  1260   0.347E-01    0.246E-01
DAV:   7    -0.108006246749E+03   -0.57375E-03   -0.40498E-03  1442   0.150E-01    0.133E-01
DAV:   8    -0.108006432072E+03   -0.18532E-03   -0.34276E-04   994   0.576E-02    0.451E-02
DAV:   9    -0.108006519846E+03   -0.87775E-04   -0.18958E-04  1022   0.373E-02
   8 F= -.10800652E+03 E0= -.10800652E+03  d E =-.112373E+01
 curvature: -10.64 expect dE=-0.750E+00 dE for cont linesearch -0.208E+00
 ZBRENT: increasing intervall
 opt :  35.5026  next Energy=  -108.301742 (dE=-0.142E+01)
 bond charge predicted
       N       E                     dE             d eps       ncg     rms          rms(c)
DAV:   1    -0.111081251919E+03   -0.30748E+01   -0.43084E+02  1008   0.486E+01    0.348E+01
DAV:   2    -0.109329939275E+03    0.17513E+01   -0.31142E+01  1176   0.153E+01    0.972E+00
DAV:   3    -0.108474082861E+03    0.85586E+00   -0.22774E+00  1260   0.419E+00    0.954E+00
DAV:   4    -0.108281004810E+03    0.19308E+00   -0.61208E-01  1260   0.197E+00    0.618E+00
DAV:   5    -0.108214301022E+03    0.66704E-01   -0.11842E-01  1302   0.807E-01    0.279E+00
DAV:   6    -0.108185282701E+03    0.29018E-01   -0.10324E-01  1330   0.809E-01    0.660E-01
DAV:   7    -0.108187872353E+03   -0.25897E-02   -0.24084E-02  1232   0.396E-01    0.292E-01
DAV:   8    -0.108188331928E+03   -0.45958E-03   -0.17805E-03  1358   0.109E-01    0.171E-01
DAV:   9    -0.108188727195E+03   -0.39527E-03   -0.68505E-04  1190   0.698E-02    0.120E-01
DAV:  10    -0.108188768018E+03   -0.40824E-04   -0.64352E-05   784   0.253E-02
   9 F= -.10818877E+03 E0= -.10818877E+03  d E =-.130598E+01
 curvature: -15.10 expect dE=-0.373E+01 dE for cont linesearch -0.600E-01
 ZBRENT: bracketing found
 ZBRENT: interpolating
 opt :  29.4856  next Energy=  -108.250161 (dE=-0.137E+01)
 bond charge predicted
       N       E                     dE             d eps       ncg     rms          rms(c)
DAV:   1    -0.108506629381E+03   -0.31790E+00   -0.42379E+01  1036   0.156E+01    0.587E+00
DAV:   2    -0.108415597679E+03    0.91032E-01   -0.25621E+00  1176   0.462E+00    0.276E+00
DAV:   3    -0.108330059331E+03    0.85538E-01   -0.12965E-01  1260   0.103E+00    0.197E+00
DAV:   4    -0.108275260329E+03    0.54799E-01   -0.12450E-01  1246   0.816E-01    0.830E-01
DAV:   5    -0.108272677209E+03    0.25831E-02   -0.25002E-02  1344   0.388E-01    0.293E-01
DAV:   6    -0.108272073301E+03    0.60391E-03   -0.32231E-03  1358   0.139E-01    0.196E-01
DAV:   7    -0.108272262878E+03   -0.18958E-03   -0.79389E-04  1260   0.787E-02    0.818E-02
DAV:   8    -0.108272296958E+03   -0.34080E-04   -0.25044E-04   994   0.440E-02
  10 F= -.10827230E+03 E0= -.10827230E+03  d E =-.138951E+01
 curvature: -15.45 expect dE=-0.254E+01 dE for cont linesearch -0.921E-04
 trial: gam= 1.56756 g(F)=  0.135E+00 g(S)=  0.292E-01 ort = 0.790E-03 (trialstep = 0.178E+01)
 search vector abs. value=  0.424E+00
 bond charge predicted
       N       E                     dE             d eps       ncg     rms          rms(c)
DAV:   1    -0.108497680706E+03   -0.22542E+00   -0.10856E+01  1008   0.787E+00    0.222E+00
DAV:   2    -0.108552218114E+03   -0.54537E-01   -0.72574E-01  1176   0.234E+00    0.944E-01
DAV:   3    -0.108545075955E+03    0.71422E-02   -0.15189E-02  1302   0.420E-01    0.714E-01
DAV:   4    -0.108541309986E+03    0.37660E-02   -0.10974E-02  1260   0.271E-01    0.397E-01
DAV:   5    -0.108540982659E+03    0.32733E-03   -0.25557E-03  1232   0.136E-01    0.135E-01
DAV:   6    -0.108540942684E+03    0.39975E-04   -0.49944E-04  1218   0.580E-02
  11 F= -.10854094E+03 E0= -.10854094E+03  d E =-.268646E+00
 ZBRENT: can't locate minimum, use default step
 trial-energy change:   -0.268646  1 .order   -0.269666   -0.293909   -0.245423
 step:   7.1014(harm= 10.7618)  dis= 0.10505  next Energy=  -109.163100 (dE=-0.891E+00)
 bond charge predicted
       N       E                     dE             d eps       ncg     rms          rms(c)
DAV:   1    -0.108674711554E+03   -0.13373E+00   -0.96646E+01  1008   0.233E+01    0.967E+00
DAV:   2    -0.109157390934E+03   -0.48268E+00   -0.66067E+00  1176   0.703E+00    0.367E+00
DAV:   3    -0.109093812095E+03    0.63579E-01   -0.14552E-01  1288   0.131E+00    0.316E+00
DAV:   4    -0.109068089268E+03    0.25723E-01   -0.83166E-02  1260   0.743E-01    0.176E+00
DAV:   5    -0.109063532609E+03    0.45567E-02   -0.18308E-02  1288   0.368E-01    0.607E-01
DAV:   6    -0.109063176821E+03    0.35579E-03   -0.45714E-03  1316   0.180E-01    0.183E-01
DAV:   7    -0.109063236790E+03   -0.59969E-04   -0.93744E-04  1232   0.883E-02
  12 F= -.10906324E+03 E0= -.10906324E+03  d E =-.790940E+00
 curvature: -11.50 expect dE=-0.101E+01 dE for cont linesearch -0.991E-01
 ZBRENT: increasing intervall
 opt :  17.7536  next Energy=  -108.879007 (dE=-0.607E+00)
 bond charge predicted
       N       E                     dE             d eps       ncg     rms          rms(c)
DAV:   1    -0.107137991480E+03    0.19252E+01   -0.37896E+02  1008   0.462E+01    0.359E+01
DAV:   2    -0.109214865139E+03   -0.20769E+01   -0.28615E+01  1190   0.144E+01    0.122E+01
DAV:   3    -0.108969360530E+03    0.24550E+00   -0.69606E-01  1302   0.286E+00    0.109E+01
DAV:   4    -0.108902950243E+03    0.66410E-01   -0.32458E-01  1218   0.146E+00    0.614E+00
DAV:   5    -0.108889015956E+03    0.13934E-01   -0.44071E-02  1358   0.599E-01    0.292E+00
DAV:   6    -0.108885619035E+03    0.33969E-02   -0.19175E-02  1288   0.384E-01    0.714E-01
DAV:   7    -0.108886295008E+03   -0.67597E-03   -0.45067E-03  1204   0.184E-01    0.264E-01
DAV:   8    -0.108886408399E+03   -0.11339E-03   -0.52279E-04  1204   0.637E-02    0.188E-01
DAV:   9    -0.108886432129E+03   -0.23730E-04   -0.81692E-05   742   0.290E-02
  13 F= -.10888643E+03 E0= -.10888643E+03  d E =-.614135E+00
 curvature:  21.38 expect dE= 0.538E+01 dE for cont linesearch  0.462E+00
 ZBRENT: bracketing found
 ZBRENT: interpolating
 opt :  11.2239  next Energy=  -109.187883 (dE=-0.916E+00)
 bond charge predicted
       N       E                     dE             d eps       ncg     rms          rms(c)
DAV:   1    -0.108447127918E+03    0.43928E+00   -0.14647E+02  1008   0.298E+01    0.109E+01
DAV:   2    -0.109334297648E+03   -0.88717E+00   -0.10823E+01  1120   0.901E+00    0.456E+00
DAV:   3    -0.109247844349E+03    0.86453E-01   -0.23422E-01  1288   0.164E+00    0.317E+00
DAV:   4    -0.109188805153E+03    0.59039E-01   -0.13758E-01  1246   0.974E-01    0.185E+00
DAV:   5    -0.109182253951E+03    0.65512E-02   -0.38768E-02  1260   0.524E-01    0.851E-01
DAV:   6    -0.109181336971E+03    0.91698E-03   -0.79208E-03  1288   0.220E-01    0.402E-01
DAV:   7    -0.109181264295E+03    0.72676E-04   -0.12885E-03  1274   0.103E-01    0.184E-01
DAV:   8    -0.109181134461E+03    0.12983E-03   -0.11946E-03  1330   0.972E-02    0.596E-02
DAV:   9    -0.109181170652E+03   -0.36191E-04   -0.30341E-04   938   0.489E-02
  14 F= -.10918117E+03 E0= -.10918117E+03  d E =-.908874E+00
 curvature:  -5.76 expect dE=-0.700E+00 dE for cont linesearch -0.263E-04
 trial: gam= 0.58800 g(F)=  0.498E-01 g(S)=  0.715E-01 ort = 0.139E-02 (trialstep = 0.367E+01)
 search vector abs. value=  0.270E+00
 bond charge predicted
       N       E                     dE             d eps       ncg     rms          rms(c)
DAV:   1    -0.109717313973E+03   -0.53618E+00   -0.22784E+01  1008   0.119E+01    0.459E+00
DAV:   2    -0.109561694429E+03    0.15562E+00   -0.20611E+00  1246   0.378E+00    0.224E+00
DAV:   3    -0.109522988486E+03    0.38706E-01   -0.16763E-01  1232   0.114E+00    0.109E+00
DAV:   4    -0.109508211094E+03    0.14777E-01   -0.38441E-02  1260   0.505E-01    0.622E-01
DAV:   5    -0.109504862440E+03    0.33487E-02   -0.66406E-03  1302   0.225E-01    0.364E-01
DAV:   6    -0.109503654371E+03    0.12081E-02   -0.43578E-03  1260   0.154E-01    0.249E-01
DAV:   7    -0.109503773096E+03   -0.11873E-03   -0.91669E-04  1232   0.728E-02    0.581E-02
DAV:   8    -0.109503783775E+03   -0.10680E-04   -0.85645E-05   756   0.272E-02
  15 F= -.10950378E+03 E0= -.10950378E+03  d E =-.322613E+00
 trial-energy change:   -0.322613  1 .order   -0.317865   -0.447763   -0.187966
 step:   5.9179(harm=  6.3168)  dis= 0.08567  next Energy=  -109.562655 (dE=-0.381E+00)
 bond charge predicted
       N       E                     dE             d eps       ncg     rms          rms(c)
DAV:   1    -0.109646460722E+03   -0.14269E+00   -0.85752E+00  1022   0.731E+00    0.271E+00
DAV:   2    -0.109587802158E+03    0.58659E-01   -0.78038E-01  1260   0.234E+00    0.142E+00
DAV:   3    -0.109573488080E+03    0.14314E-01   -0.62776E-02  1232   0.696E-01    0.707E-01
DAV:   4    -0.109567361574E+03    0.61265E-02   -0.15217E-02  1260   0.317E-01    0.372E-01
DAV:   5    -0.109566110061E+03    0.12515E-02   -0.27922E-03  1274   0.146E-01    0.221E-01
DAV:   6    -0.109565766933E+03    0.34313E-03   -0.14943E-03  1260   0.901E-02    0.155E-01
DAV:   7    -0.109565817646E+03   -0.50713E-04   -0.23776E-04   854   0.415E-02
  16 F= -.10956582E+03 E0= -.10956582E+03  d E =-.384647E+00
 curvature:  -6.81 expect dE=-0.270E+00 dE for cont linesearch -0.477E-03
 trial: gam= 0.25991 g(F)=  0.271E-01 g(S)=  0.126E-01 ort = 0.434E-02 (trialstep = 0.412E+01)
 search vector abs. value=  0.602E-01
 bond charge predicted
       N       E                     dE             d eps       ncg     rms          rms(c)
DAV:   1    -0.109676668010E+03   -0.11090E+00   -0.76111E+00  1008   0.683E+00    0.172E+00
DAV:   2    -0.109713718893E+03   -0.37051E-01   -0.56481E-01  1232   0.200E+00    0.861E-01
DAV:   3    -0.109710368680E+03    0.33502E-02   -0.15214E-02  1316   0.388E-01    0.627E-01
DAV:   4    -0.109708149330E+03    0.22194E-02   -0.39430E-03  1330   0.168E-01    0.373E-01
DAV:   5    -0.109707341684E+03    0.80765E-03   -0.19777E-03  1246   0.126E-01    0.158E-01
DAV:   6    -0.109707355419E+03   -0.13735E-04   -0.68503E-04  1190   0.676E-02
  17 F= -.10970736E+03 E0= -.10970736E+03  d E =-.141538E+00
 trial-energy change:   -0.141538  1 .order   -0.141045   -0.167938   -0.114152
 step:  11.6720(harm= 12.8502)  dis= 0.09298  next Energy=  -109.815197 (dE=-0.249E+00)
 bond charge predicted
       N       E                     dE             d eps       ncg     rms          rms(c)
DAV:   1    -0.109731446433E+03   -0.24105E-01   -0.25609E+01  1008   0.126E+01    0.359E+00
DAV:   2    -0.109858948692E+03   -0.12750E+00   -0.19379E+00  1260   0.370E+00    0.172E+00
DAV:   3    -0.109847559927E+03    0.11389E-01   -0.53567E-02  1288   0.729E-01    0.128E+00
DAV:   4    -0.109840592560E+03    0.69674E-02   -0.12801E-02  1302   0.300E-01    0.777E-01
DAV:   5    -0.109837682503E+03    0.29101E-02   -0.65998E-03  1246   0.229E-01    0.325E-01
DAV:   6    -0.109837721079E+03   -0.38575E-04   -0.25838E-03  1302   0.131E-01    0.162E-01
DAV:   7    -0.109837712510E+03    0.85687E-05   -0.25728E-04   910   0.485E-02
  18 F= -.10983771E+03 E0= -.10983771E+03  d E =-.271895E+00
 curvature:  -9.30 expect dE=-0.140E+00 dE for cont linesearch -0.449E-02
 ZBRENT: extrapolating
 opt :  13.4942  next Energy=  -109.842622 (dE=-0.277E+00)
 bond charge predicted
       N       E                     dE             d eps       ncg     rms          rms(c)
DAV:   1    -0.109835847195E+03    0.18739E-02   -0.14979E+00  1008   0.302E+00    0.756E-01
DAV:   2    -0.109843215775E+03   -0.73686E-02   -0.11056E-01  1232   0.888E-01    0.347E-01
DAV:   3    -0.109842584807E+03    0.63097E-03   -0.30326E-03  1302   0.173E-01    0.242E-01
DAV:   4    -0.109842206041E+03    0.37877E-03   -0.72927E-04  1232   0.720E-02    0.147E-01
DAV:   5    -0.109842053084E+03    0.15296E-03   -0.31394E-04   994   0.524E-02    0.672E-02
DAV:   6    -0.109842052273E+03    0.81102E-06   -0.15925E-04   714   0.357E-02
  19 F= -.10984205E+03 E0= -.10984205E+03  d E =-.276235E+00
 curvature: -10.17 expect dE=-0.198E+00 dE for cont linesearch -0.245E-03
 trial: gam= 0.47649 g(F)=  0.150E-01 g(S)=  0.446E-02 ort =-0.120E-02 (trialstep = 0.599E+01)
 search vector abs. value=  0.319E-01
 bond charge predicted
       N       E                     dE             d eps       ncg     rms          rms(c)
DAV:   1    -0.109892909353E+03   -0.50856E-01   -0.10305E+01  1008   0.799E+00    0.240E+00
DAV:   2    -0.109940400542E+03   -0.47491E-01   -0.73706E-01  1218   0.235E+00    0.970E-01
DAV:   3    -0.109933736815E+03    0.66637E-02   -0.19855E-02  1386   0.436E-01    0.649E-01
DAV:   4    -0.109929398162E+03    0.43387E-02   -0.71497E-03  1260   0.238E-01    0.373E-01
DAV:   5    -0.109928645937E+03    0.75223E-03   -0.27132E-03  1302   0.137E-01    0.144E-01
DAV:   6    -0.109928577639E+03    0.68298E-04   -0.32265E-04   966   0.503E-02
  20 F= -.10992858E+03 E0= -.10992858E+03  d E =-.865254E-01
 trial-energy change:   -0.086525  1 .order   -0.085621   -0.113000   -0.058242
 step:  11.3563(harm= 12.3638)  dis= 0.05046  next Energy=  -109.955304 (dE=-0.113E+00)
 bond charge predicted
       N       E                     dE             d eps       ncg     rms          rms(c)
DAV:   1    -0.109922153156E+03    0.64928E-02   -0.82917E+00  1008   0.717E+00    0.213E+00
DAV:   2    -0.109960831242E+03   -0.38678E-01   -0.59507E-01  1232   0.211E+00    0.854E-01
DAV:   3    -0.109955240920E+03    0.55903E-02   -0.15514E-02  1372   0.389E-01    0.577E-01
DAV:   4    -0.109951731023E+03    0.35099E-02   -0.59730E-03  1260   0.217E-01    0.323E-01
DAV:   5    -0.109951179806E+03    0.55122E-03   -0.20867E-03  1302   0.120E-01    0.124E-01
DAV:   6    -0.109951122876E+03    0.56930E-04   -0.23380E-04   840   0.446E-02
  21 F= -.10995112E+03 E0= -.10995112E+03  d E =-.109071E+00
 curvature: -10.21 expect dE=-0.205E+00 dE for cont linesearch -0.338E-03
 trial: gam= 1.12595 g(F)=  0.683E-02 g(S)=  0.132E-01 ort =-0.103E-02 (trialstep = 0.387E+01)
 search vector abs. value=  0.582E-01
 bond charge predicted
       N       E                     dE             d eps       ncg     rms          rms(c)
DAV:   1    -0.109985853199E+03   -0.34673E-01   -0.62346E+00  1008   0.619E+00    0.164E+00
DAV:   2    -0.110016522768E+03   -0.30670E-01   -0.46356E-01  1246   0.183E+00    0.917E-01
DAV:   3    -0.110013461876E+03    0.30609E-02   -0.10135E-02  1344   0.320E-01    0.605E-01
DAV:   4    -0.110011148805E+03    0.23131E-02   -0.51189E-03  1246   0.196E-01    0.300E-01
DAV:   5    -0.110010972900E+03    0.17590E-03   -0.14586E-03  1260   0.998E-02    0.142E-01
DAV:   6    -0.110010941861E+03    0.31039E-04   -0.21116E-04   784   0.406E-02
  22 F= -.11001094E+03 E0= -.11001094E+03  d E =-.598190E-01
 trial-energy change:   -0.059819  1 .order   -0.063385   -0.073249   -0.053520
 step:  14.3839(harm= 14.3839)  dis= 0.09156  next Energy=  -110.087099 (dE=-0.136E+00)
 bond charge predicted
       N       E                     dE             d eps       ncg     rms          rms(c)
DAV:   1    -0.109888190550E+03    0.12278E+00   -0.45535E+01  1008   0.168E+01    0.520E+00
DAV:   2    -0.110121224522E+03   -0.23303E+00   -0.34166E+00  1260   0.497E+00    0.282E+00
DAV:   3    -0.110098971561E+03    0.22253E-01   -0.75617E-02  1330   0.870E-01    0.197E+00
DAV:   4    -0.110081846054E+03    0.17126E-01   -0.35580E-02  1288   0.514E-01    0.959E-01
DAV:   5    -0.110080326443E+03    0.15196E-02   -0.11026E-02  1274   0.270E-01    0.428E-01
DAV:   6    -0.110080189849E+03    0.13659E-03   -0.15608E-03  1302   0.100E-01    0.198E-01
DAV:   7    -0.110080189842E+03    0.72405E-08   -0.33687E-04   980   0.533E-02
  23 F= -.11008019E+03 E0= -.11008019E+03  d E =-.129067E+00
 curvature: -22.16 expect dE=-0.261E+00 dE for cont linesearch -0.809E-03
 trial: gam= 0.31323 g(F)=  0.928E-02 g(S)=  0.250E-02 ort = 0.146E-02 (trialstep = 0.598E+01)
 search vector abs. value=  0.184E-01
 bond charge predicted
       N       E                     dE             d eps       ncg     rms          rms(c)
DAV:   1    -0.110129443951E+03   -0.49254E-01   -0.42415E+00  1008   0.521E+00    0.142E+00
DAV:   2    -0.110140244115E+03   -0.10800E-01   -0.31179E-01  1260   0.157E+00    0.635E-01
DAV:   3    -0.110135821906E+03    0.44222E-02   -0.14366E-02  1358   0.359E-01    0.427E-01
DAV:   4    -0.110133723169E+03    0.20987E-02   -0.35588E-03  1232   0.164E-01    0.233E-01
DAV:   5    -0.110132937434E+03    0.78573E-03   -0.12754E-03  1246   0.104E-01    0.122E-01
DAV:   6    -0.110132857828E+03    0.79606E-04   -0.61338E-04  1218   0.657E-02
  24 F= -.11013286E+03 E0= -.11013286E+03  d E =-.526680E-01
 trial-energy change:   -0.052668  1 .order   -0.053001   -0.073139   -0.032862
 step:  10.8521(harm= 10.8521)  dis= 0.03337  next Energy=  -110.146597 (dE=-0.664E-01)
 bond charge predicted
       N       E                     dE             d eps       ncg     rms          rms(c)
DAV:   1    -0.110142524084E+03   -0.95866E-02   -0.28355E+00  1008   0.427E+00    0.118E+00
DAV:   2    -0.110149358885E+03   -0.68348E-02   -0.20844E-01  1260   0.129E+00    0.523E-01
DAV:   3    -0.110146338262E+03    0.30206E-02   -0.98141E-03  1344   0.297E-01    0.343E-01
DAV:   4    -0.110144941012E+03    0.13972E-02   -0.23858E-03  1232   0.135E-01    0.189E-01
DAV:   5    -0.110144413179E+03    0.52783E-03   -0.87880E-04  1232   0.865E-02    0.996E-02
DAV:   6    -0.110144368763E+03    0.44416E-04   -0.40763E-04  1148   0.543E-02
  25 F= -.11014437E+03 E0= -.11014437E+03  d E =-.641789E-01
 curvature:  -8.16 expect dE=-0.102E+00 dE for cont linesearch -0.629E-04
 trial: gam= 1.08130 g(F)=  0.888E-02 g(S)=  0.360E-02 ort =-0.377E-03 (trialstep = 0.386E+01)
 search vector abs. value=  0.332E-01
 bond charge predicted
       N       E                     dE             d eps       ncg     rms          rms(c)
DAV:   1    -0.110171295543E+03   -0.26882E-01   -0.33095E+00  1008   0.447E+00    0.124E+00
DAV:   2    -0.110186247172E+03   -0.14952E-01   -0.23376E-01  1232   0.134E+00    0.622E-01
DAV:   3    -0.110184559800E+03    0.16874E-02   -0.65713E-03  1372   0.254E-01    0.437E-01
DAV:   4    -0.110183394295E+03    0.11655E-02   -0.29296E-03  1232   0.151E-01    0.192E-01
DAV:   5    -0.110183306183E+03    0.88112E-04   -0.65591E-04  1176   0.710E-02
  26 F= -.11018331E+03 E0= -.11018331E+03  d E =-.389374E-01
 trial-energy change:   -0.038937  1 .order   -0.039056   -0.046557   -0.031556
 step:  11.9662(harm= 11.9662)  dis= 0.05824  next Energy=  -110.216618 (dE=-0.722E-01)
 bond charge predicted
       N       E                     dE             d eps       ncg     rms          rms(c)
DAV:   1    -0.110157846963E+03    0.25547E-01   -0.14509E+01  1008   0.937E+00    0.277E+00
DAV:   2    -0.110223918193E+03   -0.66071E-01   -0.10301E+00  1246   0.280E+00    0.136E+00
DAV:   3    -0.110216509176E+03    0.74090E-02   -0.28707E-02  1358   0.531E-01    0.984E-01
DAV:   4    -0.110211567486E+03    0.49417E-02   -0.12247E-02  1260   0.305E-01    0.428E-01
DAV:   5    -0.110211116673E+03    0.45081E-03   -0.28004E-03  1246   0.145E-01    0.208E-01
DAV:   6    -0.110211029509E+03    0.87163E-04   -0.71101E-04  1232   0.701E-02
  27 F= -.11021103E+03 E0= -.11021103E+03  d E =-.666607E-01
 curvature: -16.45 expect dE=-0.239E+00 dE for cont linesearch -0.802E-03
 trial: gam= 1.28058 g(F)=  0.714E-02 g(S)=  0.740E-02 ort =-0.127E-02 (trialstep = 0.277E+01)
 search vector abs. value=  0.657E-01
 bond charge predicted
       N       E                     dE             d eps       ncg     rms          rms(c)
DAV:   1    -0.110237073440E+03   -0.25957E-01   -0.33343E+00  1008   0.446E+00    0.121E+00
DAV:   2    -0.110248029205E+03   -0.10956E-01   -0.23051E-01  1190   0.132E+00    0.521E-01
DAV:   3    -0.110245569205E+03    0.24600E-02   -0.71512E-03  1386   0.254E-01    0.342E-01
DAV:   4    -0.110244256742E+03    0.13125E-02   -0.28534E-03  1246   0.142E-01    0.182E-01
DAV:   5    -0.110244147796E+03    0.10895E-03   -0.59070E-04  1176   0.637E-02    0.803E-02
DAV:   6    -0.110244110508E+03    0.37288E-04   -0.18375E-04   756   0.383E-02
  28 F= -.11024411E+03 E0= -.11024411E+03  d E =-.330810E-01
 ZBRENT: can't locate minimum, use default step
 trial-energy change:   -0.033081  1 .order   -0.032421   -0.035717   -0.029125
 step:  11.0674(harm= 14.9926)  dis= 0.07487  next Energy=  -110.307798 (dE=-0.968E-01)
 bond charge predicted
       N       E                     dE             d eps       ncg     rms          rms(c)
DAV:   1    -0.110243121459E+03    0.10263E-02   -0.29986E+01  1008   0.134E+01    0.392E+00
DAV:   2    -0.110338944603E+03   -0.95823E-01   -0.20968E+00  1204   0.396E+00    0.152E+00
DAV:   3    -0.110315790067E+03    0.23155E-01   -0.64633E-02  1330   0.773E-01    0.104E+00
DAV:   4    -0.110304848744E+03    0.10941E-01   -0.23723E-02  1260   0.410E-01    0.605E-01
DAV:   5    -0.110303611102E+03    0.12376E-02   -0.45976E-03  1302   0.176E-01    0.273E-01
DAV:   6    -0.110303142643E+03    0.46846E-03   -0.18069E-03  1288   0.114E-01    0.124E-01
DAV:   7    -0.110303219123E+03   -0.76481E-04   -0.41880E-04  1148   0.561E-02
  29 F= -.11030322E+03 E0= -.11030322E+03  d E =-.921896E-01
 curvature: -34.23 expect dE=-0.451E+00 dE for cont linesearch -0.935E-02
 ZBRENT: increasing intervall
 opt :  27.6685  next Energy=  -110.269123 (dE=-0.581E-01)
 bond charge predicted
       N       E                     dE             d eps       ncg     rms          rms(c)
DAV:   1    -0.109996882983E+03    0.30626E+00   -0.12129E+02  1008   0.271E+01    0.104E+01
DAV:   2    -0.110379091761E+03   -0.38221E+00   -0.88454E+00  1190   0.806E+00    0.342E+00
DAV:   3    -0.110283560630E+03    0.95531E-01   -0.28065E-01  1372   0.162E+00    0.261E+00
DAV:   4    -0.110242227311E+03    0.41333E-01   -0.91652E-02  1204   0.802E-01    0.160E+00
DAV:   5    -0.110235225334E+03    0.70020E-02   -0.19509E-02  1302   0.361E-01    0.715E-01
DAV:   6    -0.110233331574E+03    0.18938E-02   -0.63091E-03  1386   0.225E-01    0.268E-01
DAV:   7    -0.110233550589E+03   -0.21901E-03   -0.19553E-03  1274   0.113E-01    0.106E-01
DAV:   8    -0.110233588527E+03   -0.37938E-04   -0.11804E-04   756   0.337E-02
  30 F= -.11023359E+03 E0= -.11023359E+03  d E =-.225590E-01
 curvature: 124.85 expect dE= 0.984E+01 dE for cont linesearch  0.324E+00
 ZBRENT: bracketing found
 ZBRENT: interpolating
 opt :  15.1335  next Energy=  -110.311832 (dE=-0.101E+00)
 bond charge predicted
       N       E                     dE             d eps       ncg     rms          rms(c)
DAV:   1    -0.110170396728E+03    0.63154E-01   -0.67832E+01  1008   0.202E+01    0.739E+00
DAV:   2    -0.110405520109E+03   -0.23512E+00   -0.46870E+00  1190   0.603E+00    0.344E+00
DAV:   3    -0.110353115741E+03    0.52404E-01   -0.15616E-01  1358   0.119E+00    0.255E+00
DAV:   4    -0.110318487184E+03    0.34629E-01   -0.61500E-02  1246   0.652E-01    0.122E+00
DAV:   5    -0.110312812890E+03    0.56743E-02   -0.18665E-02  1302   0.347E-01    0.426E-01
DAV:   6    -0.110312074857E+03    0.73803E-03   -0.48346E-03  1400   0.172E-01    0.190E-01
DAV:   7    -0.110312150919E+03   -0.76062E-04   -0.77584E-04  1218   0.765E-02
  31 F= -.11031215E+03 E0= -.11031215E+03  d E =-.101121E+00
 curvature:  -3.32 expect dE=-0.692E-01 dE for cont linesearch -0.788E-05
 trial: gam= 1.23678 g(F)=  0.127E-01 g(S)=  0.810E-02 ort = 0.395E-03 (trialstep = 0.281E+01)
 search vector abs. value=  0.122E+00
 bond charge predicted
       N       E                     dE             d eps       ncg     rms          rms(c)
DAV:   1    -0.110355548097E+03   -0.43473E-01   -0.62436E+00  1008   0.616E+00    0.148E+00
DAV:   2    -0.110376753474E+03   -0.21205E-01   -0.41150E-01  1232   0.178E+00    0.703E-01
DAV:   3    -0.110371894525E+03    0.48589E-02   -0.12826E-02  1358   0.356E-01    0.491E-01
DAV:   4    -0.110368950388E+03    0.29441E-02   -0.49453E-03  1260   0.195E-01    0.260E-01
DAV:   5    -0.110368300578E+03    0.64981E-03   -0.16093E-03  1288   0.116E-01    0.130E-01
DAV:   6    -0.110368282049E+03    0.18529E-04   -0.41247E-04  1162   0.572E-02
  32 F= -.11036828E+03 E0= -.11036828E+03  d E =-.561311E-01
 trial-energy change:   -0.056131  1 .order   -0.055537   -0.060057   -0.051016
 step:   9.5901(harm= 18.6976)  dis= 0.09191  next Energy=  -110.437979 (dE=-0.126E+00)
 bond charge predicted
       N       E                     dE             d eps       ncg     rms          rms(c)
DAV:   1    -0.110385577583E+03   -0.17277E-01   -0.36190E+01  1008   0.148E+01    0.419E+00
DAV:   2    -0.110510217833E+03   -0.12464E+00   -0.24127E+00  1232   0.431E+00    0.189E+00
DAV:   3    -0.110481983649E+03    0.28234E-01   -0.73082E-02  1358   0.852E-01    0.140E+00
DAV:   4    -0.110464660998E+03    0.17323E-01   -0.28563E-02  1260   0.468E-01    0.763E-01
DAV:   5    -0.110460582093E+03    0.40789E-02   -0.10698E-02  1260   0.297E-01    0.338E-01
DAV:   6    -0.110460574292E+03    0.78010E-05   -0.23695E-03  1344   0.137E-01    0.148E-01
DAV:   7    -0.110460589236E+03   -0.14945E-04   -0.42248E-04  1162   0.570E-02
  33 F= -.11046059E+03 E0= -.11046059E+03  d E =-.148438E+00
 curvature: -35.98 expect dE=-0.690E+00 dE for cont linesearch -0.295E-01
 ZBRENT: increasing intervall
 opt :  23.1412  next Energy=  -110.486591 (dE=-0.174E+00)
 bond charge predicted
       N       E                     dE             d eps       ncg     rms          rms(c)
DAV:   1    -0.110149363848E+03    0.31121E+00   -0.14433E+02  1008   0.296E+01    0.125E+01
DAV:   2    -0.110663157407E+03   -0.51379E+00   -0.99965E+00  1218   0.871E+00    0.510E+00
DAV:   3    -0.110549361582E+03    0.11380E+00   -0.30896E-01  1344   0.175E+00    0.402E+00
DAV:   4    -0.110481503618E+03    0.67858E-01   -0.10894E-01  1246   0.910E-01    0.226E+00
DAV:   5    -0.110461887240E+03    0.19616E-01   -0.46902E-02  1246   0.621E-01    0.814E-01
DAV:   6    -0.110461776023E+03    0.11122E-03   -0.10792E-02  1302   0.295E-01    0.322E-01
DAV:   7    -0.110461823848E+03   -0.47825E-04   -0.16458E-03  1204   0.112E-01    0.223E-01
DAV:   8    -0.110461906086E+03   -0.82238E-04   -0.80188E-04  1246   0.751E-02
  34 F= -.11046191E+03 E0= -.11046191E+03  d E =-.149755E+00
 curvature: -31.67 expect dE=-0.284E+01 dE for cont linesearch -0.260E-01
 ZBRENT: bracketing found
 ZBRENT: interpolating
 opt :  16.3629  next Energy=  -110.494528 (dE=-0.182E+00)
 bond charge predicted
       N       E                     dE             d eps       ncg     rms          rms(c)
DAV:   1    -0.110423024369E+03    0.38799E-01   -0.36829E+01  1022   0.150E+01    0.399E+00
DAV:   2    -0.110546108362E+03   -0.12308E+00   -0.24522E+00  1176   0.434E+00    0.165E+00
DAV:   3    -0.110516895725E+03    0.29213E-01   -0.87258E-02  1372   0.919E-01    0.119E+00
DAV:   4    -0.110499656252E+03    0.17239E-01   -0.26728E-02  1246   0.455E-01    0.673E-01
DAV:   5    -0.110494533073E+03    0.51232E-02   -0.10962E-02  1274   0.300E-01    0.272E-01
DAV:   6    -0.110494347772E+03    0.18530E-03   -0.30875E-03  1316   0.153E-01    0.121E-01
DAV:   7    -0.110494343176E+03    0.45965E-05   -0.44951E-04  1134   0.602E-02
  35 F= -.11049434E+03 E0= -.11049434E+03  d E =-.182192E+00
 curvature: -41.27 expect dE=-0.176E+01 dE for cont linesearch -0.311E-03
 trial: gam= 1.91087 g(F)=  0.327E-01 g(S)=  0.994E-02 ort = 0.960E-03 (trialstep = 0.137E+01)
 search vector abs. value=  0.493E+00
 bond charge predicted
       N       E                     dE             d eps       ncg     rms          rms(c)
DAV:   1    -0.110525598113E+03   -0.31250E-01   -0.64764E+00  1008   0.615E+00    0.157E+00
DAV:   2    -0.110557131975E+03   -0.31534E-01   -0.41618E-01  1176   0.178E+00    0.674E-01
DAV:   3    -0.110554687157E+03    0.24448E-02   -0.11505E-02  1344   0.336E-01    0.467E-01
DAV:   4    -0.110552996911E+03    0.16902E-02   -0.33082E-03  1232   0.164E-01    0.298E-01
DAV:   5    -0.110552635148E+03    0.36176E-03   -0.10584E-03  1288   0.938E-02    0.125E-01
DAV:   6    -0.110552595973E+03    0.39175E-04   -0.47673E-04  1176   0.636E-02
  36 F= -.11055260E+03 E0= -.11055260E+03  d E =-.582528E-01
 ZBRENT: can't locate minimum, use default step
 trial-energy change:   -0.058253  1 .order   -0.058147   -0.060965   -0.055330
 step:   5.4832(harm= 14.8301)  dis= 0.10279  next Energy=  -110.824118 (dE=-0.330E+00)
 bond charge predicted
       N       E                     dE             d eps       ncg     rms          rms(c)
DAV:   1    -0.110443421791E+03    0.10921E+00   -0.58592E+01  1008   0.185E+01    0.618E+00
DAV:   2    -0.110738647730E+03   -0.29523E+00   -0.38992E+00  1176   0.540E+00    0.249E+00
DAV:   3    -0.110715713376E+03    0.22934E-01   -0.10580E-01  1330   0.103E+00    0.186E+00
DAV:   4    -0.110701292626E+03    0.14421E-01   -0.28894E-02  1246   0.478E-01    0.122E+00
DAV:   5    -0.110697281494E+03    0.40111E-02   -0.93598E-03  1302   0.284E-01    0.500E-01
DAV:   6    -0.110696873932E+03    0.40756E-03   -0.51331E-03  1302   0.209E-01    0.145E-01
DAV:   7    -0.110696892703E+03   -0.18771E-04   -0.11750E-03  1204   0.961E-02    0.131E-01
DAV:   8    -0.110696862679E+03    0.30024E-04   -0.21211E-04   854   0.417E-02
  37 F= -.11069686E+03 E0= -.11069686E+03  d E =-.202520E+00
 curvature: -42.56 expect dE=-0.126E+01 dE for cont linesearch -0.645E-01
 ZBRENT: increasing intervall
 opt :  13.7081  next Energy=  -110.814500 (dE=-0.320E+00)
 bond charge predicted
       N       E                     dE             d eps       ncg     rms          rms(c)
DAV:   1    -0.109657259242E+03    0.10396E+01   -0.23378E+02  1008   0.374E+01    0.203E+01
DAV:   2    -0.110939152550E+03   -0.12819E+01   -0.16917E+01  1190   0.111E+01    0.749E+00
DAV:   3    -0.110837771976E+03    0.10138E+00   -0.45510E-01  1330   0.219E+00    0.603E+00
DAV:   4    -0.110784102557E+03    0.53669E-01   -0.12002E-01  1246   0.951E-01    0.395E+00
DAV:   5    -0.110766272595E+03    0.17830E-01   -0.33268E-02  1274   0.546E-01    0.169E+00
DAV:   6    -0.110763356427E+03    0.29162E-02   -0.23090E-02  1302   0.442E-01    0.359E-01
DAV:   7    -0.110763691511E+03   -0.33508E-03   -0.54089E-03  1218   0.203E-01    0.285E-01
DAV:   8    -0.110763628998E+03    0.62513E-04   -0.70718E-04  1232   0.733E-02
  38 F= -.11076363E+03 E0= -.11076363E+03  d E =-.269286E+00
 curvature: -77.63 expect dE=-0.222E+01 dE for cont linesearch -0.217E-01
 ZBRENT: bracketing found
 ZBRENT: interpolating
 opt :  11.2350  next Energy=  -110.778161 (dE=-0.284E+00)
 bond charge predicted
       N       E                     dE             d eps       ncg     rms          rms(c)
DAV:   1    -0.110694533862E+03    0.69158E-01   -0.21404E+01  1008   0.112E+01    0.280E+00
DAV:   2    -0.110795274561E+03   -0.10074E+00   -0.13331E+00  1148   0.321E+00    0.125E+00
DAV:   3    -0.110786702421E+03    0.85721E-02   -0.36750E-02  1302   0.609E-01    0.891E-01
DAV:   4    -0.110781185324E+03    0.55171E-02   -0.94378E-03  1246   0.278E-01    0.571E-01
DAV:   5    -0.110779328735E+03    0.18566E-02   -0.44416E-03  1260   0.186E-01    0.253E-01
DAV:   6    -0.110779154678E+03    0.17406E-03   -0.16298E-03  1330   0.111E-01    0.961E-02
DAV:   7    -0.110779143713E+03    0.10966E-04   -0.28120E-04   952   0.477E-02
  39 F= -.11077914E+03 E0= -.11077914E+03  d E =-.284801E+00
 curvature: -51.88 expect dE=-0.133E+01 dE for cont linesearch -0.639E-04
 trial: gam= 0.02961 g(F)=  0.229E-01 g(S)=  0.283E-02 ort = 0.780E-03 (trialstep = 0.334E+01)
 search vector abs. value=  0.262E-01
 bond charge predicted
       N       E                     dE             d eps       ncg     rms          rms(c)
DAV:   1    -0.110843600493E+03   -0.64446E-01   -0.19261E+00  1008   0.352E+00    0.999E-01
DAV:   2    -0.110853302284E+03   -0.97018E-02   -0.15347E-01  1246   0.108E+00    0.460E-01
DAV:   3    -0.110852201833E+03    0.11005E-02   -0.66354E-03  1288   0.242E-01    0.271E-01
DAV:   4    -0.110851481935E+03    0.71990E-03   -0.11958E-03  1302   0.939E-02    0.154E-01
DAV:   5    -0.110851169508E+03    0.31243E-03   -0.64697E-04  1204   0.757E-02    0.966E-02
DAV:   6    -0.110851167861E+03    0.16469E-05   -0.21762E-04   714   0.423E-02
  40 F= -.11085117E+03 E0= -.11085117E+03  d E =-.720241E-01
 trial-energy change:   -0.072024  1 .order   -0.073160   -0.086100   -0.060220
 step:  11.1238(harm= 11.1238)  dis= 0.04419  next Energy=  -110.922366 (dE=-0.143E+00)
 bond charge predicted
       N       E                     dE             d eps       ncg     rms          rms(c)
DAV:   1    -0.110882200095E+03   -0.31031E-01   -0.10461E+01  1008   0.819E+00    0.245E+00
DAV:   2    -0.110935551492E+03   -0.53351E-01   -0.84023E-01  1260   0.253E+00    0.108E+00
DAV:   3    -0.110929509467E+03    0.60420E-02   -0.35657E-02  1316   0.563E-01    0.648E-01
DAV:   4    -0.110925655646E+03    0.38538E-02   -0.64003E-03  1246   0.217E-01    0.368E-01
DAV:   5    -0.110923961588E+03    0.16941E-02   -0.34471E-03  1260   0.174E-01    0.227E-01
DAV:   6    -0.110923961024E+03    0.56393E-06   -0.14218E-03  1288   0.980E-02    0.163E-01
DAV:   7    -0.110923941065E+03    0.19959E-04   -0.15446E-04   756   0.365E-02
  41 F= -.11092394E+03 E0= -.11092394E+03  d E =-.144797E+00
 curvature:  -5.66 expect dE=-0.132E+00 dE for cont linesearch -0.443E-03
 trial: gam= 0.84969 g(F)=  0.138E-01 g(S)=  0.956E-02 ort = 0.143E-02 (trialstep = 0.287E+01)
 search vector abs. value=  0.447E-01
 bond charge predicted
       N       E                     dE             d eps       ncg     rms          rms(c)
DAV:   1    -0.110976230384E+03   -0.52269E-01   -0.28941E+00  1008   0.421E+00    0.118E+00
DAV:   2    -0.110986695296E+03   -0.10465E-01   -0.20354E-01  1232   0.124E+00    0.571E-01
DAV:   3    -0.110984656844E+03    0.20385E-02   -0.61251E-03  1316   0.233E-01    0.391E-01
DAV:   4    -0.110983230643E+03    0.14262E-02   -0.20940E-03  1190   0.124E-01    0.185E-01
DAV:   5    -0.110982949889E+03    0.28075E-03   -0.82180E-04  1232   0.776E-02    0.770E-02
DAV:   6    -0.110982933127E+03    0.16762E-04   -0.10921E-04   742   0.306E-02
  42 F= -.11098293E+03 E0= -.11098293E+03  d E =-.589921E-01
 trial-energy change:   -0.058992  1 .order   -0.059806   -0.070526   -0.049085
 step:   9.4537(harm=  9.4537)  dis= 0.05751  next Energy=  -111.039934 (dE=-0.116E+00)
 bond charge predicted
       N       E                     dE             d eps       ncg     rms          rms(c)
DAV:   1    -0.111006171080E+03   -0.23221E-01   -0.15053E+01  1008   0.959E+00    0.288E+00
DAV:   2    -0.111061258389E+03   -0.55087E-01   -0.10543E+00  1218   0.281E+00    0.141E+00
DAV:   3    -0.111050894316E+03    0.10364E-01   -0.32052E-02  1330   0.531E-01    0.100E+00
DAV:   4    -0.111043249734E+03    0.76446E-02   -0.11032E-02  1218   0.286E-01    0.481E-01
DAV:   5    -0.111041732319E+03    0.15174E-02   -0.47755E-03  1232   0.186E-01    0.183E-01
DAV:   6    -0.111041685548E+03    0.46772E-04   -0.77562E-04  1302   0.724E-02
  43 F= -.11104169E+03 E0= -.11104169E+03  d E =-.117744E+00
 curvature:  -8.61 expect dE=-0.117E+00 dE for cont linesearch -0.886E-03
 trial: gam= 0.57731 g(F)=  0.756E-02 g(S)=  0.602E-02 ort = 0.214E-02 (trialstep = 0.419E+01)
 search vector abs. value=  0.309E-01
 bond charge predicted
       N       E                     dE             d eps       ncg     rms          rms(c)
DAV:   1    -0.111092176019E+03   -0.50444E-01   -0.39563E+00  1008   0.489E+00    0.148E+00
DAV:   2    -0.111096426683E+03   -0.42507E-02   -0.28643E-01  1246   0.144E+00    0.729E-01
DAV:   3    -0.111093491308E+03    0.29354E-02   -0.10956E-02  1288   0.299E-01    0.446E-01
DAV:   4    -0.111091851833E+03    0.16395E-02   -0.32059E-03  1288   0.154E-01    0.234E-01
DAV:   5    -0.111091593281E+03    0.25855E-03   -0.85245E-04  1148   0.739E-02    0.102E-01
DAV:   6    -0.111091532176E+03    0.61106E-04   -0.27577E-04   826   0.423E-02
  44 F= -.11109153E+03 E0= -.11109153E+03  d E =-.498466E-01
 trial-energy change:   -0.049847  1 .order   -0.051988   -0.062093   -0.041883
 step:  12.8735(harm= 12.8735)  dis= 0.06435  next Energy=  -111.137074 (dE=-0.954E-01)
 bond charge predicted
       N       E                     dE             d eps       ncg     rms          rms(c)
DAV:   1    -0.111129672351E+03   -0.38079E-01   -0.16941E+01  1008   0.101E+01    0.318E+00
DAV:   2    -0.111146703237E+03   -0.17031E-01   -0.12229E+00  1232   0.298E+00    0.145E+00
DAV:   3    -0.111133823649E+03    0.12880E-01   -0.47855E-02  1288   0.627E-01    0.894E-01
DAV:   4    -0.111127392465E+03    0.64312E-02   -0.12678E-02  1260   0.307E-01    0.512E-01
DAV:   5    -0.111126166757E+03    0.12257E-02   -0.31699E-03  1232   0.143E-01    0.223E-01
DAV:   6    -0.111125794894E+03    0.37186E-03   -0.16129E-03  1246   0.975E-02    0.118E-01
DAV:   7    -0.111125838379E+03   -0.43485E-04   -0.27632E-04   896   0.446E-02
  45 F= -.11112584E+03 E0= -.11112584E+03  d E =-.841528E-01
 curvature: -13.44 expect dE=-0.265E+00 dE for cont linesearch -0.193E-02
 trial: gam= 1.66067 g(F)=  0.743E-02 g(S)=  0.123E-01 ort =-0.211E-02 (trialstep = 0.187E+01)
 search vector abs. value=  0.980E-01
 bond charge predicted
       N       E                     dE             d eps       ncg     rms          rms(c)
DAV:   1    -0.111138708796E+03   -0.12914E-01   -0.23057E+00  1008   0.373E+00    0.870E-01
DAV:   2    -0.111151803171E+03   -0.13094E-01   -0.15529E-01  1232   0.107E+00    0.415E-01
DAV:   3    -0.111151343767E+03    0.45940E-03   -0.36983E-03  1372   0.191E-01    0.312E-01
DAV:   4    -0.111151014528E+03    0.32924E-03   -0.60272E-04  1190   0.687E-02    0.205E-01
DAV:   5    -0.111150866603E+03    0.14792E-03   -0.38480E-04  1050   0.560E-02    0.860E-02
DAV:   6    -0.111150866667E+03   -0.63709E-07   -0.16980E-04   714   0.361E-02
  46 F= -.11115087E+03 E0= -.11115087E+03  d E =-.250283E-01
 trial-energy change:   -0.025028  1 .order   -0.025813   -0.030280   -0.021346
 step:   6.3411(harm=  6.3411)  dis= 0.06025  next Energy=  -111.177152 (dE=-0.513E-01)
 bond charge predicted
       N       E                     dE             d eps       ncg     rms          rms(c)
DAV:   1    -0.111106362642E+03    0.44504E-01   -0.13106E+01  1008   0.891E+00    0.230E+00
DAV:   2    -0.111181921351E+03   -0.75559E-01   -0.89866E-01  1246   0.257E+00    0.101E+00
DAV:   3    -0.111179282205E+03    0.26391E-02   -0.21162E-02  1372   0.461E-01    0.793E-01
DAV:   4    -0.111177624413E+03    0.16578E-02   -0.32228E-03  1274   0.158E-01    0.527E-01
DAV:   5    -0.111176792264E+03    0.83215E-03   -0.19202E-03  1260   0.124E-01    0.233E-01
DAV:   6    -0.111176775241E+03    0.17023E-04   -0.11201E-03  1344   0.846E-02    0.107E-01
DAV:   7    -0.111176763629E+03    0.11612E-04   -0.14558E-04   700   0.349E-02
  47 F= -.11117676E+03 E0= -.11117676E+03  d E =-.509252E-01
 curvature: -19.21 expect dE=-0.204E+00 dE for cont linesearch -0.138E-04
 trial: gam= 0.04677 g(F)=  0.838E-02 g(S)=  0.225E-02 ort = 0.266E-03 (trialstep = 0.276E+01)
 search vector abs. value=  0.109E-01
 bond charge predicted
       N       E                     dE             d eps       ncg     rms          rms(c)
DAV:   1    -0.111205674260E+03   -0.28899E-01   -0.61097E-01  1022   0.195E+00    0.731E-01
DAV:   2    -0.111202690358E+03    0.29839E-02   -0.47027E-02  1260   0.590E-01    0.340E-01
DAV:   3    -0.111201735488E+03    0.95487E-03   -0.31037E-03  1316   0.149E-01    0.198E-01
DAV:   4    -0.111201269957E+03    0.46553E-03   -0.66380E-04  1232   0.673E-02    0.835E-02
DAV:   5    -0.111201159720E+03    0.11024E-03   -0.22445E-04   826   0.363E-02    0.309E-02
DAV:   6    -0.111201153319E+03    0.64003E-05   -0.64597E-05   714   0.212E-02
  48 F= -.11120115E+03 E0= -.11120115E+03  d E =-.243897E-01
 trial-energy change:   -0.024390  1 .order   -0.024430   -0.029439   -0.019422
 step:   8.1256(harm=  8.1256)  dis= 0.02613  next Energy=  -111.220021 (dE=-0.433E-01)
 bond charge predicted
       N       E                     dE             d eps       ncg     rms          rms(c)
DAV:   1    -0.111237113691E+03   -0.35954E-01   -0.22918E+00  1008   0.378E+00    0.143E+00
DAV:   2    -0.111225945857E+03    0.11168E-01   -0.17682E-01  1260   0.114E+00    0.668E-01
DAV:   3    -0.111222420849E+03    0.35250E-02   -0.11442E-02  1330   0.286E-01    0.397E-01
DAV:   4    -0.111220646703E+03    0.17741E-02   -0.25877E-03  1232   0.133E-01    0.164E-01
DAV:   5    -0.111220283179E+03    0.36352E-03   -0.98446E-04  1288   0.717E-02    0.783E-02
DAV:   6    -0.111220268296E+03    0.14882E-04   -0.10033E-04   714   0.284E-02
  49 F= -.11122027E+03 E0= -.11122027E+03  d E =-.435047E-01
 curvature:  -4.15 expect dE=-0.297E-01 dE for cont linesearch -0.929E-04
 trial: gam= 0.62941 g(F)=  0.325E-02 g(S)=  0.390E-02 ort = 0.493E-03 (trialstep = 0.346E+01)
 search vector abs. value=  0.121E-01
 bond charge predicted
       N       E                     dE             d eps       ncg     rms          rms(c)
DAV:   1    -0.111240636076E+03   -0.20353E-01   -0.10764E+00  1008   0.253E+00    0.751E-01
DAV:   2    -0.111241499788E+03   -0.86371E-03   -0.73656E-02  1232   0.750E-01    0.365E-01
DAV:   3    -0.111240826454E+03    0.67333E-03   -0.38058E-03  1316   0.164E-01    0.217E-01
DAV:   4    -0.111240429568E+03    0.39689E-03   -0.72544E-04  1218   0.727E-02    0.100E-01
DAV:   5    -0.111240362297E+03    0.67271E-04   -0.25014E-04   952   0.416E-02
  50 F= -.11124036E+03 E0= -.11124036E+03  d E =-.200940E-01
 trial-energy change:   -0.020094  1 .order   -0.020556   -0.025766   -0.015346
 step:   8.5449(harm=  8.5449)  dis= 0.03926  next Energy=  -111.252125 (dE=-0.319E-01)
 bond charge predicted
       N       E                     dE             d eps       ncg     rms          rms(c)
DAV:   1    -0.111250734892E+03   -0.10305E-01   -0.23202E+00  1008   0.372E+00    0.111E+00
DAV:   2    -0.111252488979E+03   -0.17541E-02   -0.15846E-01  1218   0.110E+00    0.520E-01
DAV:   3    -0.111250988984E+03    0.15000E-02   -0.82346E-03  1302   0.243E-01    0.304E-01
DAV:   4    -0.111250131423E+03    0.85756E-03   -0.15405E-03  1246   0.106E-01    0.147E-01
DAV:   5    -0.111249986757E+03    0.14467E-03   -0.54494E-04  1190   0.592E-02    0.821E-02
DAV:   6    -0.111249979024E+03    0.77327E-05   -0.82567E-05   714   0.243E-02
  51 F= -.11124998E+03 E0= -.11124998E+03  d E =-.297107E-01
 curvature:  -6.92 expect dE=-0.285E-01 dE for cont linesearch -0.166E-04
 trial: gam= 0.62253 g(F)=  0.338E-02 g(S)=  0.735E-03 ort =-0.170E-03 (trialstep = 0.447E+01)
 search vector abs. value=  0.858E-02
 bond charge predicted
       N       E                     dE             d eps       ncg     rms          rms(c)
DAV:   1    -0.111260571013E+03   -0.10584E-01   -0.96235E-01  1008   0.244E+00    0.588E-01
DAV:   2    -0.111265521147E+03   -0.49501E-02   -0.70174E-02  1232   0.728E-01    0.300E-01
DAV:   3    -0.111265125590E+03    0.39556E-03   -0.22188E-03  1288   0.146E-01    0.189E-01
DAV:   4    -0.111264846809E+03    0.27878E-03   -0.48091E-04  1134   0.594E-02    0.120E-01
DAV:   5    -0.111264732300E+03    0.11451E-03   -0.25427E-04   882   0.462E-02    0.642E-02
DAV:   6    -0.111264731333E+03    0.96662E-06   -0.13379E-04   686   0.320E-02
  52 F= -.11126473E+03 E0= -.11126473E+03  d E =-.147523E-01
 trial-energy change:   -0.014752  1 .order   -0.015192   -0.017938   -0.012445
 step:  14.6096(harm= 14.6096)  dis= 0.04060  next Energy=  -111.279270 (dE=-0.293E-01)
 bond charge predicted
       N       E                     dE             d eps       ncg     rms          rms(c)
DAV:   1    -0.111256640131E+03    0.80922E-02   -0.49405E+00  1008   0.552E+00    0.138E+00
DAV:   2    -0.111281934082E+03   -0.25294E-01   -0.36015E-01  1232   0.165E+00    0.690E-01
DAV:   3    -0.111279932936E+03    0.20011E-02   -0.11388E-02  1288   0.332E-01    0.429E-01
DAV:   4    -0.111278519329E+03    0.14136E-02   -0.24933E-03  1274   0.135E-01    0.268E-01
DAV:   5    -0.111277966504E+03    0.55283E-03   -0.12955E-03  1246   0.100E-01    0.160E-01
DAV:   6    -0.111277953543E+03    0.12961E-04   -0.53327E-04  1162   0.586E-02
  53 F= -.11127795E+03 E0= -.11127795E+03  d E =-.279745E-01
 curvature: -15.64 expect dE=-0.667E-01 dE for cont linesearch -0.156E-03
 trial: gam= 0.90414 g(F)=  0.275E-02 g(S)=  0.152E-02 ort =-0.292E-03 (trialstep = 0.519E+01)
 search vector abs. value=  0.108E-01
 bond charge predicted
       N       E                     dE             d eps       ncg     rms          rms(c)
DAV:   1    -0.111290538568E+03   -0.12572E-01   -0.16045E+00  1008   0.315E+00    0.949E-01
DAV:   2    -0.111293925878E+03   -0.33873E-02   -0.12204E-01  1246   0.945E-01    0.531E-01
DAV:   3    -0.111292901440E+03    0.10244E-02   -0.53521E-03  1246   0.211E-01    0.310E-01
DAV:   4    -0.111292101012E+03    0.80043E-03   -0.11980E-03  1260   0.960E-02    0.180E-01
DAV:   5    -0.111291829068E+03    0.27194E-03   -0.61075E-04  1162   0.673E-02    0.894E-02
DAV:   6    -0.111291811200E+03    0.17868E-04   -0.10988E-04   714   0.291E-02
  54 F= -.11129181E+03 E0= -.11129181E+03  d E =-.138577E-01
 trial-energy change:   -0.013858  1 .order   -0.014506   -0.020757   -0.008255
 step:   8.6161(harm=  8.6161)  dis= 0.02694  next Energy=  -111.295185 (dE=-0.172E-01)
 bond charge predicted
       N       E                     dE             d eps       ncg     rms          rms(c)
DAV:   1    -0.111294110646E+03   -0.22816E-02   -0.69564E-01  1008   0.208E+00    0.616E-01
DAV:   2    -0.111295520238E+03   -0.14096E-02   -0.52610E-02  1246   0.620E-01    0.335E-01
DAV:   3    -0.111295057301E+03    0.46294E-03   -0.22916E-03  1260   0.138E-01    0.197E-01
DAV:   4    -0.111294710338E+03    0.34696E-03   -0.50932E-04  1204   0.624E-02    0.116E-01
DAV:   5    -0.111294583040E+03    0.12730E-03   -0.22961E-04   770   0.442E-02    0.537E-02
DAV:   6    -0.111294575778E+03    0.72621E-05   -0.10636E-04   672   0.270E-02
  55 F= -.11129458E+03 E0= -.11129458E+03  d E =-.166222E-01
 curvature: -11.58 expect dE=-0.372E-01 dE for cont linesearch -0.636E-05
 trial: gam= 0.54141 g(F)=  0.265E-02 g(S)=  0.563E-03 ort = 0.769E-04 (trialstep = 0.587E+01)
 search vector abs. value=  0.644E-02
 bond charge predicted
       N       E                     dE             d eps       ncg     rms          rms(c)
DAV:   1    -0.111300556576E+03   -0.59735E-02   -0.15598E+00  1008   0.303E+00    0.779E-01
DAV:   2    -0.111309076714E+03   -0.85201E-02   -0.10736E-01  1204   0.890E-01    0.350E-01
DAV:   3    -0.111308810272E+03    0.26644E-03   -0.28096E-03  1302   0.158E-01    0.240E-01
DAV:   4    -0.111308562111E+03    0.24816E-03   -0.55790E-04  1134   0.650E-02    0.136E-01
DAV:   5    -0.111308524849E+03    0.37262E-04   -0.18377E-04   728   0.406E-02
  56 F= -.11130852E+03 E0= -.11130852E+03  d E =-.139491E-01
 trial-energy change:   -0.013949  1 .order   -0.014845   -0.019092   -0.010599
 step:  13.2061(harm= 13.2061)  dis= 0.02825  next Energy=  -111.316034 (dE=-0.215E-01)
 bond charge predicted
       N       E                     dE             d eps       ncg     rms          rms(c)
DAV:   1    -0.111303008652E+03    0.55535E-02   -0.24108E+00  1008   0.377E+00    0.988E-01
DAV:   2    -0.111315966195E+03   -0.12958E-01   -0.16595E-01  1204   0.111E+00    0.430E-01
DAV:   3    -0.111315578759E+03    0.38744E-03   -0.44952E-03  1302   0.200E-01    0.286E-01
DAV:   4    -0.111315211624E+03    0.36714E-03   -0.84946E-04  1204   0.805E-02    0.162E-01
DAV:   5    -0.111315159471E+03    0.52153E-04   -0.26543E-04   966   0.474E-02
  57 F= -.11131516E+03 E0= -.11131516E+03  d E =-.205837E-01
 curvature: -13.09 expect dE=-0.728E-01 dE for cont linesearch -0.547E-04
 trial: gam= 1.82261 g(F)=  0.323E-02 g(S)=  0.233E-02 ort = 0.164E-03 (trialstep = 0.172E+01)
 search vector abs. value=  0.276E-01
 bond charge predicted
       N       E                     dE             d eps       ncg     rms          rms(c)
DAV:   1    -0.111322346760E+03   -0.71351E-02   -0.63709E-01  1008   0.193E+00    0.541E-01
DAV:   2    -0.111325051863E+03   -0.27051E-02   -0.42556E-02  1190   0.557E-01    0.256E-01
DAV:   3    -0.111324798321E+03    0.25354E-03   -0.10833E-03  1330   0.100E-01    0.167E-01
DAV:   4    -0.111324576205E+03    0.22212E-03   -0.36718E-04   980   0.529E-02    0.858E-02
DAV:   5    -0.111324550131E+03    0.26074E-04   -0.14412E-04   672   0.326E-02
  58 F= -.11132455E+03 E0= -.11132455E+03  d E =-.939066E-02
 ZBRENT: can't locate minimum, use default step
 trial-energy change:   -0.009391  1 .order   -0.009360   -0.010053   -0.008667
 step:   6.8649(harm= 12.4472)  dis= 0.04004  next Energy=  -111.351614 (dE=-0.365E-01)
 bond charge predicted
       N       E                     dE             d eps       ncg     rms          rms(c)
DAV:   1    -0.111320804827E+03    0.37714E-02   -0.58051E+00  1008   0.582E+00    0.169E+00
DAV:   2    -0.111346330748E+03   -0.25526E-01   -0.38753E-01  1162   0.169E+00    0.830E-01
DAV:   3    -0.111343966000E+03    0.23647E-02   -0.96896E-03  1330   0.299E-01    0.552E-01
DAV:   4    -0.111341830927E+03    0.21351E-02   -0.38921E-03  1148   0.169E-01    0.279E-01
DAV:   5    -0.111341680107E+03    0.15082E-03   -0.13014E-03  1246   0.900E-02    0.888E-02
DAV:   6    -0.111341651924E+03    0.28183E-04   -0.10413E-04   672   0.301E-02
  59 F= -.11134165E+03 E0= -.11134165E+03  d E =-.264925E-01
 curvature: -21.36 expect dE=-0.525E-01 dE for cont linesearch -0.189E-02
 ZBRENT: extrapolating
 opt :   9.1742  next Energy=  -111.343457 (dE=-0.283E-01)
 bond charge predicted
       N       E                     dE             d eps       ncg     rms          rms(c)
DAV:   1    -0.111339377623E+03    0.23025E-02   -0.11779E+00  1008   0.262E+00    0.724E-01
DAV:   2    -0.111344585389E+03   -0.52078E-02   -0.78548E-02  1162   0.758E-01    0.351E-01
DAV:   3    -0.111344103983E+03    0.48141E-03   -0.19428E-03  1330   0.134E-01    0.232E-01
DAV:   4    -0.111343680882E+03    0.42310E-03   -0.74656E-04  1120   0.743E-02    0.125E-01
DAV:   5    -0.111343638699E+03    0.42182E-04   -0.23613E-04   784   0.408E-02
  60 F= -.11134364E+03 E0= -.11134364E+03  d E =-.284792E-01
 curvature: -20.35 expect dE=-0.604E-01 dE for cont linesearch -0.115E-03
 trial: gam= 0.33329 g(F)=  0.213E-02 g(S)=  0.842E-03 ort = 0.395E-03 (trialstep = 0.321E+01)
 search vector abs. value=  0.629E-02
 bond charge predicted
       N       E                     dE             d eps       ncg     rms          rms(c)
DAV:   1    -0.111350406435E+03   -0.67256E-02   -0.45323E-01  1008   0.164E+00    0.474E-01
DAV:   2    -0.111351716289E+03   -0.13099E-02   -0.32505E-02  1246   0.489E-01    0.258E-01
DAV:   3    -0.111351474543E+03    0.24175E-03   -0.13997E-03  1316   0.106E-01    0.158E-01
DAV:   4    -0.111351268003E+03    0.20654E-03   -0.20935E-04   812   0.433E-02    0.957E-02
DAV:   5    -0.111351182204E+03    0.85799E-04   -0.28207E-04   910   0.456E-02
  61 F= -.11135118E+03 E0= -.11135118E+03  d E =-.754350E-02
 trial-energy change:   -0.007544  1 .order   -0.007838   -0.009945   -0.005730
 step:   7.5680(harm=  7.5680)  dis= 0.02223  next Energy=  -111.355370 (dE=-0.117E-01)
 bond charge predicted
       N       E                     dE             d eps       ncg     rms          rms(c)
DAV:   1    -0.111354242856E+03   -0.29749E-02   -0.84207E-01  1008   0.224E+00    0.647E-01
DAV:   2    -0.111356591871E+03   -0.23490E-02   -0.59948E-02  1246   0.665E-01    0.362E-01
DAV:   3    -0.111356136129E+03    0.45574E-03   -0.26623E-03  1316   0.146E-01    0.220E-01
DAV:   4    -0.111355744614E+03    0.39151E-03   -0.46896E-04  1162   0.606E-02    0.129E-01
DAV:   5    -0.111355589589E+03    0.15503E-03   -0.30426E-04  1008   0.486E-02    0.702E-02
DAV:   6    -0.111355580329E+03    0.92600E-05   -0.86011E-05   672   0.252E-02
  62 F= -.11135558E+03 E0= -.11135558E+03  d E =-.119416E-01
 curvature:  -7.68 expect dE=-0.121E-01 dE for cont linesearch -0.132E-03
 ZBRENT: extrapolating
 opt :   8.5537  next Energy=  -111.355743 (dE=-0.121E-01)
 bond charge predicted
       N       E                     dE             d eps       ncg     rms          rms(c)
DAV:   1    -0.111355590840E+03   -0.12508E-05   -0.43400E-02  1008   0.508E-01    0.146E-01
DAV:   2    -0.111355714091E+03   -0.12325E-03   -0.31186E-03  1246   0.151E-01    0.772E-02
DAV:   3    -0.111355687378E+03    0.26713E-04   -0.12051E-04   812   0.335E-02
  63 F= -.11135569E+03 E0= -.11135569E+03  d E =-.120487E-01
 curvature:  -9.42 expect dE=-0.175E-01 dE for cont linesearch -0.290E-05
 trial: gam= 0.61731 g(F)=  0.785E-03 g(S)=  0.107E-02 ort =-0.440E-04 (trialstep = 0.428E+01)
 search vector abs. value=  0.420E-02
 bond charge predicted
       N       E                     dE             d eps       ncg     rms          rms(c)
DAV:   1    -0.111364580035E+03   -0.88659E-02   -0.40705E-01  1008   0.161E+00    0.533E-01
DAV:   2    -0.111362122855E+03    0.24572E-02   -0.28861E-02  1260   0.469E-01    0.259E-01
DAV:   3    -0.111361414009E+03    0.70885E-03   -0.22586E-03  1246   0.123E-01    0.145E-01
DAV:   4    -0.111361120876E+03    0.29313E-03   -0.34909E-04  1022   0.536E-02    0.696E-02
DAV:   5    -0.111361065190E+03    0.55686E-04   -0.17227E-04   714   0.350E-02
  64 F= -.11136107E+03 E0= -.11136107E+03  d E =-.537781E-02
 trial-energy change:   -0.005378  1 .order   -0.005912   -0.007811   -0.004013
 step:   8.7963(harm=  8.7963)  dis= 0.01620  next Energy=  -111.363720 (dE=-0.803E-02)
 bond charge predicted
       N       E                     dE             d eps       ncg     rms          rms(c)
DAV:   1    -0.111365561823E+03   -0.44409E-02   -0.45320E-01  1022   0.170E+00    0.570E-01
DAV:   2    -0.111362835694E+03    0.27261E-02   -0.32521E-02  1246   0.496E-01    0.264E-01
DAV:   3    -0.111362032373E+03    0.80332E-03   -0.25168E-03  1246   0.130E-01    0.146E-01
DAV:   4    -0.111361717559E+03    0.31481E-03   -0.37113E-04  1064   0.549E-02    0.748E-02
DAV:   5    -0.111361655146E+03    0.62414E-04   -0.19366E-04   784   0.360E-02
  65 F= -.11136166E+03 E0= -.11136166E+03  d E =-.596777E-02
 curvature: -10.11 expect dE=-0.234E-01 dE for cont linesearch -0.227E-03
 trial: gam= 1.36464 g(F)=  0.118E-02 g(S)=  0.114E-02 ort =-0.307E-03 (trialstep = 0.234E+01)
 search vector abs. value=  0.929E-02
 bond charge predicted
       N       E                     dE             d eps       ncg     rms          rms(c)
DAV:   1    -0.111364649742E+03   -0.29322E-02   -0.21998E-01  1022   0.115E+00    0.270E-01
DAV:   2    -0.111365726287E+03   -0.10765E-02   -0.15624E-02  1218   0.337E-01    0.119E-01
DAV:   3    -0.111365666827E+03    0.59461E-04   -0.35828E-04  1134   0.594E-02
  66 F= -.11136567E+03 E0= -.11136567E+03  d E =-.401168E-02
 ZBRENT: can't locate minimum, use default step
 trial-energy change:   -0.004012  1 .order   -0.004049   -0.004437   -0.003661
 step:   9.3595(harm= 13.3766)  dis= 0.03029  next Energy=  -111.374338 (dE=-0.127E-01)
 bond charge predicted
       N       E                     dE             d eps       ncg     rms          rms(c)
DAV:   1    -0.111363036402E+03    0.26899E-02   -0.19784E+00  1008   0.345E+00    0.797E-01
DAV:   2    -0.111372460076E+03   -0.94237E-02   -0.13873E-01  1204   0.101E+00    0.393E-01
DAV:   3    -0.111371896627E+03    0.56345E-03   -0.34183E-03  1302   0.179E-01    0.274E-01
DAV:   4    -0.111371513987E+03    0.38264E-03   -0.68608E-04  1176   0.723E-02    0.172E-01
DAV:   5    -0.111371433835E+03    0.80152E-04   -0.32707E-04  1008   0.477E-02
  67 F= -.11137143E+03 E0= -.11137143E+03  d E =-.977869E-02
 curvature: -28.44 expect dE=-0.761E-01 dE for cont linesearch -0.347E-03
 trial: gam= 0.33536 g(F)=  0.817E-03 g(S)=  0.186E-02 ort = 0.337E-03 (trialstep = 0.374E+01)
 search vector abs. value=  0.395E-02
 bond charge predicted
       N       E                     dE             d eps       ncg     rms          rms(c)
DAV:   1    -0.111385122282E+03   -0.13608E-01   -0.39436E-01  1008   0.160E+00    0.663E-01
DAV:   2    -0.111379882202E+03    0.52401E-02   -0.30543E-02  1176   0.484E-01    0.310E-01
DAV:   3    -0.111378912524E+03    0.96968E-03   -0.36347E-03  1260   0.146E-01    0.136E-01
DAV:   4    -0.111378537247E+03    0.37528E-03   -0.36007E-04  1036   0.556E-02    0.649E-02
DAV:   5    -0.111378442817E+03    0.94430E-04   -0.20721E-04   770   0.341E-02
  68 F= -.11137844E+03 E0= -.11137844E+03  d E =-.700898E-02
 trial-energy change:   -0.007009  1 .order   -0.007117   -0.010445   -0.003789
 step:   5.8753(harm=  5.8753)  dis= 0.01103  next Energy=  -111.379629 (dE=-0.820E-02)
 bond charge predicted
       N       E                     dE             d eps       ncg     rms          rms(c)
DAV:   1    -0.111381325105E+03   -0.27879E-02   -0.12557E-01  1008   0.903E-01    0.366E-01
DAV:   2    -0.111379559243E+03    0.17659E-02   -0.97666E-03  1176   0.273E-01    0.165E-01
DAV:   3    -0.111379222257E+03    0.33699E-03   -0.11805E-03  1288   0.830E-02    0.760E-02
DAV:   4    -0.111379092948E+03    0.12931E-03   -0.10522E-04   658   0.315E-02    0.403E-02
DAV:   5    -0.111379050646E+03    0.42302E-04   -0.11517E-04   630   0.258E-02
  69 F= -.11137905E+03 E0= -.11137905E+03  d E =-.761681E-02
 curvature:  -4.16 expect dE=-0.336E-02 dE for cont linesearch -0.204E-04
 trial: gam= 0.40525 g(F)=  0.488E-03 g(S)=  0.321E-03 ort =-0.139E-03 (trialstep = 0.417E+01)
 search vector abs. value=  0.134E-02
 bond charge predicted
       N       E                     dE             d eps       ncg     rms          rms(c)
DAV:   1    -0.111381267102E+03   -0.21742E-02   -0.11295E-01  1008   0.845E-01    0.222E-01
DAV:   2    -0.111381823168E+03   -0.55607E-03   -0.85985E-03  1274   0.254E-01    0.994E-02
DAV:   3    -0.111381769829E+03    0.53340E-04   -0.27781E-04  1092   0.521E-02
  70 F= -.11138177E+03 E0= -.11138177E+03  d E =-.271918E-02
 trial-energy change:   -0.002719  1 .order   -0.002706   -0.003138   -0.002274
 step:  15.1474(harm= 15.1474)  dis= 0.01569  next Energy=  -111.384751 (dE=-0.570E-02)
 bond charge predicted
       N       E                     dE             d eps       ncg     rms          rms(c)
DAV:   1    -0.111380772680E+03    0.10505E-02   -0.77780E-01  1008   0.221E+00    0.569E-01
DAV:   2    -0.111384322755E+03   -0.35501E-02   -0.57776E-02  1274   0.661E-01    0.272E-01
DAV:   3    -0.111383910679E+03    0.41208E-03   -0.20307E-03  1330   0.136E-01    0.175E-01
DAV:   4    -0.111383653211E+03    0.25747E-03   -0.38026E-04  1092   0.564E-02    0.103E-01
DAV:   5    -0.111383544413E+03    0.10880E-03   -0.31401E-04   994   0.567E-02    0.527E-02
DAV:   6    -0.111383555442E+03   -0.11029E-04   -0.11099E-04   672   0.303E-02
  71 F= -.11138356E+03 E0= -.11138356E+03  d E =-.450480E-02
 curvature: -13.53 expect dE=-0.141E-01 dE for cont linesearch -0.416E-03
 ZBRENT: interpolating
 opt :  12.1671  next Energy=  -111.383858 (dE=-0.481E-02)
 bond charge predicted
       N       E                     dE             d eps       ncg     rms          rms(c)
DAV:   1    -0.111383612871E+03   -0.68458E-04   -0.57718E-02  1008   0.602E-01    0.141E-01
DAV:   2    -0.111383892773E+03   -0.27990E-03   -0.42232E-03  1232   0.179E-01    0.705E-02
DAV:   3    -0.111383860363E+03    0.32410E-04   -0.11245E-04   798   0.349E-02
  72 F= -.11138386E+03 E0= -.11138386E+03  d E =-.480972E-02
 curvature:  -9.86 expect dE=-0.745E-02 dE for cont linesearch -0.123E-04
 trial: gam= 0.90030 g(F)=  0.605E-03 g(S)=  0.151E-03 ort =-0.410E-04 (trialstep = 0.438E+01)
 search vector abs. value=  0.177E-02
 bond charge predicted
       N       E                     dE             d eps       ncg     rms          rms(c)
DAV:   1    -0.111386546247E+03   -0.26535E-02   -0.21177E-01  1008   0.113E+00    0.359E-01
DAV:   2    -0.111386714840E+03   -0.16859E-03   -0.15486E-02  1246   0.339E-01    0.178E-01
DAV:   3    -0.111386537465E+03    0.17737E-03   -0.54807E-04  1246   0.685E-02    0.107E-01
DAV:   4    -0.111386432720E+03    0.10475E-03   -0.18642E-04   770   0.380E-02    0.541E-02
DAV:   5    -0.111386422982E+03    0.97379E-05   -0.94867E-05   672   0.258E-02
  73 F= -.11138642E+03 E0= -.11138642E+03  d E =-.256262E-02
 trial-energy change:   -0.002563  1 .order   -0.002630   -0.003147   -0.002113
 step:  13.3283(harm= 13.3283)  dis= 0.01370  next Energy=  -111.388651 (dE=-0.479E-02)
 bond charge predicted
       N       E                     dE             d eps       ncg     rms          rms(c)
DAV:   1    -0.111388719794E+03   -0.22871E-02   -0.87422E-01  1008   0.230E+00    0.705E-01
DAV:   2    -0.111389095675E+03   -0.37588E-03   -0.62700E-02  1246   0.683E-01    0.366E-01
DAV:   3    -0.111388312257E+03    0.78342E-03   -0.23110E-03  1274   0.140E-01    0.223E-01
DAV:   4    -0.111387838898E+03    0.47336E-03   -0.88485E-04  1274   0.787E-02    0.114E-01
DAV:   5    -0.111387777356E+03    0.61542E-04   -0.22343E-04   784   0.398E-02
  74 F= -.11138778E+03 E0= -.11138778E+03  d E =-.391699E-02
 curvature: -16.43 expect dE=-0.208E-01 dE for cont linesearch -0.159E-05
 trial: gam= 1.53670 g(F)=  0.600E-03 g(S)=  0.668E-03 ort =-0.131E-04 (trialstep = 0.202E+01)
 search vector abs. value=  0.541E-02
 bond charge predicted
       N       E                     dE             d eps       ncg     rms          rms(c)
DAV:   1    -0.111389538396E+03   -0.16995E-02   -0.12450E-01  1022   0.871E-01    0.216E-01
DAV:   2    -0.111390161265E+03   -0.62287E-03   -0.85114E-03  1232   0.255E-01    0.113E-01
DAV:   3    -0.111390129218E+03    0.32047E-04   -0.21483E-04   854   0.473E-02
  75 F= -.11139013E+03 E0= -.11139013E+03  d E =-.235186E-02
 ZBRENT: can't locate minimum, use default step
 trial-energy change:   -0.002352  1 .order   -0.002276   -0.002519   -0.002034
 step:   8.0794(harm= 10.4840)  dis= 0.01563  next Energy=  -111.394315 (dE=-0.654E-02)
 bond charge predicted
       N       E                     dE             d eps       ncg     rms          rms(c)
DAV:   1    -0.111389198229E+03    0.96304E-03   -0.11261E+00  1008   0.261E+00    0.626E-01
DAV:   2    -0.111394669233E+03   -0.54710E-02   -0.74671E-02  1204   0.761E-01    0.342E-01
DAV:   3    -0.111394374320E+03    0.29491E-03   -0.22804E-03  1330   0.143E-01    0.244E-01
DAV:   4    -0.111394087077E+03    0.28724E-03   -0.39117E-04  1036   0.575E-02    0.151E-01
DAV:   5    -0.111393981271E+03    0.10581E-03   -0.35129E-04   994   0.530E-02    0.617E-02
DAV:   6    -0.111393984149E+03   -0.28783E-05   -0.85850E-05   672   0.274E-02
  76 F= -.11139398E+03 E0= -.11139398E+03  d E =-.620679E-02
 curvature: -20.91 expect dE=-0.128E-01 dE for cont linesearch -0.236E-03
 ZBRENT: extrapolating
 opt :  10.0511  next Energy=  -111.394228 (dE=-0.645E-02)
 bond charge predicted
       N       E                     dE             d eps       ncg     rms          rms(c)
DAV:   1    -0.111393588463E+03    0.39281E-03   -0.12049E-01  1008   0.855E-01    0.220E-01
DAV:   2    -0.111394196401E+03   -0.60794E-03   -0.83581E-03  1232   0.252E-01    0.976E-02
DAV:   3    -0.111394165574E+03    0.30828E-04   -0.21660E-04   868   0.476E-02
  77 F= -.11139417E+03 E0= -.11139417E+03  d E =-.638822E-02
 curvature: -21.58 expect dE=-0.200E-01 dE for cont linesearch -0.130E-04
 trial: gam= 0.79117 g(F)=  0.783E-03 g(S)=  0.142E-03 ort =-0.570E-04 (trialstep = 0.363E+01)
 search vector abs. value=  0.422E-02
 bond charge predicted
       N       E                     dE             d eps       ncg     rms          rms(c)
DAV:   1    -0.111395806353E+03   -0.16100E-02   -0.27574E-01  1008   0.131E+00    0.299E-01
DAV:   2    -0.111396974217E+03   -0.11679E-02   -0.18459E-02  1190   0.379E-01    0.162E-01
DAV:   3    -0.111396841243E+03    0.13297E-03   -0.53796E-04  1288   0.704E-02    0.114E-01
DAV:   4    -0.111396733341E+03    0.10790E-03   -0.10154E-04   728   0.322E-02    0.724E-02
DAV:   5    -0.111396693319E+03    0.40022E-04   -0.16801E-04   686   0.377E-02
  78 F= -.11139669E+03 E0= -.11139669E+03  d E =-.252775E-02
 trial-energy change:   -0.002528  1 .order   -0.002564   -0.003191   -0.001936
 step:   9.2248(harm=  9.2248)  dis= 0.01603  next Energy=  -111.398224 (dE=-0.406E-02)
 bond charge predicted
       N       E                     dE             d eps       ncg     rms          rms(c)
DAV:   1    -0.111396217265E+03    0.51608E-03   -0.66372E-01  1008   0.203E+00    0.499E-01
DAV:   2    -0.111399215507E+03   -0.29982E-02   -0.46143E-02  1190   0.595E-01    0.226E-01
DAV:   3    -0.111398930272E+03    0.28523E-03   -0.13264E-03  1344   0.112E-01    0.156E-01
DAV:   4    -0.111398717248E+03    0.21302E-03   -0.21474E-04   770   0.461E-02    0.979E-02
DAV:   5    -0.111398637104E+03    0.80144E-04   -0.33000E-04   938   0.506E-02
  79 F= -.11139864E+03 E0= -.11139864E+03  d E =-.447153E-02
 curvature: -22.13 expect dE=-0.165E-01 dE for cont linesearch -0.453E-03
 ZBRENT: increasing intervall
 opt :  20.4222  next Energy=  -111.399241 (dE=-0.508E-02)
 bond charge predicted
       N       E                     dE             d eps       ncg     rms          rms(c)
DAV:   1    -0.111388011895E+03    0.10705E-01   -0.26553E+00  1008   0.406E+00    0.101E+00
DAV:   2    -0.111400078411E+03   -0.12067E-01   -0.18455E-01  1176   0.119E+00    0.464E-01
DAV:   3    -0.111398957936E+03    0.11205E-02   -0.54029E-03  1344   0.225E-01    0.320E-01
DAV:   4    -0.111398105909E+03    0.85203E-03   -0.10201E-03  1232   0.926E-02    0.204E-01
DAV:   5    -0.111397773246E+03    0.33266E-03   -0.70739E-04  1162   0.753E-02    0.835E-02
DAV:   6    -0.111397762812E+03    0.10434E-04   -0.20263E-04   728   0.420E-02
  80 F= -.11139776E+03 E0= -.11139776E+03  d E =-.359724E-02
 curvature: -29.51 expect dE=-0.693E-01 dE for cont linesearch -0.143E-02
 ZBRENT: bracketing found
 ZBRENT: interpolating
 opt :  13.6358  next Energy=  -111.399286 (dE=-0.512E-02)
 bond charge predicted
       N       E                     dE             d eps       ncg     rms          rms(c)
DAV:   1    -0.111395785432E+03    0.19878E-02   -0.97288E-01  1022   0.245E+00    0.584E-01
DAV:   2    -0.111400191591E+03   -0.44062E-02   -0.66019E-02  1176   0.717E-01    0.291E-01
DAV:   3    -0.111399768481E+03    0.42311E-03   -0.18756E-03  1344   0.132E-01    0.201E-01
DAV:   4    -0.111399426975E+03    0.34151E-03   -0.37498E-04  1036   0.573E-02    0.128E-01
DAV:   5    -0.111399295858E+03    0.13112E-03   -0.29574E-04   826   0.509E-02    0.493E-02
DAV:   6    -0.111399297330E+03   -0.14726E-05   -0.12444E-04   672   0.313E-02
  81 F= -.11139930E+03 E0= -.11139930E+03  d E =-.513176E-02
 curvature: -13.38 expect dE=-0.164E-01 dE for cont linesearch -0.279E-05
 trial: gam= 1.30030 g(F)=  0.403E-03 g(S)=  0.823E-03 ort = 0.297E-04 (trialstep = 0.281E+01)
 search vector abs. value=  0.844E-02
 bond charge predicted
       N       E                     dE             d eps       ncg     rms          rms(c)
DAV:   1    -0.111400848139E+03   -0.15523E-02   -0.34892E-01  1008   0.144E+00    0.375E-01
DAV:   2    -0.111402300055E+03   -0.14519E-02   -0.24051E-02  1176   0.425E-01    0.193E-01
DAV:   3    -0.111402195707E+03    0.10435E-03   -0.79108E-04  1302   0.832E-02    0.124E-01
DAV:   4    -0.111402106227E+03    0.89480E-04   -0.13420E-04   686   0.358E-02
  82 F= -.11140211E+03 E0= -.11140211E+03  d E =-.280890E-02
 trial-energy change:   -0.002809  1 .order   -0.002912   -0.003562   -0.002263
 step:   7.7211(harm=  7.7211)  dis= 0.01936  next Energy=  -111.404183 (dE=-0.489E-02)
 bond charge predicted
       N       E                     dE             d eps       ncg     rms          rms(c)
DAV:   1    -0.111400365959E+03    0.18297E-02   -0.10497E+00  1008   0.250E+00    0.651E-01
DAV:   2    -0.111404521338E+03   -0.41554E-02   -0.72678E-02  1176   0.739E-01    0.334E-01
DAV:   3    -0.111404213572E+03    0.30777E-03   -0.25425E-03  1302   0.149E-01    0.208E-01
DAV:   4    -0.111403948535E+03    0.26504E-03   -0.46392E-04  1092   0.624E-02    0.133E-01
DAV:   5    -0.111403884975E+03    0.63560E-04   -0.21367E-04   686   0.416E-02
  83 F= -.11140388E+03 E0= -.11140388E+03  d E =-.458765E-02
 curvature: -25.75 expect dE=-0.251E-01 dE for cont linesearch -0.333E-06
 trial: gam= 0.56513 g(F)=  0.806E-03 g(S)=  0.168E-03 ort = 0.104E-04 (trialstep = 0.380E+01)
 search vector abs. value=  0.368E-02
 bond charge predicted
       N       E                     dE             d eps       ncg     rms          rms(c)
DAV:   1    -0.111405771865E+03   -0.18233E-02   -0.27661E-01  1008   0.128E+00    0.312E-01
DAV:   2    -0.111407107165E+03   -0.13353E-02   -0.18169E-02  1176   0.370E-01    0.139E-01
DAV:   3    -0.111406992835E+03    0.11433E-03   -0.47744E-04  1344   0.695E-02    0.104E-01
DAV:   4    -0.111406912393E+03    0.80441E-04   -0.11841E-04   728   0.347E-02
  84 F= -.11140691E+03 E0= -.11140691E+03  d E =-.302742E-02
 ZBRENT: can't locate minimum, use default step
 trial-energy change:   -0.003027  1 .order   -0.003381   -0.003721   -0.003041
 step:  15.1832(harm= 20.7750)  dis= 0.02989  next Energy=  -111.414069 (dE=-0.102E-01)
 bond charge predicted
       N       E                     dE             d eps       ncg     rms          rms(c)
DAV:   1    -0.111398325277E+03    0.86676E-02   -0.25113E+00  1008   0.385E+00    0.979E-01
DAV:   2    -0.111410649033E+03   -0.12324E-01   -0.16557E-01  1190   0.112E+00    0.440E-01
DAV:   3    -0.111409619523E+03    0.10295E-02   -0.45021E-03  1358   0.212E-01    0.322E-01
DAV:   4    -0.111408924459E+03    0.69506E-03   -0.12200E-03  1274   0.999E-02    0.188E-01
DAV:   5    -0.111408770648E+03    0.15381E-03   -0.67956E-04  1316   0.747E-02    0.598E-02
DAV:   6    -0.111408778847E+03   -0.81995E-05   -0.14237E-04   728   0.355E-02
  85 F= -.11140878E+03 E0= -.11140878E+03  d E =-.489387E-02
 curvature: -34.79 expect dE=-0.388E-01 dE for cont linesearch -0.796E-03
 ZBRENT: interpolating
 opt :  12.1550  next Energy=  -111.409218 (dE=-0.533E-02)
 bond charge predicted
       N       E                     dE             d eps       ncg     rms          rms(c)
DAV:   1    -0.111408621831E+03    0.14882E-03   -0.17841E-01  1022   0.103E+00    0.236E-01
DAV:   2    -0.111409491166E+03   -0.86934E-03   -0.11421E-02  1176   0.297E-01    0.123E-01
DAV:   3    -0.111409414181E+03    0.76985E-04   -0.29562E-04  1134   0.556E-02
  86 F= -.11140941E+03 E0= -.11140941E+03  d E =-.552921E-02
 curvature: -19.21 expect dE=-0.169E-01 dE for cont linesearch -0.725E-04
 trial: gam= 0.88257 g(F)=  0.294E-03 g(S)=  0.584E-03 ort =-0.118E-03 (trialstep = 0.547E+01)
 search vector abs. value=  0.354E-02
 bond charge predicted
       N       E                     dE             d eps       ncg     rms          rms(c)
DAV:   1    -0.111410897134E+03   -0.14060E-02   -0.49077E-01  1008   0.176E+00    0.475E-01
DAV:   2    -0.111412160897E+03   -0.12638E-02   -0.34374E-02  1190   0.513E-01    0.202E-01
DAV:   3    -0.111411671728E+03    0.48917E-03   -0.13621E-03  1358   0.112E-01    0.135E-01
DAV:   4    -0.111411382632E+03    0.28910E-03   -0.33916E-04  1022   0.543E-02    0.679E-02
DAV:   5    -0.111411299960E+03    0.82672E-04   -0.17309E-04   714   0.431E-02
  87 F= -.11141130E+03 E0= -.11141130E+03  d E =-.188578E-02
 trial-energy change:   -0.001886  1 .order   -0.002396   -0.004231   -0.000562
 step:   6.3054(harm=  6.3054)  dis= 0.00934  next Energy=  -111.411854 (dE=-0.244E-02)
 bond charge predicted
       N       E                     dE             d eps       ncg     rms          rms(c)
DAV:   1    -0.111411291897E+03    0.90735E-04   -0.10880E-02  1064   0.265E-01    0.757E-02
DAV:   2    -0.111411313440E+03   -0.21544E-04   -0.75254E-04  1302   0.749E-02
  88 F= -.11141131E+03 E0= -.11141131E+03  d E =-.189926E-02
 curvature: -14.42 expect dE=-0.341E-02 dE for cont linesearch -0.456E-06
 trial: gam= 0.21271 g(F)=  0.230E-03 g(S)=  0.672E-05 ort = 0.106E-04 (trialstep = 0.564E+01)
 search vector abs. value=  0.401E-03
 bond charge predicted
       N       E                     dE             d eps       ncg     rms          rms(c)
DAV:   1    -0.111412175781E+03   -0.88388E-03   -0.52399E-02  1022   0.561E-01    0.131E-01
DAV:   2    -0.111412411156E+03   -0.23538E-03   -0.35909E-03  1246   0.169E-01    0.640E-02
DAV:   3    -0.111412384081E+03    0.27075E-04   -0.10475E-04   742   0.335E-02
  89 F= -.11141238E+03 E0= -.11141238E+03  d E =-.107064E-02
 trial-energy change:   -0.001071  1 .order   -0.001093   -0.001347   -0.000840
 step:  14.9742(harm= 14.9742)  dis= 0.00922  next Energy=  -111.413103 (dE=-0.179E-02)
 reached required accuracy - stopping structural energy minimisation
