<?xml version="1.0" encoding="ISO-8859-1"?>
<modeling>
 <generator>
  <i name="program" type="string">vasp </i>
  <i name="version" type="string">5.4.4.18Apr17-6-g9f103f2a35  </i>
  <i name="subversion" type="string">(build Oct 27 2022 13:04:57) complex            parallel </i>
  <i name="platform" type="string">LinuxIFC </i>
  <i name="date" type="string">2024 07 04 </i>
  <i name="time" type="string">08:32:38 </i>
 </generator>
 <incar>
  <i type="string" name="SYSTEM"> CIS</i>
  <i type="int" name="ISTART">     0</i>
  <i type="string" name="PREC">medium</i>
  <i type="int" name="ICHARG">     2</i>
  <i type="int" name="IBRION">     2</i>
  <i name="EDIFF">      0.00010000</i>
  <i name="EDIFFG">     -0.05000000</i>
  <i type="int" name="NSW">    99</i>
  <i type="int" name="ISIF">     3</i>
  <i name="ENCUT">    300.00000000</i>
  <i name="POTIM">      0.10000000</i>
  <i type="string" name="LREAL"> Auto</i>
  <i type="int" name="ISMEAR">     0</i>
  <i name="SIGMA">      0.05000000</i>
  <i type="int" name="LMAXMIX">     4</i>
  <i type="logical" name="LWAVE"> F  </i>
  <i type="logical" name="LCHARG"> F  </i>
  <i type="int" name="LORBIT">    10</i>
  <i type="logical" name="LASPH"> T  </i>
  <v type="int" name="KPOINT_BSE">    -1     0     0     0</v>
  <i type="logical" name="LASPH"> T  </i>
 </incar>
 <structure name="primitive_cell" >
  <crystal>
   <varray name="basis" >
    <v>       4.24401182       0.00000000       0.00000000 </v>
    <v>       0.00000000      13.41340877       0.04087212 </v>
    <v>       0.00000000       1.22959264      15.51089389 </v>
   </varray>
   <i name="volume">    882.77017871 </i>
   <varray name="rec_basis" >
    <v>       0.23562611       0.00000000       0.00000000 </v>
    <v>       0.00000000       0.07457028      -0.00591140 </v>
    <v>       0.00000000      -0.00019650       0.06448639 </v>
   </varray>
  </crystal>
  <varray name="positions" >
   <v>       0.25000000      -0.43150721      -0.18790996 </v>
   <v>       0.25000000      -0.40186188       0.03793755 </v>
   <v>       0.25000000       0.30839179      -0.24041933 </v>
   <v>      -0.25000000       0.40186188      -0.03793755 </v>
   <v>      -0.25000000      -0.20214494      -0.13713377 </v>
   <v>      -0.25000000      -0.45798711      -0.39320698 </v>
   <v>       0.25000000       0.26853392      -0.05056020 </v>
   <v>       0.25000000       0.39331667      -0.42829721 </v>
   <v>      -0.25000000      -0.17124691      -0.37714522 </v>
   <v>      -0.25000000      -0.26853392       0.05056020 </v>
   <v>       0.25000000      -0.05387657      -0.12022641 </v>
   <v>       0.25000000      -0.24454282       0.45156839 </v>
   <v>      -0.25000000       0.16844394      -0.27488852 </v>
   <v>       0.25000000       0.01433094      -0.29540055 </v>
   <v>      -0.25000000      -0.39331667       0.42829721 </v>
   <v>      -0.25000000       0.43150721       0.18790996 </v>
   <v>       0.25000000      -0.09642318       0.08303846 </v>
   <v>      -0.25000000       0.24454282      -0.45156839 </v>
   <v>      -0.25000000       0.09642318      -0.08303846 </v>
   <v>       0.25000000       0.20214494       0.13713377 </v>
   <v>       0.25000000       0.45798711       0.39320698 </v>
   <v>      -0.25000000      -0.30839179       0.24041933 </v>
   <v>       0.25000000      -0.16844394       0.27488852 </v>
   <v>      -0.25000000       0.05387657       0.12022641 </v>
   <v>       0.25000000       0.17124691       0.37714522 </v>
   <v>      -0.25000000      -0.01433094       0.29540055 </v>
  </varray>
 </structure>
 <varray name="primitive_index" >
  <v type="int" >        1 </v>
  <v type="int" >       15 </v>
  <v type="int" >       24 </v>
  <v type="int" >       16 </v>
  <v type="int" >       19 </v>
  <v type="int" >       14 </v>
  <v type="int" >       10 </v>
  <v type="int" >       12 </v>
  <v type="int" >        3 </v>
  <v type="int" >        9 </v>
  <v type="int" >        5 </v>
  <v type="int" >       21 </v>
  <v type="int" >        8 </v>
  <v type="int" >       18 </v>
  <v type="int" >       11 </v>
  <v type="int" >        2 </v>
  <v type="int" >       25 </v>
  <v type="int" >       22 </v>
  <v type="int" >       26 </v>
  <v type="int" >       20 </v>
  <v type="int" >       13 </v>
  <v type="int" >       23 </v>
  <v type="int" >        7 </v>
  <v type="int" >        6 </v>
  <v type="int" >        4 </v>
  <v type="int" >       17 </v>
 </varray>
 <kpoints>
  <generation param="Monkhorst-Pack">
   <v type="int" name="divisions">       5        2        2 </v>
   <v name="usershift">      0.00000000       0.00000000       0.00000000 </v>
   <v name="genvec1">      0.20000000       0.00000000       0.00000000 </v>
   <v name="genvec2">      0.00000000       0.50000000      -0.00000000 </v>
   <v name="genvec3">      0.00000000      -0.00000000       0.50000000 </v>
   <v name="shift">      0.00000000       0.50000000       0.50000000 </v>
  </generation>
  <varray name="kpointlist" >
   <v>       0.00000000       0.25000000       0.25000000 </v>
   <v>       0.20000000       0.25000000       0.25000000 </v>
   <v>       0.40000000       0.25000000       0.25000000 </v>
   <v>       0.00000000      -0.25000000       0.25000000 </v>
   <v>       0.20000000      -0.25000000       0.25000000 </v>
   <v>       0.40000000      -0.25000000       0.25000000 </v>
  </varray>
  <varray name="weights" >
   <v>       0.10000000 </v>
   <v>       0.20000000 </v>
   <v>       0.20000000 </v>
   <v>       0.10000000 </v>
   <v>       0.20000000 </v>
   <v>       0.20000000 </v>
  </varray>
 </kpoints>
 <parameters>
  <separator name="general" >
   <i type="string" name="SYSTEM">CIS</i>
   <i type="logical" name="LCOMPAT"> F  </i>
  </separator>
  <separator name="electronic" >
   <i type="string" name="PREC">medium</i>
   <i name="ENMAX">    300.00000000</i>
   <i name="ENAUG">    335.09200000</i>
   <i name="EDIFF">      0.00010000</i>
   <i type="int" name="IALGO">    38</i>
   <i type="int" name="IWAVPR">    11</i>
   <i type="int" name="NBANDS">    84</i>
   <i name="NELECT">    128.00000000</i>
   <i type="int" name="TURBO">     0</i>
   <i type="int" name="IRESTART">     0</i>
   <i type="int" name="NREBOOT">     0</i>
   <i type="int" name="NMIN">     0</i>
   <i name="EREF">      0.00000000</i>
   <separator name="electronic smearing" >
    <i type="int" name="ISMEAR">     0</i>
    <i name="SIGMA">      0.05000000</i>
    <i name="KSPACING">      0.50000000</i>
    <i type="logical" name="KGAMMA"> T  </i>
   </separator>
   <separator name="electronic projectors" >
    <i type="logical" name="LREAL"> T  </i>
    <v name="ROPT">     -0.00200000     -0.00200000     -0.00200000</v>
    <i type="int" name="LMAXPAW">  -100</i>
    <i type="int" name="LMAXMIX">     4</i>
    <i type="logical" name="NLSPLINE"> F  </i>
   </separator>
   <separator name="electronic startup" >
    <i type="int" name="ISTART">     0</i>
    <i type="int" name="ICHARG">     2</i>
    <i type="int" name="INIWAV">     1</i>
   </separator>
   <separator name="electronic spin" >
    <i type="int" name="ISPIN">     1</i>
    <i type="logical" name="LNONCOLLINEAR"> F  </i>
    <v name="MAGMOM">      1.00000000      1.00000000      1.00000000      1.00000000      1.00000000      1.00000000      1.00000000      1.00000000      1.00000000      1.00000000      1.00000000      1.00000000      1.00000000      1.00000000      1.00000000      1.00000000      1.00000000      1.00000000      1.00000000      1.00000000
      1.00000000      1.00000000      1.00000000      1.00000000      1.00000000      1.00000000</v>
    <i name="NUPDOWN">     -1.00000000</i>
    <i type="logical" name="LSORBIT"> F  </i>
    <v name="SAXIS">      0.00000000      0.00000000      1.00000000</v>
    <i type="logical" name="LSPIRAL"> F  </i>
    <v name="QSPIRAL">      0.00000000      0.00000000      0.00000000</v>
    <i type="logical" name="LZEROZ"> F  </i>
   </separator>
   <separator name="electronic exchange-correlation" >
    <i type="logical" name="LASPH"> T  </i>
    <i type="logical" name="LMETAGGA"> F  </i>
   </separator>
   <separator name="electronic convergence" >
    <i type="int" name="NELM">    60</i>
    <i type="int" name="NELMDL">    -5</i>
    <i type="int" name="NELMIN">     2</i>
    <i name="ENINI">    300.00000000</i>
    <separator name="electronic convergence detail" >
     <i type="logical" name="LDIAG"> T  </i>
     <i type="logical" name="LSUBROT"> F  </i>
     <i name="WEIMIN">      0.00100000</i>
     <i name="EBREAK">      0.00000030</i>
     <i name="DEPER">      0.30000000</i>
     <i type="int" name="NRMM">     4</i>
     <i name="TIME">      0.40000000</i>
    </separator>
   </separator>
   <separator name="electronic mixer" >
    <i name="AMIX">      0.40000000</i>
    <i name="BMIX">      1.00000000</i>
    <i name="AMIN">      0.10000000</i>
    <i name="AMIX_MAG">      1.60000000</i>
    <i name="BMIX_MAG">      1.00000000</i>
    <separator name="electronic mixer details" >
     <i type="int" name="IMIX">     4</i>
     <i type="logical" name="MIXFIRST"> F  </i>
     <i type="int" name="MAXMIX">   -45</i>
     <i name="WC">    100.00000000</i>
     <i type="int" name="INIMIX">     1</i>
     <i type="int" name="MIXPRE">     1</i>
     <i type="int" name="MREMOVE">     5</i>
    </separator>
   </separator>
   <separator name="electronic dipolcorrection" >
    <i type="logical" name="LDIPOL"> F  </i>
    <i type="logical" name="LMONO"> F  </i>
    <i type="int" name="IDIPOL">     0</i>
    <i name="EPSILON">      1.00000000</i>
    <v name="DIPOL">   -100.00000000   -100.00000000   -100.00000000</v>
    <i name="EFIELD">      0.00000000</i>
   </separator>
  </separator>
  <separator name="grids" >
   <i type="int" name="NGX">    18</i>
   <i type="int" name="NGY">    60</i>
   <i type="int" name="NGZ">    70</i>
   <i type="int" name="NGXF">    28</i>
   <i type="int" name="NGYF">    80</i>
   <i type="int" name="NGZF">    96</i>
   <i type="logical" name="ADDGRID"> F  </i>
  </separator>
  <separator name="ionic" >
   <i type="int" name="NSW">    99</i>
   <i type="int" name="IBRION">     2</i>
   <i type="int" name="MDALGO">     0</i>
   <i type="int" name="ISIF">     3</i>
   <i name="PSTRESS">      0.00000000</i>
   <i name="EDIFFG">     -0.05000000</i>
   <i type="int" name="NFREE">     1</i>
   <i name="POTIM">      0.10000000</i>
   <i name="SMASS">     -3.00000000</i>
   <i name="SCALEE">      1.00000000</i>
  </separator>
  <separator name="ionic md" >
   <i name="TEBEG">      0.00010000</i>
   <i name="TEEND">      0.00010000</i>
   <i type="int" name="NBLOCK">     1</i>
   <i type="int" name="KBLOCK">    99</i>
   <i type="int" name="NPACO">   256</i>
   <i name="APACO">     16.00000000</i>
  </separator>
  <separator name="symmetry" >
   <i type="int" name="ISYM">     2</i>
   <i name="SYMPREC">      0.00001000</i>
  </separator>
  <separator name="dos" >
   <i type="int" name="LORBIT">    10</i>
   <v name="RWIGS">     -1.00000000     -1.00000000     -1.00000000</v>
   <i type="int" name="NEDOS">   301</i>
   <i name="EMIN">     10.00000000</i>
   <i name="EMAX">    -10.00000000</i>
   <i name="EFERMI">      0.00000000</i>
  </separator>
  <separator name="writing" >
   <i type="int" name="NWRITE">     2</i>
   <i type="logical" name="LWAVE"> F  </i>
   <i type="logical" name="LDOWNSAMPLE"> F  </i>
   <i type="logical" name="LCHARG"> F  </i>
   <i type="logical" name="LPARD"> F  </i>
   <i type="logical" name="LVTOT"> F  </i>
   <i type="logical" name="LVHAR"> F  </i>
   <i type="logical" name="LELF"> F  </i>
   <i type="logical" name="LOPTICS"> F  </i>
   <v name="STM">      0.00000000      0.00000000      0.00000000      0.00000000      0.00000000      0.00000000      0.00000000</v>
  </separator>
  <separator name="performance" >
   <i type="int" name="NPAR">    14</i>
   <i type="int" name="NSIM">     4</i>
   <i type="int" name="NBLK">    -1</i>
   <i type="logical" name="LPLANE"> T  </i>
   <i type="logical" name="LSCALAPACK"> T  </i>
   <i type="logical" name="LSCAAWARE"> F  </i>
   <i type="logical" name="LSCALU"> F  </i>
   <i type="logical" name="LASYNC"> F  </i>
   <i type="logical" name="LORBITALREAL"> F  </i>
  </separator>
  <separator name="miscellaneous" >
   <i type="int" name="IDIOT">     3</i>
   <i type="int" name="ISPECIAL">     0</i>
   <i type="logical" name="LMUSIC"> F  </i>
   <v name="POMASS">      7.01000000    208.98000000     32.06600000</v>
   <v name="DARWINR">      0.00000000      0.00000000      0.00000000</v>
   <v name="DARWINV">      1.00000000      1.00000000      1.00000000</v>
   <i type="logical" name="LCORR"> T  </i>
  </separator>
  <i type="logical" name="GGA_COMPAT"> T  </i>
  <i type="logical" name="LBERRY"> F  </i>
  <i type="int" name="ICORELEVEL">     0</i>
  <i type="logical" name="LDAU"> F  </i>
  <i type="int" name="I_CONSTRAINED_M">     0</i>
  <separator name="electronic exchange-correlation" >
   <i type="string" name="GGA">--</i>
   <i type="int" name="VOSKOWN">     0</i>
   <i type="logical" name="LHFCALC"> F  </i>
   <i type="string" name="PRECFOCK"></i>
   <i type="logical" name="LSYMGRAD"> F  </i>
   <i type="logical" name="LHFONE"> F  </i>
   <i type="logical" name="LRHFCALC"> F  </i>
   <i type="logical" name="LTHOMAS"> F  </i>
   <i type="logical" name="LMODELHF"> F  </i>
   <i name="ENCUT4O">     -1.00000000</i>
   <i type="int" name="EXXOEP">     0</i>
   <i type="int" name="FOURORBIT">     0</i>
   <i name="AEXX">      0.00000000</i>
   <i name="HFALPHA">      0.00000000</i>
   <i name="MCALPHA">      0.00000000</i>
   <i name="ALDAX">      1.00000000</i>
   <i name="AGGAX">      1.00000000</i>
   <i name="ALDAC">      1.00000000</i>
   <i name="AGGAC">      1.00000000</i>
   <i type="int" name="NKREDX">     1</i>
   <i type="int" name="NKREDY">     1</i>
   <i type="int" name="NKREDZ">     1</i>
   <i type="logical" name="SHIFTRED"> F  </i>
   <i type="logical" name="ODDONLY"> F  </i>
   <i type="logical" name="EVENONLY"> F  </i>
   <i type="int" name="LMAXFOCK">     0</i>
   <i type="int" name="NMAXFOCKAE">     0</i>
   <i type="logical" name="LFOCKAEDFT"> F  </i>
   <i name="HFSCREEN">      0.00000000</i>
   <i name="HFSCREENC">      0.00000000</i>
   <i type="int" name="NBANDSGWLOW">     0</i>
  </separator>
  <separator name="vdW DFT" >
   <i type="logical" name="LUSE_VDW"> F  </i>
   <i name="Zab_VDW">     -0.84910000</i>
   <i name="PARAM1">      0.12340000</i>
   <i name="PARAM2">      1.00000000</i>
   <i name="PARAM3">      0.00000000</i>
  </separator>
  <separator name="model GW" >
   <i type="int" name="MODEL_GW">     0</i>
   <i name="MODEL_EPS0">     20.37161951</i>
   <i name="MODEL_ALPHA">      1.00000000</i>
  </separator>
  <separator name="linear response parameters" >
   <i type="logical" name="LEPSILON"> F  </i>
   <i type="logical" name="LRPA"> F  </i>
   <i type="logical" name="LNABLA"> F  </i>
   <i type="logical" name="LVEL"> F  </i>
   <i type="int" name="KINTER">     0</i>
   <i name="CSHIFT">      0.10000000</i>
   <i name="OMEGAMAX">     -1.00000000</i>
   <i name="DEG_THRESHOLD">      0.00200000</i>
   <i name="RTIME">     -0.10000000</i>
   <i name="WPLASMAI">      0.00000000</i>
   <v name="DFIELD">      0.00000000      0.00000000      0.00000000</v>
   <v name="WPLASMA">      0.00000000      0.00000000      0.00000000      0.00000000      0.00000000      0.00000000      0.00000000      0.00000000      0.00000000</v>
  </separator>
  <separator name="orbital magnetization" >
   <i type="logical" name="NUCIND"> F  </i>
   <v name="MAGPOS">      0.00000000      0.00000000      0.00000000</v>
   <i type="logical" name="LNICSALL"> T  </i>
   <i type="logical" name="ORBITALMAG"> F  </i>
   <i type="logical" name="LMAGBLOCH"> F  </i>
   <i type="logical" name="LCHIMAG"> F  </i>
   <i type="logical" name="LGAUGE"> T  </i>
   <i type="int" name="MAGATOM">     0</i>
   <v name="MAGDIPOL">      0.00000000      0.00000000      0.00000000</v>
   <v name="AVECCONST">      0.00000000      0.00000000      0.00000000</v>
  </separator>
  <separator name="response functions" >
   <i type="logical" name="LADDER"> F  </i>
   <i type="logical" name="LRPAFORCE"> F  </i>
   <i type="logical" name="LFXC"> F  </i>
   <i type="logical" name="LHARTREE"> T  </i>
   <i type="int" name="IBSE">     0</i>
   <v type="int" name="KPOINT">    -1     0     0     0</v>
   <i type="logical" name="LTCTE"> F  </i>
   <i type="logical" name="LTETE"> F  </i>
   <i type="logical" name="LTRIPLET"> F  </i>
   <i type="logical" name="LFXCEPS"> F  </i>
   <i type="logical" name="LFXHEG"> F  </i>
   <i type="int" name="NATURALO">     2</i>
   <i type="logical" name="L2ORDER"> F  </i>
   <i type="logical" name="LMP2LT"> F  </i>
   <i type="logical" name="LUSEW"> F  </i>
   <i name="ENCUTGW">     -2.00000000</i>
   <i name="ENCUTGWSOFT">     -2.00000000</i>
   <i name="ENCUTLF">     -1.00000000</i>
   <i type="int" name="LMAXMP2">    -1</i>
   <i name="SCISSOR">      0.00000000</i>
   <i type="int" name="NOMEGA">     0</i>
   <i type="int" name="NOMEGAR">     0</i>
   <i type="int" name="NBANDSGW">    -1</i>
   <i type="int" name="NBANDSO">    -1</i>
   <i type="int" name="NBANDSV">    -1</i>
   <i type="int" name="NELM">     1</i>
   <i type="int" name="NELMHF">     1</i>
   <i type="int" name="DIM">     3</i>
   <i type="int" name="ANTIRES">     0</i>
   <i name="OMEGAMAX">    -30.00000000</i>
   <i name="OMEGAMIN">    -30.00000000</i>
   <i name="OMEGATL">   -200.00000000</i>
   <i type="int" name="OMEGAGRID">   140</i>
   <i name="CSHIFT">     -0.10000000</i>
   <i type="logical" name="SELFENERGY"> F  </i>
   <i type="logical" name="LSPECTRAL"> F  </i>
   <i type="logical" name="LSPECTRALGW"> F  </i>
   <i type="logical" name="LSINGLES"> F  </i>
   <i type="logical" name="LFERMIGW"> F  </i>
   <i type="logical" name="ODDONLYGW"> F  </i>
   <i type="logical" name="EVENONLYGW"> F  </i>
   <i type="int" name="NKREDLFX">     1</i>
   <i type="int" name="NKREDLFY">     1</i>
   <i type="int" name="NKREDLFZ">     1</i>
   <i type="int" name="MAXMEM">  2800</i>
   <i type="int" name="TELESCOPE">     0</i>
   <i type="int" name="TAUPAR">     1</i>
   <i type="int" name="OMEGAPAR">    -1</i>
   <i name="LAMBDA">      1.00000000</i>
  </separator>
  <separator name="External order field" >
   <i name="OFIELD_KAPPA">      0.00000000</i>
   <v name="OFIELD_K">      0.00000000      0.00000000      0.00000000</v>
   <i name="OFIELD_Q6_NEAR">      0.00000000</i>
   <i name="OFIELD_Q6_FAR">      0.00000000</i>
   <i name="OFIELD_A">      0.00000000</i>
  </separator>
 </parameters>
 <atominfo>
  <atoms>      26 </atoms>
  <types>       3 </types>
  <array name="atoms" >
   <dimension dim="1">ion</dimension>
   <field type="string">element</field>
   <field type="int">atomtype</field>
   <set>
    <rc><c>Li</c><c>   1</c></rc>
    <rc><c>Li</c><c>   1</c></rc>
    <rc><c>Li</c><c>   1</c></rc>
    <rc><c>Li</c><c>   1</c></rc>
    <rc><c>Bi</c><c>   2</c></rc>
    <rc><c>Bi</c><c>   2</c></rc>
    <rc><c>Bi</c><c>   2</c></rc>
    <rc><c>Bi</c><c>   2</c></rc>
    <rc><c>Bi</c><c>   2</c></rc>
    <rc><c>Bi</c><c>   2</c></rc>
    <rc><c>Bi</c><c>   2</c></rc>
    <rc><c>Bi</c><c>   2</c></rc>
    <rc><c>S </c><c>   3</c></rc>
    <rc><c>S </c><c>   3</c></rc>
    <rc><c>S </c><c>   3</c></rc>
    <rc><c>S </c><c>   3</c></rc>
    <rc><c>S </c><c>   3</c></rc>
    <rc><c>S </c><c>   3</c></rc>
    <rc><c>S </c><c>   3</c></rc>
    <rc><c>S </c><c>   3</c></rc>
    <rc><c>S </c><c>   3</c></rc>
    <rc><c>S </c><c>   3</c></rc>
    <rc><c>S </c><c>   3</c></rc>
    <rc><c>S </c><c>   3</c></rc>
    <rc><c>S </c><c>   3</c></rc>
    <rc><c>S </c><c>   3</c></rc>
   </set>
  </array>
  <array name="atomtypes" >
   <dimension dim="1">type</dimension>
   <field type="int">atomspertype</field>
   <field type="string">element</field>
   <field>mass</field>
   <field>valence</field>
   <field type="string">pseudopotential</field>
   <set>
    <rc><c>   4</c><c>Li</c><c>      7.01000000</c><c>      1.00000000</c><c>  PAW_PBE Li 17Jan2003                  </c></rc>
    <rc><c>   8</c><c>Bi</c><c>    208.98000000</c><c>      5.00000000</c><c>  PAW_PBE Bi 08Apr2002                  </c></rc>
    <rc><c>  14</c><c>S </c><c>     32.06600000</c><c>      6.00000000</c><c>  PAW_PBE S 06Sep2000                   </c></rc>
   </set>
  </array>
 </atominfo>
 <structure name="initialpos" >
  <crystal>
   <varray name="basis" >
    <v>       4.24401182       0.00000000       0.00000000 </v>
    <v>       0.00000000      13.41340877       0.04087212 </v>
    <v>       0.00000000       1.22959264      15.51089389 </v>
   </varray>
   <i name="volume">    882.77017871 </i>
   <varray name="rec_basis" >
    <v>       0.23562611       0.00000000       0.00000000 </v>
    <v>       0.00000000       0.07457028      -0.00591140 </v>
    <v>       0.00000000      -0.00019650       0.06448639 </v>
   </varray>
  </crystal>
  <varray name="positions" >
   <v>       0.25000000       0.56849279       0.81209004 </v>
   <v>       0.75000000       0.43150721       0.18790996 </v>
   <v>       0.75000000       0.82875309       0.62285478 </v>
   <v>       0.25000000       0.17124691       0.37714522 </v>
   <v>       0.25000000       0.94612343       0.87977359 </v>
   <v>       0.75000000       0.05387657       0.12022641 </v>
   <v>       0.25000000       0.83155606       0.27488852 </v>
   <v>       0.75000000       0.16844394       0.72511148 </v>
   <v>       0.75000000       0.73146608       0.05056020 </v>
   <v>       0.25000000       0.26853392       0.94943980 </v>
   <v>       0.75000000       0.60668333       0.42829721 </v>
   <v>       0.25000000       0.39331667       0.57170279 </v>
   <v>       0.25000000       0.45798711       0.39320698 </v>
   <v>       0.75000000       0.54201289       0.60679302 </v>
   <v>       0.25000000       0.59813812       0.03793755 </v>
   <v>       0.75000000       0.40186188       0.96206245 </v>
   <v>       0.75000000       0.98566906       0.29540055 </v>
   <v>       0.25000000       0.01433094       0.70459945 </v>
   <v>       0.75000000       0.79785506       0.86286623 </v>
   <v>       0.25000000       0.20214494       0.13713377 </v>
   <v>       0.25000000       0.75545718       0.45156839 </v>
   <v>       0.75000000       0.24454282       0.54843161 </v>
   <v>       0.75000000       0.69160821       0.24041933 </v>
   <v>       0.25000000       0.30839179       0.75958067 </v>
   <v>       0.25000000       0.90357682       0.08303846 </v>
   <v>       0.75000000       0.09642318       0.91696154 </v>
  </varray>
 </structure>
 <calculation>
  <scstep>
   <time name="dav">    0.90    0.91</time>
   <time name="total">    1.10    1.23</time>
   <energy>
    <i name="alphaZ">     66.50579053 </i>
    <i name="ewald">  -3311.06114051 </i>
    <i name="hartreedc">  -1710.87964274 </i>
    <i name="XCdc">   -735.06069855 </i>
    <i name="pawpsdc">   4876.17098501 </i>
    <i name="pawaedc">  -3873.83484206 </i>
    <i name="eentropy">     -0.00503495 </i>
    <i name="bandstr">    133.67713940 </i>
    <i name="atom">   5103.11921817 </i>
    <i name="e_fr_energy">    548.63177430 </i>
    <i name="e_wo_entrp">    548.63680925 </i>
    <i name="e_0_energy">    548.63429178 </i>
   </energy>
  </scstep>
  <scstep>
   <time name="dav">    0.80    0.80</time>
   <time name="total">    0.80    0.80</time>
   <energy>
    <i name="e_fr_energy">    -39.29854018 </i>
    <i name="e_wo_entrp">    -39.29854018 </i>
    <i name="e_0_energy">    -39.29854018 </i>
   </energy>
  </scstep>
  <scstep>
   <time name="dav">    0.94    0.94</time>
   <time name="total">    0.94    0.94</time>
   <energy>
    <i name="e_fr_energy">   -111.29700362 </i>
    <i name="e_wo_entrp">   -111.29700362 </i>
    <i name="e_0_energy">   -111.29700362 </i>
   </energy>
  </scstep>
  <scstep>
   <time name="dav">    1.18    1.18</time>
   <time name="total">    1.18    1.18</time>
   <energy>
    <i name="e_fr_energy">   -113.91976937 </i>
    <i name="e_wo_entrp">   -113.91976937 </i>
    <i name="e_0_energy">   -113.91976937 </i>
   </energy>
  </scstep>
  <scstep>
   <time name="dav">    1.28    1.28</time>
   <time name="total">    1.32    1.32</time>
   <energy>
    <i name="e_fr_energy">   -113.95607731 </i>
    <i name="e_wo_entrp">   -113.95607731 </i>
    <i name="e_0_energy">   -113.95607731 </i>
   </energy>
  </scstep>
  <scstep>
   <time name="dav">    1.08    1.08</time>
   <time name="total">    1.30    1.30</time>
   <energy>
    <i name="e_fr_energy">   -104.58998662 </i>
    <i name="e_wo_entrp">   -104.58998662 </i>
    <i name="e_0_energy">   -104.58998662 </i>
   </energy>
  </scstep>
  <scstep>
   <time name="dav">    1.16    1.16</time>
   <time name="total">    1.38    1.38</time>
   <energy>
    <i name="e_fr_energy">   -104.62012042 </i>
    <i name="e_wo_entrp">   -104.62012042 </i>
    <i name="e_0_energy">   -104.62012042 </i>
   </energy>
  </scstep>
  <scstep>
   <time name="dav">    0.94    0.94</time>
   <time name="total">    1.15    1.15</time>
   <energy>
    <i name="e_fr_energy">   -104.54737638 </i>
    <i name="e_wo_entrp">   -104.54737638 </i>
    <i name="e_0_energy">   -104.54737638 </i>
   </energy>
  </scstep>
  <scstep>
   <time name="dav">    1.28    1.28</time>
   <time name="total">    1.49    1.49</time>
   <energy>
    <i name="e_fr_energy">   -104.53801960 </i>
    <i name="e_wo_entrp">   -104.53801960 </i>
    <i name="e_0_energy">   -104.53801960 </i>
   </energy>
  </scstep>
  <scstep>
   <time name="dav">    1.26    1.26</time>
   <time name="total">    1.47    1.47</time>
   <energy>
    <i name="e_fr_energy">   -104.54064676 </i>
    <i name="e_wo_entrp">   -104.54064676 </i>
    <i name="e_0_energy">   -104.54064676 </i>
   </energy>
  </scstep>
  <scstep>
   <time name="dav">    1.11    1.11</time>
   <time name="total">    1.32    1.32</time>
   <energy>
    <i name="e_fr_energy">   -104.54573696 </i>
    <i name="e_wo_entrp">   -104.54573696 </i>
    <i name="e_0_energy">   -104.54573696 </i>
   </energy>
  </scstep>
  <scstep>
   <time name="dav">    0.98    0.98</time>
   <time name="total">    1.19    1.19</time>
   <energy>
    <i name="e_fr_energy">   -104.54933382 </i>
    <i name="e_wo_entrp">   -104.54933382 </i>
    <i name="e_0_energy">   -104.54933382 </i>
   </energy>
  </scstep>
  <scstep>
   <time name="dav">    1.12    1.12</time>
   <time name="total">    1.33    1.33</time>
   <energy>
    <i name="e_fr_energy">   -104.55014431 </i>
    <i name="e_wo_entrp">   -104.55014431 </i>
    <i name="e_0_energy">   -104.55014431 </i>
   </energy>
  </scstep>
  <scstep>
   <time name="dav">    0.76    0.76</time>
   <time name="total">    0.97    0.97</time>
   <energy>
    <i name="e_fr_energy">   -104.55049265 </i>
    <i name="e_wo_entrp">   -104.55049265 </i>
    <i name="e_0_energy">   -104.55049265 </i>
   </energy>
  </scstep>
  <scstep>
   <time name="dav">    1.05    1.05</time>
   <time name="total">    1.27    1.27</time>
   <energy>
    <i name="e_fr_energy">   -104.55065955 </i>
    <i name="e_wo_entrp">   -104.55065955 </i>
    <i name="e_0_energy">   -104.55065955 </i>
   </energy>
  </scstep>
  <scstep>
   <time name="dav">    0.91    0.91</time>
   <time name="total">    1.08    1.08</time>
   <energy>
    <i name="alphaZ">     66.50579053 </i>
    <i name="ewald">  -3311.06114051 </i>
    <i name="hartreedc">  -1818.32206074 </i>
    <i name="XCdc">   -727.60864805 </i>
    <i name="pawpsdc">   7835.66513176 </i>
    <i name="pawaedc">  -6833.38422311 </i>
    <i name="eentropy">     -0.00000000 </i>
    <i name="bandstr">   -419.46474428 </i>
    <i name="atom">   5103.11921817 </i>
    <i name="e_fr_energy">   -104.55067623 </i>
    <i name="e_wo_entrp">   -104.55067623 </i>
    <i name="e_0_energy">   -104.55067623 </i>
   </energy>
  </scstep>
  <structure>
   <crystal>
    <varray name="basis" >
     <v>       4.24401182       0.00000000       0.00000000 </v>
     <v>       0.00000000      13.41340877       0.04087212 </v>
     <v>       0.00000000       1.22959264      15.51089389 </v>
    </varray>
    <i name="volume">    882.77017871 </i>
    <varray name="rec_basis" >
     <v>       0.23562611       0.00000000       0.00000000 </v>
     <v>       0.00000000       0.07457028      -0.00591140 </v>
     <v>       0.00000000      -0.00019650       0.06448639 </v>
    </varray>
   </crystal>
   <varray name="positions" >
    <v>       0.25000000       0.56849279       0.81209004 </v>
    <v>       0.75000000       0.43150721       0.18790996 </v>
    <v>       0.75000000       0.82875309       0.62285478 </v>
    <v>       0.25000000       0.17124691       0.37714522 </v>
    <v>       0.25000000       0.94612343       0.87977359 </v>
    <v>       0.75000000       0.05387657       0.12022641 </v>
    <v>       0.25000000       0.83155606       0.27488852 </v>
    <v>       0.75000000       0.16844394       0.72511148 </v>
    <v>       0.75000000       0.73146608       0.05056020 </v>
    <v>       0.25000000       0.26853392       0.94943980 </v>
    <v>       0.75000000       0.60668333       0.42829721 </v>
    <v>       0.25000000       0.39331667       0.57170279 </v>
    <v>       0.25000000       0.45798711       0.39320698 </v>
    <v>       0.75000000       0.54201289       0.60679302 </v>
    <v>       0.25000000       0.59813812       0.03793755 </v>
    <v>       0.75000000       0.40186188       0.96206245 </v>
    <v>       0.75000000       0.98566906       0.29540055 </v>
    <v>       0.25000000       0.01433094       0.70459945 </v>
    <v>       0.75000000       0.79785506       0.86286623 </v>
    <v>       0.25000000       0.20214494       0.13713377 </v>
    <v>       0.25000000       0.75545718       0.45156839 </v>
    <v>       0.75000000       0.24454282       0.54843161 </v>
    <v>       0.75000000       0.69160821       0.24041933 </v>
    <v>       0.25000000       0.30839179       0.75958067 </v>
    <v>       0.25000000       0.90357682       0.08303846 </v>
    <v>       0.75000000       0.09642318       0.91696154 </v>
   </varray>
  </structure>
  <varray name="forces" >
   <v>       0.00000000      -0.24723199       0.41985095 </v>
   <v>       0.00000000       0.24723199      -0.41985095 </v>
   <v>       0.00000000       0.15591765      -0.05873597 </v>
   <v>       0.00000000      -0.15591765       0.05873597 </v>
   <v>       0.00000000      -0.10537521      -0.42548514 </v>
   <v>       0.00000000       0.10537521       0.42548514 </v>
   <v>       0.00000000      -0.11467331       0.18126544 </v>
   <v>       0.00000000       0.11467331      -0.18126544 </v>
   <v>       0.00000000      -0.67935125      -0.07697953 </v>
   <v>       0.00000000       0.67935125       0.07697953 </v>
   <v>       0.00000000       0.03104041       0.24430935 </v>
   <v>       0.00000000      -0.03104041      -0.24430935 </v>
   <v>       0.00000000       0.20976688       0.41261909 </v>
   <v>       0.00000000      -0.20976688      -0.41261909 </v>
   <v>       0.00000000       0.66019229      -0.07143566 </v>
   <v>       0.00000000      -0.66019229       0.07143566 </v>
   <v>       0.00000000       0.15533829      -0.45859274 </v>
   <v>       0.00000000      -0.15533829       0.45859274 </v>
   <v>       0.00000000       0.37342926       0.16561120 </v>
   <v>       0.00000000      -0.37342926      -0.16561120 </v>
   <v>       0.00000000      -0.23723182      -0.12824450 </v>
   <v>       0.00000000       0.23723182       0.12824450 </v>
   <v>       0.00000000       0.36435083       0.00737139 </v>
   <v>       0.00000000      -0.36435083      -0.00737139 </v>
   <v>       0.00000000       0.13203808       0.15797423 </v>
   <v>       0.00000000      -0.13203808      -0.15797423 </v>
  </varray>
  <varray name="stress" >
   <v>     -49.92931585       0.00000000       0.00000000 </v>
   <v>       0.00000000     -54.49915731      -7.22225873 </v>
   <v>       0.00000000      -7.22225885     -58.65204461 </v>
  </varray>
  <energy>
   <i name="e_fr_energy">   -104.55067623 </i>
   <i name="e_wo_entrp">   -104.55067623 </i>
   <i name="e_0_energy">     -0.00000000 </i>
  </energy>
  <time name="totalsc">   20.65   20.89</time>
 </calculation>
 <calculation>
  <scstep>
   <time name="dav">    1.05    1.07</time>
   <time name="total">    1.26    1.32</time>
   <energy>
    <i name="alphaZ">     68.77384243 </i>
    <i name="ewald">  -3347.96063200 </i>
    <i name="hartreedc">  -1839.32922761 </i>
    <i name="XCdc">   -725.33802813 </i>
    <i name="pawpsdc">   7834.80125976 </i>
    <i name="pawaedc">  -6832.51953300 </i>
    <i name="eentropy">     -0.00000000 </i>
    <i name="bandstr">   -367.55123973 </i>
    <i name="atom">   5103.11921817 </i>
    <i name="e_fr_energy">   -106.00434011 </i>
    <i name="e_wo_entrp">   -106.00434011 </i>
    <i name="e_0_energy">   -106.00434011 </i>
   </energy>
  </scstep>
  <scstep>
   <time name="dav">    0.97    0.99</time>
   <time name="total">    1.18    1.20</time>
   <energy>
    <i name="e_fr_energy">   -105.57464321 </i>
    <i name="e_wo_entrp">   -105.57464321 </i>
    <i name="e_0_energy">   -105.57464321 </i>
   </energy>
  </scstep>
  <scstep>
   <time name="dav">    1.23    1.23</time>
   <time name="total">    1.44    1.44</time>
   <energy>
    <i name="e_fr_energy">   -105.51804591 </i>
    <i name="e_wo_entrp">   -105.51804591 </i>
    <i name="e_0_energy">   -105.51804591 </i>
   </energy>
  </scstep>
  <scstep>
   <time name="dav">    1.21    1.21</time>
   <time name="total">    1.43    1.43</time>
   <energy>
    <i name="e_fr_energy">   -105.50933082 </i>
    <i name="e_wo_entrp">   -105.50933082 </i>
    <i name="e_0_energy">   -105.50933082 </i>
   </energy>
  </scstep>
  <scstep>
   <time name="dav">    1.00    1.00</time>
   <time name="total">    1.21    1.21</time>
   <energy>
    <i name="e_fr_energy">   -105.50653038 </i>
    <i name="e_wo_entrp">   -105.50653038 </i>
    <i name="e_0_energy">   -105.50653038 </i>
   </energy>
  </scstep>
  <scstep>
   <time name="dav">    1.19    1.19</time>
   <time name="total">    1.40    1.40</time>
   <energy>
    <i name="e_fr_energy">   -105.50489097 </i>
    <i name="e_wo_entrp">   -105.50489097 </i>
    <i name="e_0_energy">   -105.50489097 </i>
   </energy>
  </scstep>
  <scstep>
   <time name="dav">    1.14    1.14</time>
   <time name="total">    1.36    1.36</time>
   <energy>
    <i name="e_fr_energy">   -105.50503710 </i>
    <i name="e_wo_entrp">   -105.50503710 </i>
    <i name="e_0_energy">   -105.50503710 </i>
   </energy>
  </scstep>
  <scstep>
   <time name="dav">    0.85    0.85</time>
   <time name="total">    1.02    1.02</time>
   <energy>
    <i name="alphaZ">     68.77384243 </i>
    <i name="ewald">  -3347.96063200 </i>
    <i name="hartreedc">  -1806.71705767 </i>
    <i name="XCdc">   -726.24996662 </i>
    <i name="pawpsdc">   8021.28728634 </i>
    <i name="pawaedc">  -7019.31400401 </i>
    <i name="eentropy">     -0.00000000 </i>
    <i name="bandstr">   -398.44372488 </i>
    <i name="atom">   5103.11921817 </i>
    <i name="e_fr_energy">   -105.50503826 </i>
    <i name="e_wo_entrp">   -105.50503826 </i>
    <i name="e_0_energy">   -105.50503826 </i>
   </energy>
  </scstep>
  <structure>
   <crystal>
    <varray name="basis" >
     <v>       4.20068497       0.00000000       0.00000000 </v>
     <v>       0.00000000      13.26387847       0.02057412 </v>
     <v>       0.00000000       1.19298566      15.32306444 </v>
    </varray>
    <i name="volume">    853.65782271 </i>
    <varray name="rec_basis" >
     <v>       0.23805641       0.00000000       0.00000000 </v>
     <v>       0.00000000       0.07540184      -0.00587045 </v>
     <v>       0.00000000      -0.00010124       0.06526898 </v>
    </varray>
   </crystal>
   <varray name="positions" >
    <v>       0.25000000       0.56829096       0.81235174 </v>
    <v>       0.75000000       0.43170904       0.18764826 </v>
    <v>       0.75000000       0.82886862       0.62281794 </v>
    <v>       0.25000000       0.17113138       0.37718206 </v>
    <v>       0.25000000       0.94607188       0.87950905 </v>
    <v>       0.75000000       0.05392812       0.12049095 </v>
    <v>       0.25000000       0.83146321       0.27500152 </v>
    <v>       0.75000000       0.16853679       0.72499848 </v>
    <v>       0.75000000       0.73098168       0.05051359 </v>
    <v>       0.25000000       0.26901832       0.94948641 </v>
    <v>       0.75000000       0.60669173       0.42844916 </v>
    <v>       0.25000000       0.39330827       0.57155084 </v>
    <v>       0.25000000       0.45811450       0.39346331 </v>
    <v>       0.75000000       0.54188550       0.60653669 </v>
    <v>       0.25000000       0.59861720       0.03789185 </v>
    <v>       0.75000000       0.40138280       0.96210815 </v>
    <v>       0.75000000       0.98580698       0.29511492 </v>
    <v>       0.25000000       0.01419302       0.70488508 </v>
    <v>       0.75000000       0.79811429       0.86296857 </v>
    <v>       0.25000000       0.20188571       0.13703143 </v>
    <v>       0.25000000       0.75529381       0.45148905 </v>
    <v>       0.75000000       0.24470619       0.54851095 </v>
    <v>       0.75000000       0.69186994       0.24042323 </v>
    <v>       0.25000000       0.30813006       0.75957677 </v>
    <v>       0.25000000       0.90366281       0.08313650 </v>
    <v>       0.75000000       0.09633719       0.91686350 </v>
   </varray>
  </structure>
  <varray name="forces" >
   <v>       0.00000000      -0.23729152       0.42156225 </v>
   <v>       0.00000000       0.23729152      -0.42156225 </v>
   <v>       0.00000000       0.15919632      -0.05509817 </v>
   <v>       0.00000000      -0.15919632       0.05509817 </v>
   <v>       0.00000000      -0.10545043      -0.29111436 </v>
   <v>       0.00000000       0.10545043       0.29111436 </v>
   <v>       0.00000000      -0.03968406       0.14258040 </v>
   <v>       0.00000000       0.03968406      -0.14258040 </v>
   <v>       0.00000000      -0.48654404      -0.06954158 </v>
   <v>       0.00000000       0.48654404       0.06954158 </v>
   <v>       0.00000000       0.02049738       0.16617841 </v>
   <v>       0.00000000      -0.02049738      -0.16617841 </v>
   <v>       0.00000000       0.08496068       0.23378849 </v>
   <v>       0.00000000      -0.08496068      -0.23378849 </v>
   <v>       0.00000000       0.40253959      -0.11243603 </v>
   <v>       0.00000000      -0.40253959       0.11243603 </v>
   <v>       0.00000000       0.25573923      -0.22738724 </v>
   <v>       0.00000000      -0.25573923       0.22738724 </v>
   <v>       0.00000000       0.18469806       0.01045891 </v>
   <v>       0.00000000      -0.18469806      -0.01045891 </v>
   <v>       0.00000000      -0.14996877       0.09531281 </v>
   <v>       0.00000000       0.14996877      -0.09531281 </v>
   <v>       0.00000000       0.18691803      -0.00857316 </v>
   <v>       0.00000000      -0.18691803       0.00857316 </v>
   <v>       0.00000000       0.08851143       0.14163253 </v>
   <v>       0.00000000      -0.08851143      -0.14163253 </v>
  </varray>
  <varray name="stress" >
   <v>     -39.91100160       0.00000000       0.00000000 </v>
   <v>       0.00000000     -44.64785216      -7.42142825 </v>
   <v>       0.00000000      -7.42142815     -48.94880481 </v>
  </varray>
  <energy>
   <i name="e_fr_energy">   -105.50503826 </i>
   <i name="e_wo_entrp">   -105.50503826 </i>
   <i name="e_0_energy">     -0.00000000 </i>
  </energy>
  <time name="totalsc">   11.69   11.87</time>
 </calculation>
 <calculation>
  <scstep>
   <time name="dav">    1.13    1.16</time>
   <time name="total">    1.35    1.42</time>
   <energy>
    <i name="alphaZ">     74.59799244 </i>
    <i name="ewald">  -3439.40181654 </i>
    <i name="hartreedc">  -1857.29045196 </i>
    <i name="XCdc">   -720.70573453 </i>
    <i name="pawpsdc">   8019.64250325 </i>
    <i name="pawaedc">  -7017.66141822 </i>
    <i name="eentropy">     -0.00000000 </i>
    <i name="bandstr">   -271.98681131 </i>
    <i name="atom">   5103.11921817 </i>
    <i name="e_fr_energy">   -109.68651870 </i>
    <i name="e_wo_entrp">   -109.68651870 </i>
    <i name="e_0_energy">   -109.68651870 </i>
   </energy>
  </scstep>
  <scstep>
   <time name="dav">    1.11    1.13</time>
   <time name="total">    1.32    1.34</time>
   <energy>
    <i name="e_fr_energy">   -107.21382587 </i>
    <i name="e_wo_entrp">   -107.21382587 </i>
    <i name="e_0_energy">   -107.21382587 </i>
   </energy>
  </scstep>
  <scstep>
   <time name="dav">    0.95    0.95</time>
   <time name="total">    1.15    1.16</time>
   <energy>
    <i name="e_fr_energy">   -106.87415791 </i>
    <i name="e_wo_entrp">   -106.87415791 </i>
    <i name="e_0_energy">   -106.87415791 </i>
   </energy>
  </scstep>
  <scstep>
   <time name="dav">    1.16    1.17</time>
   <time name="total">    1.36    1.38</time>
   <energy>
    <i name="e_fr_energy">   -106.83413685 </i>
    <i name="e_wo_entrp">   -106.83413685 </i>
    <i name="e_0_energy">   -106.83413685 </i>
   </energy>
  </scstep>
  <scstep>
   <time name="dav">    1.26    1.27</time>
   <time name="total">    1.47    1.48</time>
   <energy>
    <i name="e_fr_energy">   -106.81538818 </i>
    <i name="e_wo_entrp">   -106.81538818 </i>
    <i name="e_0_energy">   -106.81538818 </i>
   </energy>
  </scstep>
  <scstep>
   <time name="dav">    1.28    1.29</time>
   <time name="total">    1.49    1.50</time>
   <energy>
    <i name="e_fr_energy">   -106.80461735 </i>
    <i name="e_wo_entrp">   -106.80461735 </i>
    <i name="e_0_energy">   -106.80461735 </i>
   </energy>
  </scstep>
  <scstep>
   <time name="dav">    0.92    0.92</time>
   <time name="total">    1.12    1.12</time>
   <energy>
    <i name="e_fr_energy">   -106.80524708 </i>
    <i name="e_wo_entrp">   -106.80524708 </i>
    <i name="e_0_energy">   -106.80524708 </i>
   </energy>
  </scstep>
  <scstep>
   <time name="dav">    0.75    0.75</time>
   <time name="total">    0.91    0.92</time>
   <energy>
    <i name="alphaZ">     74.59799244 </i>
    <i name="ewald">  -3439.40181654 </i>
    <i name="hartreedc">  -1778.36756284 </i>
    <i name="XCdc">   -722.82037198 </i>
    <i name="pawpsdc">   8589.50112248 </i>
    <i name="pawaedc">  -7588.39569378 </i>
    <i name="eentropy">     -0.00000000 </i>
    <i name="bandstr">   -345.03810569 </i>
    <i name="atom">   5103.11921817 </i>
    <i name="e_fr_energy">   -106.80521774 </i>
    <i name="e_wo_entrp">   -106.80521774 </i>
    <i name="e_0_energy">   -106.80521774 </i>
   </energy>
  </scstep>
  <structure>
   <crystal>
    <varray name="basis" >
     <v>       4.09767828       0.00000000       0.00000000 </v>
     <v>       0.00000000      12.90838020      -0.02768301 </v>
     <v>       0.00000000       1.10595500      14.87651250 </v>
    </varray>
    <i name="volume">    787.00949805 </i>
    <varray name="rec_basis" >
     <v>       0.24404063       0.00000000       0.00000000 </v>
     <v>       0.00000000       0.07745670      -0.00575831 </v>
     <v>       0.00000000       0.00014414       0.06720934 </v>
    </varray>
   </crystal>
   <varray name="positions" >
    <v>       0.25000000       0.56780681       0.81298091 </v>
    <v>       0.75000000       0.43219319       0.18701909 </v>
    <v>       0.75000000       0.82914621       0.62272964 </v>
    <v>       0.25000000       0.17085379       0.37727036 </v>
    <v>       0.25000000       0.94594692       0.87887227 </v>
    <v>       0.75000000       0.05405308       0.12112773 </v>
    <v>       0.25000000       0.83124046       0.27527318 </v>
    <v>       0.75000000       0.16875954       0.72472682 </v>
    <v>       0.75000000       0.72981703       0.05039992 </v>
    <v>       0.25000000       0.27018297       0.94960008 </v>
    <v>       0.75000000       0.60671252       0.42881487 </v>
    <v>       0.25000000       0.39328748       0.57118513 </v>
    <v>       0.25000000       0.45842176       0.39408059 </v>
    <v>       0.75000000       0.54157824       0.60591941 </v>
    <v>       0.25000000       0.59976870       0.03778337 </v>
    <v>       0.75000000       0.40023130       0.96221663 </v>
    <v>       0.75000000       0.98613741       0.29442796 </v>
    <v>       0.25000000       0.01386259       0.70557204 </v>
    <v>       0.75000000       0.79873788       0.86321565 </v>
    <v>       0.25000000       0.20126212       0.13678435 </v>
    <v>       0.25000000       0.75490076       0.45129759 </v>
    <v>       0.75000000       0.24509924       0.54870241 </v>
    <v>       0.75000000       0.69249913       0.24043342 </v>
    <v>       0.25000000       0.30750087       0.75956658 </v>
    <v>       0.25000000       0.90386991       0.08337271 </v>
    <v>       0.75000000       0.09613009       0.91662729 </v>
   </varray>
  </structure>
  <varray name="forces" >
   <v>       0.00000000      -0.20780573       0.42058950 </v>
   <v>       0.00000000       0.20780573      -0.42058950 </v>
   <v>       0.00000000       0.16506602      -0.04183162 </v>
   <v>       0.00000000      -0.16506602       0.04183162 </v>
   <v>       0.00000000      -0.11197084       0.06733619 </v>
   <v>       0.00000000       0.11197084      -0.06733619 </v>
   <v>       0.00000000       0.13620229       0.02319783 </v>
   <v>       0.00000000      -0.13620229      -0.02319783 </v>
   <v>       0.00000000       0.02617377      -0.03340133 </v>
   <v>       0.00000000      -0.02617377       0.03340133 </v>
   <v>       0.00000000       0.04808329      -0.06636287 </v>
   <v>       0.00000000      -0.04808329       0.06636287 </v>
   <v>       0.00000000      -0.27112194      -0.38512847 </v>
   <v>       0.00000000       0.27112194       0.38512847 </v>
   <v>       0.00000000      -0.36406627      -0.19829795 </v>
   <v>       0.00000000       0.36406627       0.19829795 </v>
   <v>       0.00000000       0.56787044       0.42217153 </v>
   <v>       0.00000000      -0.56787044      -0.42217153 </v>
   <v>       0.00000000      -0.32058522      -0.39010148 </v>
   <v>       0.00000000       0.32058522       0.39010148 </v>
   <v>       0.00000000       0.21172224       0.66941151 </v>
   <v>       0.00000000      -0.21172224      -0.66941151 </v>
   <v>       0.00000000      -0.33665908      -0.06638906 </v>
   <v>       0.00000000       0.33665908       0.06638906 </v>
   <v>       0.00000000      -0.04100621       0.02202777 </v>
   <v>       0.00000000       0.04100621      -0.02202777 </v>
  </varray>
  <varray name="stress" >
   <v>      -6.73387491       0.00000000       0.00000000 </v>
   <v>       0.00000000     -14.02018240      -9.37836857 </v>
   <v>       0.00000000      -9.37836959     -17.25107694 </v>
  </varray>
  <energy>
   <i name="e_fr_energy">   -106.80521774 </i>
   <i name="e_wo_entrp">   -106.80521774 </i>
   <i name="e_0_energy">     -0.00000000 </i>
  </energy>
  <time name="totalsc">   11.59   11.82</time>
 </calculation>
 <calculation>
  <scstep>
   <time name="dav">    1.22    1.24</time>
   <time name="total">    1.45    1.50</time>
   <energy>
    <i name="alphaZ">     76.70400181 </i>
    <i name="ewald">  -3471.31635172 </i>
    <i name="hartreedc">  -1795.11418203 </i>
    <i name="XCdc">   -720.93525002 </i>
    <i name="pawpsdc">   8588.52079641 </i>
    <i name="pawaedc">  -7587.38585511 </i>
    <i name="eentropy">     -0.00000000 </i>
    <i name="bandstr">   -300.80234939 </i>
    <i name="atom">   5103.11921817 </i>
    <i name="e_fr_energy">   -107.20997189 </i>
    <i name="e_wo_entrp">   -107.20997189 </i>
    <i name="e_0_energy">   -107.20997189 </i>
   </energy>
  </scstep>
  <scstep>
   <time name="dav">    1.10    1.11</time>
   <time name="total">    1.31    1.33</time>
   <energy>
    <i name="e_fr_energy">   -106.93034463 </i>
    <i name="e_wo_entrp">   -106.93034463 </i>
    <i name="e_0_energy">   -106.93034463 </i>
   </energy>
  </scstep>
  <scstep>
   <time name="dav">    0.91    0.91</time>
   <time name="total">    1.12    1.12</time>
   <energy>
    <i name="e_fr_energy">   -106.88918010 </i>
    <i name="e_wo_entrp">   -106.88918010 </i>
    <i name="e_0_energy">   -106.88918010 </i>
   </energy>
  </scstep>
  <scstep>
   <time name="dav">    1.32    1.32</time>
   <time name="total">    1.52    1.52</time>
   <energy>
    <i name="e_fr_energy">   -106.88360794 </i>
    <i name="e_wo_entrp">   -106.88360794 </i>
    <i name="e_0_energy">   -106.88360794 </i>
   </energy>
  </scstep>
  <scstep>
   <time name="dav">    1.29    1.29</time>
   <time name="total">    1.50    1.50</time>
   <energy>
    <i name="e_fr_energy">   -106.88186341 </i>
    <i name="e_wo_entrp">   -106.88186341 </i>
    <i name="e_0_energy">   -106.88186341 </i>
   </energy>
  </scstep>
  <scstep>
   <time name="dav">    1.09    1.09</time>
   <time name="total">    1.30    1.30</time>
   <energy>
    <i name="e_fr_energy">   -106.88105150 </i>
    <i name="e_wo_entrp">   -106.88105150 </i>
    <i name="e_0_energy">   -106.88105150 </i>
   </energy>
  </scstep>
  <scstep>
   <time name="dav">    1.04    1.04</time>
   <time name="total">    1.21    1.21</time>
   <energy>
    <i name="alphaZ">     76.70400181 </i>
    <i name="ewald">  -3471.31635172 </i>
    <i name="hartreedc">  -1768.61938898 </i>
    <i name="XCdc">   -721.61707984 </i>
    <i name="pawpsdc">   8818.59594261 </i>
    <i name="pawaedc">  -7817.81190196 </i>
    <i name="eentropy">     -0.00000000 </i>
    <i name="bandstr">   -325.93556138 </i>
    <i name="atom">   5103.11921817 </i>
    <i name="e_fr_energy">   -106.88112130 </i>
    <i name="e_wo_entrp">   -106.88112130 </i>
    <i name="e_0_energy">   -106.88112130 </i>
   </energy>
  </scstep>
  <structure>
   <crystal>
    <varray name="basis" >
     <v>       4.06304816       0.00000000       0.00000000 </v>
     <v>       0.00000000      12.78886417      -0.04390671 </v>
     <v>       0.00000000       1.07669590      14.72638487 </v>
    </varray>
    <i name="volume">    765.40111603 </i>
    <varray name="rec_basis" >
     <v>       0.24612064       0.00000000       0.00000000 </v>
     <v>       0.00000000       0.07817340      -0.00571552 </v>
     <v>       0.00000000       0.00023307       0.06788829 </v>
    </varray>
   </crystal>
   <varray name="positions" >
    <v>       0.25000000       0.56764048       0.81319825 </v>
    <v>       0.75000000       0.43235952       0.18680175 </v>
    <v>       0.75000000       0.82924195       0.62269937 </v>
    <v>       0.25000000       0.17075805       0.37730063 </v>
    <v>       0.25000000       0.94590287       0.87865162 </v>
    <v>       0.75000000       0.05409713       0.12134838 </v>
    <v>       0.25000000       0.83116392       0.27536700 </v>
    <v>       0.75000000       0.16883608       0.72463300 </v>
    <v>       0.75000000       0.72941465       0.05035926 </v>
    <v>       0.25000000       0.27058535       0.94964074 </v>
    <v>       0.75000000       0.60672021       0.42894153 </v>
    <v>       0.25000000       0.39327979       0.57105847 </v>
    <v>       0.25000000       0.45852873       0.39429469 </v>
    <v>       0.75000000       0.54147127       0.60570531 </v>
    <v>       0.25000000       0.60016623       0.03774707 </v>
    <v>       0.75000000       0.39983377       0.96225293 </v>
    <v>       0.75000000       0.98625057       0.29419044 </v>
    <v>       0.25000000       0.01374943       0.70580956 </v>
    <v>       0.75000000       0.79895359       0.86330190 </v>
    <v>       0.25000000       0.20104641       0.13669810 </v>
    <v>       0.25000000       0.75476474       0.45123086 </v>
    <v>       0.75000000       0.24523526       0.54876914 </v>
    <v>       0.75000000       0.69271645       0.24043764 </v>
    <v>       0.25000000       0.30728355       0.75956236 </v>
    <v>       0.25000000       0.90394177       0.08345474 </v>
    <v>       0.75000000       0.09605823       0.91654526 </v>
   </varray>
  </structure>
  <varray name="forces" >
   <v>       0.00000000      -0.19572465       0.41937026 </v>
   <v>       0.00000000       0.19572465      -0.41937026 </v>
   <v>       0.00000000       0.16655755      -0.03528179 </v>
   <v>       0.00000000      -0.16655755       0.03528179 </v>
   <v>       0.00000000      -0.12416426       0.17411199 </v>
   <v>       0.00000000       0.12416426      -0.17411199 </v>
   <v>       0.00000000       0.22919390       0.01929714 </v>
   <v>       0.00000000      -0.22919390      -0.01929714 </v>
   <v>       0.00000000       0.22263781      -0.06384961 </v>
   <v>       0.00000000      -0.22263781       0.06384961 </v>
   <v>       0.00000000       0.06666418      -0.15505101 </v>
   <v>       0.00000000      -0.06666418       0.15505101 </v>
   <v>       0.00000000      -0.39749050      -0.61970179 </v>
   <v>       0.00000000       0.39749050       0.61970179 </v>
   <v>       0.00000000      -0.67123281      -0.24679861 </v>
   <v>       0.00000000       0.67123281       0.24679861 </v>
   <v>       0.00000000       0.65660712       0.69272607 </v>
   <v>       0.00000000      -0.65660712      -0.69272607 </v>
   <v>       0.00000000      -0.51620232      -0.58503856 </v>
   <v>       0.00000000       0.51620232       0.58503856 </v>
   <v>       0.00000000       0.34720252       0.91832209 </v>
   <v>       0.00000000      -0.34720252      -0.91832209 </v>
   <v>       0.00000000      -0.47135368      -0.09633016 </v>
   <v>       0.00000000       0.47135368       0.09633016 </v>
   <v>       0.00000000      -0.07506792      -0.02211158 </v>
   <v>       0.00000000       0.07506792       0.02211158 </v>
  </varray>
  <varray name="stress" >
   <v>       7.81416035       0.00000000       0.00000000 </v>
   <v>       0.00000000      -0.72554069     -10.25297498 </v>
   <v>       0.00000000     -10.25297522      -3.34167458 </v>
  </varray>
  <energy>
   <i name="e_fr_energy">   -106.88112130 </i>
   <i name="e_wo_entrp">   -106.88112130 </i>
   <i name="e_0_energy">     -0.00000000 </i>
  </energy>
  <time name="totalsc">   10.77   11.02</time>
 </calculation>
 <calculation>
  <scstep>
   <time name="dav">    1.04    1.04</time>
   <time name="total">    1.27    1.30</time>
   <energy>
    <i name="alphaZ">     76.41498148 </i>
    <i name="ewald">  -3466.97249726 </i>
    <i name="hartreedc">  -1766.27521497 </i>
    <i name="XCdc">   -721.87817724 </i>
    <i name="pawpsdc">   8817.23136897 </i>
    <i name="pawaedc">  -7816.44555968 </i>
    <i name="eentropy">     -0.00000000 </i>
    <i name="bandstr">   -332.08285921 </i>
    <i name="atom">   5103.11921817 </i>
    <i name="e_fr_energy">   -106.88873975 </i>
    <i name="e_wo_entrp">   -106.88873975 </i>
    <i name="e_0_energy">   -106.88873975 </i>
   </energy>
  </scstep>
  <scstep>
   <time name="dav">    1.20    1.20</time>
   <time name="total">    1.41    1.41</time>
   <energy>
    <i name="e_fr_energy">   -106.88375081 </i>
    <i name="e_wo_entrp">   -106.88375081 </i>
    <i name="e_0_energy">   -106.88375081 </i>
   </energy>
  </scstep>
  <scstep>
   <time name="dav">    1.16    1.16</time>
   <time name="total">    1.37    1.37</time>
   <energy>
    <i name="e_fr_energy">   -106.88298257 </i>
    <i name="e_wo_entrp">   -106.88298257 </i>
    <i name="e_0_energy">   -106.88298257 </i>
   </energy>
  </scstep>
  <scstep>
   <time name="dav">    0.81    0.81</time>
   <time name="total">    1.02    1.02</time>
   <energy>
    <i name="e_fr_energy">   -106.88284060 </i>
    <i name="e_wo_entrp">   -106.88284060 </i>
    <i name="e_0_energy">   -106.88284060 </i>
   </energy>
  </scstep>
  <scstep>
   <time name="dav">    0.78    0.78</time>
   <time name="total">    0.95    0.95</time>
   <energy>
    <i name="alphaZ">     76.41498148 </i>
    <i name="ewald">  -3466.97249726 </i>
    <i name="hartreedc">  -1769.63322574 </i>
    <i name="XCdc">   -721.79316121 </i>
    <i name="pawpsdc">   8773.25944140 </i>
    <i name="pawaedc">  -7772.42804206 </i>
    <i name="eentropy">     -0.00000000 </i>
    <i name="bandstr">   -328.84950437 </i>
    <i name="atom">   5103.11921817 </i>
    <i name="e_fr_energy">   -106.88278960 </i>
    <i name="e_wo_entrp">   -106.88278960 </i>
    <i name="e_0_energy">   -106.88278960 </i>
   </energy>
  </scstep>
  <structure>
   <crystal>
    <varray name="basis" >
     <v>       4.06772482       0.00000000       0.00000000 </v>
     <v>       0.00000000      12.80500434      -0.04171577 </v>
     <v>       0.00000000       1.08064723      14.74665901 </v>
    </varray>
    <i name="volume">    768.29605208 </i>
    <varray name="rec_basis" >
     <v>       0.24583767       0.00000000       0.00000000 </v>
     <v>       0.00000000       0.07807583      -0.00572146 </v>
     <v>       0.00000000       0.00022086       0.06779579 </v>
    </varray>
   </crystal>
   <varray name="positions" >
    <v>       0.25000000       0.56766311       0.81316862 </v>
    <v>       0.75000000       0.43233689       0.18683138 </v>
    <v>       0.75000000       0.82922891       0.62270348 </v>
    <v>       0.25000000       0.17077109       0.37729652 </v>
    <v>       0.25000000       0.94590891       0.87868173 </v>
    <v>       0.75000000       0.05409109       0.12131827 </v>
    <v>       0.25000000       0.83117433       0.27535421 </v>
    <v>       0.75000000       0.16882567       0.72464579 </v>
    <v>       0.75000000       0.72946950       0.05036487 </v>
    <v>       0.25000000       0.27053050       0.94963513 </v>
    <v>       0.75000000       0.60671914       0.42892425 </v>
    <v>       0.25000000       0.39328086       0.57107575 </v>
    <v>       0.25000000       0.45851411       0.39426547 </v>
    <v>       0.75000000       0.54148589       0.60573453 </v>
    <v>       0.25000000       0.60011206       0.03775196 </v>
    <v>       0.75000000       0.39988794       0.96224804 </v>
    <v>       0.75000000       0.98623519       0.29422283 </v>
    <v>       0.25000000       0.01376481       0.70577717 </v>
    <v>       0.75000000       0.79892418       0.86329010 </v>
    <v>       0.25000000       0.20107582       0.13670990 </v>
    <v>       0.25000000       0.75478329       0.45123998 </v>
    <v>       0.75000000       0.24521671       0.54876002 </v>
    <v>       0.75000000       0.69268683       0.24043703 </v>
    <v>       0.25000000       0.30731317       0.75956297 </v>
    <v>       0.25000000       0.90393196       0.08344354 </v>
    <v>       0.75000000       0.09606804       0.91655646 </v>
   </varray>
  </structure>
  <varray name="forces" >
   <v>       0.00000000      -0.19735832       0.41937776 </v>
   <v>       0.00000000       0.19735832      -0.41937776 </v>
   <v>       0.00000000       0.16572954      -0.03584414 </v>
   <v>       0.00000000      -0.16572954       0.03584414 </v>
   <v>       0.00000000      -0.11002645       0.16664954 </v>
   <v>       0.00000000       0.11002645      -0.16664954 </v>
   <v>       0.00000000       0.20913855       0.02141895 </v>
   <v>       0.00000000      -0.20913855      -0.02141895 </v>
   <v>       0.00000000       0.19884822      -0.03877919 </v>
   <v>       0.00000000      -0.19884822       0.03877919 </v>
   <v>       0.00000000       0.05501459      -0.14895298 </v>
   <v>       0.00000000      -0.05501459       0.14895298 </v>
   <v>       0.00000000      -0.39575837      -0.58873175 </v>
   <v>       0.00000000       0.39575837       0.58873175 </v>
   <v>       0.00000000      -0.62199599      -0.24173204 </v>
   <v>       0.00000000       0.62199599       0.24173204 </v>
   <v>       0.00000000       0.64457265       0.65698708 </v>
   <v>       0.00000000      -0.64457265      -0.65698708 </v>
   <v>       0.00000000      -0.47521773      -0.54742766 </v>
   <v>       0.00000000       0.47521773       0.54742766 </v>
   <v>       0.00000000       0.33501298       0.87569359 </v>
   <v>       0.00000000      -0.33501298      -0.87569359 </v>
   <v>       0.00000000      -0.45321012      -0.09003907 </v>
   <v>       0.00000000       0.45321012       0.09003907 </v>
   <v>       0.00000000      -0.06689034      -0.01518848 </v>
   <v>       0.00000000       0.06689034       0.01518848 </v>
  </varray>
  <varray name="stress" >
   <v>       5.84788243       0.00000000       0.00000000 </v>
   <v>       0.00000000      -2.30431958      -9.98900324 </v>
   <v>       0.00000000      -9.98900418      -4.98938787 </v>
  </varray>
  <energy>
   <i name="e_fr_energy">   -106.88278960 </i>
   <i name="e_wo_entrp">   -106.88278960 </i>
   <i name="e_0_energy">     -0.00000000 </i>
  </energy>
  <time name="totalsc">    7.41    7.60</time>
 </calculation>
 <calculation>
  <scstep>
   <time name="dav">    1.05    1.07</time>
   <time name="total">    1.28    1.32</time>
   <energy>
    <i name="alphaZ">     76.83521789 </i>
    <i name="ewald">  -3500.34067849 </i>
    <i name="hartreedc">  -1748.41667449 </i>
    <i name="XCdc">   -721.55730346 </i>
    <i name="pawpsdc">   8779.30303701 </i>
    <i name="pawaedc">  -7778.46397499 </i>
    <i name="eentropy">     -0.00000000 </i>
    <i name="bandstr">   -317.52794450 </i>
    <i name="atom">   5103.11921817 </i>
    <i name="e_fr_energy">   -107.04910286 </i>
    <i name="e_wo_entrp">   -107.04910286 </i>
    <i name="e_0_energy">   -107.04910286 </i>
   </energy>
  </scstep>
  <scstep>
   <time name="dav">    1.06    1.06</time>
   <time name="total">    1.28    1.28</time>
   <energy>
    <i name="e_fr_energy">   -107.04218376 </i>
    <i name="e_wo_entrp">   -107.04218376 </i>
    <i name="e_0_energy">   -107.04218376 </i>
   </energy>
  </scstep>
  <scstep>
   <time name="dav">    0.96    0.96</time>
   <time name="total">    1.17    1.17</time>
   <energy>
    <i name="e_fr_energy">   -107.03617695 </i>
    <i name="e_wo_entrp">   -107.03617695 </i>
    <i name="e_0_energy">   -107.03617695 </i>
   </energy>
  </scstep>
  <scstep>
   <time name="dav">    1.15    1.15</time>
   <time name="total">    1.36    1.36</time>
   <energy>
    <i name="e_fr_energy">   -107.03331603 </i>
    <i name="e_wo_entrp">   -107.03331603 </i>
    <i name="e_0_energy">   -107.03331603 </i>
   </energy>
  </scstep>
  <scstep>
   <time name="dav">    1.25    1.26</time>
   <time name="total">    1.46    1.47</time>
   <energy>
    <i name="e_fr_energy">   -107.03315391 </i>
    <i name="e_wo_entrp">   -107.03315391 </i>
    <i name="e_0_energy">   -107.03315391 </i>
   </energy>
  </scstep>
  <scstep>
   <time name="dav">    1.04    1.04</time>
   <time name="total">    1.21    1.21</time>
   <energy>
    <i name="alphaZ">     76.83521789 </i>
    <i name="ewald">  -3500.34067849 </i>
    <i name="hartreedc">  -1740.28311521 </i>
    <i name="XCdc">   -721.73072302 </i>
    <i name="pawpsdc">   8790.77608774 </i>
    <i name="pawaedc">  -7789.93562798 </i>
    <i name="eentropy">     -0.00000000 </i>
    <i name="bandstr">   -325.47346876 </i>
    <i name="atom">   5103.11921817 </i>
    <i name="e_fr_energy">   -107.03308966 </i>
    <i name="e_wo_entrp">   -107.03308966 </i>
    <i name="e_0_energy">   -107.03308966 </i>
   </energy>
  </scstep>
  <structure>
   <crystal>
    <varray name="basis" >
     <v>       4.06826495       0.00000000       0.00000000 </v>
     <v>       0.00000000      12.77504338      -0.08117687 </v>
     <v>       0.00000000       1.03250706      14.69539699 </v>
    </varray>
    <i name="volume">    764.09399491 </i>
    <varray name="rec_basis" >
     <v>       0.24580503       0.00000000       0.00000000 </v>
     <v>       0.00000000       0.07824269      -0.00549738 </v>
     <v>       0.00000000       0.00043221       0.06801815 </v>
    </varray>
   </crystal>
   <varray name="positions" >
    <v>       0.25000000       0.56735410       0.81365217 </v>
    <v>       0.75000000       0.43264590       0.18634783 </v>
    <v>       0.75000000       0.82945186       0.62266045 </v>
    <v>       0.25000000       0.17054814       0.37733955 </v>
    <v>       0.25000000       0.94575185       0.87881507 </v>
    <v>       0.75000000       0.05424815       0.12118493 </v>
    <v>       0.25000000       0.83141206       0.27539547 </v>
    <v>       0.75000000       0.16858794       0.72460453 </v>
    <v>       0.75000000       0.72963780       0.05031677 </v>
    <v>       0.25000000       0.27036220       0.94968323 </v>
    <v>       0.75000000       0.60680079       0.42879142 </v>
    <v>       0.25000000       0.39319921       0.57120858 </v>
    <v>       0.25000000       0.45810594       0.39368359 </v>
    <v>       0.75000000       0.54189406       0.60631641 </v>
    <v>       0.25000000       0.59945339       0.03748779 </v>
    <v>       0.75000000       0.40054661       0.96251221 </v>
    <v>       0.75000000       0.98698181       0.29487317 </v>
    <v>       0.25000000       0.01301819       0.70512683 </v>
    <v>       0.75000000       0.79843647       0.86272713 </v>
    <v>       0.25000000       0.20156353       0.13727287 </v>
    <v>       0.25000000       0.75508655       0.45215274 </v>
    <v>       0.75000000       0.24491345       0.54784726 </v>
    <v>       0.75000000       0.69218541       0.24034128 </v>
    <v>       0.25000000       0.30781459       0.75965872 </v>
    <v>       0.25000000       0.90386574       0.08344297 </v>
    <v>       0.75000000       0.09613426       0.91655703 </v>
   </varray>
  </structure>
  <varray name="forces" >
   <v>       0.00000000      -0.18885172       0.41784167 </v>
   <v>       0.00000000       0.18885172      -0.41784167 </v>
   <v>       0.00000000       0.16403860      -0.03765759 </v>
   <v>       0.00000000      -0.16403860       0.03765759 </v>
   <v>       0.00000000      -0.14688766       0.08778709 </v>
   <v>       0.00000000       0.14688766      -0.08778709 </v>
   <v>       0.00000000       0.21607764       0.09818177 </v>
   <v>       0.00000000      -0.21607764      -0.09818177 </v>
   <v>       0.00000000       0.11527015      -0.10573511 </v>
   <v>       0.00000000      -0.11527015       0.10573511 </v>
   <v>       0.00000000       0.05087347      -0.09544513 </v>
   <v>       0.00000000      -0.05087347       0.09544513 </v>
   <v>       0.00000000      -0.35466145      -0.56255787 </v>
   <v>       0.00000000       0.35466145       0.56255787 </v>
   <v>       0.00000000      -0.58076717      -0.24387567 </v>
   <v>       0.00000000       0.58076717       0.24387567 </v>
   <v>       0.00000000       0.62266296       0.61762312 </v>
   <v>       0.00000000      -0.62266296      -0.61762312 </v>
   <v>       0.00000000      -0.46179869      -0.53156297 </v>
   <v>       0.00000000       0.46179869       0.53156297 </v>
   <v>       0.00000000       0.33478737       0.83806513 </v>
   <v>       0.00000000      -0.33478737      -0.83806513 </v>
   <v>       0.00000000      -0.46280665      -0.07593395 </v>
   <v>       0.00000000       0.46280665       0.07593395 </v>
   <v>       0.00000000      -0.08281359      -0.03690125 </v>
   <v>       0.00000000       0.08281359       0.03690125 </v>
  </varray>
  <varray name="stress" >
   <v>       5.54840034       0.00000000       0.00000000 </v>
   <v>       0.00000000      -2.17377153      -9.30898036 </v>
   <v>       0.00000000      -9.30898107      -4.79257505 </v>
  </varray>
  <energy>
   <i name="e_fr_energy">   -107.03308966 </i>
   <i name="e_wo_entrp">   -107.03308966 </i>
   <i name="e_0_energy">     -0.00000000 </i>
  </energy>
  <time name="totalsc">    8.98    9.09</time>
 </calculation>
 <calculation>
  <scstep>
   <time name="dav">    0.82    0.82</time>
   <time name="total">    1.04    1.07</time>
   <energy>
    <i name="alphaZ">     78.12668499 </i>
    <i name="ewald">  -3598.29053828 </i>
    <i name="hartreedc">  -1678.47204903 </i>
    <i name="XCdc">   -721.01023851 </i>
    <i name="pawpsdc">   8786.24384244 </i>
    <i name="pawaedc">  -7785.40499730 </i>
    <i name="eentropy">     -0.00000000 </i>
    <i name="bandstr">   -291.89595900 </i>
    <i name="atom">   5103.11921817 </i>
    <i name="e_fr_energy">   -107.58403653 </i>
    <i name="e_wo_entrp">   -107.58403653 </i>
    <i name="e_0_energy">   -107.58403653 </i>
   </energy>
  </scstep>
  <scstep>
   <time name="dav">    1.22    1.22</time>
   <time name="total">    1.43    1.43</time>
   <energy>
    <i name="e_fr_energy">   -107.51068602 </i>
    <i name="e_wo_entrp">   -107.51068602 </i>
    <i name="e_0_energy">   -107.51068602 </i>
   </energy>
  </scstep>
  <scstep>
   <time name="dav">    1.17    1.17</time>
   <time name="total">    1.39    1.39</time>
   <energy>
    <i name="e_fr_energy">   -107.45504009 </i>
    <i name="e_wo_entrp">   -107.45504009 </i>
    <i name="e_0_energy">   -107.45504009 </i>
   </energy>
  </scstep>
  <scstep>
   <time name="dav">    1.26    1.26</time>
   <time name="total">    1.48    1.48</time>
   <energy>
    <i name="e_fr_energy">   -107.43246014 </i>
    <i name="e_wo_entrp">   -107.43246014 </i>
    <i name="e_0_energy">   -107.43246014 </i>
   </energy>
  </scstep>
  <scstep>
   <time name="dav">    1.03    1.03</time>
   <time name="total">    1.23    1.23</time>
   <energy>
    <i name="e_fr_energy">   -107.43038992 </i>
    <i name="e_wo_entrp">   -107.43038992 </i>
    <i name="e_0_energy">   -107.43038992 </i>
   </energy>
  </scstep>
  <scstep>
   <time name="dav">    1.20    1.20</time>
   <time name="total">    1.41    1.41</time>
   <energy>
    <i name="e_fr_energy">   -107.42958690 </i>
    <i name="e_wo_entrp">   -107.42958690 </i>
    <i name="e_0_energy">   -107.42958690 </i>
   </energy>
  </scstep>
  <scstep>
   <time name="dav">    1.20    1.20</time>
   <time name="total">    1.41    1.41</time>
   <energy>
    <i name="e_fr_energy">   -107.42970995 </i>
    <i name="e_wo_entrp">   -107.42970995 </i>
    <i name="e_0_energy">   -107.42970995 </i>
   </energy>
  </scstep>
  <scstep>
   <time name="dav">    0.89    0.89</time>
   <time name="total">    1.06    1.06</time>
   <energy>
    <i name="alphaZ">     78.12668499 </i>
    <i name="ewald">  -3598.29053828 </i>
    <i name="hartreedc">  -1653.75918967 </i>
    <i name="XCdc">   -721.55349512 </i>
    <i name="pawpsdc">   8788.28197879 </i>
    <i name="pawaedc">  -7787.44416991 </i>
    <i name="eentropy">     -0.00000000 </i>
    <i name="bandstr">   -315.91026441 </i>
    <i name="atom">   5103.11921817 </i>
    <i name="e_fr_energy">   -107.42977544 </i>
    <i name="e_wo_entrp">   -107.42977544 </i>
    <i name="e_0_energy">   -107.42977544 </i>
   </energy>
  </scstep>
  <structure>
   <crystal>
    <varray name="basis" >
     <v>       4.06988532       0.00000000       0.00000000 </v>
     <v>       0.00000000      12.68516051      -0.19956018 </v>
     <v>       0.00000000       0.88808653      14.54161092 </v>
    </varray>
    <i name="volume">    751.46319850 </i>
    <varray name="rec_basis" >
     <v>       0.24570717       0.00000000       0.00000000 </v>
     <v>       0.00000000       0.07875660      -0.00480983 </v>
     <v>       0.00000000       0.00108081       0.06870216 </v>
    </varray>
   </crystal>
   <varray name="positions" >
    <v>       0.25000000       0.56643016       0.81510539 </v>
    <v>       0.75000000       0.43356984       0.18489461 </v>
    <v>       0.75000000       0.83012168       0.62253268 </v>
    <v>       0.25000000       0.16987832       0.37746732 </v>
    <v>       0.25000000       0.94528103       0.87921522 </v>
    <v>       0.75000000       0.05471897       0.12078478 </v>
    <v>       0.25000000       0.83212721       0.27552159 </v>
    <v>       0.75000000       0.16787279       0.72447841 </v>
    <v>       0.75000000       0.73014328       0.05017333 </v>
    <v>       0.25000000       0.26985672       0.94982667 </v>
    <v>       0.75000000       0.60704486       0.42839220 </v>
    <v>       0.25000000       0.39295514       0.57160780 </v>
    <v>       0.25000000       0.45687272       0.39192855 </v>
    <v>       0.75000000       0.54312728       0.60807145 </v>
    <v>       0.25000000       0.59747042       0.03668714 </v>
    <v>       0.75000000       0.40252958       0.96331286 </v>
    <v>       0.75000000       0.98923324       0.29683707 </v>
    <v>       0.25000000       0.01076676       0.70316293 </v>
    <v>       0.75000000       0.79696434       0.86102835 </v>
    <v>       0.25000000       0.20303566       0.13897165 </v>
    <v>       0.25000000       0.75600778       0.45490305 </v>
    <v>       0.75000000       0.24399222       0.54509695 </v>
    <v>       0.75000000       0.69067697       0.24004894 </v>
    <v>       0.25000000       0.30932303       0.75995106 </v>
    <v>       0.25000000       0.90366667       0.08344073 </v>
    <v>       0.75000000       0.09633333       0.91655927 </v>
   </varray>
  </structure>
  <varray name="forces" >
   <v>       0.00000000      -0.16594474       0.41149875 </v>
   <v>       0.00000000       0.16594474      -0.41149875 </v>
   <v>       0.00000000       0.15652878      -0.04329220 </v>
   <v>       0.00000000      -0.15652878       0.04329220 </v>
   <v>       0.00000000      -0.29478400      -0.07046819 </v>
   <v>       0.00000000       0.29478400       0.07046819 </v>
   <v>       0.00000000       0.20694473       0.33164618 </v>
   <v>       0.00000000      -0.20694473      -0.33164618 </v>
   <v>       0.00000000      -0.12693359      -0.19984037 </v>
   <v>       0.00000000       0.12693359       0.19984037 </v>
   <v>       0.00000000      -0.02054918       0.03588768 </v>
   <v>       0.00000000       0.02054918      -0.03588768 </v>
   <v>       0.00000000      -0.34558611      -0.49826281 </v>
   <v>       0.00000000       0.34558611       0.49826281 </v>
   <v>       0.00000000      -0.42524891      -0.29244760 </v>
   <v>       0.00000000       0.42524891       0.29244760 </v>
   <v>       0.00000000       0.57807009       0.56747423 </v>
   <v>       0.00000000      -0.57807009      -0.56747423 </v>
   <v>       0.00000000      -0.41188250      -0.49285593 </v>
   <v>       0.00000000       0.41188250       0.49285593 </v>
   <v>       0.00000000       0.40352333       0.66287363 </v>
   <v>       0.00000000      -0.40352333      -0.66287363 </v>
   <v>       0.00000000      -0.38087896      -0.06447122 </v>
   <v>       0.00000000       0.38087896       0.06447122 </v>
   <v>       0.00000000      -0.05984616      -0.01010149 </v>
   <v>       0.00000000       0.05984616       0.01010149 </v>
  </varray>
  <varray name="stress" >
   <v>       5.17340944       0.00000000       0.00000000 </v>
   <v>       0.00000000      -0.82922553      -7.10916616 </v>
   <v>       0.00000000      -7.10916675      -2.51328052 </v>
  </varray>
  <energy>
   <i name="e_fr_energy">   -107.42977544 </i>
   <i name="e_wo_entrp">   -107.42977544 </i>
   <i name="e_0_energy">     -0.00000000 </i>
  </energy>
  <time name="totalsc">   11.88   12.01</time>
 </calculation>
 <calculation>
  <scstep>
   <time name="dav">    0.88    0.90</time>
   <time name="total">    1.11    1.16</time>
   <energy>
    <i name="alphaZ">     80.85674365 </i>
    <i name="ewald">  -3785.04977610 </i>
    <i name="hartreedc">  -1540.42428850 </i>
    <i name="XCdc">   -720.03800538 </i>
    <i name="pawpsdc">   8788.06685865 </i>
    <i name="pawaedc">  -7787.22923336 </i>
    <i name="eentropy">     -0.00000000 </i>
    <i name="bandstr">   -247.97280388 </i>
    <i name="atom">   5103.11921817 </i>
    <i name="e_fr_energy">   -108.67128674 </i>
    <i name="e_wo_entrp">   -108.67128674 </i>
    <i name="e_0_energy">   -108.67128674 </i>
   </energy>
  </scstep>
  <scstep>
   <time name="dav">    1.11    1.13</time>
   <time name="total">    1.31    1.34</time>
   <energy>
    <i name="e_fr_energy">   -108.32004941 </i>
    <i name="e_wo_entrp">   -108.32004941 </i>
    <i name="e_0_energy">   -108.32004941 </i>
   </energy>
  </scstep>
  <scstep>
   <time name="dav">    1.21    1.21</time>
   <time name="total">    1.41    1.42</time>
   <energy>
    <i name="e_fr_energy">   -108.09648876 </i>
    <i name="e_wo_entrp">   -108.09648876 </i>
    <i name="e_0_energy">   -108.09648876 </i>
   </energy>
  </scstep>
  <scstep>
   <time name="dav">    0.89    0.89</time>
   <time name="total">    1.11    1.11</time>
   <energy>
    <i name="e_fr_energy">   -108.02109672 </i>
    <i name="e_wo_entrp">   -108.02109672 </i>
    <i name="e_0_energy">   -108.02109672 </i>
   </energy>
  </scstep>
  <scstep>
   <time name="dav">    0.95    0.95</time>
   <time name="total">    1.16    1.16</time>
   <energy>
    <i name="e_fr_energy">   -108.01096637 </i>
    <i name="e_wo_entrp">   -108.01096637 </i>
    <i name="e_0_energy">   -108.01096637 </i>
   </energy>
  </scstep>
  <scstep>
   <time name="dav">    1.16    1.16</time>
   <time name="total">    1.36    1.36</time>
   <energy>
    <i name="e_fr_energy">   -108.00567300 </i>
    <i name="e_wo_entrp">   -108.00567300 </i>
    <i name="e_0_energy">   -108.00567300 </i>
   </energy>
  </scstep>
  <scstep>
   <time name="dav">    1.22    1.22</time>
   <time name="total">    1.43    1.43</time>
   <energy>
    <i name="e_fr_energy">   -108.00624675 </i>
    <i name="e_wo_entrp">   -108.00624675 </i>
    <i name="e_0_energy">   -108.00624675 </i>
   </energy>
  </scstep>
  <scstep>
   <time name="dav">    0.98    0.98</time>
   <time name="total">    1.19    1.19</time>
   <energy>
    <i name="e_fr_energy">   -108.00643207 </i>
    <i name="e_wo_entrp">   -108.00643207 </i>
    <i name="e_0_energy">   -108.00643207 </i>
   </energy>
  </scstep>
  <scstep>
   <time name="dav">    0.87    0.87</time>
   <time name="total">    1.05    1.05</time>
   <energy>
    <i name="alphaZ">     80.85674365 </i>
    <i name="ewald">  -3785.04977610 </i>
    <i name="hartreedc">  -1492.11114806 </i>
    <i name="XCdc">   -721.12718092 </i>
    <i name="pawpsdc">   8828.86574958 </i>
    <i name="pawaedc">  -7828.05664857 </i>
    <i name="eentropy">     -0.00000000 </i>
    <i name="bandstr">   -294.50347761 </i>
    <i name="atom">   5103.11921817 </i>
    <i name="e_fr_energy">   -108.00651985 </i>
    <i name="e_wo_entrp">   -108.00651985 </i>
    <i name="e_0_energy">   -108.00651985 </i>
   </energy>
  </scstep>
  <structure>
   <crystal>
    <varray name="basis" >
     <v>       4.07312606       0.00000000       0.00000000 </v>
     <v>       0.00000000      12.50539475      -0.43632679 </v>
     <v>       0.00000000       0.59924549      14.23403878 </v>
    </varray>
    <i name="volume">    726.09068752 </i>
    <varray name="rec_basis" >
     <v>       0.24551167       0.00000000       0.00000000 </v>
     <v>       0.00000000       0.07984820      -0.00336157 </v>
     <v>       0.00000000       0.00244765       0.07015108 </v>
    </varray>
   </crystal>
   <varray name="positions" >
    <v>       0.25000000       0.56460116       0.81802778 </v>
    <v>       0.75000000       0.43539884       0.18197222 </v>
    <v>       0.75000000       0.83146733       0.62228545 </v>
    <v>       0.25000000       0.16853267       0.37771455 </v>
    <v>       0.25000000       0.94434178       0.88001635 </v>
    <v>       0.75000000       0.05565822       0.11998365 </v>
    <v>       0.25000000       0.83356949       0.27578831 </v>
    <v>       0.75000000       0.16643051       0.72421169 </v>
    <v>       0.75000000       0.73115777       0.04989169 </v>
    <v>       0.25000000       0.26884223       0.95010831 </v>
[...]
        <r>  0.0026  0.0013  0.0000 </r>
        <r>  0.0004  0.0549  0.0025 </r>
        <r>  0.0004  0.0549  0.0025 </r>
        <r>  0.0005  0.0283  0.0006 </r>
        <r>  0.0005  0.0283  0.0006 </r>
        <r>  0.0001  0.0564  0.0047 </r>
        <r>  0.0001  0.0564  0.0047 </r>
        <r>  0.0002  0.0306  0.0006 </r>
        <r>  0.0002  0.0306  0.0006 </r>
        <r>  0.0039  0.0088  0.0000 </r>
        <r>  0.0039  0.0088  0.0000 </r>
        <r>  0.0021  0.0188  0.0000 </r>
        <r>  0.0021  0.0188  0.0000 </r>
        <r>  0.0021  0.0152  0.0000 </r>
        <r>  0.0021  0.0152  0.0000 </r>
        <r>  0.0019  0.0261  0.0000 </r>
        <r>  0.0019  0.0261  0.0000 </r>
        <r>  0.0006  0.0107  0.0000 </r>
        <r>  0.0006  0.0107  0.0000 </r>
        <r>  0.0018  0.0028  0.0000 </r>
        <r>  0.0018  0.0028  0.0000 </r>
        <r>  0.0118  0.0009  0.0000 </r>
        <r>  0.0118  0.0009  0.0000 </r>
       </set>
       <set comment="band 70">
        <r>  0.0003  0.0034  0.0000 </r>
        <r>  0.0003  0.0034  0.0000 </r>
        <r>  0.0012  0.0030  0.0000 </r>
        <r>  0.0012  0.0030  0.0000 </r>
        <r>  0.0006  0.0400  0.0015 </r>
        <r>  0.0006  0.0400  0.0015 </r>
        <r>  0.0002  0.0353  0.0003 </r>
        <r>  0.0002  0.0353  0.0003 </r>
        <r>  0.0014  0.0270  0.0024 </r>
        <r>  0.0014  0.0270  0.0024 </r>
        <r>  0.0000  0.0706  0.0007 </r>
        <r>  0.0000  0.0706  0.0007 </r>
        <r>  0.0029  0.0114  0.0000 </r>
        <r>  0.0029  0.0114  0.0000 </r>
        <r>  0.0001  0.0127  0.0000 </r>
        <r>  0.0001  0.0127  0.0000 </r>
        <r>  0.0039  0.0106  0.0000 </r>
        <r>  0.0039  0.0106  0.0000 </r>
        <r>  0.0042  0.0160  0.0000 </r>
        <r>  0.0042  0.0160  0.0000 </r>
        <r>  0.0043  0.0186  0.0000 </r>
        <r>  0.0043  0.0186  0.0000 </r>
        <r>  0.0006  0.0088  0.0000 </r>
        <r>  0.0006  0.0088  0.0000 </r>
        <r>  0.0018  0.0035  0.0000 </r>
        <r>  0.0018  0.0035  0.0000 </r>
       </set>
       <set comment="band 71">
        <r>  0.0004  0.0022  0.0000 </r>
        <r>  0.0004  0.0022  0.0000 </r>
        <r>  0.0014  0.0031  0.0000 </r>
        <r>  0.0014  0.0031  0.0000 </r>
        <r>  0.0002  0.0536  0.0013 </r>
        <r>  0.0002  0.0536  0.0013 </r>
        <r>  0.0008  0.0304  0.0008 </r>
        <r>  0.0008  0.0304  0.0008 </r>
        <r>  0.0004  0.0203  0.0021 </r>
        <r>  0.0004  0.0203  0.0021 </r>
        <r>  0.0001  0.0741  0.0011 </r>
        <r>  0.0001  0.0741  0.0011 </r>
        <r>  0.0034  0.0200  0.0000 </r>
        <r>  0.0034  0.0200  0.0000 </r>
        <r>  0.0004  0.0071  0.0000 </r>
        <r>  0.0004  0.0071  0.0000 </r>
        <r>  0.0051  0.0144  0.0000 </r>
        <r>  0.0051  0.0144  0.0000 </r>
        <r>  0.0011  0.0142  0.0000 </r>
        <r>  0.0011  0.0142  0.0000 </r>
        <r>  0.0025  0.0208  0.0000 </r>
        <r>  0.0025  0.0208  0.0000 </r>
        <r>  0.0007  0.0121  0.0000 </r>
        <r>  0.0007  0.0121  0.0000 </r>
        <r>  0.0005  0.0034  0.0000 </r>
        <r>  0.0005  0.0034  0.0000 </r>
       </set>
       <set comment="band 72">
        <r>  0.0010  0.0020  0.0000 </r>
        <r>  0.0010  0.0020  0.0000 </r>
        <r>  0.0027  0.0019  0.0000 </r>
        <r>  0.0027  0.0019  0.0000 </r>
        <r>  0.0002  0.0432  0.0024 </r>
        <r>  0.0002  0.0432  0.0024 </r>
        <r>  0.0001  0.0686  0.0013 </r>
        <r>  0.0001  0.0686  0.0013 </r>
        <r>  0.0001  0.0518  0.0034 </r>
        <r>  0.0001  0.0518  0.0034 </r>
        <r>  0.0003  0.0416  0.0004 </r>
        <r>  0.0003  0.0416  0.0004 </r>
        <r>  0.0005  0.0113  0.0000 </r>
        <r>  0.0005  0.0113  0.0000 </r>
        <r>  0.0031  0.0159  0.0000 </r>
        <r>  0.0031  0.0159  0.0000 </r>
        <r>  0.0004  0.0098  0.0000 </r>
        <r>  0.0004  0.0098  0.0000 </r>
        <r>  0.0005  0.0116  0.0000 </r>
        <r>  0.0005  0.0116  0.0000 </r>
        <r>  0.0014  0.0197  0.0000 </r>
        <r>  0.0014  0.0197  0.0000 </r>
        <r>  0.0004  0.0142  0.0000 </r>
        <r>  0.0004  0.0142  0.0000 </r>
        <r>  0.0004  0.0011  0.0000 </r>
        <r>  0.0004  0.0011  0.0000 </r>
       </set>
       <set comment="band 73">
        <r>  0.0019  0.0008  0.0000 </r>
        <r>  0.0019  0.0008  0.0000 </r>
        <r>  0.0005  0.0035  0.0000 </r>
        <r>  0.0005  0.0035  0.0000 </r>
        <r>  0.0005  0.0560  0.0020 </r>
        <r>  0.0005  0.0560  0.0020 </r>
        <r>  0.0007  0.0674  0.0010 </r>
        <r>  0.0007  0.0674  0.0010 </r>
        <r>  0.0003  0.0229  0.0038 </r>
        <r>  0.0003  0.0229  0.0038 </r>
        <r>  0.0000  0.0405  0.0002 </r>
        <r>  0.0000  0.0405  0.0002 </r>
        <r>  0.0021  0.0162  0.0000 </r>
        <r>  0.0021  0.0162  0.0000 </r>
        <r>  0.0012  0.0174  0.0000 </r>
        <r>  0.0012  0.0174  0.0000 </r>
        <r>  0.0021  0.0149  0.0000 </r>
        <r>  0.0021  0.0149  0.0000 </r>
        <r>  0.0011  0.0134  0.0000 </r>
        <r>  0.0011  0.0134  0.0000 </r>
        <r>  0.0023  0.0140  0.0000 </r>
        <r>  0.0023  0.0140  0.0000 </r>
        <r>  0.0016  0.0178  0.0000 </r>
        <r>  0.0016  0.0178  0.0000 </r>
        <r>  0.0005  0.0026  0.0000 </r>
        <r>  0.0005  0.0026  0.0000 </r>
       </set>
       <set comment="band 74">
        <r>  0.0014  0.0041  0.0000 </r>
        <r>  0.0014  0.0041  0.0000 </r>
        <r>  0.0026  0.0017  0.0000 </r>
        <r>  0.0026  0.0017  0.0000 </r>
        <r>  0.0004  0.0467  0.0014 </r>
        <r>  0.0004  0.0467  0.0014 </r>
        <r>  0.0007  0.0270  0.0004 </r>
        <r>  0.0007  0.0270  0.0004 </r>
        <r>  0.0024  0.0143  0.0017 </r>
        <r>  0.0024  0.0143  0.0017 </r>
        <r>  0.0000  0.0978  0.0004 </r>
        <r>  0.0000  0.0978  0.0004 </r>
        <r>  0.0025  0.0261  0.0000 </r>
        <r>  0.0025  0.0261  0.0000 </r>
        <r>  0.0002  0.0142  0.0000 </r>
        <r>  0.0002  0.0142  0.0000 </r>
        <r>  0.0004  0.0085  0.0000 </r>
        <r>  0.0004  0.0085  0.0000 </r>
        <r>  0.0008  0.0150  0.0000 </r>
        <r>  0.0008  0.0150  0.0000 </r>
        <r>  0.0013  0.0232  0.0000 </r>
        <r>  0.0013  0.0232  0.0000 </r>
        <r>  0.0016  0.0097  0.0000 </r>
        <r>  0.0016  0.0097  0.0000 </r>
        <r>  0.0009  0.0027  0.0000 </r>
        <r>  0.0009  0.0027  0.0000 </r>
       </set>
       <set comment="band 75">
        <r>  0.0005  0.0018  0.0000 </r>
        <r>  0.0005  0.0018  0.0000 </r>
        <r>  0.0004  0.0008  0.0000 </r>
        <r>  0.0004  0.0008  0.0000 </r>
        <r>  0.0025  0.0904  0.0012 </r>
        <r>  0.0025  0.0904  0.0012 </r>
        <r>  0.0001  0.0154  0.0003 </r>
        <r>  0.0001  0.0154  0.0003 </r>
        <r>  0.0055  0.0737  0.0035 </r>
        <r>  0.0055  0.0737  0.0035 </r>
        <r>  0.0002  0.0089  0.0007 </r>
        <r>  0.0002  0.0089  0.0007 </r>
        <r>  0.0009  0.0026  0.0000 </r>
        <r>  0.0009  0.0026  0.0000 </r>
        <r>  0.0014  0.0323  0.0000 </r>
        <r>  0.0014  0.0323  0.0000 </r>
        <r>  0.0010  0.0099  0.0000 </r>
        <r>  0.0010  0.0099  0.0000 </r>
        <r>  0.0005  0.0345  0.0000 </r>
        <r>  0.0005  0.0345  0.0000 </r>
        <r>  0.0000  0.0045  0.0000 </r>
        <r>  0.0000  0.0045  0.0000 </r>
        <r>  0.0001  0.0044  0.0000 </r>
        <r>  0.0001  0.0044  0.0000 </r>
        <r>  0.0001  0.0032  0.0000 </r>
        <r>  0.0001  0.0032  0.0000 </r>
       </set>
       <set comment="band 76">
        <r>  0.0001  0.0020  0.0000 </r>
        <r>  0.0001  0.0020  0.0000 </r>
        <r>  0.0010  0.0021  0.0000 </r>
        <r>  0.0010  0.0021  0.0000 </r>
        <r>  0.0023  0.0461  0.0009 </r>
        <r>  0.0023  0.0461  0.0009 </r>
        <r>  0.0001  0.0741  0.0005 </r>
        <r>  0.0001  0.0741  0.0005 </r>
        <r>  0.0037  0.0458  0.0026 </r>
        <r>  0.0037  0.0458  0.0026 </r>
        <r>  0.0001  0.0182  0.0007 </r>
        <r>  0.0001  0.0182  0.0007 </r>
        <r>  0.0008  0.0032  0.0000 </r>
        <r>  0.0008  0.0032  0.0000 </r>
        <r>  0.0006  0.0228  0.0000 </r>
        <r>  0.0006  0.0228  0.0000 </r>
        <r>  0.0010  0.0277  0.0000 </r>
        <r>  0.0010  0.0277  0.0000 </r>
        <r>  0.0006  0.0175  0.0000 </r>
        <r>  0.0006  0.0175  0.0000 </r>
        <r>  0.0001  0.0112  0.0000 </r>
        <r>  0.0001  0.0112  0.0000 </r>
        <r>  0.0014  0.0191  0.0000 </r>
        <r>  0.0014  0.0191  0.0000 </r>
        <r>  0.0001  0.0020  0.0000 </r>
        <r>  0.0001  0.0020  0.0000 </r>
       </set>
       <set comment="band 77">
        <r>  0.0037  0.0009  0.0000 </r>
        <r>  0.0037  0.0009  0.0000 </r>
        <r>  0.0027  0.0035  0.0000 </r>
        <r>  0.0027  0.0035  0.0000 </r>
        <r>  0.0005  0.0356  0.0005 </r>
        <r>  0.0005  0.0356  0.0005 </r>
        <r>  0.0001  0.0571  0.0005 </r>
        <r>  0.0001  0.0571  0.0005 </r>
        <r>  0.0005  0.0130  0.0014 </r>
        <r>  0.0005  0.0130  0.0014 </r>
        <r>  0.0004  0.0784  0.0006 </r>
        <r>  0.0004  0.0784  0.0006 </r>
        <r>  0.0012  0.0140  0.0000 </r>
        <r>  0.0012  0.0140  0.0000 </r>
        <r>  0.0009  0.0038  0.0000 </r>
        <r>  0.0009  0.0038  0.0000 </r>
        <r>  0.0027  0.0129  0.0000 </r>
        <r>  0.0027  0.0129  0.0000 </r>
        <r>  0.0014  0.0149  0.0000 </r>
        <r>  0.0014  0.0149  0.0000 </r>
        <r>  0.0002  0.0218  0.0000 </r>
        <r>  0.0002  0.0218  0.0000 </r>
        <r>  0.0011  0.0292  0.0000 </r>
        <r>  0.0011  0.0292  0.0000 </r>
        <r>  0.0001  0.0051  0.0000 </r>
        <r>  0.0001  0.0051  0.0000 </r>
       </set>
       <set comment="band 78">
        <r>  0.0017  0.0011  0.0000 </r>
        <r>  0.0017  0.0011  0.0000 </r>
        <r>  0.0029  0.0037  0.0000 </r>
        <r>  0.0029  0.0037  0.0000 </r>
        <r>  0.0002  0.0179  0.0005 </r>
        <r>  0.0002  0.0179  0.0005 </r>
        <r>  0.0011  0.1357  0.0010 </r>
        <r>  0.0011  0.1357  0.0010 </r>
        <r>  0.0005  0.0106  0.0009 </r>
        <r>  0.0005  0.0106  0.0009 </r>
        <r>  0.0000  0.0225  0.0006 </r>
        <r>  0.0000  0.0225  0.0006 </r>
        <r>  0.0014  0.0052  0.0000 </r>
        <r>  0.0014  0.0052  0.0000 </r>
        <r>  0.0014  0.0041  0.0000 </r>
        <r>  0.0014  0.0041  0.0000 </r>
        <r>  0.0006  0.0153  0.0000 </r>
        <r>  0.0006  0.0153  0.0000 </r>
        <r>  0.0017  0.0102  0.0000 </r>
        <r>  0.0017  0.0102  0.0000 </r>
        <r>  0.0008  0.0114  0.0000 </r>
        <r>  0.0008  0.0114  0.0000 </r>
        <r>  0.0010  0.0475  0.0000 </r>
        <r>  0.0010  0.0475  0.0000 </r>
        <r>  0.0003  0.0085  0.0000 </r>
        <r>  0.0003  0.0085  0.0000 </r>
       </set>
       <set comment="band 79">
        <r>  0.0027  0.0038  0.0000 </r>
        <r>  0.0027  0.0038  0.0000 </r>
        <r>  0.0027  0.0028  0.0000 </r>
        <r>  0.0027  0.0028  0.0000 </r>
        <r>  0.0004  0.0333  0.0007 </r>
        <r>  0.0004  0.0333  0.0007 </r>
        <r>  0.0000  0.0348  0.0005 </r>
        <r>  0.0000  0.0348  0.0005 </r>
        <r>  0.0006  0.0086  0.0010 </r>
        <r>  0.0006  0.0086  0.0010 </r>
        <r>  0.0000  0.1059  0.0008 </r>
        <r>  0.0000  0.1059  0.0008 </r>
        <r>  0.0025  0.0339  0.0000 </r>
        <r>  0.0025  0.0339  0.0000 </r>
        <r>  0.0005  0.0068  0.0000 </r>
        <r>  0.0005  0.0068  0.0000 </r>
        <r>  0.0007  0.0087  0.0000 </r>
        <r>  0.0007  0.0087  0.0000 </r>
        <r>  0.0001  0.0125  0.0000 </r>
        <r>  0.0001  0.0125  0.0000 </r>
        <r>  0.0014  0.0277  0.0000 </r>
        <r>  0.0014  0.0277  0.0000 </r>
        <r>  0.0006  0.0151  0.0000 </r>
        <r>  0.0006  0.0151  0.0000 </r>
        <r>  0.0000  0.0046  0.0000 </r>
        <r>  0.0000  0.0046  0.0000 </r>
       </set>
       <set comment="band 80">
        <r>  0.0009  0.0028  0.0000 </r>
        <r>  0.0009  0.0028  0.0000 </r>
        <r>  0.0006  0.0035  0.0000 </r>
        <r>  0.0006  0.0035  0.0000 </r>
        <r>  0.0004  0.0190  0.0005 </r>
        <r>  0.0004  0.0190  0.0005 </r>
        <r>  0.0004  0.1017  0.0014 </r>
        <r>  0.0004  0.1017  0.0014 </r>
        <r>  0.0004  0.0157  0.0010 </r>
        <r>  0.0004  0.0157  0.0010 </r>
        <r>  0.0002  0.0514  0.0016 </r>
        <r>  0.0002  0.0514  0.0016 </r>
        <r>  0.0003  0.0135  0.0000 </r>
        <r>  0.0003  0.0135  0.0000 </r>
        <r>  0.0016  0.0084  0.0000 </r>
        <r>  0.0016  0.0084  0.0000 </r>
        <r>  0.0003  0.0156  0.0000 </r>
        <r>  0.0003  0.0156  0.0000 </r>
        <r>  0.0011  0.0120  0.0000 </r>
        <r>  0.0011  0.0120  0.0000 </r>
        <r>  0.0008  0.0205  0.0000 </r>
        <r>  0.0008  0.0205  0.0000 </r>
        <r>  0.0004  0.0381  0.0000 </r>
        <r>  0.0004  0.0381  0.0000 </r>
        <r>  0.0001  0.0071  0.0000 </r>
        <r>  0.0001  0.0071  0.0000 </r>
       </set>
       <set comment="band 81">
        <r>  0.0000  0.0006  0.0000 </r>
        <r>  0.0000  0.0006  0.0000 </r>
        <r>  0.0003  0.0024  0.0000 </r>
        <r>  0.0003  0.0024  0.0000 </r>
        <r>  0.0000  0.0236  0.0009 </r>
        <r>  0.0000  0.0236  0.0009 </r>
        <r>  0.0003  0.0187  0.0007 </r>
        <r>  0.0003  0.0187  0.0007 </r>
        <r>  0.0001  0.0559  0.0033 </r>
        <r>  0.0001  0.0559  0.0033 </r>
        <r>  0.0002  0.1051  0.0006 </r>
        <r>  0.0002  0.1051  0.0006 </r>
        <r>  0.0017  0.0189  0.0000 </r>
        <r>  0.0017  0.0189  0.0000 </r>
        <r>  0.0000  0.0021  0.0000 </r>
        <r>  0.0000  0.0021  0.0000 </r>
        <r>  0.0002  0.0116  0.0000 </r>
        <r>  0.0002  0.0116  0.0000 </r>
        <r>  0.0014  0.0116  0.0000 </r>
        <r>  0.0014  0.0116  0.0000 </r>
        <r>  0.0006  0.0041  0.0000 </r>
        <r>  0.0006  0.0041  0.0000 </r>
        <r>  0.0003  0.0524  0.0000 </r>
        <r>  0.0003  0.0524  0.0000 </r>
        <r>  0.0003  0.0096  0.0000 </r>
        <r>  0.0003  0.0096  0.0000 </r>
       </set>
       <set comment="band 82">
        <r>  0.0006  0.0003  0.0000 </r>
        <r>  0.0006  0.0003  0.0000 </r>
        <r>  0.0003  0.0021  0.0000 </r>
        <r>  0.0003  0.0021  0.0000 </r>
        <r>  0.0000  0.0147  0.0010 </r>
        <r>  0.0000  0.0147  0.0010 </r>
        <r>  0.0001  0.0166  0.0008 </r>
        <r>  0.0001  0.0166  0.0008 </r>
        <r>  0.0004  0.0487  0.0027 </r>
        <r>  0.0004  0.0487  0.0027 </r>
        <r>  0.0004  0.1094  0.0004 </r>
        <r>  0.0004  0.1094  0.0004 </r>
        <r>  0.0003  0.0321  0.0000 </r>
        <r>  0.0003  0.0321  0.0000 </r>
        <r>  0.0003  0.0021  0.0000 </r>
        <r>  0.0003  0.0021  0.0000 </r>
        <r>  0.0001  0.0110  0.0000 </r>
        <r>  0.0001  0.0110  0.0000 </r>
        <r>  0.0014  0.0065  0.0000 </r>
        <r>  0.0014  0.0065  0.0000 </r>
        <r>  0.0010  0.0120  0.0000 </r>
        <r>  0.0010  0.0120  0.0000 </r>
        <r>  0.0015  0.0473  0.0000 </r>
        <r>  0.0015  0.0473  0.0000 </r>
        <r>  0.0001  0.0076  0.0000 </r>
        <r>  0.0001  0.0076  0.0000 </r>
       </set>
       <set comment="band 83">
        <r>  0.0000  0.0006  0.0000 </r>
        <r>  0.0000  0.0006  0.0000 </r>
        <r>  0.0001  0.0023  0.0000 </r>
        <r>  0.0001  0.0023  0.0000 </r>
        <r>  0.0004  0.0600  0.0016 </r>
        <r>  0.0004  0.0600  0.0016 </r>
        <r>  0.0003  0.0936  0.0009 </r>
        <r>  0.0003  0.0936  0.0009 </r>
        <r>  0.0001  0.0137  0.0022 </r>
        <r>  0.0001  0.0137  0.0022 </r>
        <r>  0.0001  0.0151  0.0003 </r>
        <r>  0.0001  0.0151  0.0003 </r>
        <r>  0.0009  0.0024  0.0000 </r>
        <r>  0.0009  0.0024  0.0000 </r>
        <r>  0.0006  0.0054  0.0000 </r>
        <r>  0.0006  0.0054  0.0000 </r>
        <r>  0.0014  0.0107  0.0000 </r>
        <r>  0.0014  0.0107  0.0000 </r>
        <r>  0.0010  0.0043  0.0000 </r>
        <r>  0.0010  0.0043  0.0000 </r>
        <r>  0.0019  0.0232  0.0000 </r>
        <r>  0.0019  0.0232  0.0000 </r>
        <r>  0.0003  0.0095  0.0000 </r>
        <r>  0.0003  0.0095  0.0000 </r>
        <r>  0.0002  0.0599  0.0000 </r>
        <r>  0.0002  0.0599  0.0000 </r>
       </set>
       <set comment="band 84">
        <r>  0.0022  0.0012  0.0000 </r>
        <r>  0.0022  0.0012  0.0000 </r>
        <r>  0.0022  0.0006  0.0000 </r>
        <r>  0.0022  0.0006  0.0000 </r>
        <r>  0.0004  0.0507  0.0009 </r>
        <r>  0.0004  0.0507  0.0009 </r>
        <r>  0.0006  0.0444  0.0014 </r>
        <r>  0.0006  0.0444  0.0014 </r>
        <r>  0.0003  0.0627  0.0012 </r>
        <r>  0.0003  0.0627  0.0012 </r>
        <r>  0.0000  0.0063  0.0017 </r>
        <r>  0.0000  0.0063  0.0017 </r>
        <r>  0.0004  0.0026  0.0000 </r>
        <r>  0.0004  0.0026  0.0000 </r>
        <r>  0.0075  0.0209  0.0000 </r>
        <r>  0.0075  0.0209  0.0000 </r>
        <r>  0.0014  0.0113  0.0000 </r>
        <r>  0.0014  0.0113  0.0000 </r>
        <r>  0.0006  0.0054  0.0000 </r>
        <r>  0.0006  0.0054  0.0000 </r>
        <r>  0.0006  0.0071  0.0000 </r>
        <r>  0.0006  0.0071  0.0000 </r>
        <r>  0.0000  0.0184  0.0000 </r>
        <r>  0.0000  0.0184  0.0000 </r>
        <r>  0.0001  0.0582  0.0000 </r>
        <r>  0.0001  0.0582  0.0000 </r>
       </set>
      </set>
     </set>
    </set>
   </array>
  </projected>
 </calculation>
 <structure name="finalpos" >
  <crystal>
   <varray name="basis" >
    <v>       3.99735803       0.00000000       0.00000000 </v>
    <v>       0.00000000      13.36580849      -0.94580958 </v>
    <v>       0.00000000      -0.10785857      12.30034357 </v>
   </varray>
   <i name="volume">    656.77401122 </i>
   <varray name="rec_basis" >
    <v>       0.25016523       0.00000000       0.00000000 </v>
    <v>       0.00000000       0.07486422       0.00065647 </v>
    <v>       0.00000000       0.00575653       0.08134902 </v>
   </varray>
  </crystal>
  <varray name="positions" >
   <v>       0.25000000       0.55480046       0.75874250 </v>
   <v>       0.75000000       0.44519954       0.24125750 </v>
   <v>       0.75000000       0.88524217       0.60149988 </v>
   <v>       0.25000000       0.11475783       0.39850012 </v>
   <v>       0.25000000       0.95204607       0.85039200 </v>
   <v>       0.75000000       0.04795393       0.14960800 </v>
   <v>       0.25000000       0.83089236       0.29851850 </v>
   <v>       0.75000000       0.16910764       0.70148150 </v>
   <v>       0.75000000       0.72720529      -0.00290480 </v>
   <v>       0.25000000       0.27279471       0.00290480 </v>
   <v>       0.75000000       0.62209842       0.45081842 </v>
   <v>       0.25000000       0.37790158       0.54918158 </v>
   <v>       0.25000000       0.48168221       0.36140525 </v>
   <v>       0.75000000       0.51831779       0.63859475 </v>
   <v>       0.25000000       0.60280120      -0.05243238 </v>
   <v>       0.75000000       0.39719880       0.05243238 </v>
   <v>       0.75000000      -0.01197585       0.35504470 </v>
   <v>       0.25000000       0.01197585       0.64495530 </v>
   <v>       0.75000000       0.81406318       0.79576343 </v>
   <v>       0.25000000       0.18593682       0.20423657 </v>
   <v>       0.25000000       0.76429448       0.50947397 </v>
   <v>       0.75000000       0.23570552       0.49052603 </v>
   <v>       0.75000000       0.69421072       0.23582027 </v>
   <v>       0.25000000       0.30578928       0.76417973 </v>
   <v>       0.25000000       0.89473136       0.08054068 </v>
   <v>       0.75000000       0.10526864       0.91945932 </v>
  </varray>
 </structure>
</modeling>
