CIS                                     
           1
     4.244012    0.000000    0.000000
     0.000000   13.413409    0.040872
     0.000000    1.229593   15.510894
   Li   Bi   S 
   4   8  14
Direct configuration=     1
   0.25000000  0.56849279  0.81209004
   0.75000000  0.43150721  0.18790996
   0.75000000  0.82875309  0.62285478
   0.25000000  0.17124691  0.37714522
   0.25000000  0.94612343  0.87977359
   0.75000000  0.05387657  0.12022641
   0.25000000  0.83155606  0.27488852
   0.75000000  0.16844394  0.72511148
   0.75000000  0.73146608  0.05056020
   0.25000000  0.26853392  0.94943980
   0.75000000  0.60668333  0.42829721
   0.25000000  0.39331667  0.57170279
   0.25000000  0.45798711  0.39320698
   0.75000000  0.54201289  0.60679302
   0.25000000  0.59813812  0.03793755
   0.75000000  0.40186188  0.96206245
   0.75000000  0.98566906  0.29540055
   0.25000000  0.01433094  0.70459945
   0.75000000  0.79785506  0.86286623
   0.25000000  0.20214494  0.13713377
   0.25000000  0.75545718  0.45156839
   0.75000000  0.24454282  0.54843161
   0.75000000  0.69160821  0.24041933
   0.25000000  0.30839179  0.75958067
   0.25000000  0.90357682  0.08303846
   0.75000000  0.09642318  0.91696154
CIS                                     
           1
     4.200685    0.000000    0.000000
     0.000000   13.263878    0.020574
     0.000000    1.192986   15.323064
   Li   Bi   S 
   4   8  14
Direct configuration=     2
   0.25000000  0.56829096  0.81235174
   0.75000000  0.43170904  0.18764826
   0.75000000  0.82886862  0.62281794
   0.25000000  0.17113138  0.37718206
   0.25000000  0.94607188  0.87950905
   0.75000000  0.05392812  0.12049095
   0.25000000  0.83146321  0.27500152
   0.75000000  0.16853679  0.72499848
   0.75000000  0.73098168  0.05051359
   0.25000000  0.26901832  0.94948641
   0.75000000  0.60669173  0.42844916
   0.25000000  0.39330827  0.57155084
   0.25000000  0.45811450  0.39346331
   0.75000000  0.54188550  0.60653669
   0.25000000  0.59861720  0.03789185
   0.75000000  0.40138280  0.96210815
   0.75000000  0.98580698  0.29511492
   0.25000000  0.01419302  0.70488508
   0.75000000  0.79811429  0.86296857
   0.25000000  0.20188571  0.13703143
   0.25000000  0.75529381  0.45148905
   0.75000000  0.24470619  0.54851095
   0.75000000  0.69186994  0.24042323
   0.25000000  0.30813006  0.75957677
   0.25000000  0.90366281  0.08313650
   0.75000000  0.09633719  0.91686350
CIS                                     
           1
     4.097678    0.000000    0.000000
     0.000000   12.908380   -0.027683
     0.000000    1.105955   14.876513
   Li   Bi   S 
   4   8  14
Direct configuration=     3
   0.25000000  0.56780681  0.81298091
   0.75000000  0.43219319  0.18701909
   0.75000000  0.82914621  0.62272964
   0.25000000  0.17085379  0.37727036
   0.25000000  0.94594692  0.87887227
   0.75000000  0.05405308  0.12112773
   0.25000000  0.83124046  0.27527318
   0.75000000  0.16875954  0.72472682
   0.75000000  0.72981703  0.05039992
   0.25000000  0.27018297  0.94960008
   0.75000000  0.60671252  0.42881487
   0.25000000  0.39328748  0.57118513
   0.25000000  0.45842176  0.39408059
   0.75000000  0.54157824  0.60591941
   0.25000000  0.59976870  0.03778337
   0.75000000  0.40023130  0.96221663
   0.75000000  0.98613741  0.29442796
   0.25000000  0.01386259  0.70557204
   0.75000000  0.79873788  0.86321565
   0.25000000  0.20126212  0.13678435
   0.25000000  0.75490076  0.45129759
   0.75000000  0.24509924  0.54870241
   0.75000000  0.69249913  0.24043342
   0.25000000  0.30750087  0.75956658
   0.25000000  0.90386991  0.08337271
   0.75000000  0.09613009  0.91662729
CIS                                     
           1
     4.063048    0.000000    0.000000
     0.000000   12.788864   -0.043907
     0.000000    1.076696   14.726385
   Li   Bi   S 
   4   8  14
Direct configuration=     4
   0.25000000  0.56764048  0.81319825
   0.75000000  0.43235952  0.18680175
   0.75000000  0.82924195  0.62269937
   0.25000000  0.17075805  0.37730063
   0.25000000  0.94590287  0.87865162
   0.75000000  0.05409713  0.12134838
   0.25000000  0.83116392  0.27536700
   0.75000000  0.16883608  0.72463300
   0.75000000  0.72941465  0.05035926
   0.25000000  0.27058535  0.94964074
   0.75000000  0.60672021  0.42894153
   0.25000000  0.39327979  0.57105847
   0.25000000  0.45852873  0.39429469
   0.75000000  0.54147127  0.60570531
   0.25000000  0.60016623  0.03774707
   0.75000000  0.39983377  0.96225293
   0.75000000  0.98625057  0.29419044
   0.25000000  0.01374943  0.70580956
   0.75000000  0.79895359  0.86330190
   0.25000000  0.20104641  0.13669810
   0.25000000  0.75476474  0.45123086
   0.75000000  0.24523526  0.54876914
   0.75000000  0.69271645  0.24043764
   0.25000000  0.30728355  0.75956236
   0.25000000  0.90394177  0.08345474
   0.75000000  0.09605823  0.91654526
CIS                                     
           1
     4.067725    0.000000    0.000000
     0.000000   12.805004   -0.041716
     0.000000    1.080647   14.746659
   Li   Bi   S 
   4   8  14
Direct configuration=     5
   0.25000000  0.56766311  0.81316862
   0.75000000  0.43233689  0.18683138
   0.75000000  0.82922891  0.62270348
   0.25000000  0.17077109  0.37729652
   0.25000000  0.94590891  0.87868173
   0.75000000  0.05409109  0.12131827
   0.25000000  0.83117433  0.27535421
   0.75000000  0.16882567  0.72464579
   0.75000000  0.72946950  0.05036487
   0.25000000  0.27053050  0.94963513
   0.75000000  0.60671914  0.42892425
   0.25000000  0.39328086  0.57107575
   0.25000000  0.45851411  0.39426547
   0.75000000  0.54148589  0.60573453
   0.25000000  0.60011206  0.03775196
   0.75000000  0.39988794  0.96224804
   0.75000000  0.98623519  0.29422283
   0.25000000  0.01376481  0.70577717
   0.75000000  0.79892418  0.86329010
   0.25000000  0.20107582  0.13670990
   0.25000000  0.75478329  0.45123998
   0.75000000  0.24521671  0.54876002
   0.75000000  0.69268683  0.24043703
   0.25000000  0.30731317  0.75956297
   0.25000000  0.90393196  0.08344354
   0.75000000  0.09606804  0.91655646
CIS                                     
           1
     4.068265    0.000000    0.000000
     0.000000   12.775043   -0.081177
     0.000000    1.032507   14.695397
   Li   Bi   S 
   4   8  14
Direct configuration=     6
   0.25000000  0.56735410  0.81365217
   0.75000000  0.43264590  0.18634783
   0.75000000  0.82945186  0.62266045
   0.25000000  0.17054814  0.37733955
   0.25000000  0.94575185  0.87881507
   0.75000000  0.05424815  0.12118493
   0.25000000  0.83141206  0.27539547
   0.75000000  0.16858794  0.72460453
   0.75000000  0.72963780  0.05031677
   0.25000000  0.27036220  0.94968323
   0.75000000  0.60680079  0.42879142
   0.25000000  0.39319921  0.57120858
   0.25000000  0.45810594  0.39368359
   0.75000000  0.54189406  0.60631641
   0.25000000  0.59945339  0.03748779
   0.75000000  0.40054661  0.96251221
   0.75000000  0.98698181  0.29487317
   0.25000000  0.01301819  0.70512683
   0.75000000  0.79843647  0.86272713
   0.25000000  0.20156353  0.13727287
   0.25000000  0.75508655  0.45215274
   0.75000000  0.24491345  0.54784726
   0.75000000  0.69218541  0.24034128
   0.25000000  0.30781459  0.75965872
   0.25000000  0.90386574  0.08344297
   0.75000000  0.09613426  0.91655703
CIS                                     
           1
     4.069885    0.000000    0.000000
     0.000000   12.685161   -0.199560
     0.000000    0.888087   14.541611
   Li   Bi   S 
   4   8  14
Direct configuration=     7
   0.25000000  0.56643016  0.81510539
   0.75000000  0.43356984  0.18489461
   0.75000000  0.83012168  0.62253268
   0.25000000  0.16987832  0.37746732
   0.25000000  0.94528103  0.87921522
   0.75000000  0.05471897  0.12078478
   0.25000000  0.83212721  0.27552159
   0.75000000  0.16787279  0.72447841
   0.75000000  0.73014328  0.05017333
   0.25000000  0.26985672  0.94982667
   0.75000000  0.60704486  0.42839220
   0.25000000  0.39295514  0.57160780
   0.25000000  0.45687272  0.39192855
   0.75000000  0.54312728  0.60807145
   0.25000000  0.59747042  0.03668714
   0.75000000  0.40252958  0.96331286
   0.75000000  0.98923324  0.29683707
   0.25000000  0.01076676  0.70316293
   0.75000000  0.79696434  0.86102835
   0.25000000  0.20303566  0.13897165
   0.25000000  0.75600778  0.45490305
   0.75000000  0.24399222  0.54509695
   0.75000000  0.69067697  0.24004894
   0.25000000  0.30932303  0.75995106
   0.25000000  0.90366667  0.08344073
   0.75000000  0.09633333  0.91655927
CIS                                     
           1
     4.073126    0.000000    0.000000
     0.000000   12.505395   -0.436327
     0.000000    0.599245   14.234039
   Li   Bi   S 
   4   8  14
Direct configuration=     8
   0.25000000  0.56460116  0.81802778
   0.75000000  0.43539884  0.18197222
   0.75000000  0.83146733  0.62228545
   0.25000000  0.16853267  0.37771455
   0.25000000  0.94434178  0.88001635
   0.75000000  0.05565822  0.11998365
   0.25000000  0.83356949  0.27578831
   0.75000000  0.16643051  0.72421169
   0.75000000  0.73115777  0.04989169
   0.25000000  0.26884223  0.95010831
   0.75000000  0.60752770  0.42758923
   0.25000000  0.39247230  0.57241077
   0.25000000  0.45435291  0.38836053
   0.75000000  0.54564709  0.61163947
   0.25000000  0.59346165  0.03503605
   0.75000000  0.40653835  0.96496395
   0.75000000  0.99380718  0.30084406
   0.25000000  0.00619282  0.69915594
   0.75000000  0.79396480  0.85757014
   0.25000000  0.20603520  0.14242986
   0.25000000  0.75792074  0.46047783
   0.75000000  0.24207926  0.53952217
   0.75000000  0.68763423  0.23943318
   0.25000000  0.31236577  0.76056682
   0.25000000  0.90326587  0.08343293
   0.75000000  0.09673413  0.91656707
CIS                                     
           1
     4.079608    0.000000    0.000000
     0.000000   12.145863   -0.909860
     0.000000    0.021563   13.618895
   Li   Bi   S 
   4   8  14
Direct configuration=     9
   0.25000000  0.56102231  0.82394043
   0.75000000  0.43897769  0.17605957
   0.75000000  0.83418423  0.62182584
   0.25000000  0.16581577  0.37817416
   0.25000000  0.94247311  0.88162230
   0.75000000  0.05752689  0.11837770
   0.25000000  0.83650492  0.27638281
   0.75000000  0.16349508  0.72361719
   0.75000000  0.73320186  0.04935045
   0.25000000  0.26679814  0.95064955
   0.75000000  0.60847110  0.42596396
   0.25000000  0.39152890  0.57403604
   0.25000000  0.44908775  0.38097956
   0.75000000  0.55091225  0.61902044
   0.25000000  0.58526265  0.03152357
   0.75000000  0.41473735  0.96847643
   0.75000000  0.00325562  0.30919258
   0.25000000 -0.00325562  0.69080742
   0.75000000  0.78773202  0.85039730
   0.25000000  0.21226798  0.14960270
   0.25000000  0.76204416  0.47194106
   0.75000000  0.23795584  0.52805894
   0.75000000  0.68143912  0.23807045
   0.25000000  0.31856088  0.76192955
   0.25000000  0.90245307  0.08340330
   0.75000000  0.09754693  0.91659670
CIS                                     
           1
     4.077594    0.000000    0.000000
     0.000000   12.257575   -0.762726
     0.000000    0.201058   13.810029
   Li   Bi   S 
   4   8  14
Direct configuration=    10
   0.25000000  0.56207993  0.82205534
   0.75000000  0.43792007  0.17794466
   0.75000000  0.83332189  0.62194453
   0.25000000  0.16667811  0.37805547
   0.25000000  0.94304719  0.88112052
   0.75000000  0.05695281  0.11887948
   0.25000000  0.83555713  0.27615565
   0.75000000  0.16444287  0.72384435
   0.75000000  0.73255596  0.04950341
   0.25000000  0.26744404  0.95049659
   0.75000000  0.60819329  0.42648259
   0.25000000  0.39180671  0.57351741
   0.25000000  0.45088092  0.38344391
   0.75000000  0.54911908  0.61655609
   0.25000000  0.58793725  0.03276131
   0.75000000  0.41206275  0.96723869
   0.75000000  0.00010999  0.30636531
   0.25000000 -0.00010999  0.69363469
   0.75000000  0.78983164  0.85280490
   0.25000000  0.21016836  0.14719510
   0.25000000  0.76055601  0.46816001
   0.75000000  0.23944399  0.53183999
   0.75000000  0.68344099  0.23858507
   0.25000000  0.31655901  0.76141493
   0.25000000  0.90271352  0.08342223
   0.75000000  0.09728648  0.91657777
CIS                                     
           1
     4.087004    0.000000    0.000000
     0.000000   12.245725   -0.815566
     0.000000    0.140318   13.793753
   Li   Bi   S 
   4   8  14
Direct configuration=    11
   0.25000000  0.56145379  0.82334339
   0.75000000  0.43854621  0.17665661
   0.75000000  0.83384388  0.62180436
   0.25000000  0.16615612  0.37819564
   0.25000000  0.94166480  0.88023909
   0.75000000  0.05833520  0.11976091
   0.25000000  0.83619200  0.27785075
   0.75000000  0.16380800  0.72214925
   0.75000000  0.73128490  0.04851919
   0.25000000  0.26871510  0.95148081
   0.75000000  0.60769877  0.42703766
   0.25000000  0.39230123  0.57296234
   0.25000000  0.44978577  0.38187744
   0.75000000  0.55021423  0.61812256
   0.25000000  0.58728662  0.03154528
   0.75000000  0.41271338  0.96845472
   0.75000000  0.00200119  0.30796474
   0.25000000 -0.00200119  0.69203526
   0.75000000  0.78850610  0.85116718
   0.25000000  0.21149390  0.14883282
   0.25000000  0.76200332  0.47014160
   0.75000000  0.23799668  0.52985840
   0.75000000  0.68233370  0.23829938
   0.25000000  0.31766630  0.76170062
   0.25000000  0.90249427  0.08340538
   0.75000000  0.09750573  0.91659462
CIS                                     
           1
     4.115235    0.000000    0.000000
     0.000000   12.210175   -0.974086
     0.000000   -0.041900   13.744925
   Li   Bi   S 
   4   8  14
Direct configuration=    12
   0.25000000  0.55959272  0.82720596
   0.75000000  0.44040728  0.17279404
   0.75000000  0.83540920  0.62138930
   0.25000000  0.16459080  0.37861070
   0.25000000  0.93750074  0.87757480
   0.75000000  0.06249926  0.12242520
   0.25000000  0.83812348  0.28295096
   0.75000000  0.16187652  0.71704904
   0.75000000  0.72745362  0.04554735
   0.25000000  0.27254638  0.95445265
   0.75000000  0.60622207  0.42869956
   0.25000000  0.39377793  0.57130044
   0.25000000  0.44647407  0.37715834
   0.75000000  0.55352593  0.62284166
   0.25000000  0.58531488  0.02788423
   0.75000000  0.41468512  0.97211577
   0.75000000  0.00770375  0.31279216
   0.25000000 -0.00770375  0.68720784
   0.75000000  0.78450152  0.84623135
   0.25000000  0.21549848  0.15376865
   0.25000000  0.76637866  0.47611197
   0.75000000  0.23362134  0.52388803
   0.75000000  0.67900452  0.23742814
   0.25000000  0.32099548  0.76257186
   0.25000000  0.90183566  0.08335218
   0.75000000  0.09816434  0.91664782
CIS                                     
           1
     4.171697    0.000000    0.000000
     0.000000   12.139074   -1.291127
     0.000000   -0.406337   13.647269
   Li   Bi   S 
   4   8  14
Direct configuration=    13
   0.25000000  0.55597501  0.83492300
   0.75000000  0.44402499  0.16507700
   0.75000000  0.83853669  0.62059211
   0.25000000  0.16146331  0.37940789
   0.25000000  0.92906842  0.87212385
   0.75000000  0.07093158  0.12787615
   0.25000000  0.84215024  0.29324376
   0.75000000  0.15784976  0.70675624
   0.75000000  0.71967965  0.03948630
   0.25000000  0.28032035  0.96051370
   0.75000000  0.60330960  0.43200400
   0.25000000  0.39669040  0.56799600
   0.25000000  0.43969012  0.36759886
   0.75000000  0.56030988  0.63240114
   0.25000000  0.58125037  0.02048206
   0.75000000  0.41874963  0.97951794
   0.75000000  0.01928678  0.32262545
   0.25000000 -0.01928678  0.67737455
   0.75000000  0.77632123  0.83622013
   0.25000000  0.22367877  0.16377987
   0.25000000  0.77533356  0.48821053
   0.75000000  0.22466644  0.51178947
   0.75000000  0.67230049  0.23559944
   0.25000000  0.32769951  0.76440056
   0.25000000  0.90051298  0.08322983
   0.75000000  0.09948702  0.91677017
CIS                                     
           1
     4.137086    0.000000    0.000000
     0.000000   12.182658   -1.096783
     0.000000   -0.182940   13.707132
   Li   Bi   S 
   4   8  14
Direct configuration=    14
   0.25000000  0.55806379  0.83019799
   0.75000000  0.44193621  0.16980201
   0.75000000  0.83662164  0.62103993
   0.25000000  0.16337836  0.37896007
   0.25000000  0.93437321  0.87562209
   0.75000000  0.06562679  0.12437791
   0.25000000  0.83947390  0.28681218
   0.75000000  0.16052610  0.71318782
   0.75000000  0.72458954  0.04335265
   0.25000000  0.27541046  0.95664735
   0.75000000  0.60504531  0.43000069
   0.25000000  0.39495469  0.56999931
   0.25000000  0.44405420  0.37361674
   0.75000000  0.55594580  0.62638326
   0.25000000  0.58389622  0.02512449
   0.75000000  0.41610378  0.97487551
   0.75000000  0.01195622  0.31636785
   0.25000000 -0.01195622  0.68363215
   0.75000000  0.78155536  0.84253812
   0.25000000  0.21844464  0.15746188
   0.25000000  0.76958259  0.48058885
   0.75000000  0.23041741  0.51941115
   0.75000000  0.67647139  0.23682972
   0.25000000  0.32352861  0.76317028
   0.25000000  0.90133145  0.08332493
   0.75000000  0.09866855  0.91667507
CIS                                     
           1
     4.098736    0.000000    0.000000
     0.000000   12.076610   -1.071723
     0.000000   -0.165655   13.568246
   Li   Bi   S 
   4   8  14
Direct configuration=    15
   0.25000000  0.55709466  0.83231864
   0.75000000  0.44290534  0.16768136
   0.75000000  0.83745526  0.62070348
   0.25000000  0.16254474  0.37929652
   0.25000000  0.93203082  0.87299640
   0.75000000  0.06796918  0.12700360
   0.25000000  0.84000774  0.29072567
   0.75000000  0.15999226  0.70927433
   0.75000000  0.72204729  0.04139264
   0.25000000  0.27795271  0.95860736
   0.75000000  0.60400296  0.43173620
   0.25000000  0.39599704  0.56826380
   0.25000000  0.44343596  0.37258167
   0.75000000  0.55656404  0.62741833
   0.25000000  0.58433204  0.02198283
   0.75000000  0.41566796  0.97801717
   0.75000000  0.01392442  0.31801258
   0.25000000 -0.01392442  0.68198742
   0.75000000  0.77926249  0.84013204
   0.25000000  0.22073751  0.15986796
   0.25000000  0.77152049  0.48214223
   0.75000000  0.22847951  0.51785777
   0.75000000  0.67620800  0.23689229
   0.25000000  0.32379200  0.76310771
   0.25000000  0.90137639  0.08372951
   0.75000000  0.09862361  0.91627049
CIS                                     
           1
     4.075163    0.000000    0.000000
     0.000000   12.011425   -1.056319
     0.000000   -0.155030   13.482878
   Li   Bi   S 
   4   8  14
Direct configuration=    16
   0.25000000  0.55649206  0.83363604
   0.75000000  0.44350794  0.16636396
   0.75000000  0.83797242  0.62049399
   0.25000000  0.16202758  0.37950601
   0.25000000  0.93058049  0.87136778
   0.75000000  0.06941951  0.12863222
   0.25000000  0.84033564  0.29315517
   0.75000000  0.15966436  0.70684483
   0.75000000  0.72047250  0.04017748
   0.25000000  0.27952750  0.95982252
   0.75000000  0.60335526  0.43281452
   0.25000000  0.39664474  0.56718548
   0.25000000  0.44305344  0.37193943
   0.75000000  0.55694656  0.62806057
   0.25000000  0.58460476  0.02003188
   0.75000000  0.41539524  0.97996812
   0.75000000  0.01514351  0.31903240
   0.25000000 -0.01514351  0.68096760
   0.75000000  0.77784269  0.83863973
   0.25000000  0.22215731  0.16136027
   0.25000000  0.77272086  0.48310534
   0.75000000  0.22727914  0.51689466
   0.75000000  0.67604463  0.23693133
   0.25000000  0.32395537  0.76306867
   0.25000000  0.90140394  0.08398068
   0.75000000  0.09859606  0.91601932
CIS                                     
           1
     4.070071    0.000000    0.000000
     0.000000   12.033327   -1.004447
     0.000000   -0.095269   13.503540
   Li   Bi   S 
   4   8  14
Direct configuration=    17
   0.25000000  0.55596414  0.83438795
   0.75000000  0.44403586  0.16561205
   0.75000000  0.83843990  0.62027600
   0.25000000  0.16156010  0.37972400
   0.25000000  0.93026755  0.87029189
   0.75000000  0.06973245  0.12970811
   0.25000000  0.84023797  0.29485890
   0.75000000  0.15976203  0.70514110
   0.75000000  0.72166516  0.03941704
   0.25000000  0.27833484  0.96058296
   0.75000000  0.60315208  0.43352816
   0.25000000  0.39684792  0.56647184
   0.25000000  0.44372555  0.37202418
   0.75000000  0.55627445  0.62797582
   0.25000000  0.58414819  0.01756452
   0.75000000  0.41585181  0.98243548
   0.75000000  0.01529833  0.32018467
   0.25000000 -0.01529833  0.67981533
   0.75000000  0.77566353  0.83685111
   0.25000000  0.22433647  0.16314889
   0.25000000  0.77296378  0.48330717
   0.75000000  0.22703622  0.51669283
   0.75000000  0.67696763  0.23769834
   0.25000000  0.32303237  0.76230166
   0.25000000  0.90179267  0.08473254
   0.75000000  0.09820733  0.91526746
CIS                                     
           1
     4.060721    0.000000    0.000000
     0.000000   12.073540   -0.909210
     0.000000    0.014452   13.541475
   Li   Bi   S 
   4   8  14
Direct configuration=    18
   0.25000000  0.55498978  0.83576970
   0.75000000  0.44501022  0.16423030
   0.75000000  0.83929859  0.61987312
   0.25000000  0.16070141  0.38012688
   0.25000000  0.92970389  0.86832257
   0.75000000  0.07029611  0.13167743
   0.25000000  0.84004341  0.29798174
   0.75000000  0.15995659  0.70201826
   0.75000000  0.72385780  0.03801481
   0.25000000  0.27614220  0.96198519
   0.75000000  0.60277321  0.43483741
   0.25000000  0.39722679  0.56516259
   0.25000000  0.44495648  0.37217457
   0.75000000  0.55504352  0.62782543
   0.25000000  0.58333405  0.01304636
   0.75000000  0.41666595  0.98695364
   0.75000000  0.01557151  0.32229509
   0.25000000 -0.01557151  0.67770491
   0.75000000  0.77168635  0.83358936
   0.25000000  0.22831365  0.16641064
   0.25000000  0.77340709  0.48367524
   0.75000000  0.22659291  0.51632476
   0.75000000  0.67865212  0.23909716
   0.25000000  0.32134788  0.76090284
   0.25000000  0.90249818  0.08610750
   0.75000000  0.09750182  0.91389250
CIS                                     
           1
     4.058467    0.000000    0.000000
     0.000000   12.083237   -0.886243
     0.000000    0.040912   13.550623
   Li   Bi   S 
   4   8  14
Direct configuration=    19
   0.25000000  0.55475256  0.83610348
   0.75000000  0.44524744  0.16389652
   0.75000000  0.83950586  0.61977479
   0.25000000  0.16049414  0.38022521
   0.25000000  0.92957272  0.86785028
   0.75000000  0.07042728  0.13214972
   0.25000000  0.83998981  0.29873258
   0.75000000  0.16001019  0.70126742
   0.75000000  0.72438787  0.03767397
   0.25000000  0.27561213  0.96232603
   0.75000000  0.60267928  0.43515272
   0.25000000  0.39732072  0.56484728
   0.25000000  0.44525200  0.37220855
   0.75000000  0.55474800  0.62779145
   0.25000000  0.58314826  0.01196195
   0.75000000  0.41685174  0.98803805
   0.75000000  0.01563255  0.32280180
   0.25000000 -0.01563255  0.67719820
   0.75000000  0.77073758  0.83281242
   0.25000000  0.22926242  0.16718758
   0.25000000  0.77351284  0.48376292
   0.75000000  0.22648716  0.51623708
   0.75000000  0.67905393  0.23943039
   0.25000000  0.32094607  0.76056961
   0.25000000  0.90266474  0.08643670
   0.75000000  0.09733526  0.91356330
CIS                                     
           1
     4.032844    0.000000    0.000000
     0.000000   12.072173   -0.888791
     0.000000    0.041348   13.596038
   Li   Bi   S 
   4   8  14
Direct configuration=    20
   0.25000000  0.55412328  0.83608111
   0.75000000  0.44587672  0.16391889
   0.75000000  0.84023534  0.61954763
   0.25000000  0.15976466  0.38045237
   0.25000000  0.92939524  0.86657050
   0.75000000  0.07060476  0.13342950
   0.25000000  0.83961511  0.29909445
   0.75000000  0.16038489  0.70090555
   0.75000000  0.72545792  0.03673990
   0.25000000  0.27454208  0.96326010
   0.75000000  0.60330674  0.43481244
   0.25000000  0.39669326  0.56518756
   0.25000000  0.44745323  0.37282107
   0.75000000  0.55254677  0.62717893
   0.25000000  0.58519430  0.01028875
   0.75000000  0.41480570  0.98971125
   0.75000000  0.01524565  0.32382002
   0.25000000 -0.01524565  0.67617998
   0.75000000  0.76942333  0.83159062
   0.25000000  0.23057667  0.16840938
   0.25000000  0.77236852  0.48420277
   0.75000000  0.22763148  0.51579723
   0.75000000  0.68107142  0.24020627
   0.25000000  0.31892858  0.75979373
   0.25000000  0.90392461  0.08729866
   0.75000000  0.09607539  0.91270134
CIS                                     
           1
     4.009899    0.000000    0.000000
     0.000000   12.062265   -0.891072
     0.000000    0.041738   13.636704
   Li   Bi   S 
   4   8  14
Direct configuration=    21
   0.25000000  0.55355927  0.83606100
   0.75000000  0.44644073  0.16393900
   0.75000000  0.84088917  0.61934506
   0.25000000  0.15911083  0.38065494
   0.25000000  0.92923619  0.86542831
   0.75000000  0.07076381  0.13457169
   0.25000000  0.83927927  0.29941732
   0.75000000  0.16072073  0.70058268
   0.75000000  0.72641701  0.03590650
   0.25000000  0.27358299  0.96409350
   0.75000000  0.60386912  0.43450890
   0.25000000  0.39613088  0.56549110
   0.25000000  0.44942613  0.37336821
   0.75000000  0.55057387  0.62663179
   0.25000000  0.58702815  0.00879593
   0.75000000  0.41297185  0.99120407
   0.75000000  0.01489885  0.32472866
   0.25000000 -0.01489885  0.67527134
   0.75000000  0.76824542  0.83049991
   0.25000000  0.23175458  0.16950009
   0.25000000  0.77134289  0.48459506
   0.75000000  0.22865711  0.51540494
   0.75000000  0.68287964  0.24089916
   0.25000000  0.31712036  0.75910084
   0.25000000  0.90505379  0.08806822
   0.75000000  0.09494621  0.91193178
CIS                                     
           1
     4.014918    0.000000    0.000000
     0.000000   12.117182   -0.887944
     0.000000    0.044418   13.622523
   Li   Bi   S 
   4   8  14
Direct configuration=    22
   0.25000000  0.55304534  0.83543802
   0.75000000  0.44695466  0.16456198
   0.75000000  0.84168818  0.61904790
   0.25000000  0.15831182  0.38095210
   0.25000000  0.92904287  0.86386757
   0.75000000  0.07095713  0.13613243
   0.25000000  0.83917040  0.29948987
   0.75000000  0.16082960  0.70051013
   0.75000000  0.72825623  0.03495257
   0.25000000  0.27174377  0.96504743
   0.75000000  0.60448933  0.43422370
   0.25000000  0.39551067  0.56577630
   0.25000000  0.45146848  0.37401546
   0.75000000  0.54853152  0.62598454
   0.25000000  0.58864861  0.00769134
   0.75000000  0.41135139  0.99230866
   0.75000000  0.01489455  0.32519907
   0.25000000 -0.01489455  0.67480093
   0.75000000  0.76727649  0.82980652
   0.25000000  0.23272351  0.17019348
   0.25000000  0.77051823  0.48503961
   0.75000000  0.22948177  0.51496039
   0.75000000  0.68454872  0.24109530
   0.25000000  0.31545128  0.75890470
   0.25000000  0.90642550  0.08876669
   0.75000000  0.09357450  0.91123331
CIS                                     
           1
     4.028531    0.000000    0.000000
     0.000000   12.266154   -0.879457
     0.000000    0.051686   13.584052
   Li   Bi   S 
   4   8  14
Direct configuration=    23
   0.25000000  0.55165791  0.83374706
   0.75000000  0.44834209  0.16625294
   0.75000000  0.84384599  0.61823981
   0.25000000  0.15615401  0.38176019
   0.25000000  0.92852180  0.85962971
   0.75000000  0.07147820  0.14037029
   0.25000000  0.83887637  0.29968704
   0.75000000  0.16112363  0.70031296
   0.75000000  0.73322342  0.03235956
   0.25000000  0.26677658  0.96764044
   0.75000000  0.60616432  0.43344836
   0.25000000  0.39383568  0.56655164
   0.25000000  0.45698326  0.37577016
   0.75000000  0.54301674  0.62422984
   0.25000000  0.59302518  0.00468953
   0.75000000  0.40697482  0.99531047
   0.75000000  0.01488265  0.32647644
   0.25000000 -0.01488265  0.67352356
   0.75000000  0.76466042  0.82792501
   0.25000000  0.23533958  0.17207499
   0.25000000  0.76829104  0.48624794
   0.75000000  0.23170896  0.51375206
   0.75000000  0.68905575  0.24162553
   0.25000000  0.31094425  0.75837447
   0.25000000  0.91012922  0.09066141
   0.75000000  0.08987078  0.90933859
CIS                                     
           1
     4.031846    0.000000    0.000000
     0.000000   12.296593   -0.873600
     0.000000    0.052216   13.499191
   Li   Bi   S 
   4   8  14
Direct configuration=    24
   0.25000000  0.55144867  0.83245588
   0.75000000  0.44855133  0.16754412
   0.75000000  0.84457821  0.61774900
   0.25000000  0.15542179  0.38225100
   0.25000000  0.92766063  0.85845421
   0.75000000  0.07233937  0.14154579
   0.25000000  0.83921543  0.29978616
   0.75000000  0.16078457  0.70021384
   0.75000000  0.73376999  0.03104215
   0.25000000  0.26623001  0.96895785
   0.75000000  0.60645863  0.43407328
   0.25000000  0.39354137  0.56592672
   0.25000000  0.45808267  0.37557641
   0.75000000  0.54191733  0.62442359
   0.25000000  0.59452098  0.00487161
   0.75000000  0.40547902  0.99512839
   0.75000000  0.01543575  0.32699605
   0.25000000 -0.01543575  0.67300395
   0.75000000  0.76582066  0.82794240
   0.25000000  0.23417934  0.17205760
   0.25000000  0.76864350  0.48657662
   0.75000000  0.23135650  0.51342338
   0.75000000  0.68997160  0.24069173
   0.25000000  0.31002840  0.75930827
   0.25000000  0.91108316  0.09083764
   0.75000000  0.08891684  0.90916236
CIS                                     
           1
     4.034552    0.000000    0.000000
     0.000000   12.321428   -0.868822
     0.000000    0.052648   13.429952
   Li   Bi   S 
   4   8  14
Direct configuration=    25
   0.25000000  0.55127845  0.83139589
   0.75000000  0.44872155  0.16860411
   0.75000000  0.84517419  0.61734568
   0.25000000  0.15482581  0.38265432
   0.25000000  0.92695981  0.85748951
   0.75000000  0.07304019  0.14251049
   0.25000000  0.83949138  0.29986738
   0.75000000  0.16050862  0.70013262
   0.75000000  0.73421491  0.02996025
   0.25000000  0.26578509  0.97003975
   0.75000000  0.60669813  0.43458622
   0.25000000  0.39330187  0.56541378
   0.25000000  0.45897748  0.37541681
   0.75000000  0.54102252  0.62458319
   0.25000000  0.59573838  0.00502038
   0.75000000  0.40426162  0.99497962
   0.75000000  0.01588588  0.32742239