  26  26   1   0
  0.3200851E+02  0.7802254E-09  0.9632142E-09  0.1153630E-08  0.1000000E-15
  1.000000000000000E-004
  CAR 
 CIS                                     
      6.39740221    -12.81635552  301      1.59596421      1.00000000
    -12.816  0.0000E+00  0.0000E+00
    -12.752  0.0000E+00  0.0000E+00
    -12.688  0.0000E+00  0.0000E+00
    -12.624  0.0000E+00  0.0000E+00
    -12.560  0.0000E+00  0.0000E+00
    -12.496  0.0000E+00  0.0000E+00
    -12.432  0.0000E+00  0.0000E+00
    -12.368  0.0000E+00  0.0000E+00
    -12.304  0.0000E+00  0.0000E+00
    -12.240  0.0000E+00  0.0000E+00
    -12.176  0.1509E-11  0.9664E-13
    -12.112  0.7144E-07  0.4575E-08
    -12.048  0.1621E-03  0.1038E-04
    -11.984  0.2303E-01  0.1486E-02
    -11.920  0.3679E+00  0.2505E-01
    -11.856  0.1026E+01  0.9077E-01
    -11.792  0.5155E+00  0.1238E+00
    -11.728  0.2242E+00  0.1381E+00
    -11.664  0.2586E+00  0.1547E+00
    -11.599  0.3827E+00  0.1792E+00
    -11.535  0.6932E+00  0.2236E+00
    -11.471  0.5935E+00  0.2616E+00
    -11.407  0.1167E+00  0.2691E+00
    -11.343  0.1764E+00  0.2804E+00
    -11.279  0.1651E+00  0.2910E+00
    -11.215  0.1629E+00  0.3014E+00
    -11.151  0.7595E-01  0.3063E+00
    -11.087  0.1308E+00  0.3146E+00
    -11.023  0.1172E+00  0.3222E+00
    -10.959  0.1222E+00  0.3300E+00
    -10.895  0.1350E+00  0.3386E+00
    -10.831  0.1901E+00  0.3508E+00
    -10.767  0.1647E+00  0.3614E+00
    -10.703  0.6507E-01  0.3655E+00
    -10.639  0.1405E+00  0.3745E+00
    -10.575  0.1959E+00  0.3871E+00
    -10.511  0.2553E+00  0.4034E+00
    -10.447  0.2683E+00  0.4206E+00
    -10.383  0.3367E+00  0.4422E+00
    -10.319  0.3918E+00  0.4673E+00
    -10.255  0.3325E+00  0.4886E+00
    -10.190  0.3530E+00  0.5112E+00
    -10.126  0.1998E+00  0.5240E+00
    -10.062  0.1991E-01  0.5252E+00
     -9.998  0.2006E-03  0.5253E+00
     -9.934  0.1192E-06  0.5253E+00
     -9.870  0.3188E-11  0.5253E+00
     -9.806  0.0000E+00  0.5253E+00
     -9.742  0.0000E+00  0.5253E+00
     -9.678  0.0000E+00  0.5253E+00
     -9.614  0.0000E+00  0.5253E+00
     -9.550  0.0000E+00  0.5253E+00
     -9.486  0.0000E+00  0.5253E+00
     -9.422  0.0000E+00  0.5253E+00
     -9.358  0.0000E+00  0.5253E+00
     -9.294  0.0000E+00  0.5253E+00
     -9.230  0.0000E+00  0.5253E+00
     -9.166  0.0000E+00  0.5253E+00
     -9.102  0.0000E+00  0.5253E+00
     -9.038  0.0000E+00  0.5253E+00
     -8.974  0.0000E+00  0.5253E+00
     -8.910  0.0000E+00  0.5253E+00
     -8.846  0.0000E+00  0.5253E+00
     -8.781  0.0000E+00  0.5253E+00
     -8.717  0.0000E+00  0.5253E+00
     -8.653  0.0000E+00  0.5253E+00
     -8.589  0.0000E+00  0.5253E+00
     -8.525  0.0000E+00  0.5253E+00
     -8.461  0.0000E+00  0.5253E+00
     -8.397  0.0000E+00  0.5253E+00
     -8.333  0.0000E+00  0.5253E+00
     -8.269  0.0000E+00  0.5253E+00
     -8.205  0.0000E+00  0.5253E+00
     -8.141  0.0000E+00  0.5253E+00
     -8.077  0.0000E+00  0.5253E+00
     -8.013  0.0000E+00  0.5253E+00
     -7.949  0.0000E+00  0.5253E+00
     -7.885  0.0000E+00  0.5253E+00
     -7.821  0.0000E+00  0.5253E+00
     -7.757  0.0000E+00  0.5253E+00
     -7.693  0.0000E+00  0.5253E+00
     -7.629  0.1687E-11  0.5253E+00
     -7.565  0.8009E-07  0.5253E+00
     -7.501  0.1680E-03  0.5253E+00
     -7.437  0.1774E-01  0.5264E+00
     -7.372  0.1212E+00  0.5342E+00
     -7.308  0.9624E-01  0.5403E+00
     -7.244  0.1661E+00  0.5510E+00
     -7.180  0.1657E+00  0.5616E+00
     -7.116  0.7896E-01  0.5666E+00
     -7.052  0.1168E+00  0.5741E+00
     -6.988  0.1804E+00  0.5857E+00
     -6.924  0.1750E+00  0.5969E+00
     -6.860  0.1086E+00  0.6038E+00
     -6.796  0.5348E-01  0.6073E+00
     -6.732  0.6531E-01  0.6115E+00
     -6.668  0.5831E-01  0.6152E+00
     -6.604  0.6563E-01  0.6194E+00
     -6.540  0.7580E-01  0.6242E+00
     -6.476  0.4201E-01  0.6269E+00
     -6.412  0.9392E-01  0.6329E+00
     -6.348  0.1536E+00  0.6428E+00
     -6.284  0.7010E-01  0.6473E+00
     -6.220  0.6809E-01  0.6516E+00
     -6.156  0.8460E-01  0.6571E+00
     -6.092  0.1058E+00  0.6638E+00
     -6.027  0.4305E-01  0.6666E+00
     -5.963  0.9968E-02  0.6672E+00
     -5.899  0.6875E-01  0.6716E+00
     -5.835  0.1096E+00  0.6786E+00
     -5.771  0.9513E-01  0.6847E+00
     -5.707  0.3155E-01  0.6868E+00
     -5.643  0.1658E-02  0.6869E+00
     -5.579  0.6008E-05  0.6869E+00
     -5.515  0.1012E-08  0.6869E+00
     -5.451  0.7068E-14  0.6869E+00
     -5.387  0.0000E+00  0.6869E+00
     -5.323  0.0000E+00  0.6869E+00
     -5.259  0.0000E+00  0.6869E+00
     -5.195  0.0000E+00  0.6869E+00
     -5.131  0.0000E+00  0.6869E+00
     -5.067  0.0000E+00  0.6869E+00
     -5.003  0.0000E+00  0.6869E+00
     -4.939  0.0000E+00  0.6869E+00
     -4.875  0.0000E+00  0.6869E+00
     -4.811  0.0000E+00  0.6869E+00
     -4.747  0.0000E+00  0.6869E+00
     -4.683  0.0000E+00  0.6869E+00
     -4.618  0.0000E+00  0.6869E+00
     -4.554  0.0000E+00  0.6869E+00
     -4.490  0.0000E+00  0.6869E+00
     -4.426  0.0000E+00  0.6869E+00
     -4.362  0.0000E+00  0.6869E+00
     -4.298  0.0000E+00  0.6869E+00
     -4.234  0.0000E+00  0.6869E+00
     -4.170  0.0000E+00  0.6869E+00
     -4.106  0.0000E+00  0.6869E+00
     -4.042  0.0000E+00  0.6869E+00
     -3.978  0.0000E+00  0.6869E+00
     -3.914  0.0000E+00  0.6869E+00
     -3.850  0.0000E+00  0.6869E+00
     -3.786  0.0000E+00  0.6869E+00
     -3.722  0.0000E+00  0.6869E+00
     -3.658  0.0000E+00  0.6869E+00
     -3.594  0.0000E+00  0.6869E+00
     -3.530  0.0000E+00  0.6869E+00
     -3.466  0.0000E+00  0.6869E+00
     -3.402  0.0000E+00  0.6869E+00
     -3.338  0.0000E+00  0.6869E+00
     -3.274  0.0000E+00  0.6869E+00
     -3.209  0.0000E+00  0.6869E+00
     -3.145  0.0000E+00  0.6869E+00
     -3.081  0.6712E-16  0.6869E+00
     -3.017  0.2793E-10  0.6869E+00
     -2.953  0.4870E-06  0.6869E+00
     -2.889  0.3878E-03  0.6869E+00
     -2.825  0.1772E-01  0.6880E+00
     -2.761  0.7609E-01  0.6929E+00
     -2.697  0.1234E+00  0.7008E+00
     -2.633  0.2085E+00  0.7142E+00
     -2.569  0.1995E+00  0.7269E+00
     -2.505  0.9437E-01  0.7330E+00
     -2.441  0.1680E+00  0.7437E+00
     -2.377  0.1461E+00  0.7531E+00
     -2.313  0.1766E+00  0.7644E+00
     -2.249  0.1944E+00  0.7769E+00
     -2.185  0.1700E+00  0.7877E+00
     -2.121  0.1705E+00  0.7987E+00
     -2.057  0.2151E+00  0.8124E+00
     -1.993  0.1655E+00  0.8230E+00
     -1.929  0.1309E+00  0.8314E+00
     -1.865  0.1636E+00  0.8419E+00
     -1.800  0.1417E+00  0.8510E+00
     -1.736  0.1517E+00  0.8607E+00
     -1.672  0.1396E+00  0.8696E+00
     -1.608  0.1919E+00  0.8819E+00
     -1.544  0.1895E+00  0.8941E+00
     -1.480  0.1754E+00  0.9053E+00
     -1.416  0.1367E+00  0.9140E+00
     -1.352  0.9643E-01  0.9202E+00
     -1.288  0.1210E+00  0.9280E+00
     -1.224  0.1606E+00  0.9383E+00
     -1.160  0.2086E+00  0.9516E+00
     -1.096  0.2991E+00  0.9708E+00
     -1.032  0.2173E+00  0.9847E+00
     -0.968  0.2385E+00  0.1000E+01
     -0.904  0.2604E+00  0.1017E+01
     -0.840  0.1854E+00  0.1029E+01
     -0.776  0.2710E+00  0.1046E+01
     -0.712  0.2830E+00  0.1064E+01
     -0.648  0.2223E+00  0.1078E+01
     -0.584  0.2194E+00  0.1092E+01
     -0.520  0.1467E+00  0.1102E+01
     -0.456  0.1293E+00  0.1110E+01
     -0.391  0.2768E+00  0.1128E+01
     -0.327  0.2429E+00  0.1143E+01
     -0.263  0.1165E+00  0.1151E+01
     -0.199  0.1410E+00  0.1160E+01
     -0.135  0.1217E+00  0.1168E+01
     -0.071  0.6550E-01  0.1172E+01
     -0.007  0.8969E-01  0.1177E+01
      0.057  0.1451E+00  0.1187E+01
      0.121  0.1331E+00  0.1195E+01
      0.185  0.2271E+00  0.1210E+01
      0.249  0.3237E+00  0.1231E+01
      0.313  0.2740E+00  0.1248E+01
      0.377  0.2652E+00  0.1265E+01
      0.441  0.2312E+00  0.1280E+01
      0.505  0.3482E+00  0.1302E+01
      0.569  0.3380E+00  0.1324E+01
      0.633  0.3065E+00  0.1343E+01
      0.697  0.2405E+00  0.1359E+01
      0.761  0.2608E+00  0.1376E+01
      0.825  0.2655E+00  0.1393E+01
      0.889  0.3102E+00  0.1412E+01
      0.954  0.3612E+00  0.1436E+01
      1.018  0.3052E+00  0.1455E+01
      1.082  0.3014E+00  0.1474E+01
      1.146  0.2384E+00  0.1490E+01
      1.210  0.2379E+00  0.1505E+01
      1.274  0.2814E+00  0.1523E+01
      1.338  0.1646E+00  0.1534E+01
      1.402  0.2808E-01  0.1535E+01
      1.466  0.5575E-03  0.1535E+01
      1.530  0.6521E-06  0.1535E+01
      1.594  0.3478E-10  0.1535E+01
      1.658  0.7588E-16  0.1535E+01
      1.722  0.0000E+00  0.1535E+01
      1.786  0.0000E+00  0.1535E+01
      1.850  0.0000E+00  0.1535E+01
      1.914  0.0000E+00  0.1535E+01
      1.978  0.0000E+00  0.1535E+01
      2.042  0.0000E+00  0.1535E+01
      2.106  0.0000E+00  0.1535E+01
      2.170  0.0000E+00  0.1535E+01
      2.234  0.0000E+00  0.1535E+01
      2.298  0.0000E+00  0.1535E+01
      2.363  0.0000E+00  0.1535E+01
      2.427  0.0000E+00  0.1535E+01
      2.491  0.1820E-13  0.1535E+01
      2.555  0.2076E-08  0.1535E+01
      2.619  0.9823E-05  0.1535E+01
      2.683  0.2113E-02  0.1535E+01
      2.747  0.2610E-01  0.1537E+01
      2.811  0.3927E-01  0.1540E+01
      2.875  0.3283E-01  0.1542E+01
      2.939  0.9135E-02  0.1542E+01
      3.003  0.4505E-01  0.1545E+01
      3.067  0.7551E-01  0.1550E+01
      3.131  0.8207E-01  0.1555E+01
      3.195  0.1030E+00  0.1562E+01
      3.259  0.1473E+00  0.1571E+01
      3.323  0.1238E+00  0.1579E+01
      3.387  0.1948E+00  0.1592E+01
      3.451  0.1772E+00  0.1603E+01
      3.515  0.1899E+00  0.1615E+01
      3.579  0.1097E+00  0.1622E+01
      3.643  0.1687E+00  0.1633E+01
      3.707  0.2257E+00  0.1648E+01
      3.772  0.1976E+00  0.1660E+01
      3.836  0.2375E+00  0.1675E+01
      3.900  0.1825E+00  0.1687E+01
      3.964  0.1657E+00  0.1698E+01
      4.028  0.2037E+00  0.1711E+01
      4.092  0.1670E+00  0.1721E+01
      4.156  0.1546E+00  0.1731E+01
      4.220  0.1644E+00  0.1742E+01
      4.284  0.1855E+00  0.1754E+01
      4.348  0.2188E+00  0.1768E+01
      4.412  0.1952E+00  0.1780E+01
      4.476  0.1840E+00  0.1792E+01
      4.540  0.2720E+00  0.1810E+01
      4.604  0.1973E+00  0.1822E+01
      4.668  0.1798E+00  0.1834E+01
      4.732  0.1558E+00  0.1844E+01
      4.796  0.2097E+00  0.1857E+01
      4.860  0.1648E+00  0.1868E+01
      4.924  0.1181E+00  0.1875E+01
      4.988  0.1833E+00  0.1887E+01
      5.052  0.1408E+00  0.1896E+01
      5.116  0.1795E+00  0.1907E+01
      5.181  0.1055E+00  0.1914E+01
      5.245  0.1634E+00  0.1925E+01
      5.309  0.2240E+00  0.1939E+01
      5.373  0.2228E+00  0.1953E+01
      5.437  0.1679E+00  0.1964E+01
      5.501  0.1653E+00  0.1975E+01
      5.565  0.7312E-01  0.1979E+01
      5.629  0.7578E-02  0.1980E+01
      5.693  0.8167E-04  0.1980E+01
      5.757  0.4723E-07  0.1980E+01
      5.821  0.1178E-11  0.1980E+01
      5.885  0.0000E+00  0.1980E+01
      5.949  0.0000E+00  0.1980E+01
      6.013  0.0000E+00  0.1980E+01
      6.077  0.0000E+00  0.1980E+01
      6.141  0.0000E+00  0.1980E+01
      6.205  0.0000E+00  0.1980E+01
      6.269  0.0000E+00  0.1980E+01
      6.333  0.0000E+00  0.1980E+01
      6.397  0.0000E+00  0.1980E+01
      6.39740221    -12.81635552  301      1.59596421      1.00000000
    -12.816  0.0000E+00  0.0000E+00  0.0000E+00
    -12.752  0.0000E+00  0.0000E+00  0.0000E+00
    -12.688  0.0000E+00  0.0000E+00  0.0000E+00
    -12.624  0.0000E+00  0.0000E+00  0.0000E+00
    -12.560  0.0000E+00  0.0000E+00  0.0000E+00
    -12.496  0.0000E+00  0.0000E+00  0.0000E+00
    -12.432  0.0000E+00  0.0000E+00  0.0000E+00
    -12.368  0.0000E+00  0.0000E+00  0.0000E+00
    -12.304  0.0000E+00  0.0000E+00  0.0000E+00
    -12.240  0.0000E+00  0.0000E+00  0.0000E+00
    -12.176  0.7141E-14  0.8199E-12  0.2244E-15
    -12.112  0.3056E-09  0.4034E-07  0.1132E-10
    -12.048  0.5944E-06  0.9858E-04  0.2757E-07
    -11.984  0.6553E-04  0.1505E-01  0.3879E-05
    -11.920  0.6522E-03  0.2187E+00  0.4975E-04
    -11.856  0.1026E-02  0.5035E+00  0.1163E-03
    -11.792  0.1051E-02  0.8036E+00  0.9248E-04
    -11.728  0.2235E-02  0.2501E+01  0.1527E-03
    -11.664  0.1383E-02  0.5582E+01  0.2072E-03
    -11.599  0.8662E-03  0.1152E+02  0.2081E-03
    -11.535  0.5071E-03  0.2833E+02  0.1944E-03
    -11.471  0.5048E-03  0.2433E+02  0.1508E-03
    -11.407  0.6264E-03  0.3802E+01  0.4959E-04
    -11.343  0.1761E-02  0.3637E+01  0.1609E-03
    -11.279  0.1478E-02  0.2609E+01  0.3507E-03
    -11.215  0.1315E-02  0.2150E+01  0.5286E-03
    -11.151  0.1125E-02  0.7436E+00  0.3813E-03
    -11.087  0.1769E-02  0.1121E+01  0.6245E-03
    -11.023  0.1280E-02  0.8285E+00  0.4838E-03
    -10.959  0.1031E-02  0.4085E+00  0.5024E-03
    -10.895  0.8200E-03  0.3581E+00  0.5246E-03
    -10.831  0.7086E-03  0.4101E+00  0.1153E-02
    -10.767  0.4134E-03  0.2840E+00  0.1405E-02
    -10.703  0.2348E-03  0.7742E-01  0.5143E-03
    -10.639  0.5698E-03  0.1685E+00  0.6610E-03
    -10.575  0.8980E-03  0.1910E+00  0.1255E-02
    -10.511  0.1440E-02  0.2390E+00  0.2323E-02
    -10.447  0.1266E-02  0.2380E+00  0.2375E-02
    -10.383  0.1213E-02  0.2768E+00  0.2357E-02
    -10.319  0.2396E-02  0.2522E+00  0.2362E-02
    -10.255  0.2985E-02  0.2437E+00  0.1638E-02
    -10.190  0.5915E-02  0.3530E+00  0.1781E-02
    -10.126  0.3105E-02  0.2262E+00  0.1234E-02
    -10.062  0.1840E-03  0.2699E-01  0.1424E-03
     -9.998  0.9417E-06  0.3006E-03  0.1550E-05
     -9.934  0.3826E-09  0.1834E-06  0.9451E-09
     -9.870  0.9205E-14  0.4921E-11  0.2552E-13
     -9.806  0.0000E+00  0.0000E+00  0.0000E+00
     -9.742  0.0000E+00  0.0000E+00  0.0000E+00
     -9.678  0.0000E+00  0.0000E+00  0.0000E+00
     -9.614  0.0000E+00  0.0000E+00  0.0000E+00
     -9.550  0.0000E+00  0.0000E+00  0.0000E+00
     -9.486  0.0000E+00  0.0000E+00  0.0000E+00
     -9.422  0.0000E+00  0.0000E+00  0.0000E+00
     -9.358  0.0000E+00  0.0000E+00  0.0000E+00
     -9.294  0.0000E+00  0.0000E+00  0.0000E+00
     -9.230  0.0000E+00  0.0000E+00  0.0000E+00
     -9.166  0.0000E+00  0.0000E+00  0.0000E+00
     -9.102  0.0000E+00  0.0000E+00  0.0000E+00
     -9.038  0.0000E+00  0.0000E+00  0.0000E+00
     -8.974  0.0000E+00  0.0000E+00  0.0000E+00
     -8.910  0.0000E+00  0.0000E+00  0.0000E+00
     -8.846  0.0000E+00  0.0000E+00  0.0000E+00
     -8.781  0.0000E+00  0.0000E+00  0.0000E+00
     -8.717  0.0000E+00  0.0000E+00  0.0000E+00
     -8.653  0.0000E+00  0.0000E+00  0.0000E+00
     -8.589  0.0000E+00  0.0000E+00  0.0000E+00
     -8.525  0.0000E+00  0.0000E+00  0.0000E+00
     -8.461  0.0000E+00  0.0000E+00  0.0000E+00
     -8.397  0.0000E+00  0.0000E+00  0.0000E+00
     -8.333  0.0000E+00  0.0000E+00  0.0000E+00
     -8.269  0.0000E+00  0.0000E+00  0.0000E+00
     -8.205  0.0000E+00  0.0000E+00  0.0000E+00
     -8.141  0.0000E+00  0.0000E+00  0.0000E+00
     -8.077  0.0000E+00  0.0000E+00  0.0000E+00
     -8.013  0.0000E+00  0.0000E+00  0.0000E+00
     -7.949  0.0000E+00  0.0000E+00  0.0000E+00
     -7.885  0.0000E+00  0.0000E+00  0.0000E+00
     -7.821  0.0000E+00  0.0000E+00  0.0000E+00
     -7.757  0.0000E+00  0.0000E+00  0.0000E+00
     -7.693  0.0000E+00  0.0000E+00  0.0000E+00
     -7.629  0.5780E-14  0.3373E-13  0.2883E-14
     -7.565  0.2777E-09  0.1665E-08  0.1400E-09
     -7.501  0.5936E-06  0.3695E-05  0.3043E-06
     -7.437  0.6429E-04  0.4182E-03  0.3364E-04
     -7.372  0.4514E-03  0.3062E-02  0.2416E-03
     -7.308  0.3353E-03  0.2410E-02  0.2030E-03
     -7.244  0.5769E-03  0.2912E-02  0.3030E-03
     -7.180  0.8662E-03  0.3058E-02  0.2698E-03
     -7.116  0.4180E-03  0.2205E-02  0.1934E-03
     -7.052  0.1846E-03  0.3813E-02  0.4460E-03
     -6.988  0.7767E-03  0.5480E-02  0.6927E-03
     -6.924  0.1000E-02  0.5196E-02  0.6911E-03
     -6.860  0.5419E-03  0.2485E-02  0.5757E-03
     -6.796  0.2666E-03  0.1053E-02  0.2868E-03
     -6.732  0.3335E-03  0.9164E-03  0.2699E-03
     -6.668  0.2239E-03  0.1837E-02  0.1541E-03
     -6.604  0.1907E-03  0.2348E-02  0.2695E-03
     -6.540  0.4804E-03  0.1679E-02  0.3617E-03
     -6.476  0.2901E-03  0.7745E-03  0.2421E-03
     -6.412  0.3552E-03  0.2590E-02  0.6614E-03
     -6.348  0.5112E-03  0.3834E-02  0.9516E-03
     -6.284  0.2164E-03  0.1663E-02  0.3740E-03
     -6.220  0.2513E-03  0.1285E-02  0.2550E-03
     -6.156  0.2442E-03  0.1533E-02  0.3112E-03
     -6.092  0.3438E-03  0.2666E-02  0.3629E-03
     -6.027  0.1436E-03  0.1089E-02  0.1414E-03
     -5.963  0.2042E-03  0.3545E-03  0.4691E-04
     -5.899  0.1691E-02  0.2741E-02  0.3090E-03
     -5.835  0.3124E-02  0.4518E-02  0.3849E-03
     -5.771  0.3287E-02  0.3534E-02  0.2397E-03
     -5.707  0.1221E-02  0.9665E-03  0.6976E-04
     -5.643  0.6709E-04  0.4582E-04  0.3505E-05
     -5.579  0.2448E-06  0.1632E-06  0.1261E-07
     -5.515  0.4128E-10  0.2744E-10  0.2123E-11
     -5.451  0.2883E-15  0.1916E-15  0.1482E-16
     -5.387  0.0000E+00  0.0000E+00  0.0000E+00
     -5.323  0.0000E+00  0.0000E+00  0.0000E+00
     -5.259  0.0000E+00  0.0000E+00  0.0000E+00
     -5.195  0.0000E+00  0.0000E+00  0.0000E+00
     -5.131  0.0000E+00  0.0000E+00  0.0000E+00
     -5.067  0.0000E+00  0.0000E+00  0.0000E+00
     -5.003  0.0000E+00  0.0000E+00  0.0000E+00
     -4.939  0.0000E+00  0.0000E+00  0.0000E+00
     -4.875  0.0000E+00  0.0000E+00  0.0000E+00
     -4.811  0.0000E+00  0.0000E+00  0.0000E+00
     -4.747  0.0000E+00  0.0000E+00  0.0000E+00
     -4.683  0.0000E+00  0.0000E+00  0.0000E+00
     -4.618  0.0000E+00  0.0000E+00  0.0000E+00
     -4.554  0.0000E+00  0.0000E+00  0.0000E+00
     -4.490  0.0000E+00  0.0000E+00  0.0000E+00
     -4.426  0.0000E+00  0.0000E+00  0.0000E+00
     -4.362  0.0000E+00  0.0000E+00  0.0000E+00
     -4.298  0.0000E+00  0.0000E+00  0.0000E+00
     -4.234  0.0000E+00  0.0000E+00  0.0000E+00
     -4.170  0.0000E+00  0.0000E+00  0.0000E+00
     -4.106  0.0000E+00  0.0000E+00  0.0000E+00
     -4.042  0.0000E+00  0.0000E+00  0.0000E+00
     -3.978  0.0000E+00  0.0000E+00  0.0000E+00
     -3.914  0.0000E+00  0.0000E+00  0.0000E+00
     -3.850  0.0000E+00  0.0000E+00  0.0000E+00
     -3.786  0.0000E+00  0.0000E+00  0.0000E+00
     -3.722  0.0000E+00  0.0000E+00  0.0000E+00
     -3.658  0.0000E+00  0.0000E+00  0.0000E+00
     -3.594  0.0000E+00  0.0000E+00  0.0000E+00
     -3.530  0.0000E+00  0.0000E+00  0.0000E+00
     -3.466  0.0000E+00  0.0000E+00  0.0000E+00
     -3.402  0.0000E+00  0.0000E+00  0.0000E+00
     -3.338  0.0000E+00  0.0000E+00  0.0000E+00
     -3.274  0.0000E+00  0.0000E+00  0.0000E+00
     -3.209  0.0000E+00  0.0000E+00  0.0000E+00
     -3.145  0.0000E+00  0.0000E+00  0.0000E+00
     -3.081  0.1848E-18  0.9273E-17  0.1681E-17
     -3.017  0.8031E-13  0.3861E-11  0.6968E-12
     -2.953  0.1535E-08  0.6744E-07  0.1204E-07
     -2.889  0.1529E-05  0.5395E-04  0.9348E-05
     -2.825  0.1013E-03  0.2494E-02  0.4029E-03
     -2.761  0.6695E-03  0.1105E-01  0.1616E-02
     -2.697  0.2300E-02  0.1921E-01  0.2908E-02
     -2.633  0.6191E-02  0.3539E-01  0.5841E-02
     -2.569  0.6684E-02  0.3420E-01  0.5919E-02
     -2.505  0.2877E-02  0.1344E-01  0.2989E-02
     -2.441  0.6310E-02  0.1815E-01  0.4591E-02
     -2.377  0.7424E-02  0.1250E-01  0.4305E-02
     -2.313  0.8098E-02  0.7465E-02  0.4774E-02
     -2.249  0.6749E-02  0.8620E-02  0.5163E-02
     -2.185  0.5736E-02  0.1091E-01  0.4382E-02
     -2.121  0.6035E-02  0.1316E-01  0.4454E-02
     -2.057  0.8073E-02  0.1523E-01  0.6116E-02
     -1.993  0.6757E-02  0.9367E-02  0.4896E-02
     -1.929  0.5956E-02  0.8858E-02  0.3733E-02
     -1.865  0.6070E-02  0.1333E-01  0.4421E-02
     -1.800  0.9485E-02  0.1084E-01  0.3567E-02
     -1.736  0.1619E-01  0.9661E-02  0.3487E-02
     -1.672  0.1167E-01  0.1053E-01  0.4503E-02
     -1.608  0.1016E-01  0.1487E-01  0.7281E-02
     -1.544  0.8184E-02  0.1731E-01  0.6321E-02
     -1.480  0.6194E-02  0.2257E-01  0.4574E-02
     -1.416  0.8892E-02  0.1884E-01  0.3813E-02
     -1.352  0.8003E-02  0.8126E-02  0.2908E-02
     -1.288  0.1040E-01  0.9706E-02  0.5496E-02
     -1.224  0.1266E-01  0.1894E-01  0.7631E-02
     -1.160  0.1334E-01  0.2605E-01  0.8855E-02
     -1.096  0.1700E-01  0.2941E-01  0.1453E-01
     -1.032  0.1879E-01  0.2195E-01  0.1345E-01
     -0.968  0.1312E-01  0.2497E-01  0.1635E-01
     -0.904  0.2249E-01  0.3149E-01  0.1358E-01
     -0.840  0.1518E-01  0.2049E-01  0.8591E-02
     -0.776  0.1106E-01  0.2274E-01  0.1129E-01
     -0.712  0.1263E-01  0.2679E-01  0.1460E-01
     -0.648  0.1465E-01  0.2792E-01  0.1082E-01
     -0.584  0.1109E-01  0.2925E-01  0.1042E-01
     -0.520  0.1555E-01  0.1718E-01  0.8427E-02
     -0.456  0.1644E-01  0.2255E-01  0.7566E-02
     -0.391  0.4188E-01  0.5050E-01  0.1917E-01
     -0.327  0.3398E-01  0.4896E-01  0.1479E-01
     -0.263  0.1094E-01  0.1917E-01  0.7703E-02
     -0.199  0.1670E-01  0.1749E-01  0.1371E-01
     -0.135  0.2883E-01  0.1948E-01  0.1024E-01
     -0.071  0.1824E-01  0.1412E-01  0.4905E-02
     -0.007  0.2465E-01  0.2282E-01  0.7583E-02
      0.057  0.4306E-01  0.3717E-01  0.1923E-01
      0.121  0.4146E-01  0.3393E-01  0.1716E-01
      0.185  0.6866E-01  0.7167E-01  0.2166E-01
      0.249  0.1034E+00  0.9240E-01  0.3235E-01
      0.313  0.5576E-01  0.8248E-01  0.2426E-01
      0.377  0.4342E-01  0.8006E-01  0.3218E-01
      0.441  0.2443E-01  0.9915E-01  0.2929E-01
      0.505  0.2087E-01  0.1323E+00  0.4641E-01
      0.569  0.1800E-01  0.1059E+00  0.5116E-01
      0.633  0.2873E-01  0.8766E-01  0.5051E-01
      0.697  0.2188E-01  0.7383E-01  0.3099E-01
      0.761  0.1927E-01  0.8321E-01  0.3340E-01
      0.825  0.2530E-01  0.7068E-01  0.4169E-01
      0.889  0.2826E-01  0.7288E-01  0.4971E-01
      0.954  0.2130E-01  0.9447E-01  0.5022E-01
      1.018  0.1072E-01  0.8332E-01  0.4398E-01
      1.082  0.9141E-02  0.7176E-01  0.4021E-01
      1.146  0.6496E-02  0.5748E-01  0.2804E-01
      1.210  0.3576E-02  0.3916E-01  0.2744E-01
      1.274  0.7334E-02  0.4211E-01  0.3579E-01
      1.338  0.8187E-02  0.2506E-01  0.2265E-01
      1.402  0.1679E-02  0.3611E-02  0.3776E-02
      1.466  0.3499E-04  0.6030E-04  0.7567E-04
      1.530  0.4264E-07  0.6210E-07  0.8970E-07
      1.594  0.2359E-11  0.2990E-11  0.4829E-11
      1.658  0.5307E-17  0.5955E-17  0.1061E-16
      1.722  0.0000E+00  0.0000E+00  0.0000E+00
      1.786  0.0000E+00  0.0000E+00  0.0000E+00
      1.850  0.0000E+00  0.0000E+00  0.0000E+00
      1.914  0.0000E+00  0.0000E+00  0.0000E+00
      1.978  0.0000E+00  0.0000E+00  0.0000E+00
      2.042  0.0000E+00  0.0000E+00  0.0000E+00
      2.106  0.0000E+00  0.0000E+00  0.0000E+00
      2.170  0.0000E+00  0.0000E+00  0.0000E+00
      2.234  0.0000E+00  0.0000E+00  0.0000E+00
      2.298  0.0000E+00  0.0000E+00  0.0000E+00
      2.363  0.0000E+00  0.0000E+00  0.0000E+00
      2.427  0.0000E+00  0.0000E+00  0.0000E+00
      2.491  0.1911E-14  0.1381E-14  0.2632E-14
      2.555  0.2180E-09  0.1576E-09  0.3002E-09
      2.619  0.1031E-05  0.7454E-06  0.1420E-05
      2.683  0.2218E-03  0.1604E-03  0.3056E-03
      2.747  0.2686E-02  0.1992E-02  0.3778E-02
      2.811  0.2607E-02  0.3320E-02  0.5825E-02
      2.875  0.4760E-03  0.3162E-02  0.5036E-02
      2.939  0.1545E-03  0.1292E-02  0.1306E-02
      3.003  0.1616E-02  0.7769E-02  0.5988E-02
      3.067  0.5243E-02  0.1058E-01  0.9084E-02
      3.131  0.5330E-02  0.1208E-01  0.8536E-02
      3.195  0.1071E-01  0.2801E-01  0.1408E-01
      3.259  0.2805E-01  0.3869E-01  0.2459E-01
      3.323  0.2939E-01  0.2214E-01  0.1749E-01
      3.387  0.2282E-01  0.3693E-01  0.2165E-01
      3.451  0.1958E-01  0.3430E-01  0.2233E-01
      3.515  0.2903E-01  0.4182E-01  0.2859E-01
      3.579  0.1423E-01  0.2440E-01  0.2019E-01
      3.643  0.1540E-01  0.4050E-01  0.3317E-01
      3.707  0.1950E-01  0.5731E-01  0.3585E-01
      3.772  0.1708E-01  0.6078E-01  0.2571E-01
      3.836  0.1811E-01  0.7604E-01  0.3774E-01
      3.900  0.1059E-01  0.6258E-01  0.4155E-01
      3.964  0.1256E-01  0.4107E-01  0.2992E-01
      4.028  0.1856E-01  0.2989E-01  0.2648E-01
      4.092  0.1172E-01  0.2998E-01  0.3690E-01
      4.156  0.1821E-01  0.3263E-01  0.3984E-01
      4.220  0.2041E-01  0.2871E-01  0.3443E-01
      4.284  0.1554E-01  0.3212E-01  0.4474E-01
      4.348  0.1624E-01  0.3461E-01  0.6026E-01
      4.412  0.1893E-01  0.3271E-01  0.4496E-01
      4.476  0.1674E-01  0.3428E-01  0.3830E-01
      4.540  0.1836E-01  0.5213E-01  0.5985E-01
      4.604  0.1035E-01  0.3771E-01  0.4622E-01
      4.668  0.8270E-02  0.3032E-01  0.5190E-01
      4.732  0.8314E-02  0.2515E-01  0.5157E-01
      4.796  0.1626E-01  0.3865E-01  0.5898E-01
      4.860  0.1864E-01  0.3267E-01  0.4029E-01
      4.924  0.1285E-01  0.1260E-01  0.1993E-01
      4.988  0.2601E-01  0.2344E-01  0.3232E-01
      5.052  0.1421E-01  0.2539E-01  0.2897E-01
      5.116  0.1867E-01  0.2760E-01  0.2998E-01
      5.181  0.1477E-01  0.1636E-01  0.1818E-01
      5.245  0.2162E-01  0.2334E-01  0.3450E-01
      5.309  0.4193E-01  0.3412E-01  0.4885E-01
      5.373  0.3528E-01  0.5172E-01  0.6219E-01
      5.437  0.3937E-01  0.5365E-01  0.5793E-01
      5.501  0.6413E-01  0.5114E-01  0.6136E-01
      5.565  0.3194E-01  0.2643E-01  0.3851E-01
      5.629  0.3555E-02  0.3455E-02  0.5464E-02
      5.693  0.3905E-04  0.4053E-04  0.6391E-04
      5.757  0.2265E-07  0.2382E-07  0.3746E-07
      5.821  0.5653E-12  0.5961E-12  0.9366E-12
      5.885  0.0000E+00  0.0000E+00  0.0000E+00
      5.949  0.0000E+00  0.0000E+00  0.0000E+00
      6.013  0.0000E+00  0.0000E+00  0.0000E+00
      6.077  0.0000E+00  0.0000E+00  0.0000E+00
      6.141  0.0000E+00  0.0000E+00  0.0000E+00
      6.205  0.0000E+00  0.0000E+00  0.0000E+00
      6.269  0.0000E+00  0.0000E+00  0.0000E+00
      6.333  0.0000E+00  0.0000E+00  0.0000E+00
      6.397  0.0000E+00  0.0000E+00  0.0000E+00
      6.39740221    -12.81635552  301      1.59596421      1.00000000
    -12.816  0.0000E+00  0.0000E+00  0.0000E+00
    -12.752  0.0000E+00  0.0000E+00  0.0000E+00
    -12.688  0.0000E+00  0.0000E+00  0.0000E+00
    -12.624  0.0000E+00  0.0000E+00  0.0000E+00
    -12.560  0.0000E+00  0.0000E+00  0.0000E+00
    -12.496  0.0000E+00  0.0000E+00  0.0000E+00
    -12.432  0.0000E+00  0.0000E+00  0.0000E+00
    -12.368  0.0000E+00  0.0000E+00  0.0000E+00
    -12.304  0.0000E+00  0.0000E+00  0.0000E+00
    -12.240  0.0000E+00  0.0000E+00  0.0000E+00
    -12.176  0.3062E-14  0.5097E-10  0.2414E-15
    -12.112  0.1300E-09  0.2452E-05  0.1136E-10
    -12.048  0.2453E-06  0.5715E-02  0.2624E-07
    -11.984  0.2505E-04  0.8623E+00  0.4111E-05
    -11.920  0.2323E-03  0.1531E+02  0.7547E-04
    -11.856  0.4124E-03  0.4595E+02  0.2175E-03
    -11.792  0.4569E-03  0.2157E+02  0.1250E-03
    -11.728  0.8181E-03  0.3214E+01  0.9782E-04
    -11.664  0.4853E-03  0.1476E+01  0.1205E-03
    -11.599  0.5438E-03  0.1202E+01  0.1601E-03
    -11.535  0.4965E-03  0.6486E+00  0.1878E-03
    -11.471  0.3522E-03  0.4423E+00  0.1855E-03
    -11.407  0.1281E-03  0.1046E+00  0.5130E-04
    -11.343  0.3185E-03  0.1623E+00  0.1254E-03
    -11.279  0.3233E-03  0.1385E+00  0.1450E-03
    -11.215  0.3859E-03  0.8678E-01  0.1466E-03
    -11.151  0.2975E-03  0.4888E-01  0.9316E-04
    -11.087  0.2752E-03  0.6621E-01  0.1802E-03
    -11.023  0.3143E-03  0.7291E-01  0.2218E-03
    -10.959  0.6409E-03  0.8045E-01  0.2650E-03
    -10.895  0.6905E-03  0.8285E-01  0.3583E-03
    -10.831  0.1071E-02  0.1052E+00  0.4243E-03
    -10.767  0.7607E-03  0.7960E-01  0.3774E-03
    -10.703  0.3252E-03  0.2414E-01  0.1527E-03
    -10.639  0.6657E-03  0.4216E-01  0.2636E-03
    -10.575  0.6818E-03  0.4615E-01  0.4297E-03
    -10.511  0.8862E-03  0.5747E-01  0.6787E-03
    -10.447  0.1324E-02  0.7042E-01  0.7539E-03
    -10.383  0.2126E-02  0.1047E+00  0.1091E-02
    -10.319  0.3276E-02  0.1472E+00  0.1500E-02
    -10.255  0.2060E-02  0.1296E+00  0.1645E-02
    -10.190  0.1374E-02  0.1009E+00  0.1919E-02
    -10.126  0.5913E-03  0.5450E-01  0.1140E-02
    -10.062  0.4540E-04  0.5346E-02  0.1180E-03
     -9.998  0.4092E-06  0.5329E-04  0.1203E-05
     -9.934  0.2405E-09  0.3123E-07  0.7174E-09
     -9.870  0.6572E-14  0.8229E-12  0.1925E-13
     -9.806  0.0000E+00  0.0000E+00  0.0000E+00
     -9.742  0.0000E+00  0.0000E+00  0.0000E+00
     -9.678  0.0000E+00  0.0000E+00  0.0000E+00
     -9.614  0.0000E+00  0.0000E+00  0.0000E+00
     -9.550  0.0000E+00  0.0000E+00  0.0000E+00
     -9.486  0.0000E+00  0.0000E+00  0.0000E+00
     -9.422  0.0000E+00  0.0000E+00  0.0000E+00
     -9.358  0.0000E+00  0.0000E+00  0.0000E+00
     -9.294  0.0000E+00  0.0000E+00  0.0000E+00
     -9.230  0.0000E+00  0.0000E+00  0.0000E+00
     -9.166  0.0000E+00  0.0000E+00  0.0000E+00
     -9.102  0.0000E+00  0.0000E+00  0.0000E+00
     -9.038  0.0000E+00  0.0000E+00  0.0000E+00
     -8.974  0.0000E+00  0.0000E+00  0.0000E+00
     -8.910  0.0000E+00  0.0000E+00  0.0000E+00
     -8.846  0.0000E+00  0.0000E+00  0.0000E+00
     -8.781  0.0000E+00  0.0000E+00  0.0000E+00
     -8.717  0.0000E+00  0.0000E+00  0.0000E+00
     -8.653  0.0000E+00  0.0000E+00  0.0000E+00
     -8.589  0.0000E+00  0.0000E+00  0.0000E+00
     -8.525  0.0000E+00  0.0000E+00  0.0000E+00
     -8.461  0.0000E+00  0.0000E+00  0.0000E+00
     -8.397  0.0000E+00  0.0000E+00  0.0000E+00
     -8.333  0.0000E+00  0.0000E+00  0.0000E+00
     -8.269  0.0000E+00  0.0000E+00  0.0000E+00
     -8.205  0.0000E+00  0.0000E+00  0.0000E+00
     -8.141  0.0000E+00  0.0000E+00  0.0000E+00
     -8.077  0.0000E+00  0.0000E+00  0.0000E+00
     -8.013  0.0000E+00  0.0000E+00  0.0000E+00
     -7.949  0.0000E+00  0.0000E+00  0.0000E+00
     -7.885  0.0000E+00  0.0000E+00  0.0000E+00
     -7.821  0.0000E+00  0.0000E+00  0.0000E+00
     -7.757  0.0000E+00  0.0000E+00  0.0000E+00
     -7.693  0.0000E+00  0.0000E+00  0.0000E+00
     -7.629  0.1402E-14  0.2837E-13  0.3511E-14
     -7.565  0.7049E-10  0.1330E-08  0.1686E-09
     -7.501  0.1601E-06  0.2735E-05  0.3601E-06
     -7.437  0.1854E-04  0.2809E-03  0.3892E-04
     -7.372  0.1385E-03  0.1862E-02  0.2726E-03
     -7.308  0.1275E-03  0.1445E-02  0.2025E-03
     -7.244  0.2922E-03  0.2116E-02  0.2405E-03
     -7.180  0.3272E-03  0.1661E-02  0.2254E-03
     -7.116  0.2007E-03  0.9241E-03  0.1314E-03