       N       E                     dE             d eps       ncg     rms          rms(c)
DAV:   1     0.791959361309E+03    0.79196E+03   -0.42722E+04  1190   0.835E+02
DAV:   2    -0.195321374756E+02   -0.81149E+03   -0.78788E+03  1442   0.209E+02
DAV:   3    -0.984066189710E+02   -0.78874E+02   -0.78154E+02  1428   0.648E+01
DAV:   4    -0.100203408900E+03   -0.17968E+01   -0.17868E+01  1428   0.107E+01
DAV:   5    -0.100241012157E+03   -0.37603E-01   -0.37573E-01  1428   0.157E+00    0.166E+01
DAV:   6    -0.969362826138E+02    0.33047E+01   -0.55769E+00  1344   0.626E+00    0.111E+01
DAV:   7    -0.967895484366E+02    0.14673E+00   -0.38228E+00  1414   0.443E+00    0.301E+00
DAV:   8    -0.967428745040E+02    0.46674E-01   -0.41014E-01  1344   0.178E+00    0.169E+00
DAV:   9    -0.967585920086E+02   -0.15718E-01   -0.76469E-02  1344   0.756E-01    0.268E-01
DAV:  10    -0.967604018435E+02   -0.18098E-02   -0.30034E-03  1512   0.155E-01    0.143E-01
DAV:  11    -0.967630951234E+02   -0.26933E-02   -0.27361E-03  1344   0.146E-01    0.649E-02
DAV:  12    -0.967635136430E+02   -0.41852E-03   -0.46086E-04  1414   0.596E-02    0.475E-02
DAV:  13    -0.967636427294E+02   -0.12909E-03   -0.11228E-04   952   0.320E-02    0.230E-02
DAV:  14    -0.967637005783E+02   -0.57849E-04   -0.95178E-05   966   0.260E-02
   1 F= -.96763701E+02 E0= -.96763701E+02  d E =-.967637E+02
       N       E                     dE             d eps       ncg     rms          rms(c)
DAV:   1    -0.997996571510E+02   -0.30360E+01   -0.24258E+01  1344   0.131E+01    0.557E+00
DAV:   2    -0.992042562017E+02    0.59540E+00   -0.16608E+00  1372   0.322E+00    0.226E+00
DAV:   3    -0.990189680075E+02    0.18529E+00   -0.48712E-01  1344   0.159E+00    0.759E-01
DAV:   4    -0.989968171370E+02    0.22151E-01   -0.22196E-02  1442   0.478E-01    0.453E-01
DAV:   5    -0.989925069882E+02    0.43101E-02   -0.10937E-02  1428   0.261E-01    0.189E-01
DAV:   6    -0.989925726764E+02   -0.65688E-04   -0.88908E-04  1400   0.848E-02
   2 F= -.98992573E+02 E0= -.98992573E+02  d E =-.222887E+01
       N       E                     dE             d eps       ncg     rms          rms(c)
DAV:   1    -0.104266820880E+03   -0.52743E+01   -0.13690E+02  1344   0.301E+01    0.118E+01
DAV:   2    -0.100839081884E+03    0.34277E+01   -0.93352E+00  1386   0.740E+00    0.508E+00
DAV:   3    -0.998446733936E+02    0.99441E+00   -0.24611E+00  1344   0.350E+00    0.189E+00
DAV:   4    -0.996975370760E+02    0.14714E+00   -0.16986E-01  1428   0.116E+00    0.995E-01
DAV:   5    -0.996792369113E+02    0.18300E-01   -0.45469E-02  1428   0.498E-01    0.466E-01
DAV:   6    -0.996796630374E+02   -0.42613E-03   -0.35233E-03  1414   0.156E-01    0.193E-01
DAV:   7    -0.996797668127E+02   -0.10378E-03   -0.13186E-03  1344   0.100E-01    0.507E-02
DAV:   8    -0.996798823289E+02   -0.11552E-03   -0.16913E-04  1036   0.357E-02    0.251E-02
DAV:   9    -0.996799390271E+02   -0.56698E-04   -0.41240E-05   910   0.189E-02
   3 F= -.99679939E+02 E0= -.99679939E+02  d E =-.291624E+01
       N       E                     dE             d eps       ncg     rms          rms(c)
DAV:   1    -0.100558924328E+03   -0.87904E+00   -0.15939E+01  1302   0.101E+01    0.438E+00
DAV:   2    -0.100182335789E+03    0.37659E+00   -0.99421E-01  1288   0.248E+00    0.168E+00
DAV:   3    -0.100075684992E+03    0.10665E+00   -0.27990E-01  1344   0.117E+00    0.670E-01
DAV:   4    -0.100059956647E+03    0.15728E-01   -0.15059E-02  1428   0.379E-01    0.389E-01
DAV:   5    -0.100056882840E+03    0.30738E-02   -0.80883E-03  1428   0.212E-01    0.183E-01
DAV:   6    -0.100056906148E+03   -0.23308E-04   -0.40576E-04  1288   0.562E-02
   4 F= -.10005691E+03 E0= -.10005691E+03  d E =-.329321E+01
       N       E                     dE             d eps       ncg     rms          rms(c)
DAV:   1    -0.100095159134E+03   -0.38276E-01   -0.85771E-01  1316   0.237E+00    0.101E+00
DAV:   2    -0.100074361771E+03    0.20797E-01   -0.54625E-02  1330   0.582E-01    0.394E-01
DAV:   3    -0.100068467745E+03    0.58940E-02   -0.15772E-02  1344   0.279E-01    0.149E-01
DAV:   4    -0.100067663047E+03    0.80470E-03   -0.80768E-04  1428   0.887E-02    0.874E-02
DAV:   5    -0.100067532518E+03    0.13053E-03   -0.41940E-04  1260   0.490E-02    0.401E-02
DAV:   6    -0.100067540812E+03   -0.82943E-05   -0.22520E-05   840   0.142E-02
   5 F= -.10006754E+03 E0= -.10006754E+03  d E =-.330384E+01
       N       E                     dE             d eps       ncg     rms          rms(c)
DAV:   1    -0.100069219273E+03   -0.16868E-02   -0.25667E-02  1316   0.411E-01    0.175E-01
DAV:   2    -0.100068607522E+03    0.61175E-03   -0.16172E-03  1302   0.999E-02    0.688E-02
DAV:   3    -0.100068422971E+03    0.18455E-03   -0.45763E-04  1302   0.476E-02    0.261E-02
DAV:   4    -0.100068391155E+03    0.31816E-04   -0.21948E-05   728   0.153E-02
   6 F= -.10006839E+03 E0= -.10006839E+03  d E =-.330469E+01
       N       E                     dE             d eps       ncg     rms          rms(c)
DAV:   1    -0.100070281405E+03   -0.18584E-02   -0.99023E-02  1316   0.807E-01    0.341E-01
DAV:   2    -0.100067826508E+03    0.24549E-02   -0.63098E-03  1316   0.197E-01    0.134E-01
DAV:   3    -0.100067112298E+03    0.71421E-03   -0.18312E-03  1344   0.949E-02    0.517E-02
DAV:   4    -0.100066999420E+03    0.11288E-03   -0.87466E-05   896   0.303E-02    0.289E-02
DAV:   5    -0.100066969404E+03    0.30017E-04   -0.66119E-05   784   0.203E-02
   7 F= -.10006697E+03 E0= -.10006697E+03  d E =-.330327E+01
       N       E                     dE             d eps       ncg     rms          rms(c)
DAV:   1    -0.100070143291E+03   -0.31439E-02   -0.54023E-02  1316   0.596E-01    0.257E-01
DAV:   2    -0.100068873034E+03    0.12703E-02   -0.34446E-03  1288   0.146E-01    0.100E-01
DAV:   3    -0.100068520252E+03    0.35278E-03   -0.98264E-04  1344   0.694E-02    0.368E-02
DAV:   4    -0.100068476803E+03    0.43449E-04   -0.45003E-05   644   0.220E-02
   8 F= -.10006848E+03 E0= -.10006848E+03  d E =-.330478E+01
       N       E                     dE             d eps       ncg     rms          rms(c)
DAV:   1    -0.100068498605E+03    0.21647E-04   -0.42274E-04  1078   0.525E-02    0.216E-02
DAV:   2    -0.100068485087E+03    0.13517E-04   -0.31061E-05   630   0.152E-02
   9 F= -.10006849E+03 E0= -.10006849E+03  d E =-.330478E+01
       N       E                     dE             d eps       ncg     rms          rms(c)
DAV:   1    -0.100091782677E+03   -0.23284E-01   -0.26356E-01  1176   0.125E+00    0.320E-01
DAV:   2    -0.100090763475E+03    0.10192E-02   -0.12649E-02  1386   0.285E-01    0.153E-01
DAV:   3    -0.100089842957E+03    0.92052E-03   -0.91482E-04  1442   0.831E-02    0.836E-02
DAV:   4    -0.100089520713E+03    0.32224E-03   -0.65441E-04  1344   0.685E-02    0.218E-02
DAV:   5    -0.100089523630E+03   -0.29166E-05   -0.83259E-05   826   0.243E-02
  10 F= -.10008952E+03 E0= -.10008952E+03  d E =-.210385E-01
       N       E                     dE             d eps       ncg     rms          rms(c)
DAV:   1    -0.100147789058E+03   -0.58268E-01   -0.23759E+00  1176   0.376E+00    0.957E-01
DAV:   2    -0.100138625623E+03    0.91634E-02   -0.11388E-01  1400   0.854E-01    0.458E-01
DAV:   3    -0.100130317467E+03    0.83082E-02   -0.82325E-03  1442   0.251E-01    0.251E-01
DAV:   4    -0.100127419005E+03    0.28985E-02   -0.59508E-03  1358   0.208E-01    0.663E-02
DAV:   5    -0.100127460118E+03   -0.41113E-04   -0.85251E-04  1428   0.736E-02
  11 F= -.10012746E+03 E0= -.10012746E+03  d E =-.589750E-01
       N       E                     dE             d eps       ncg     rms          rms(c)
DAV:   1    -0.100185689773E+03   -0.58271E-01   -0.95241E+00  1176   0.753E+00    0.192E+00
DAV:   2    -0.100149203049E+03    0.36487E-01   -0.45710E-01  1400   0.170E+00    0.921E-01
DAV:   3    -0.100115983550E+03    0.33219E-01   -0.32669E-02  1414   0.493E-01    0.507E-01
DAV:   4    -0.100104214011E+03    0.11770E-01   -0.24244E-02  1372   0.422E-01    0.133E-01
DAV:   5    -0.100104401225E+03   -0.18721E-03   -0.35291E-03  1442   0.150E-01    0.100E-01
DAV:   6    -0.100104460638E+03   -0.59413E-04   -0.17276E-04   868   0.379E-02
  12 F= -.10010446E+03 E0= -.10010446E+03  d E =-.359756E-01
       N       E                     dE             d eps       ncg     rms          rms(c)
DAV:   1    -0.100175163688E+03   -0.70762E-01   -0.46913E+00  1176   0.528E+00    0.137E+00
DAV:   2    -0.100156182192E+03    0.18981E-01   -0.22402E-01  1414   0.120E+00    0.648E-01
DAV:   3    -0.100139764236E+03    0.16418E-01   -0.16168E-02  1414   0.342E-01    0.363E-01
DAV:   4    -0.100133829756E+03    0.59345E-02   -0.12110E-02  1372   0.289E-01    0.932E-02
DAV:   5    -0.100133900959E+03   -0.71204E-04   -0.17140E-03  1442   0.103E-01    0.709E-02
DAV:   6    -0.100133924457E+03   -0.23498E-04   -0.82680E-05   840   0.266E-02
  13 F= -.10013392E+03 E0= -.10013392E+03  d E =-.654394E-01
       N       E                     dE             d eps       ncg     rms          rms(c)
DAV:   1    -0.100159819503E+03   -0.25919E-01   -0.67585E-01  1176   0.196E+00    0.370E-01
DAV:   2    -0.100161236711E+03   -0.14172E-02   -0.39432E-02  1428   0.468E-01    0.167E-01
DAV:   3    -0.100160720008E+03    0.51670E-03   -0.17466E-03  1428   0.103E-01    0.106E-01
DAV:   4    -0.100160478559E+03    0.24145E-03   -0.32726E-04  1190   0.477E-02    0.460E-02
DAV:   5    -0.100160433151E+03    0.45408E-04   -0.16348E-04   840   0.357E-02
  14 F= -.10016043E+03 E0= -.10016043E+03  d E =-.265087E-01
       N       E                     dE             d eps       ncg     rms          rms(c)
DAV:   1    -0.100198612723E+03   -0.38134E-01   -0.61024E+00  1176   0.588E+00    0.112E+00
DAV:   2    -0.100211468431E+03   -0.12856E-01   -0.35895E-01  1428   0.141E+00    0.500E-01
DAV:   3    -0.100206721308E+03    0.47471E-02   -0.15502E-02  1428   0.309E-01    0.316E-01
DAV:   4    -0.100204529295E+03    0.21920E-02   -0.31415E-03  1428   0.146E-01    0.138E-01
DAV:   5    -0.100204131094E+03    0.39820E-03   -0.14176E-03  1428   0.100E-01    0.638E-02
DAV:   6    -0.100204143566E+03   -0.12472E-04   -0.18984E-04   910   0.363E-02
  15 F= -.10020414E+03 E0= -.10020414E+03  d E =-.702191E-01
       N       E                     dE             d eps       ncg     rms          rms(c)
DAV:   1    -0.100205228337E+03   -0.10972E-02   -0.53274E-01  1176   0.174E+00    0.330E-01
DAV:   2    -0.100206381589E+03   -0.11533E-02   -0.31531E-02  1428   0.419E-01    0.147E-01
DAV:   3    -0.100205960116E+03    0.42147E-03   -0.13128E-03  1428   0.902E-02    0.956E-02
DAV:   4    -0.100205761513E+03    0.19860E-03   -0.27546E-04  1036   0.442E-02    0.407E-02
DAV:   5    -0.100205732902E+03    0.28611E-04   -0.14954E-04   840   0.343E-02
  16 F= -.10020573E+03 E0= -.10020573E+03  d E =-.718084E-01
       N       E                     dE             d eps       ncg     rms          rms(c)
DAV:   1    -0.100224382665E+03   -0.18621E-01   -0.24977E+00  1176   0.373E+00    0.643E-01
DAV:   2    -0.100234300597E+03   -0.99179E-02   -0.14180E-01  1344   0.867E-01    0.274E-01
DAV:   3    -0.100233116603E+03    0.11840E-02   -0.34881E-03  1484   0.158E-01    0.183E-01
DAV:   4    -0.100232451674E+03    0.66493E-03   -0.92531E-04  1344   0.849E-02    0.743E-02
DAV:   5    -0.100232342079E+03    0.10960E-03   -0.43787E-04  1344   0.572E-02    0.318E-02
DAV:   6    -0.100232342872E+03   -0.79350E-06   -0.58413E-05   840   0.198E-02
  17 F= -.10023234E+03 E0= -.10023234E+03  d E =-.266100E-01
       N       E                     dE             d eps       ncg     rms          rms(c)
DAV:   1    -0.100230098110E+03    0.22440E-02   -0.47835E+00  1176   0.515E+00    0.884E-01
DAV:   2    -0.100249220072E+03   -0.19122E-01   -0.27202E-01  1344   0.120E+00    0.380E-01
DAV:   3    -0.100246982503E+03    0.22376E-02   -0.65681E-03  1484   0.217E-01    0.256E-01
DAV:   4    -0.100245715177E+03    0.12673E-02   -0.17768E-03  1344   0.118E-01    0.104E-01
DAV:   5    -0.100245512643E+03    0.20253E-03   -0.83830E-04  1386   0.792E-02    0.439E-02
DAV:   6    -0.100245514567E+03   -0.19239E-05   -0.11246E-04   840   0.274E-02
  18 F= -.10024551E+03 E0= -.10024551E+03  d E =-.397817E-01
       N       E                     dE             d eps       ncg     rms          rms(c)
DAV:   1    -0.100302322701E+03   -0.56810E-01   -0.35229E+00  1176   0.457E+00    0.103E+00
DAV:   2    -0.100286409828E+03    0.15913E-01   -0.17173E-01  1344   0.102E+00    0.507E-01
DAV:   3    -0.100277741280E+03    0.86685E-02   -0.16076E-02  1414   0.296E-01    0.267E-01
DAV:   4    -0.100275515859E+03    0.22254E-02   -0.38796E-03  1428   0.162E-01    0.115E-01
DAV:   5    -0.100275395441E+03    0.12042E-03   -0.63315E-04  1344   0.646E-02    0.550E-02
DAV:   6    -0.100275406345E+03   -0.10904E-04   -0.46870E-05   840   0.200E-02
  19 F= -.10027541E+03 E0= -.10027541E+03  d E =-.298918E-01
       N       E                     dE             d eps       ncg     rms          rms(c)
DAV:   1    -0.100308187857E+03   -0.32792E-01   -0.31773E+00  1176   0.434E+00    0.984E-01
DAV:   2    -0.100293725025E+03    0.14463E-01   -0.15454E-01  1344   0.966E-01    0.486E-01
DAV:   3    -0.100285839898E+03    0.78851E-02   -0.14496E-02  1414   0.282E-01    0.256E-01
DAV:   4    -0.100283822497E+03    0.20174E-02   -0.35429E-03  1428   0.156E-01    0.108E-01
DAV:   5    -0.100283718958E+03    0.10354E-03   -0.56575E-04  1344   0.612E-02    0.520E-02
DAV:   6    -0.100283728654E+03   -0.96961E-05   -0.41503E-05   840   0.188E-02
  20 F= -.10028373E+03 E0= -.10028373E+03  d E =-.382141E-01
       N       E                     dE             d eps       ncg     rms          rms(c)
DAV:   1    -0.100284847346E+03   -0.11284E-02   -0.10396E-01  1232   0.786E-01    0.178E-01
DAV:   2    -0.100284369090E+03    0.47826E-03   -0.49793E-03  1344   0.174E-01    0.893E-02
DAV:   3    -0.100284105628E+03    0.26346E-03   -0.48000E-04  1358   0.512E-02    0.462E-02
DAV:   4    -0.100284030523E+03    0.75105E-04   -0.10376E-04   812   0.282E-02
  21 F= -.10028403E+03 E0= -.10028403E+03  d E =-.385160E-01
       N       E                     dE             d eps       ncg     rms          rms(c)
DAV:   1    -0.100298969820E+03   -0.14864E-01   -0.92467E-01  1190   0.236E+00    0.484E-01
DAV:   2    -0.100298581685E+03    0.38813E-03   -0.48703E-02  1442   0.529E-01    0.217E-01
DAV:   3    -0.100297417688E+03    0.11640E-02   -0.23404E-03  1428   0.118E-01    0.126E-01
DAV:   4    -0.100297030007E+03    0.38768E-03   -0.76478E-04  1428   0.697E-02    0.481E-02
DAV:   5    -0.100297014280E+03    0.15727E-04   -0.89834E-05   840   0.261E-02
  22 F= -.10029701E+03 E0= -.10029701E+03  d E =-.129838E-01
       N       E                     dE             d eps       ncg     rms          rms(c)
DAV:   1    -0.100299892040E+03   -0.28620E-02   -0.19704E-01  1204   0.109E+00    0.223E-01
DAV:   2    -0.100299816988E+03    0.75053E-04   -0.10387E-02  1442   0.244E-01    0.976E-02
DAV:   3    -0.100299567606E+03    0.24938E-03   -0.49037E-04  1414   0.545E-02    0.577E-02
DAV:   4    -0.100299485483E+03    0.82124E-04   -0.15499E-04   882   0.328E-02
  23 F= -.10029949E+03 E0= -.10029949E+03  d E =-.154550E-01
       N       E                     dE             d eps       ncg     rms          rms(c)
DAV:   1    -0.100306762741E+03   -0.71951E-02   -0.86376E-01  1176   0.225E+00    0.410E-01
DAV:   2    -0.100309868115E+03   -0.31054E-02   -0.49703E-02  1442   0.524E-01    0.148E-01
DAV:   3    -0.100309430091E+03    0.43802E-03   -0.12985E-03  1442   0.948E-02    0.100E-01
DAV:   4    -0.100309233922E+03    0.19617E-03   -0.33720E-04  1162   0.487E-02    0.408E-02
DAV:   5    -0.100309218304E+03    0.15618E-04   -0.10536E-04   840   0.283E-02
  24 F= -.10030922E+03 E0= -.10030922E+03  d E =-.973282E-02
       N       E                     dE             d eps       ncg     rms          rms(c)
DAV:   1    -0.100310044093E+03   -0.81017E-03   -0.29066E-01  1176   0.131E+00    0.242E-01
DAV:   2    -0.100311097633E+03   -0.10535E-02   -0.16757E-02  1442   0.304E-01    0.844E-02
DAV:   3    -0.100310948883E+03    0.14875E-03   -0.42461E-04  1414   0.546E-02    0.567E-02
DAV:   4    -0.100310882001E+03    0.66882E-04   -0.11054E-04   840   0.289E-02
  25 F= -.10031088E+03 E0= -.10031088E+03  d E =-.113965E-01
       N       E                     dE             d eps       ncg     rms          rms(c)
DAV:   1    -0.100315456350E+03   -0.45075E-02   -0.36345E-01  1176   0.146E+00    0.275E-01
DAV:   2    -0.100315534209E+03   -0.77860E-04   -0.16486E-02  1428   0.312E-01    0.130E-01
DAV:   3    -0.100315148336E+03    0.38587E-03   -0.66591E-04  1442   0.653E-02    0.798E-02
DAV:   4    -0.100314981358E+03    0.16698E-03   -0.26394E-04   952   0.448E-02    0.254E-02
DAV:   5    -0.100314981671E+03   -0.31311E-06   -0.75363E-05   840   0.240E-02
  26 F= -.10031498E+03 E0= -.10031498E+03  d E =-.409967E-02
       N       E                     dE             d eps       ncg     rms          rms(c)
DAV:   1    -0.100315331240E+03   -0.34988E-03   -0.83277E-02  1176   0.699E-01    0.133E-01
DAV:   2    -0.100315355706E+03   -0.24466E-04   -0.38151E-03  1428   0.150E-01    0.617E-02
DAV:   3    -0.100315265562E+03    0.90144E-04   -0.13172E-04   840   0.311E-02
  27 F= -.10031527E+03 E0= -.10031527E+03  d E =-.438356E-02
       N       E                     dE             d eps       ncg     rms          rms(c)
DAV:   1    -0.100318496553E+03   -0.31408E-02   -0.19194E-01  1204   0.105E+00    0.211E-01
DAV:   2    -0.100318334490E+03    0.16206E-03   -0.81965E-03  1428   0.224E-01    0.103E-01
DAV:   3    -0.100318064254E+03    0.27024E-03   -0.43846E-04  1372   0.534E-02    0.623E-02
DAV:   4    -0.100317954045E+03    0.11021E-03   -0.15620E-04   840   0.370E-02    0.186E-02
DAV:   5    -0.100317955968E+03   -0.19228E-05   -0.60076E-05   840   0.209E-02
  28 F= -.10031796E+03 E0= -.10031796E+03  d E =-.269041E-02
       N       E                     dE             d eps       ncg     rms          rms(c)
DAV:   1    -0.100319403370E+03   -0.14493E-02   -0.14953E-01  1204   0.931E-01    0.188E-01
DAV:   2    -0.100319330747E+03    0.72623E-04   -0.64815E-03  1414   0.199E-01    0.880E-02
DAV:   3    -0.100319131955E+03    0.19879E-03   -0.31017E-04  1120   0.463E-02    0.523E-02
DAV:   4    -0.100319051465E+03    0.80490E-04   -0.15292E-04   840   0.361E-02
  29 F= -.10031905E+03 E0= -.10031905E+03  d E =-.378590E-02
       N       E                     dE             d eps       ncg     rms          rms(c)
DAV:   1    -0.100319143757E+03   -0.11802E-04   -0.32523E-02  1218   0.434E-01    0.885E-02
DAV:   2    -0.100319125756E+03    0.18000E-04   -0.13941E-03  1428   0.923E-02    0.401E-02
DAV:   3    -0.100319082386E+03    0.43370E-04   -0.65457E-05   826   0.220E-02
  30 F= -.10031908E+03 E0= -.10031908E+03  d E =-.381682E-02
       N       E                     dE             d eps       ncg     rms          rms(c)
DAV:   1    -0.100322357375E+03   -0.32316E-02   -0.18664E-01  1204   0.104E+00    0.188E-01
DAV:   2    -0.100322407259E+03   -0.49885E-04   -0.81515E-03  1442   0.221E-01    0.940E-02
DAV:   3    -0.100322233611E+03    0.17365E-03   -0.38793E-04  1358   0.489E-02    0.559E-02
DAV:   4    -0.100322156100E+03    0.77511E-04   -0.89125E-05   840   0.276E-02
  31 F= -.10032216E+03 E0= -.10032216E+03  d E =-.307371E-02
       N       E                     dE             d eps       ncg     rms          rms(c)
DAV:   1    -0.100325202627E+03   -0.29690E-02   -0.92044E-01  1176   0.231E+00    0.414E-01
DAV:   2    -0.100325526339E+03   -0.32371E-03   -0.40370E-02  1428   0.491E-01    0.204E-01
DAV:   3    -0.100324700175E+03    0.82616E-03   -0.19278E-03  1470   0.109E-01    0.121E-01
DAV:   4    -0.100324341358E+03    0.35882E-03   -0.45176E-04  1260   0.593E-02    0.445E-02
DAV:   5    -0.100324301443E+03    0.39915E-04   -0.13171E-04   840   0.333E-02
  32 F= -.10032430E+03 E0= -.10032430E+03  d E =-.521906E-02
       N       E                     dE             d eps       ncg     rms          rms(c)
DAV:   1    -0.100326213864E+03   -0.18725E-02   -0.19932E-01  1190   0.106E+00    0.169E-01
DAV:   2    -0.100326594563E+03   -0.38070E-03   -0.84225E-03  1414   0.220E-01    0.790E-02
DAV:   3    -0.100326484598E+03    0.10997E-03   -0.18639E-04   966   0.379E-02    0.516E-02
DAV:   4    -0.100326424385E+03    0.60213E-04   -0.16315E-04   840   0.352E-02
  33 F= -.10032642E+03 E0= -.10032642E+03  d E =-.212294E-02
       N       E                     dE             d eps       ncg     rms          rms(c)
DAV:   1    -0.100328487255E+03   -0.20027E-02   -0.10785E+00  1176   0.247E+00    0.389E-01
DAV:   2    -0.100330560918E+03   -0.20737E-02   -0.45474E-02  1428   0.510E-01    0.187E-01
DAV:   3    -0.100329988302E+03    0.57262E-03   -0.11319E-03  1442   0.877E-02    0.124E-01
DAV:   4    -0.100329676484E+03    0.31182E-03   -0.56838E-04  1344   0.643E-02    0.354E-02
DAV:   5    -0.100329669983E+03    0.65015E-05   -0.97064E-05   840   0.274E-02
  34 F= -.10032967E+03 E0= -.10032967E+03  d E =-.536854E-02
       N       E                     dE             d eps       ncg     rms          rms(c)
DAV:   1    -0.100333735421E+03   -0.40589E-02   -0.28518E-01  1176   0.129E+00    0.209E-01
DAV:   2    -0.100334269711E+03   -0.53429E-03   -0.12653E-02  1428   0.271E-01    0.950E-02
DAV:   3    -0.100334152429E+03    0.11728E-03   -0.46898E-04  1386   0.556E-02    0.607E-02
DAV:   4    -0.100334094363E+03    0.58065E-04   -0.77165E-05   840   0.279E-02
  35 F= -.10033409E+03 E0= -.10033409E+03  d E =-.442438E-02
       N       E                     dE             d eps       ncg     rms          rms(c)
DAV:   1    -0.100335056467E+03   -0.90404E-03   -0.80585E-02  1190   0.686E-01    0.110E-01
DAV:   2    -0.100335193034E+03   -0.13657E-03   -0.35375E-03  1428   0.144E-01    0.509E-02
DAV:   3    -0.100335162077E+03    0.30957E-04   -0.13404E-04   826   0.312E-02
  36 F= -.10033516E+03 E0= -.10033516E+03  d E =-.549209E-02
       N       E                     dE             d eps       ncg     rms          rms(c)
DAV:   1    -0.100334830959E+03    0.36207E-03   -0.32438E-01  1176   0.138E+00    0.220E-01
DAV:   2    -0.100335366016E+03   -0.53506E-03   -0.14206E-02  1428   0.288E-01    0.107E-01
DAV:   3    -0.100335219021E+03    0.14700E-03   -0.56504E-04  1400   0.609E-02    0.691E-02
DAV:   4    -0.100335144724E+03    0.74296E-04   -0.93786E-05   840   0.312E-02
  37 F= -.10033514E+03 E0= -.10033514E+03  d E =-.547474E-02
       N       E                     dE             d eps       ncg     rms          rms(c)
DAV:   1    -0.100335827404E+03   -0.60838E-03   -0.96422E-02  1190   0.753E-01    0.119E-01
DAV:   2    -0.100336023182E+03   -0.19578E-03   -0.43078E-03  1428   0.158E-01    0.577E-02
DAV:   3    -0.100335974310E+03    0.48871E-04   -0.12259E-04   840   0.306E-02
  38 F= -.10033597E+03 E0= -.10033597E+03  d E =-.630433E-02
       N       E                     dE             d eps       ncg     rms          rms(c)
DAV:   1    -0.100337247732E+03   -0.12246E-02   -0.14654E-01  1176   0.933E-01    0.142E-01
DAV:   2    -0.100337770560E+03   -0.52283E-03   -0.72872E-03  1428   0.203E-01    0.538E-02
DAV:   3    -0.100337730724E+03    0.39835E-04   -0.15028E-04   938   0.339E-02
  39 F= -.10033773E+03 E0= -.10033773E+03  d E =-.175641E-02
       N       E                     dE             d eps       ncg     rms          rms(c)
DAV:   1    -0.100337952406E+03   -0.18185E-03   -0.13910E-02  1190   0.287E-01    0.430E-02
DAV:   2    -0.100337987253E+03   -0.34847E-04   -0.63640E-04  1442   0.604E-02
  40 F= -.10033799E+03 E0= -.10033799E+03  d E =-.201294E-02
       N       E                     dE             d eps       ncg     rms          rms(c)
DAV:   1    -0.100337448697E+03    0.50371E-03   -0.57936E-02  1176   0.586E-01    0.868E-02
DAV:   2    -0.100337631070E+03   -0.18237E-03   -0.27905E-03  1442   0.126E-01    0.425E-02
DAV:   3    -0.100337610223E+03    0.20846E-04   -0.64103E-05   826   0.222E-02
  41 F= -.10033761E+03 E0= -.10033761E+03  d E =-.163591E-02
       N       E                     dE             d eps       ncg     rms          rms(c)
DAV:   1    -0.100337805800E+03   -0.17473E-03   -0.24335E-02  1176   0.380E-01    0.583E-02
DAV:   2    -0.100337900644E+03   -0.94844E-04   -0.12392E-03  1428   0.836E-02    0.214E-02
DAV:   3    -0.100337895407E+03    0.52367E-05   -0.22803E-05   658   0.135E-02
  42 F= -.10033790E+03 E0= -.10033790E+03  d E =-.192110E-02
       N       E                     dE             d eps       ncg     rms          rms(c)
DAV:   1    -0.100339933325E+03   -0.20327E-02   -0.17859E-01  1176   0.103E+00    0.184E-01
DAV:   2    -0.100340496556E+03   -0.56323E-03   -0.96551E-03  1428   0.233E-01    0.741E-02
DAV:   3    -0.100340385939E+03    0.11062E-03   -0.22056E-04   966   0.421E-02    0.478E-02
DAV:   4    -0.100340327668E+03    0.58271E-04   -0.12587E-04   840   0.318E-02
  43 F= -.10034033E+03 E0= -.10034033E+03  d E =-.243226E-02
       N       E                     dE             d eps       ncg     rms          rms(c)
DAV:   1    -0.100340434669E+03   -0.48730E-04   -0.80961E-03  1190   0.219E-01    0.410E-02
DAV:   2    -0.100340455300E+03   -0.20631E-04   -0.42057E-04  1316   0.485E-02
  44 F= -.10034046E+03 E0= -.10034046E+03  d E =-.255989E-02
       N       E                     dE             d eps       ncg     rms          rms(c)
DAV:   1    -0.100342991209E+03   -0.25565E-02   -0.17346E-01  1176   0.101E+00    0.205E-01
DAV:   2    -0.100342863752E+03    0.12746E-03   -0.83629E-03  1428   0.227E-01    0.995E-02
DAV:   3    -0.100342609462E+03    0.25429E-03   -0.55352E-04  1442   0.588E-02    0.592E-02
DAV:   4    -0.100342517325E+03    0.92137E-04   -0.11980E-04   840   0.318E-02
  45 F= -.10034252E+03 E0= -.10034252E+03  d E =-.206203E-02
       N       E                     dE             d eps       ncg     rms          rms(c)
DAV:   1    -0.100342518276E+03    0.91186E-04   -0.66822E-04  1288   0.635E-02    0.138E-02
DAV:   2    -0.100342519613E+03   -0.13368E-05   -0.38726E-05   840   0.164E-02
  46 F= -.10034252E+03 E0= -.10034252E+03  d E =-.206431E-02
       N       E                     dE             d eps       ncg     rms          rms(c)
DAV:   1    -0.100343890231E+03   -0.13720E-02   -0.12632E-01  1176   0.860E-01    0.191E-01
DAV:   2    -0.100343543574E+03    0.34666E-03   -0.57757E-03  1428   0.189E-01    0.889E-02
DAV:   3    -0.100343306931E+03    0.23664E-03   -0.48226E-04  1358   0.522E-02    0.478E-02
DAV:   4    -0.100343237757E+03    0.69174E-04   -0.10057E-04   812   0.283E-02
  47 F= -.10034324E+03 E0= -.10034324E+03  d E =-.718144E-03
       N       E                     dE             d eps       ncg     rms          rms(c)
DAV:   1    -0.100343229344E+03    0.77587E-04   -0.10113E-02  1176   0.243E-01    0.543E-02
DAV:   2    -0.100343202760E+03    0.26584E-04   -0.46686E-04  1344   0.540E-02
  48 F= -.10034320E+03 E0= -.10034320E+03  d E =-.683147E-03
       N       E                     dE             d eps       ncg     rms          rms(c)
DAV:   1    -0.100344487509E+03   -0.12582E-02   -0.45947E-02  1176   0.525E-01    0.125E-01
DAV:   2    -0.100344440641E+03    0.46868E-04   -0.23488E-03  1428   0.119E-01    0.518E-02
DAV:   3    -0.100344348602E+03    0.92039E-04   -0.10895E-04   840   0.295E-02
  49 F= -.10034435E+03 E0= -.10034435E+03  d E =-.114584E-02
       N       E                     dE             d eps       ncg     rms          rms(c)
DAV:   1    -0.100344115229E+03    0.32541E-03   -0.35365E-02  1246   0.460E-01    0.107E-01
DAV:   2    -0.100344038185E+03    0.77044E-04   -0.17121E-03  1442   0.102E-01    0.490E-02
DAV:   3    -0.100343954826E+03    0.83359E-04   -0.96732E-05   840   0.277E-02
  50 F= -.10034395E+03 E0= -.10034395E+03  d E =-.752066E-03
       N       E                     dE             d eps       ncg     rms          rms(c)
DAV:   1    -0.100344238497E+03   -0.20031E-03   -0.79321E-03  1246   0.219E-01    0.489E-02
DAV:   2    -0.100344242374E+03   -0.38770E-05   -0.41376E-04  1288   0.504E-02
  51 F= -.10034424E+03 E0= -.10034424E+03  d E =-.103961E-02
       N       E                     dE             d eps       ncg     rms          rms(c)
DAV:   1    -0.100344386931E+03   -0.14843E-03   -0.31797E-03  1218   0.137E-01    0.373E-02
DAV:   2    -0.100344362354E+03    0.24577E-04   -0.13965E-04   686   0.311E-02
  52 F= -.10034436E+03 E0= -.10034436E+03  d E =-.115959E-02
       N       E                     dE             d eps       ncg     rms          rms(c)
DAV:   1    -0.100344590949E+03   -0.20402E-03   -0.94817E-03  1176   0.236E-01    0.446E-02
DAV:   2    -0.100344609804E+03   -0.18856E-04   -0.45661E-04  1330   0.519E-02
  53 F= -.10034461E+03 E0= -.10034461E+03  d E =-.247451E-03
       N       E                     dE             d eps       ncg     rms          rms(c)
DAV:   1    -0.100344614702E+03   -0.23754E-04   -0.27502E-04   966   0.408E-02    0.141E-02
DAV:   2    -0.100344610071E+03    0.46317E-05   -0.21324E-05   714   0.128E-02
  54 F= -.10034461E+03 E0= -.10034461E+03  d E =-.247717E-03
       N       E                     dE             d eps       ncg     rms          rms(c)
DAV:   1    -0.100345148112E+03   -0.53341E-03   -0.21950E-03  1204   0.117E-01    0.291E-02
DAV:   2    -0.100345134471E+03    0.13640E-04   -0.10492E-04   840   0.265E-02
  55 F= -.10034513E+03 E0= -.10034513E+03  d E =-.524400E-03
       N       E                     dE             d eps       ncg     rms          rms(c)
DAV:   1    -0.100345586318E+03   -0.43821E-03   -0.19750E-02  1176   0.351E-01    0.899E-02
DAV:   2    -0.100345461104E+03    0.12521E-03   -0.10688E-03  1428   0.802E-02    0.419E-02
DAV:   3    -0.100345402111E+03    0.58992E-04   -0.11129E-04   826   0.262E-02
  56 F= -.10034540E+03 E0= -.10034540E+03  d E =-.792041E-03
       N       E                     dE             d eps       ncg     rms          rms(c)
DAV:   1    -0.100345481282E+03   -0.20178E-04   -0.83179E-04  1232   0.727E-02    0.204E-02
DAV:   2    -0.100345480767E+03    0.51474E-06   -0.39139E-05   644   0.161E-02
  57 F= -.10034548E+03 E0= -.10034548E+03  d E =-.870696E-03
       N       E                     dE             d eps       ncg     rms          rms(c)
DAV:   1    -0.100345566600E+03   -0.85318E-04   -0.33384E-03  1190   0.144E-01    0.377E-02
DAV:   2    -0.100345543652E+03    0.22948E-04   -0.16532E-04   784   0.330E-02
  58 F= -.10034554E+03 E0= -.10034554E+03  d E =-.933581E-03
       N       E                     dE             d eps       ncg     rms          rms(c)
DAV:   1    -0.100345542761E+03    0.23839E-04   -0.64940E-04  1148   0.640E-02    0.142E-02
DAV:   2    -0.100345541591E+03    0.11701E-05   -0.26134E-05   588   0.139E-02
  59 F= -.10034554E+03 E0= -.10034554E+03  d E =-.931520E-03
       N       E                     dE             d eps       ncg     rms          rms(c)
DAV:   1    -0.100345775140E+03   -0.23238E-03   -0.50928E-03  1232   0.178E-01    0.522E-02
DAV:   2    -0.100345724832E+03    0.50308E-04   -0.26412E-04   980   0.409E-02
  60 F= -.10034572E+03 E0= -.10034572E+03  d E =-.183241E-03
       N       E                     dE             d eps       ncg     rms          rms(c)
DAV:   1    -0.100345714294E+03    0.60846E-04   -0.84958E-04  1302   0.723E-02    0.265E-02
DAV:   2    -0.100345695207E+03    0.19087E-04   -0.53864E-05   714   0.186E-02
  61 F= -.10034570E+03 E0= -.10034570E+03  d E =-.153616E-03
       N       E                     dE             d eps       ncg     rms          rms(c)
DAV:   1    -0.100345897311E+03   -0.18302E-03   -0.50979E-03  1204   0.174E-01    0.336E-02
DAV:   2    -0.100345899345E+03   -0.20340E-05   -0.27525E-04  1092   0.404E-02
  62 F= -.10034590E+03 E0= -.10034590E+03  d E =-.204138E-03
       N       E                     dE             d eps       ncg     rms          rms(c)
DAV:   1    -0.100345940781E+03   -0.43469E-04   -0.84110E-04  1232   0.700E-02    0.170E-02
DAV:   2    -0.100345935182E+03    0.55987E-05   -0.42462E-05   770   0.168E-02
  63 F= -.10034594E+03 E0= -.10034594E+03  d E =-.239975E-03
       N       E                     dE             d eps       ncg     rms          rms(c)
DAV:   1    -0.100345884685E+03    0.56096E-04   -0.33972E-03  1204   0.142E-01    0.270E-02
DAV:   2    -0.100345883771E+03    0.91417E-06   -0.17331E-04   868   0.330E-02
  64 F= -.10034588E+03 E0= -.10034588E+03  d E =-.188564E-03
       N       E                     dE             d eps       ncg     rms          rms(c)
DAV:   1    -0.100345923739E+03   -0.39054E-04   -0.10826E-03  1246   0.809E-02    0.173E-02
DAV:   2    -0.100345927820E+03   -0.40816E-05   -0.53662E-05   630   0.184E-02
  65 F= -.10034593E+03 E0= -.10034593E+03  d E =-.232613E-03
       N       E                     dE             d eps       ncg     rms          rms(c)
DAV:   1    -0.100346027254E+03   -0.10351E-03   -0.33515E-03  1204   0.139E-01    0.232E-02
DAV:   2    -0.100346039146E+03   -0.11892E-04   -0.17321E-04   728   0.323E-02
  66 F= -.10034604E+03 E0= -.10034604E+03  d E =-.111326E-03
       N       E                     dE             d eps       ncg     rms          rms(c)
DAV:   1    -0.100346041189E+03   -0.13936E-04   -0.30132E-05   658   0.150E-02    0.523E-03
DAV:   2    -0.100346040817E+03    0.37235E-06   -0.50823E-06   630   0.643E-03
  67 F= -.10034604E+03 E0= -.10034604E+03  d E =-.112997E-03
       N       E                     dE             d eps       ncg     rms          rms(c)
DAV:   1    -0.100346197634E+03   -0.15644E-03   -0.57367E-04  1176   0.579E-02    0.960E-03
DAV:   2    -0.100346199219E+03   -0.15847E-05   -0.28820E-05   588   0.134E-02
  68 F= -.10034620E+03 E0= -.10034620E+03  d E =-.158402E-03
       N       E                     dE             d eps       ncg     rms          rms(c)
DAV:   1    -0.100346331942E+03   -0.13431E-03   -0.51729E-03  1176   0.174E-01    0.301E-02
DAV:   2    -0.100346348081E+03   -0.16139E-04   -0.28220E-04  1092   0.405E-02
  69 F= -.10034635E+03 E0= -.10034635E+03  d E =-.307264E-03
       N       E                     dE             d eps       ncg     rms          rms(c)
DAV:   1    -0.100346372899E+03   -0.40956E-04   -0.76287E-04  1190   0.682E-02    0.158E-02
DAV:   2    -0.100346375405E+03   -0.25063E-05   -0.44262E-05   588   0.162E-02
  70 F= -.10034638E+03 E0= -.10034638E+03  d E =-.334588E-03
       N       E                     dE             d eps       ncg     rms          rms(c)
DAV:   1    -0.100346374156E+03   -0.12573E-05   -0.93749E-05   588   0.250E-02    0.383E-03
DAV:   2    -0.100346374900E+03   -0.74420E-06   -0.11194E-05   588   0.899E-03
  71 F= -.10034637E+03 E0= -.10034637E+03  d E =-.334083E-03
       N       E                     dE             d eps       ncg     rms          rms(c)
DAV:   1    -0.100346444919E+03   -0.70763E-04   -0.84906E-04  1120   0.697E-02    0.123E-02
DAV:   2    -0.100346446784E+03   -0.18645E-05   -0.41056E-05   616   0.161E-02
  72 F= -.10034645E+03 E0= -.10034645E+03  d E =-.718837E-04
       N       E                     dE             d eps       ncg     rms          rms(c)
DAV:   1    -0.100346466221E+03   -0.21302E-04   -0.56843E-04  1148   0.573E-02    0.103E-02
DAV:   2    -0.100346466612E+03   -0.39095E-06   -0.28880E-05   630   0.136E-02
  73 F= -.10034647E+03 E0= -.10034647E+03  d E =-.917116E-04
       N       E                     dE             d eps       ncg     rms          rms(c)
DAV:   1    -0.100346561728E+03   -0.95507E-04   -0.58757E-04  1176   0.589E-02    0.121E-02
DAV:   2    -0.100346560657E+03    0.10709E-05   -0.30913E-05   630   0.142E-02
  74 F= -.10034656E+03 E0= -.10034656E+03  d E =-.940450E-04
       N       E                     dE             d eps       ncg     rms          rms(c)
DAV:   1    -0.100346595763E+03   -0.34036E-04   -0.36009E-04  1134   0.461E-02    0.988E-03
DAV:   2    -0.100346594540E+03    0.12232E-05   -0.21034E-05   658   0.119E-02
  75 F= -.10034659E+03 E0= -.10034659E+03  d E =-.127929E-03
       N       E                     dE             d eps       ncg     rms          rms(c)
DAV:   1    -0.100346717938E+03   -0.12217E-03   -0.64274E-04  1148   0.615E-02    0.130E-02
DAV:   2    -0.100346716030E+03    0.19081E-05   -0.32478E-05   644   0.146E-02
  76 F= -.10034672E+03 E0= -.10034672E+03  d E =-.121490E-03
       N       E                     dE             d eps       ncg     rms          rms(c)
DAV:   1    -0.100346835490E+03   -0.11755E-03   -0.28428E-03  1274   0.129E-01    0.287E-02
DAV:   2    -0.100346830054E+03    0.54360E-05   -0.14391E-04   952   0.298E-02
  77 F= -.10034683E+03 E0= -.10034683E+03  d E =-.235514E-03
       N       E                     dE             d eps       ncg     rms          rms(c)
DAV:   1    -0.100346743315E+03    0.92175E-04   -0.11347E-02  1190   0.258E-01    0.567E-02
DAV:   2    -0.100346725755E+03    0.17560E-04   -0.59789E-04  1400   0.590E-02
  78 F= -.10034673E+03 E0= -.10034673E+03  d E =-.131215E-03
       N       E                     dE             d eps       ncg     rms          rms(c)
DAV:   1    -0.100346781245E+03   -0.37930E-04   -0.23150E-03  1288   0.118E-01    0.276E-02
DAV:   2    -0.100346787230E+03   -0.59847E-05   -0.12298E-04   770   0.272E-02
  79 F= -.10034679E+03 E0= -.10034679E+03  d E =-.192690E-03
       N       E                     dE             d eps       ncg     rms          rms(c)
DAV:   1    -0.100346837299E+03   -0.56054E-04   -0.11225E-03  1190   0.811E-02    0.181E-02
DAV:   2    -0.100346836660E+03    0.63909E-06   -0.56483E-05   588   0.190E-02
  80 F= -.10034684E+03 E0= -.10034684E+03  d E =-.242120E-03
       N       E                     dE             d eps       ncg     rms          rms(c)
DAV:   1    -0.100346835470E+03    0.18291E-05   -0.16693E-04   700   0.322E-02    0.813E-03
DAV:   2    -0.100346835448E+03    0.21685E-07   -0.17563E-05   588   0.114E-02
  81 F= -.10034684E+03 E0= -.10034684E+03  d E =-.240908E-03
       N       E                     dE             d eps       ncg     rms          rms(c)
DAV:   1    -0.100346837245E+03   -0.17746E-05   -0.27363E-05   588   0.139E-02    0.370E-03
DAV:   2    -0.100346837712E+03   -0.46703E-06   -0.32165E-06   588   0.493E-03
  82 F= -.10034684E+03 E0= -.10034684E+03  d E =-.243171E-03
       N       E                     dE             d eps       ncg     rms          rms(c)
DAV:   1    -0.100346931677E+03   -0.94432E-04   -0.13004E-03  1092   0.863E-02    0.154E-02
DAV:   2    -0.100346934242E+03   -0.25651E-05   -0.61822E-05   588   0.197E-02
  83 F= -.10034693E+03 E0= -.10034693E+03  d E =-.965304E-04
       N       E                     dE             d eps       ncg     rms          rms(c)
DAV:   1    -0.100346945911E+03   -0.14235E-04   -0.11730E-04   658   0.270E-02    0.612E-03
DAV:   2    -0.100346945905E+03    0.61373E-08   -0.13604E-05   588   0.101E-02
  84 F= -.10034695E+03 E0= -.10034695E+03  d E =-.108194E-03
       N       E                     dE             d eps       ncg     rms          rms(c)
DAV:   1    -0.100346971695E+03   -0.25783E-04   -0.49978E-04  1092   0.531E-02    0.941E-03
DAV:   2    -0.100346971796E+03   -0.10101E-06   -0.22981E-05   588   0.122E-02
  85 F= -.10034697E+03 E0= -.10034697E+03  d E =-.134084E-03
       N       E                     dE             d eps       ncg     rms          rms(c)
DAV:   1    -0.100347026908E+03   -0.55213E-04   -0.19121E-03  1260   0.104E-01    0.191E-02
DAV:   2    -0.100347028352E+03   -0.14445E-05   -0.88891E-05   700   0.235E-02
  86 F= -.10034703E+03 E0= -.10034703E+03  d E =-.190641E-03
       N       E                     dE             d eps       ncg     rms          rms(c)
DAV:   1    -0.100347181339E+03   -0.15443E-03   -0.21709E-03  1274   0.110E-01    0.170E-02
DAV:   2    -0.100347185204E+03   -0.38659E-05   -0.99104E-05   770   0.245E-02
  87 F= -.10034719E+03 E0= -.10034719E+03  d E =-.156852E-03
       N       E                     dE             d eps       ncg     rms          rms(c)
DAV:   1    -0.100347200340E+03   -0.19001E-04   -0.46505E-04  1190   0.511E-02    0.945E-03
DAV:   2    -0.100347199687E+03    0.65225E-06   -0.20432E-05   672   0.115E-02
  88 F= -.10034720E+03 E0= -.10034720E+03  d E =-.171335E-03
       N       E                     dE             d eps       ncg     rms          rms(c)
DAV:   1    -0.100347325067E+03   -0.12473E-03   -0.69454E-04  1148   0.628E-02    0.909E-03
DAV:   2    -0.100347326116E+03   -0.10489E-05   -0.32596E-05   602   0.142E-02
  89 F= -.10034733E+03 E0= -.10034733E+03  d E =-.126429E-03
       N       E                     dE             d eps       ncg     rms          rms(c)
DAV:   1    -0.100347424484E+03   -0.99417E-04   -0.20364E-03  1176   0.107E-01    0.158E-02
DAV:   2    -0.100347428297E+03   -0.38127E-05   -0.94999E-05   630   0.240E-02
  90 F= -.10034743E+03 E0= -.10034743E+03  d E =-.228609E-03
