 vasp.5.4.4.18Apr17-6-g9f103f2a35 (build Oct 27 2022 13:04:57) complex          
  
 executed on             LinuxIFC date 2024.06.30  03:18:25
 running on   14 total cores
 distrk:  each k-point on   14 cores,    1 groups
 distr:  one band on NCORES_PER_BAND=   1 cores,   14 groups


--------------------------------------------------------------------------------------------------------


 INCAR:
 POTCAR:    PAW_PBE K_pv 17Jan2003                
 POTCAR:    PAW_PBE Sb 06Sep2000                  
 POTCAR:    PAW_PBE Se 06Sep2000                  

 ----------------------------------------------------------------------------- 
|                                                                             |
|           W    W    AA    RRRRR   N    N  II  N    N   GGGG   !!!           |
|           W    W   A  A   R    R  NN   N  II  NN   N  G    G  !!!           |
|           W    W  A    A  R    R  N N  N  II  N N  N  G       !!!           |
|           W WW W  AAAAAA  RRRRR   N  N N  II  N  N N  G  GGG   !            |
|           WW  WW  A    A  R   R   N   NN  II  N   NN  G    G                |
|           W    W  A    A  R    R  N    N  II  N    N   GGGG   !!!           |
|                                                                             |
|      For optimal performance we recommend to set                            |
|        NCORE= 4 - approx SQRT( number of cores)                             |
|      NCORE specifies how many cores store one orbital (NPAR=cpu/NCORE).     |
|      This setting can  greatly improve the performance of VASP for DFT.     |
|      The default,   NCORE=1            might be grossly inefficient         |
|      on modern multi-core architectures or massively parallel machines.     |
|      Do your own testing !!!!                                               |
|      Unfortunately you need to use the default for GW and RPA calculations. |
|      (for HF NCORE is supported but not extensively tested yet)             |
|                                                                             |
 ----------------------------------------------------------------------------- 

 POTCAR:    PAW_PBE K_pv 17Jan2003                
   VRHFIN =K:  p6s1                                                             
   LEXCH  = PE                                                                  
   EATOM  =   450.4813 eV,   33.1094 Ry                                         
                                                                                
   TITEL  = PAW_PBE K_pv 17Jan2003                                              
   LULTRA =        F    use ultrasoft PP ?                                      
   IUNSCR =        1    unscreen: 0-lin 1-nonlin 2-no                           
   RPACOR =    2.500    partial core radius                                     
   POMASS =   39.098; ZVAL   =    7.000    mass and valenz                      
   RCORE  =    3.100    outmost cutoff radius                                   
   RWIGS  =    4.300; RWIGS  =    2.275    wigner-seitz radius (au A)           
   ENMAX  =  116.731; ENMIN  =   87.548 eV                                      
   RCLOC  =    2.806    cutoff for local pot                                    
   LCOR   =        T    correct aug charges                                     
   LPAW   =        T    paw PP                                                  
   EAUG   =  291.424                                                            
   DEXC   =    0.000                                                            
   RMAX   =    3.171    core radius for proj-oper                               
   RAUG   =    1.300    factor for augmentation sphere                          
   RDEP   =    3.267    radius for radial grids                                 
   RDEPT  =    2.513    core radius for aug-charge                              
                                                                                
   Atomic configuration                                                         
    7 entries                                                                   
     n  l   j            E        occ.                                          
     1  0  0.50     -3522.0595   2.0000                                         
     2  0  0.50      -353.3851   2.0000                                         
     2  1  1.50      -280.0935   6.0000                                         
     3  0  0.50       -35.3419   2.0000                                         
     3  1  1.50       -18.8125   6.0000                                         
     4  0  0.50        -2.3190   1.0000                                         
     3  2  1.50        -1.3606   0.0000                                         
   Description                                                                  
     l       E           TYP  RCUT    TYP  RCUT                                 
     1    -18.8124623     23  3.000                                             
     1    -20.4087390     23  3.000                                             
     0     -2.3190215     23  3.100                                             
     0     20.4087390     23  3.100                                             
     2     -1.3605826     23  3.000                                             
  local pseudopotential read in
  partial core-charges read in
  partial kinetic energy density read in
  atomic valenz-charges read in
  non local Contribution for L=           1  read in
    real space projection operators read in
  non local Contribution for L=           1  read in
    real space projection operators read in
  non local Contribution for L=           0  read in
    real space projection operators read in
  non local Contribution for L=           0  read in
    real space projection operators read in
  non local Contribution for L=           2  read in
    real space projection operators read in
    PAW grid and wavefunctions read in
 
   number of l-projection  operators is LMAX  =           5
   number of lm-projection operators is LMMAX =          13
 
 POTCAR:    PAW_PBE Sb 06Sep2000                  
   VRHFIN =Sb: s2p3                                                             
   LEXCH  = PE                                                                  
   EATOM  =   149.9515 eV,   11.0211 Ry                                         
                                                                                
   TITEL  = PAW_PBE Sb 06Sep2000                                                
   LULTRA =        F    use ultrasoft PP ?                                      
   IUNSCR =        1    unscreen: 0-lin 1-nonlin 2-no                           
   RPACOR =    2.200    partial core radius                                     
   POMASS =  121.750; ZVAL   =    5.000    mass and valenz                      
   RCORE  =    2.300    outmost cutoff radius                                   
   RWIGS  =    2.980; RWIGS  =    1.577    wigner-seitz radius (au A)           
   ENMAX  =  172.069; ENMIN  =  129.052 eV                                      
   ICORE  =        3    local potential                                         
   LCOR   =        T    correct aug charges                                     
   LPAW   =        T    paw PP                                                  
   EAUG   =  380.513                                                            
   DEXC   =    0.000                                                            
   RMAX   =    2.346    core radius for proj-oper                               
   RAUG   =    1.300    factor for augmentation sphere                          
   RDEP   =    2.360    radius for radial grids                                 
   RDEPT  =    2.192    core radius for aug-charge                              
                                                                                
   Atomic configuration                                                         
   13 entries                                                                   
     n  l   j            E        occ.                                          
     1  0  0.50    -30298.2797   2.0000                                         
     2  0  0.50     -4610.2252   2.0000                                         
     2  1  1.50     -4138.3407   6.0000                                         
     3  0  0.50      -903.8815   2.0000                                         
     3  1  1.50      -750.1337   6.0000                                         
     3  2  2.50      -515.7092  10.0000                                         
     4  0  0.50      -148.8034   2.0000                                         
     4  1  1.50      -101.7581   6.0000                                         
     4  2  2.50       -33.5048  10.0000                                         
     5  0  0.50       -12.8298   2.0000                                         
     5  1  0.50        -4.8276   3.0000                                         
     5  2  1.50        -4.0817   0.0000                                         
     4  3  2.50        -4.0817   0.0000                                         
   Description                                                                  
     l       E           TYP  RCUT    TYP  RCUT                                 
     0    -12.8297861     23  2.300                                             
     0     13.6058260     23  2.300                                             
     1     -4.8275512     23  2.300                                             
     1     -0.7245443     23  2.300                                             
     2     -4.0817478     23  2.300                                             
     3     -1.3605826     23  2.300                                             
  local pseudopotential read in
  partial core-charges read in
  partial kinetic energy density read in
  atomic valenz-charges read in
  non local Contribution for L=           0  read in
    real space projection operators read in
  non local Contribution for L=           0  read in
    real space projection operators read in
  non local Contribution for L=           1  read in
    real space projection operators read in
  non local Contribution for L=           1  read in
    real space projection operators read in
  non local Contribution for L=           2  read in
    real space projection operators read in
    PAW grid and wavefunctions read in
 
   number of l-projection  operators is LMAX  =           5
   number of lm-projection operators is LMMAX =          13
 
 POTCAR:    PAW_PBE Se 06Sep2000                  
   VRHFIN =Se: s2p4                                                             
   LEXCH  = PE                                                                  
   EATOM  =   257.1286 eV,   18.8984 Ry                                         
                                                                                
   TITEL  = PAW_PBE Se 06Sep2000                                                
   LULTRA =        F    use ultrasoft PP ?                                      
   IUNSCR =        1    unscreen: 0-lin 1-nonlin 2-no                           
   RPACOR =    1.900    partial core radius                                     
   POMASS =   78.960; ZVAL   =    6.000    mass and valenz                      
   RCORE  =    2.100    outmost cutoff radius                                   
   RWIGS  =    2.200; RWIGS  =    1.164    wigner-seitz radius (au A)           
   ENMAX  =  211.555; ENMIN  =  158.666 eV                                      
   ICORE  =        3    local potential                                         
   LCOR   =        T    correct aug charges                                     
   LPAW   =        T    paw PP                                                  
   EAUG   =  446.842                                                            
   DEXC   =    0.000                                                            
   RMAX   =    2.147    core radius for proj-oper                               
   RAUG   =    1.300    factor for augmentation sphere                          
   RDEP   =    2.177    radius for radial grids                                 
   RDEPT  =    1.928    core radius for aug-charge                              
                                                                                
   Atomic configuration                                                         
   10 entries                                                                   
     n  l   j            E        occ.                                          
     1  0  0.50    -12503.4787   2.0000                                         
     2  0  0.50     -1606.9547   2.0000                                         
     2  1  1.50     -1413.3140   6.0000                                         
     3  0  0.50      -213.4885   2.0000                                         
     3  1  1.50      -152.9538   6.0000                                         
     3  2  2.50       -53.1221  10.0000                                         
     4  0  0.50       -17.2865   2.0000                                         
     4  1  0.50        -6.5110   4.0000                                         
     4  2  2.50        -6.8029   0.0000                                         
     4  3  2.50        -6.8029   0.0000                                         
   Description                                                                  
     l       E           TYP  RCUT    TYP  RCUT                                 
     0    -17.2865377     23  2.100                                             
     0    -15.3094411     23  2.100                                             
     1     -6.5110275     23  2.100                                             
     1     -0.0695192     23  2.100                                             
     2     -6.8029130     23  2.100                                             
     3     -1.3605826      7  2.100                                             
  local pseudopotential read in
  partial core-charges read in
  partial kinetic energy density read in
  atomic valenz-charges read in
  non local Contribution for L=           0  read in
    real space projection operators read in
  non local Contribution for L=           0  read in
    real space projection operators read in
  non local Contribution for L=           1  read in
    real space projection operators read in
  non local Contribution for L=           1  read in
    real space projection operators read in
  non local Contribution for L=           2  read in
    real space projection operators read in
    PAW grid and wavefunctions read in
 
   number of l-projection  operators is LMAX  =           5
   number of lm-projection operators is LMMAX =          13
 
 Optimization of the real space projectors (new method)

 maximal supplied QI-value         = 12.09
 optimisation between [QCUT,QGAM] = [  8.83, 17.66] = [ 21.83, 87.31] Ry 
 Optimized for a Real-space Cutoff    1.69 Angstroem

   l    n(q)    QCUT    max X(q) W(low)/X(q) W(high)/X(q)  e(spline) 
   1      8     8.829    42.457    0.27E-03    0.59E-03    0.25E-06
   1      8     8.829    43.305    0.28E-03    0.61E-03    0.26E-06
   0      9     8.829    47.210    0.17E-02    0.12E-03    0.43E-06
   0      9     8.829    15.951    0.11E-02    0.76E-04    0.28E-06
   2      8     8.829     5.674    0.29E-03    0.69E-04    0.39E-07
 Optimization of the real space projectors (new method)

 maximal supplied QI-value         = 16.25
 optimisation between [QCUT,QGAM] = [  8.78, 17.71] = [ 21.57, 87.87] Ry 
 Optimized for a Real-space Cutoff    1.26 Angstroem

   l    n(q)    QCUT    max X(q) W(low)/X(q) W(high)/X(q)  e(spline) 
   0      7     8.776    19.000    0.12E-02    0.42E-03    0.95E-07
   0      7     8.776     9.057    0.14E-02    0.54E-03    0.11E-06
   1      6     8.776   125.345    0.45E-03    0.22E-02    0.77E-07
   1      6     8.776    79.963    0.45E-03    0.21E-02    0.76E-07
   2      6     8.776     6.963    0.11E-02    0.51E-03    0.39E-07
 Optimization of the real space projectors (new method)

 maximal supplied QI-value         = 17.95
 optimisation between [QCUT,QGAM] = [  8.80, 17.59] = [ 21.67, 86.68] Ry 
 Optimized for a Real-space Cutoff    1.19 Angstroem

   l    n(q)    QCUT    max X(q) W(low)/X(q) W(high)/X(q)  e(spline) 
   0      6     8.797   133.320    0.14E-02    0.11E-02    0.95E-07
   0      6     8.797   111.601    0.15E-02    0.12E-02    0.10E-06
   1      6     8.797    47.222    0.19E-02    0.96E-03    0.11E-06
   1      6     8.797    33.775    0.19E-02    0.99E-03    0.11E-06
   2      5     8.797     3.720    0.16E-02    0.14E-02    0.40E-07
  PAW_PBE K_pv 17Jan2003                :
 energy of atom  1       EATOM= -450.4813
 kinetic energy error for atom=    0.0008 (will be added to EATOM!!)
  PAW_PBE Sb 06Sep2000                  :
 energy of atom  2       EATOM= -149.9515
 kinetic energy error for atom=    0.0018 (will be added to EATOM!!)
  PAW_PBE Se 06Sep2000                  :
 energy of atom  3       EATOM= -257.1286
 kinetic energy error for atom=    0.0040 (will be added to EATOM!!)
 
 
 POSCAR: K4 Sb8 Se14                             
  positions in direct lattice
  No initial velocities read in
 exchange correlation table for  LEXCH =        8
   RHO(1)=    0.500       N(1)  =     2000
   RHO(2)=  100.500       N(2)  =     4000
 


--------------------------------------------------------------------------------------------------------


 ion  position               nearest neighbor table
   1  0.267  0.331  0.112-  22 3.28  19 3.32  25 3.32  14 3.35  26 3.37  18 3.39   6 3.92   7 4.26
                             8 4.37   7 4.37  11 4.39   9 4.58  11 4.59  12 4.60   3 4.86   4 5.16
   2  0.423  0.734  0.559-  23 3.28  25 3.46  16 3.47  24 3.47  21 3.59  15 3.69  12 3.95  17 3.99
                             6 4.52   8 4.56   4 4.86   3 4.87   3 5.37
   3  0.577  0.266  0.441-  22 3.28  15 3.46  24 3.47  16 3.47  19 3.59  25 3.69   8 3.95  20 3.99
                            11 4.52  12 4.56   1 4.86   2 4.87   2 5.37
   4  0.733  0.669  0.888-  23 3.28  21 3.32  15 3.32  18 3.35  13 3.37  14 3.39  11 3.92   9 4.26
                            12 4.37   9 4.37   6 4.39   7 4.58   6 4.59   8 4.60   2 4.86   1 5.16
   5  0.028  0.944  0.341-  24 2.43  17 2.48  16 2.65  13 2.80  10 3.66
   6  0.163  0.436  0.816-  15 2.45  20 2.47  23 2.49  26 3.12   1 3.92   4 4.39   2 4.52   4 4.59

   7  0.729  0.137  0.047-  19 2.43  14 2.53  22 2.59  21 3.02  13 3.19   1 4.26   1 4.37   4 4.58

   8  0.502  0.188  0.769-  26 2.43  14 2.49  15 2.68  21 2.84   3 3.95   1 4.37   2 4.56   4 4.60

   9  0.271  0.863  0.953-  21 2.43  18 2.53  23 2.59  19 3.02  26 3.19   4 4.26   4 4.37   1 4.58

  10  0.972  0.056  0.659-  16 2.43  20 2.48  24 2.65  26 2.80   5 3.66
  11  0.837  0.564  0.184-  25 2.45  17 2.47  22 2.49  13 3.12   4 3.92   1 4.39   3 4.52   1 4.59

  12  0.498  0.812  0.231-  13 2.43  18 2.49  25 2.68  19 2.84   2 3.95   4 4.37   3 4.56   1 4.60

  13  0.800  0.872  0.155-  12 2.43   5 2.80  11 3.12   7 3.19   4 3.37
  14  0.643  0.328  0.951-   8 2.49   7 2.53   1 3.35   4 3.39
  15  0.449  0.434  0.713-   6 2.45   8 2.68   4 3.32   3 3.46   2 3.69
  16  0.222  0.012  0.529-  10 2.43   5 2.65   2 3.47   3 3.47
  17  0.022  0.688  0.352-  11 2.47   5 2.48   2 3.99
  18  0.357  0.672  0.049-  12 2.49   9 2.53   4 3.35   1 3.39
  19  0.452  0.067  0.157-   7 2.43  12 2.84   9 3.02   1 3.32   3 3.59
  20  0.978  0.312  0.648-   6 2.47  10 2.48   3 3.99
  21  0.548  0.933  0.843-   9 2.43   8 2.84   7 3.02   4 3.32   2 3.59
  22  0.865  0.324  0.223-  11 2.49   7 2.59   3 3.28   1 3.28
  23  0.135  0.676  0.777-   6 2.49   9 2.59   2 3.28   4 3.28
  24  0.778  0.988  0.471-   5 2.43  10 2.65   3 3.47   2 3.47
  25  0.551  0.566  0.287-  11 2.45  12 2.68   1 3.32   2 3.46   3 3.69
  26  0.200  0.128  0.845-   8 2.43  10 2.80   6 3.12   9 3.19   1 3.37
 
  LATTYP: Found a triclinic cell.
 ALAT       =    11.5363032875
 B/A-ratio  =     1.1618013854
 C/A-ratio  =     0.8349418055
 COS(alpha) =     0.0154679351
 COS(beta)  =     0.1688101302
 COS(gamma) =     0.8144125304
  
  Lattice vectors:
  
 A1 = (  -0.7003125900,  -1.9166631700, -11.3543937800)
 A2 = (   7.1003617100,  -1.9449910300, -11.1999740200)
 A3 = (  -2.1840605300,  -9.3810262700,   0.0662058600)


Analysis of symmetry for initial positions (statically):
=====================================================================
 Subroutine PRICEL returns:
 Original cell was already a primitive cell.
 

 Routine SETGRP: Setting up the symmetry group for a 
 triclinic supercell.


 Subroutine GETGRP returns: Found  2 space group operations
 (whereof  2 operations were pure point group operations)
 out of a pool of  2 trial point group operations.


The static configuration has the point symmetry S_2 .


Analysis of symmetry for dynamics (positions and initial velocities):
=====================================================================
 Subroutine PRICEL returns:
 Original cell was already a primitive cell.
 

 Routine SETGRP: Setting up the symmetry group for a 
 triclinic supercell.


 Subroutine GETGRP returns: Found  2 space group operations
 (whereof  2 operations were pure point group operations)
 out of a pool of  2 trial point group operations.


The dynamic configuration has the point symmetry S_2 .


 Subroutine INISYM returns: Found  2 space group operations
 (whereof  2 operations are pure point group operations),
 and found     1 'primitive' translations

 
 
 KPOINTS: pymatgen with grid density = 807 / numbe

Automatic generation of k-mesh.
Space group operators:
 irot       det(A)        alpha          n_x          n_y          n_z        tau_x        tau_y        tau_z
    1     1.000000     0.000001     1.000000     0.000000     0.000000     0.000000     0.000000     0.000000
    2    -1.000000     0.000001     1.000000     0.000000     0.000000     0.000000     0.000000     0.000000
 
 Subroutine IBZKPT returns following result:
 ===========================================
 
 Found      6 irreducible k-points:
 
 Following reciprocal coordinates:
            Coordinates               Weight
  0.000000  0.250000  0.250000      2.000000
  0.333333  0.250000  0.250000      2.000000
 -0.333333  0.250000  0.250000      2.000000
  0.000000 -0.250000  0.250000      2.000000
  0.333333 -0.250000  0.250000      2.000000
 -0.333333 -0.250000  0.250000      2.000000
 
 Following cartesian coordinates:
            Coordinates               Weight
  0.000620  0.026318 -0.026499      2.000000
 -0.042094  0.036269 -0.025544      2.000000
  0.043334  0.016367 -0.027453      2.000000
  0.000249 -0.026831 -0.017504      2.000000
 -0.042465 -0.016880 -0.016549      2.000000
  0.042963 -0.036782 -0.018459      2.000000
 


--------------------------------------------------------------------------------------------------------




 Dimension of arrays:
   k-points           NKPTS =      6   k-points in BZ     NKDIM =      6   number of bands    NBANDS=     98
   number of dos      NEDOS =    301   number of ions     NIONS =     26
   non local maximal  LDIM  =      5   non local SUM 2l+1 LMDIM =     13
   total plane-waves  NPLWV =  75600
   max r-space proj   IRMAX =   1890   max aug-charges    IRDMAX=   3960
   dimension x,y,z NGX =    36 NGY =   42 NGZ =   50
   dimension x,y,z NGXF=    54 NGYF=   70 NGZF=   80
   support grid    NGXF=    54 NGYF=   70 NGZF=   80
   ions per type =               4   8  14
   NGX,Y,Z   is equivalent  to a cutoff of   7.67,  7.25,  7.21 a.u.
   NGXF,Y,Z  is equivalent  to a cutoff of  11.51, 12.08, 11.53 a.u.

 SYSTEM =  CIS                                     
 POSCAR =  K4 Sb8 Se14                             

 Startparameter for this run:
   NWRITE =      2    write-flag & timer
   PREC   = medium    normal or accurate (medium, high low for compatibility)
   ISTART =      0    job   : 0-new  1-cont  2-samecut
   ICHARG =      2    charge: 1-file 2-atom 10-const
   ISPIN  =      1    spin polarized calculation?
   LNONCOLLINEAR =      F non collinear calculations
   LSORBIT =      F    spin-orbit coupling
   INIWAV =      1    electr: 0-lowe 1-rand  2-diag
   LASPH  =      T    aspherical Exc in radial PAW
   METAGGA=      F    non-selfconsistent MetaGGA calc.

 Electronic Relaxation 1
   ENCUT  =  300.0 eV  22.05 Ry    4.70 a.u.  11.02 13.60 16.29*2*pi/ulx,y,z
   ENINI  =  300.0     initial cutoff
   ENAUG  =  446.8 eV  augmentation charge cutoff
   NELM   =     60;   NELMIN=  2; NELMDL= -5     # of ELM steps 
   EDIFF  = 0.1E-03   stopping-criterion for ELM
   LREAL  =      T    real-space projection
   NLSPLINE    = F    spline interpolate recip. space projectors
   LCOMPAT=      F    compatible to vasp.4.4
   GGA_COMPAT  = T    GGA compatible to vasp.4.4-vasp.4.6
   LMAXPAW     = -100 max onsite density
   LMAXMIX     =    4 max onsite mixed and CHGCAR
   VOSKOWN=      0    Vosko Wilk Nusair interpolation
   ROPT   =   -0.00200  -0.00200  -0.00200
 Ionic relaxation
   EDIFFG = -.5E-01   stopping-criterion for IOM
   NSW    =     99    number of steps for IOM
   NBLOCK =      1;   KBLOCK =     99    inner block; outer block 
   IBRION =      2    ionic relax: 0-MD 1-quasi-New 2-CG
   NFREE  =      1    steps in history (QN), initial steepest desc. (CG)
   ISIF   =      3    stress and relaxation
   IWAVPR =     11    prediction:  0-non 1-charg 2-wave 3-comb
   ISYM   =      2    0-nonsym 1-usesym 2-fastsym
   LCORR  =      T    Harris-Foulkes like correction to forces

   POTIM  = 0.1000    time-step for ionic-motion
   TEIN   =    0.0    initial temperature
   TEBEG  =    0.0;   TEEND  =   0.0 temperature during run
   SMASS  =  -3.00    Nose mass-parameter (am)
   estimated Nose-frequenzy (Omega)   =  0.10E-29 period in steps =****** mass=  -0.139E-26a.u.
   SCALEE = 1.0000    scale energy and forces
   NPACO  =    256;   APACO  = 16.0  distance and # of slots for P.C.
   PSTRESS=    0.0 pullay stress

  Mass of Ions in am
   POMASS =  39.10121.75 78.96
  Ionic Valenz
   ZVAL   =   7.00  5.00  6.00
  Atomic Wigner-Seitz radii
   RWIGS  =  -1.00 -1.00 -1.00
  virtual crystal weights 
   VCA    =   1.00  1.00  1.00
   NELECT =     152.0000    total number of electrons
   NUPDOWN=      -1.0000    fix difference up-down

 DOS related values:
   EMIN   =  10.00;   EMAX   =-10.00  energy-range for DOS
   EFERMI =   0.00
   ISMEAR =     0;   SIGMA  =   0.05  broadening in eV -4-tet -1-fermi 0-gaus

 Electronic relaxation 2 (details)
   IALGO  =     38    algorithm
   LDIAG  =      T    sub-space diagonalisation (order eigenvalues)
   LSUBROT=      F    optimize rotation matrix (better conditioning)
   TURBO    =      0    0=normal 1=particle mesh
   IRESTART =      0    0=no restart 2=restart with 2 vectors
   NREBOOT  =      0    no. of reboots
   NMIN     =      0    reboot dimension
   EREF     =   0.00    reference energy to select bands
   IMIX   =      4    mixing-type and parameters
     AMIX     =   0.40;   BMIX     =  1.00
     AMIX_MAG =   1.60;   BMIX_MAG =  1.00
     AMIN     =   0.10
     WC   =   100.;   INIMIX=   1;  MIXPRE=   1;  MAXMIX= -45

 Intra band minimization:
   WEIMIN = 0.0010     energy-eigenvalue tresh-hold
   EBREAK =  0.26E-06  absolut break condition
   DEPER  =   0.30     relativ break condition  

   TIME   =   0.40     timestep for ELM

  volume/ion in A,a.u.               =      32.01       216.00
  Fermi-wavevector in a.u.,A,eV,Ry     =   0.928845  1.755262 11.738460  0.862752
  Thomas-Fermi vector in A             =   2.055064
 
 Write flags
   LWAVE        =      F    write WAVECAR
   LDOWNSAMPLE  =      F    k-point downsampling of WAVECAR
   LCHARG       =      F    write CHGCAR
   LVTOT        =      F    write LOCPOT, total local potential
   LVHAR        =      F    write LOCPOT, Hartree potential only
   LELF         =      F    write electronic localiz. function (ELF)
   LORBIT       =     10    0 simple, 1 ext, 2 COOP (PROOUT), +10 PAW based schemes


 Dipole corrections
   LMONO  =      F    monopole corrections only (constant potential shift)
   LDIPOL =      F    correct potential (dipole corrections)
   IDIPOL =      0    1-x, 2-y, 3-z, 4-all directions 
   EPSILON=  1.0000000 bulk dielectric constant

 Exchange correlation treatment:
   GGA     =    --    GGA type
   LEXCH   =     8    internal setting for exchange type
   VOSKOWN=      0    Vosko Wilk Nusair interpolation
   LHFCALC =     F    Hartree Fock is set to
   LHFONE  =     F    Hartree Fock one center treatment
   AEXX    =    0.0000 exact exchange contribution

 Linear response parameters
   LEPSILON=     F    determine dielectric tensor
   LRPA    =     F    only Hartree local field effects (RPA)
   LNABLA  =     F    use nabla operator in PAW spheres
   LVEL    =     F    velocity operator in full k-point grid
   LINTERFAST=   F  fast interpolation
   KINTER  =     0    interpolate to denser k-point grid
   CSHIFT  =0.1000    complex shift for real part using Kramers Kronig
   OMEGAMAX=  -1.0    maximum frequency
   DEG_THRESHOLD= 0.2000000E-02 threshold for treating states as degnerate
   RTIME   =   -0.100 relaxation time in fs
  (WPLASMAI=    0.000 imaginary part of plasma frequency in eV, 0.658/RTIME)
   DFIELD  = 0.0000000 0.0000000 0.0000000 field for delta impulse in time
 
 Orbital magnetization related:
   ORBITALMAG=     F  switch on orbital magnetization
   LCHIMAG   =     F  perturbation theory with respect to B field
   DQ        =  0.001000  dq finite difference perturbation B field
   LLRAUG    =     F  two centre corrections for induced B field



--------------------------------------------------------------------------------------------------------


 conjugate gradient relaxation of ions
 charge density and potential will be updated during run
 non-spin polarized calculation
 Variant of blocked Davidson
 Davidson routine will perform the subspace rotation
 perform sub-space diagonalisation
    after iterative eigenvector-optimisation
 modified Broyden-mixing scheme, WC =      100.0
 initial mixing is a Kerker type mixing with AMIX =  0.4000 and BMIX =      1.0000
 Hartree-type preconditioning will be used
 using additional bands           22
 real space projection scheme for non local part
 use partial core corrections
 calculate Harris-corrections to forces 
   (improved forces if not selfconsistent)
 use gradient corrections 
 use of overlap-Matrix (Vanderbilt PP)
 Gauss-broadening in eV      SIGMA  =   0.05


--------------------------------------------------------------------------------------------------------


  energy-cutoff  :      300.00
  volume of cell :      832.22
      direct lattice vectors                 reciprocal lattice vectors
    -7.800674300  0.028327860 -0.154419760    -0.128142329  0.029853900  0.002864073
     2.184060530  9.381026270 -0.066205860     0.000742130  0.106298407 -0.017989332
    -0.700312590 -1.916663170-11.354393780     0.001738408 -0.001025824 -0.088005691

  length of vectors
     7.802253999  9.632141895 11.536303288     0.131605147  0.107812421  0.088028836


 
 k-points in units of 2pi/SCALE and weight: pymatgen with grid density = 807 / numbe
   0.00062013  0.02631815 -0.02649876       0.167
  -0.04209398  0.03626945 -0.02554406       0.167
   0.04333424  0.01636685 -0.02745345       0.167
   0.00024907 -0.02683106 -0.01750409       0.167
  -0.04246504 -0.01687976 -0.01654940       0.167
   0.04296318 -0.03678236 -0.01845878       0.167
 
 k-points in reciprocal lattice and weights: pymatgen with grid density = 807 / numbe
   0.00000000  0.25000000  0.25000000       0.167
   0.33333333  0.25000000  0.25000000       0.167
  -0.33333333  0.25000000  0.25000000       0.167
   0.00000000 -0.25000000  0.25000000       0.167
   0.33333333 -0.25000000  0.25000000       0.167
  -0.33333333 -0.25000000  0.25000000       0.167
 
 position of ions in fractional coordinates (direct lattice) 
   0.26668858  0.33070541  0.11209824
   0.42318961  0.73423713  0.55897919
   0.57681039  0.26576287  0.44102081
   0.73331142  0.66929459  0.88790176
   0.02791396  0.94438377  0.34101224
   0.16273823  0.43567745  0.81551812
   0.72911950  0.13746929  0.04718758
   0.50186273  0.18784230  0.76875149
   0.27088050  0.86253071  0.95281242
   0.97208604  0.05561623  0.65898776
   0.83726177  0.56432255  0.18448188
   0.49813727  0.81215770  0.23124851
   0.79969521  0.87227066  0.15488135
   0.64325477  0.32827297  0.95098501
   0.44940239  0.43414871  0.71335892
   0.22183156  0.01201698  0.52915846
   0.02218365  0.68805703  0.35166422
   0.35674523  0.67172703  0.04901499
   0.45231880  0.06716037  0.15679833
   0.97781635  0.31194297  0.64833578
   0.54768120  0.93283963  0.84320167
   0.86489366  0.32400091  0.22262654
   0.13510634  0.67599909  0.77737346
   0.77816844  0.98798302  0.47084154
   0.55059761  0.56585129  0.28664108
   0.20030479  0.12772934  0.84511865
 
 position of ions in cartesian coordinates  (Angst):
  -1.43657393  2.89505629 -1.33588418
  -2.08900614  5.82851103 -6.46082948
  -4.22792022  1.66417993 -5.11418992
  -4.88035243  4.59763467-10.23913522
   1.60602844  8.20647410 -3.93882146
  -0.88903961  2.52863808 -9.31368827
  -5.42042855  1.21981472 -0.65747810
  -4.04297509  0.30293258 -8.81864092
  -0.89649781  6.27287624-10.91754130
  -7.92295480 -0.71378314 -7.63619794
  -5.42788675  4.96405288 -2.26133113
  -2.27395127  7.18975838 -2.75637848
  -4.44153531  7.90859225 -1.93982201
  -4.96683969  1.27504144-10.91892312
  -3.05700885  2.71822229 -8.19789788
  -2.07476627 -0.89520291 -6.04332430
   1.08343589  5.78128763 -4.04191303
  -1.35008667  6.21764952 -0.65609628
  -3.49151717  0.34231683 -1.85464335
  -7.40036225  1.71140333 -7.53310637
  -2.82540919  7.15037413 -9.72037605
  -6.19502432  2.63726154 -2.68279683
  -0.12190204  4.85542942 -8.89222257
  -4.24216009  8.38789387 -5.53169510
  -3.25991751  4.77446867 -3.37712152
  -1.87539105 -0.41590129 -9.63519739
 


--------------------------------------------------------------------------------------------------------


 k-point  1 :   0.0000 0.2500 0.2500  plane waves:    9802
 k-point  2 :   0.3333 0.2500 0.2500  plane waves:    9813
 k-point  3 :  -0.3333 0.2500 0.2500  plane waves:    9834
 k-point  4 :   0.0000-0.2500 0.2500  plane waves:    9798
 k-point  5 :   0.3333-0.2500 0.2500  plane waves:    9831
 k-point  6 :  -0.3333-0.2500 0.2500  plane waves:    9829

 maximum and minimum number of plane-waves per node :      9834     9798

 maximum number of plane-waves:      9834
 maximum index in each direction: 
   IXMAX=   11   IYMAX=   13   IZMAX=   16
   IXMIN=  -11   IYMIN=  -13   IZMIN=  -16


 serial   3D FFT for wavefunctions
 parallel 3D FFT for charge:
    minimum data exchange during FFTs selected (reduces bandwidth)


 total amount of memory used by VASP MPI-rank0    45990. kBytes
=======================================================================

   base      :      30000. kBytes
   nonlr-proj:       3307. kBytes
   fftplans  :       1116. kBytes
   grid      :       4508. kBytes
   one-center:        210. kBytes
   wavefun   :       6849. kBytes
 
     INWAV:  cpu time    0.0000: real time    0.0001
 Broyden mixing: mesh for mixing (old mesh)
   NGX = 23   NGY = 27   NGZ = 33
  (NGX  = 54   NGY  = 70   NGZ  = 80)
  gives a total of  20493 points

 initial charge density was supplied:
 charge density of overlapping atoms calculated
 number of electron     152.0000000 magnetization 
 keeping initial charge density in first step


--------------------------------------------------------------------------------------------------------


 Maximum index for non-local projection operator         1803
 Maximum index for augmentation-charges          289 (set IRDMAX)


--------------------------------------------------------------------------------------------------------


 First call to EWALD:  gamma=   0.188
 Maximum number of real-space cells 3x 3x 2
 Maximum number of reciprocal cells 2x 3x 3

    FEWALD:  cpu time    0.0021: real time    0.0021


--------------------------------------- Iteration      1(   1)  ---------------------------------------


    POTLOK:  cpu time    0.0315: real time    0.0949
    SETDIJ:  cpu time    0.2401: real time    0.2419
     EDDAV:  cpu time    1.0095: real time    1.0118
       DOS:  cpu time    0.0006: real time    0.0006
    --------------------------------------------
      LOOP:  cpu time    1.2816: real time    1.3492

 eigenvalue-minimisations  :  1190
 total energy-change (2. order) : 0.7919594E+03  (-0.4272202E+04)
 number of electron     152.0000000 magnetization 
 augmentation part      152.0000000 magnetization 

 Free energy of the ion-electron system (eV)
  ---------------------------------------------------
  alpha Z        PSCENC =       269.10075597
  Ewald energy   TEWEN  =     -5215.08923952
  -Hartree energ DENC   =     -1326.03624901
  -exchange      EXHF   =         0.00000000
  -V(xc)+E(xc)   XCENC  =      -330.54544384
  PAW double counting   =      5607.40266644    -4969.79583577
  entropy T*S    EENTRO =        -0.01028451
  eigenvalues    EBANDS =       155.66929999
  atomic energy  EATOM  =      6601.26369155
  Solvation  Ediel_sol  =         0.00000000
  ---------------------------------------------------
  free energy    TOTEN  =       791.95936131 eV

  energy without entropy =      791.96964581  energy(sigma->0) =      791.96450356


--------------------------------------------------------------------------------------------------------




--------------------------------------- Iteration      1(   2)  ---------------------------------------


     EDDAV:  cpu time    0.9159: real time    0.9160
       DOS:  cpu time    0.0002: real time    0.0002
    --------------------------------------------
      LOOP:  cpu time    0.9161: real time    0.9162

 eigenvalue-minimisations  :  1442
 total energy-change (2. order) :-0.8114915E+03  (-0.7878802E+03)
 number of electron     152.0000000 magnetization 
 augmentation part      152.0000000 magnetization 

 Free energy of the ion-electron system (eV)
  ---------------------------------------------------
  alpha Z        PSCENC =       269.10075597
  Ewald energy   TEWEN  =     -5215.08923952
  -Hartree energ DENC   =     -1326.03624901
  -exchange      EXHF   =         0.00000000
  -V(xc)+E(xc)   XCENC  =      -330.54544384
  PAW double counting   =      5607.40266644    -4969.79583577
  entropy T*S    EENTRO =        -0.00000000
  eigenvalues    EBANDS =      -655.83248330
  atomic energy  EATOM  =      6601.26369155
  Solvation  Ediel_sol  =         0.00000000
  ---------------------------------------------------
  free energy    TOTEN  =       -19.53213748 eV

  energy without entropy =      -19.53213748  energy(sigma->0) =      -19.53213748


--------------------------------------------------------------------------------------------------------




--------------------------------------- Iteration      1(   3)  ---------------------------------------


     EDDAV:  cpu time    1.0274: real time    1.0276
       DOS:  cpu time    0.0002: real time    0.0002
    --------------------------------------------
      LOOP:  cpu time    1.0276: real time    1.0278

 eigenvalue-minimisations  :  1428
 total energy-change (2. order) :-0.7887448E+02  (-0.7815427E+02)
 number of electron     152.0000000 magnetization 
 augmentation part      152.0000000 magnetization 

 Free energy of the ion-electron system (eV)
  ---------------------------------------------------
  alpha Z        PSCENC =       269.10075597
  Ewald energy   TEWEN  =     -5215.08923952
  -Hartree energ DENC   =     -1326.03624901
  -exchange      EXHF   =         0.00000000
  -V(xc)+E(xc)   XCENC  =      -330.54544384
  PAW double counting   =      5607.40266644    -4969.79583577
  entropy T*S    EENTRO =        -0.00000000
  eigenvalues    EBANDS =      -734.70696480
  atomic energy  EATOM  =      6601.26369155
  Solvation  Ediel_sol  =         0.00000000
  ---------------------------------------------------
  free energy    TOTEN  =       -98.40661897 eV

  energy without entropy =      -98.40661897  energy(sigma->0) =      -98.40661897


--------------------------------------------------------------------------------------------------------




--------------------------------------- Iteration      1(   4)  ---------------------------------------


     EDDAV:  cpu time    0.9603: real time    0.9605
       DOS:  cpu time    0.0002: real time    0.0002
    --------------------------------------------
      LOOP:  cpu time    0.9605: real time    0.9607

 eigenvalue-minimisations  :  1428
 total energy-change (2. order) :-0.1796790E+01  (-0.1786834E+01)
 number of electron     152.0000000 magnetization 
 augmentation part      152.0000000 magnetization 

 Free energy of the ion-electron system (eV)
  ---------------------------------------------------
  alpha Z        PSCENC =       269.10075597
  Ewald energy   TEWEN  =     -5215.08923952
  -Hartree energ DENC   =     -1326.03624901
  -exchange      EXHF   =         0.00000000
  -V(xc)+E(xc)   XCENC  =      -330.54544384
  PAW double counting   =      5607.40266644    -4969.79583577
  entropy T*S    EENTRO =        -0.00000000
  eigenvalues    EBANDS =      -736.50375473
  atomic energy  EATOM  =      6601.26369155
  Solvation  Ediel_sol  =         0.00000000
  ---------------------------------------------------
  free energy    TOTEN  =      -100.20340890 eV

  energy without entropy =     -100.20340890  energy(sigma->0) =     -100.20340890


--------------------------------------------------------------------------------------------------------




--------------------------------------- Iteration      1(   5)  ---------------------------------------


     EDDAV:  cpu time    1.2008: real time    1.2012
       DOS:  cpu time    0.0002: real time    0.0002
    CHARGE:  cpu time    0.0345: real time    0.0345
    MIXING:  cpu time    0.0006: real time    0.0006
    --------------------------------------------
      LOOP:  cpu time    1.2361: real time    1.2365

 eigenvalue-minimisations  :  1428
 total energy-change (2. order) :-0.3760326E-01  (-0.3757289E-01)
 number of electron     151.9999982 magnetization 
 augmentation part       -7.7945481 magnetization 

 Broyden mixing:
  rms(total) = 0.16627E+01    rms(broyden)= 0.16626E+01
  rms(prec ) = 0.18841E+01
  weight for this iteration     100.00

 Free energy of the ion-electron system (eV)
  ---------------------------------------------------
  alpha Z        PSCENC =       269.10075597
  Ewald energy   TEWEN  =     -5215.08923952
  -Hartree energ DENC   =     -1326.03624901
  -exchange      EXHF   =         0.00000000
  -V(xc)+E(xc)   XCENC  =      -330.54544384
  PAW double counting   =      5607.40266644    -4969.79583577
  entropy T*S    EENTRO =        -0.00000000
  eigenvalues    EBANDS =      -736.54135799
  atomic energy  EATOM  =      6601.26369155
  Solvation  Ediel_sol  =         0.00000000
  ---------------------------------------------------
  free energy    TOTEN  =      -100.24101216 eV

  energy without entropy =     -100.24101216  energy(sigma->0) =     -100.24101216


--------------------------------------------------------------------------------------------------------




--------------------------------------- Iteration      1(   6)  ---------------------------------------


    POTLOK:  cpu time    0.0115: real time    0.0116
    SETDIJ:  cpu time    0.2410: real time    0.2410
     EDDAV:  cpu time    0.9109: real time    0.9109
       DOS:  cpu time    0.0003: real time    0.0003
    CHARGE:  cpu time    0.0316: real time    0.0316
    MIXING:  cpu time    0.0005: real time    0.0005
    --------------------------------------------
      LOOP:  cpu time    1.1957: real time    1.1959

 eigenvalue-minimisations  :  1344
 total energy-change (2. order) : 0.3304730E+01  (-0.5576870E+00)
 number of electron     151.9999983 magnetization 
 augmentation part       -7.5119784 magnetization 

 Broyden mixing:
  rms(total) = 0.11146E+01    rms(broyden)= 0.11146E+01
  rms(prec ) = 0.11680E+01
  weight for this iteration     100.00

 eigenvalues of (default mixing * dielectric matrix)
  average eigenvalue GAMMA=   2.3600
  2.3600

 Free energy of the ion-electron system (eV)
  ---------------------------------------------------
  alpha Z        PSCENC =       269.10075597
  Ewald energy   TEWEN  =     -5215.08923952
  -Hartree energ DENC   =     -1358.27790689
  -exchange      EXHF   =         0.00000000
  -V(xc)+E(xc)   XCENC  =      -327.40107294
  PAW double counting   =      6992.29610074    -6355.37216375
  entropy T*S    EENTRO =        -0.00000000
  eigenvalues    EBANDS =      -703.45644778
  atomic energy  EATOM  =      6601.26369155
  Solvation  Ediel_sol  =         0.00000000
  ---------------------------------------------------
  free energy    TOTEN  =       -96.93628261 eV

  energy without entropy =      -96.93628261  energy(sigma->0) =      -96.93628261


--------------------------------------------------------------------------------------------------------




--------------------------------------- Iteration      1(   7)  ---------------------------------------


    POTLOK:  cpu time    0.0113: real time    0.0114
    SETDIJ:  cpu time    0.2393: real time    0.2393
     EDDAV:  cpu time    1.0546: real time    1.0548
       DOS:  cpu time    0.0002: real time    0.0002
    CHARGE:  cpu time    0.0309: real time    0.0309
    MIXING:  cpu time    0.0005: real time    0.0005
    --------------------------------------------
      LOOP:  cpu time    1.3368: real time    1.3371

 eigenvalue-minimisations  :  1414
 total energy-change (2. order) : 0.1467342E+00  (-0.3822808E+00)
 number of electron     151.9999984 magnetization 
 augmentation part       -7.2581977 magnetization 

 Broyden mixing:
  rms(total) = 0.30091E+00    rms(broyden)= 0.30090E+00
  rms(prec ) = 0.33747E+00
  weight for this iteration     100.00

 eigenvalues of (default mixing * dielectric matrix)
  average eigenvalue GAMMA=   1.5882
  1.1248  2.0516

 Free energy of the ion-electron system (eV)
  ---------------------------------------------------
  alpha Z        PSCENC =       269.10075597
  Ewald energy   TEWEN  =     -5215.08923952
  -Hartree energ DENC   =     -1383.96777537
  -exchange      EXHF   =         0.00000000
  -V(xc)+E(xc)   XCENC  =      -324.50581905
  PAW double counting   =      9218.63130228    -8582.28072130
  entropy T*S    EENTRO =        -0.00000000
  eigenvalues    EBANDS =      -679.94174301
  atomic energy  EATOM  =      6601.26369155
  Solvation  Ediel_sol  =         0.00000000
  ---------------------------------------------------
  free energy    TOTEN  =       -96.78954844 eV

  energy without entropy =      -96.78954844  energy(sigma->0) =      -96.78954844


--------------------------------------------------------------------------------------------------------




--------------------------------------- Iteration      1(   8)  ---------------------------------------


    POTLOK:  cpu time    0.0100: real time    0.0100
    SETDIJ:  cpu time    0.2388: real time    0.2388
     EDDAV:  cpu time    1.0271: real time    1.0273
       DOS:  cpu time    0.0002: real time    0.0002
    CHARGE:  cpu time    0.0371: real time    0.0371
    MIXING:  cpu time    0.0008: real time    0.0008
    --------------------------------------------
      LOOP:  cpu time    1.3139: real time    1.3142

 eigenvalue-minimisations  :  1344
 total energy-change (2. order) : 0.4667393E-01  (-0.4101410E-01)
 number of electron     151.9999985 magnetization 
 augmentation part       -7.2918218 magnetization 

 Broyden mixing:
  rms(total) = 0.16884E+00    rms(broyden)= 0.16884E+00
  rms(prec ) = 0.17964E+00
  weight for this iteration     100.00

 eigenvalues of (default mixing * dielectric matrix)
  average eigenvalue GAMMA=   1.7553
  2.6866  1.2896  1.2896

 Free energy of the ion-electron system (eV)
  ---------------------------------------------------
  alpha Z        PSCENC =       269.10075597
  Ewald energy   TEWEN  =     -5215.08923952
  -Hartree energ DENC   =     -1382.48630569
  -exchange      EXHF   =         0.00000000
  -V(xc)+E(xc)   XCENC  =      -324.35047109
  PAW double counting   =      9537.25413482    -8901.05418032
  entropy T*S    EENTRO =        -0.00000000
  eigenvalues    EBANDS =      -681.38126023
  atomic energy  EATOM  =      6601.26369155
  Solvation  Ediel_sol  =         0.00000000
  ---------------------------------------------------
  free energy    TOTEN  =       -96.74287450 eV

  energy without entropy =      -96.74287450  energy(sigma->0) =      -96.74287450


--------------------------------------------------------------------------------------------------------




--------------------------------------- Iteration      1(   9)  ---------------------------------------


    POTLOK:  cpu time    0.0122: real time    0.0123
    SETDIJ:  cpu time    0.2420: real time    0.2420
     EDDAV:  cpu time    0.9765: real time    0.9766
       DOS:  cpu time    0.0002: real time    0.0002
    CHARGE:  cpu time    0.0302: real time    0.0302
    MIXING:  cpu time    0.0007: real time    0.0007
    --------------------------------------------
      LOOP:  cpu time    1.2616: real time    1.2619

 eigenvalue-minimisations  :  1344
 total energy-change (2. order) :-0.1571750E-01  (-0.7646876E-02)
 number of electron     151.9999985 magnetization 
 augmentation part       -7.2887870 magnetization 

 Broyden mixing:
  rms(total) = 0.26829E-01    rms(broyden)= 0.26829E-01
  rms(prec ) = 0.32252E-01
  weight for this iteration     100.00

 eigenvalues of (default mixing * dielectric matrix)
  average eigenvalue GAMMA=   1.5455
  2.4638  1.1502  1.2840  1.2840

 Free energy of the ion-electron system (eV)
  ---------------------------------------------------
  alpha Z        PSCENC =       269.10075597
  Ewald energy   TEWEN  =     -5215.08923952
  -Hartree energ DENC   =     -1386.92259884
  -exchange      EXHF   =         0.00000000
  -V(xc)+E(xc)   XCENC  =      -323.69477872
  PAW double counting   =      9853.07604071    -9217.06582893
  entropy T*S    EENTRO =        -0.00000000
  eigenvalues    EBANDS =      -677.42663424
  atomic energy  EATOM  =      6601.26369155
  Solvation  Ediel_sol  =         0.00000000
  ---------------------------------------------------
  free energy    TOTEN  =       -96.75859201 eV

  energy without entropy =      -96.75859201  energy(sigma->0) =      -96.75859201


--------------------------------------------------------------------------------------------------------




--------------------------------------- Iteration      1(  10)  ---------------------------------------


    POTLOK:  cpu time    0.0103: real time    0.0103
    SETDIJ:  cpu time    0.2399: real time    0.2400
     EDDAV:  cpu time    1.0413: real time    1.0416
       DOS:  cpu time    0.0002: real time    0.0002
    CHARGE:  cpu time    0.0369: real time    0.0369
    MIXING:  cpu time    0.0012: real time    0.0012
    --------------------------------------------
      LOOP:  cpu time    1.3298: real time    1.3302

 eigenvalue-minimisations  :  1512
 total energy-change (2. order) :-0.1809835E-02  (-0.3003416E-03)
 number of electron     151.9999985 magnetization 
 augmentation part       -7.2899913 magnetization 

 Broyden mixing:
  rms(total) = 0.14320E-01    rms(broyden)= 0.14320E-01
  rms(prec ) = 0.20099E-01
  weight for this iteration     100.00

 eigenvalues of (default mixing * dielectric matrix)
  average eigenvalue GAMMA=   1.6061
  2.5911  1.0347  1.2995  1.2995  1.8056

 Free energy of the ion-electron system (eV)
  ---------------------------------------------------
  alpha Z        PSCENC =       269.10075597
  Ewald energy   TEWEN  =     -5215.08923952
  -Hartree energ DENC   =     -1386.86310196
  -exchange      EXHF   =         0.00000000
  -V(xc)+E(xc)   XCENC  =      -323.72008007
  PAW double counting   =      9789.33264036    -9153.28962434
  entropy T*S    EENTRO =        -0.00000000
  eigenvalues    EBANDS =      -677.49544383
  atomic energy  EATOM  =      6601.26369155
  Solvation  Ediel_sol  =         0.00000000
  ---------------------------------------------------
  free energy    TOTEN  =       -96.76040184 eV

  energy without entropy =      -96.76040184  energy(sigma->0) =      -96.76040184


--------------------------------------------------------------------------------------------------------




--------------------------------------- Iteration      1(  11)  ---------------------------------------


    POTLOK:  cpu time    0.0131: real time    0.0133
    SETDIJ:  cpu time    0.2416: real time    0.2416
     EDDAV:  cpu time    0.9248: real time    0.9251
       DOS:  cpu time    0.0002: real time    0.0002
    CHARGE:  cpu time    0.0335: real time    0.0335
    MIXING:  cpu time    0.0008: real time    0.0008
    --------------------------------------------
      LOOP:  cpu time    1.2139: real time    1.2144

 eigenvalue-minimisations  :  1344
 total energy-change (2. order) :-0.2693280E-02  (-0.2736088E-03)
 number of electron     151.9999985 magnetization 
 augmentation part       -7.2899043 magnetization 

 Broyden mixing:
  rms(total) = 0.64885E-02    rms(broyden)= 0.64885E-02
  rms(prec ) = 0.86741E-02
  weight for this iteration     100.00

 eigenvalues of (default mixing * dielectric matrix)
  average eigenvalue GAMMA=   1.6051
  2.6367  2.3247  1.2955  1.2955  1.2039  0.8742

 Free energy of the ion-electron system (eV)
  ---------------------------------------------------
  alpha Z        PSCENC =       269.10075597
  Ewald energy   TEWEN  =     -5215.08923952
  -Hartree energ DENC   =     -1387.75829585
  -exchange      EXHF   =         0.00000000
  -V(xc)+E(xc)   XCENC  =      -323.62978182
  PAW double counting   =      9786.01722422    -9149.95995643
  entropy T*S    EENTRO =        -0.00000000
  eigenvalues    EBANDS =      -676.70749325
  atomic energy  EATOM  =      6601.26369155
  Solvation  Ediel_sol  =         0.00000000
  ---------------------------------------------------
  free energy    TOTEN  =       -96.76309512 eV

  energy without entropy =      -96.76309512  energy(sigma->0) =      -96.76309512


--------------------------------------------------------------------------------------------------------




--------------------------------------- Iteration      1(  12)  ---------------------------------------


    POTLOK:  cpu time    0.0117: real time    0.0118
    SETDIJ:  cpu time    0.2410: real time    0.2410
     EDDAV:  cpu time    1.1200: real time    1.1201
       DOS:  cpu time    0.0002: real time    0.0002
    CHARGE:  cpu time    0.0309: real time    0.0309
    MIXING:  cpu time    0.0007: real time    0.0007
    --------------------------------------------
      LOOP:  cpu time    1.4045: real time    1.4046

 eigenvalue-minimisations  :  1414
 total energy-change (2. order) :-0.4185195E-03  (-0.4608621E-04)
 number of electron     151.9999985 magnetization 
 augmentation part       -7.2896580 magnetization 

 Broyden mixing:
  rms(total) = 0.47532E-02    rms(broyden)= 0.47532E-02
  rms(prec ) = 0.59097E-02
  weight for this iteration     100.00

 eigenvalues of (default mixing * dielectric matrix)
  average eigenvalue GAMMA=   1.5374
  2.5959  2.4876  1.2959  1.2959  1.0847  1.0011  1.0011

 Free energy of the ion-electron system (eV)
  ---------------------------------------------------
  alpha Z        PSCENC =       269.10075597
  Ewald energy   TEWEN  =     -5215.08923952
  -Hartree energ DENC   =     -1388.01040246
  -exchange      EXHF   =         0.00000000
  -V(xc)+E(xc)   XCENC  =      -323.61456986
  PAW double counting   =      9777.39111091    -9141.32729363
  entropy T*S    EENTRO =        -0.00000000
  eigenvalues    EBANDS =      -676.47756661
  atomic energy  EATOM  =      6601.26369155
  Solvation  Ediel_sol  =         0.00000000
  ---------------------------------------------------
  free energy    TOTEN  =       -96.76351364 eV

  energy without entropy =      -96.76351364  energy(sigma->0) =      -96.76351364


--------------------------------------------------------------------------------------------------------




--------------------------------------- Iteration      1(  13)  ---------------------------------------


    POTLOK:  cpu time    0.0109: real time    0.0110
    SETDIJ:  cpu time    0.2392: real time    0.2392
     EDDAV:  cpu time    0.7803: real time    0.7805
       DOS:  cpu time    0.0002: real time    0.0002
    CHARGE:  cpu time    0.0309: real time    0.0309
    MIXING:  cpu time    0.0007: real time    0.0007
    --------------------------------------------
      LOOP:  cpu time    1.0622: real time    1.0624

 eigenvalue-minimisations  :   952
 total energy-change (2. order) :-0.1290864E-03  (-0.1122773E-04)
 number of electron     151.9999985 magnetization 
 augmentation part       -7.2892998 magnetization 

 Broyden mixing:
  rms(total) = 0.23032E-02    rms(broyden)= 0.23032E-02
  rms(prec ) = 0.29365E-02
  weight for this iteration     100.00

 eigenvalues of (default mixing * dielectric matrix)
  average eigenvalue GAMMA=   1.6677
  3.1586  2.5005  1.5535  1.5535  1.2964  1.2964  1.0739  0.9089

 Free energy of the ion-electron system (eV)
  ---------------------------------------------------
  alpha Z        PSCENC =       269.10075597
  Ewald energy   TEWEN  =     -5215.08923952
  -Hartree energ DENC   =     -1388.15109626
  -exchange      EXHF   =         0.00000000
  -V(xc)+E(xc)   XCENC  =      -323.60814861
  PAW double counting   =      9772.98101239    -9136.91445527
  entropy T*S    EENTRO =        -0.00000000
  eigenvalues    EBANDS =      -676.34616299
  atomic energy  EATOM  =      6601.26369155
  Solvation  Ediel_sol  =         0.00000000
  ---------------------------------------------------
  free energy    TOTEN  =       -96.76364273 eV

  energy without entropy =      -96.76364273  energy(sigma->0) =      -96.76364273


--------------------------------------------------------------------------------------------------------




--------------------------------------- Iteration      1(  14)  ---------------------------------------


    POTLOK:  cpu time    0.0102: real time    0.0102
    SETDIJ:  cpu time    0.2390: real time    0.2391
     EDDAV:  cpu time    0.8159: real time    0.8160
       DOS:  cpu time    0.0002: real time    0.0002
    --------------------------------------------
      LOOP:  cpu time    1.0652: real time    1.0654

 eigenvalue-minimisations  :   966
 total energy-change (2. order) :-0.5784888E-04  (-0.9517785E-05)
 number of electron     151.9999985 magnetization 
 augmentation part       -7.2892998 magnetization 

 Free energy of the ion-electron system (eV)
  ---------------------------------------------------
  alpha Z        PSCENC =       269.10075597
  Ewald energy   TEWEN  =     -5215.08923952
  -Hartree energ DENC   =     -1388.26853499
  -exchange      EXHF   =         0.00000000
  -V(xc)+E(xc)   XCENC  =      -323.60266635
  PAW double counting   =      9771.75763825    -9135.69005836
  entropy T*S    EENTRO =        -0.00000000
  eigenvalues    EBANDS =      -676.23528713
  atomic energy  EATOM  =      6601.26369155
  Solvation  Ediel_sol  =         0.00000000
  ---------------------------------------------------
  free energy    TOTEN  =       -96.76370058 eV

  energy without entropy =      -96.76370058  energy(sigma->0) =      -96.76370058


--------------------------------------------------------------------------------------------------------




 average (electrostatic) potential at core
  the test charge radii are     1.3383  1.1712  1.0808
  (the norm of the test charge is              1.0000)
       1 -11.5136       2 -11.9013       3 -11.9013       4 -11.5136       5 -90.5524
       6 -90.4853       7 -90.4691       8 -90.5258       9 -90.4691      10 -90.5524
      11 -90.4853      12 -90.5258      13 -55.3745      14 -55.5519      15 -55.3448
      16 -55.4268      17 -55.6217      18 -55.5519      19 -55.2938      20 -55.6217
      21 -55.2938      22 -55.4069      23 -55.4069      24 -55.4268      25 -55.3448
      26 -55.3745
 
 
 
 E-fermi :   2.4230     XC(G=0):  -8.1445     alpha+bet : -7.9010


 k-point     1 :       0.0000    0.2500    0.2500
  band No.  band energies     occupation 
      1     -12.0967      2.00000
      2     -12.0223      2.00000
      3     -11.6225      2.00000
      4     -11.4744      2.00000
      5     -11.3817      2.00000
      6     -11.3629      2.00000
      7     -11.3506      2.00000
      8     -11.3340      2.00000
      9     -11.3288      2.00000
     10     -11.2213      2.00000
     11     -11.1768      2.00000
     12     -11.0617      2.00000
     13     -11.0405      2.00000
     14     -11.0361      2.00000
     15     -10.9988      2.00000
     16     -10.9826      2.00000
     17     -10.8871      2.00000
     18     -10.8405      2.00000
     19     -10.5043      2.00000
     20     -10.4085      2.00000
     21     -10.2241      2.00000
     22     -10.1650      2.00000
     23     -10.1283      2.00000
     24     -10.0844      2.00000
     25      -9.8711      2.00000
     26      -9.8432      2.00000
     27      -7.0595      2.00000
     28      -6.9757      2.00000
     29      -6.5818      2.00000
     30      -6.3456      2.00000
     31      -6.0754      2.00000
     32      -5.6689      2.00000
     33      -5.1366      2.00000
     34      -4.7506      2.00000
     35      -2.7742      2.00000
     36      -2.6569      2.00000
     37      -2.4494      2.00000
     38      -2.3498      2.00000
     39      -2.3024      2.00000
     40      -2.0005      2.00000
     41      -1.9575      2.00000
     42      -1.7793      2.00000
     43      -1.7189      2.00000
     44      -1.4818      2.00000
     45      -1.4429      2.00000
     46      -1.1987      2.00000
     47      -0.9866      2.00000
     48      -0.8594      2.00000
     49      -0.6998      2.00000
     50      -0.5228      2.00000
     51      -0.4554      2.00000
     52      -0.3460      2.00000
     53      -0.3240      2.00000
     54      -0.1209      2.00000
     55      -0.0469      2.00000
     56       0.0644      2.00000
     57       0.1365      2.00000
     58       0.2062      2.00000
     59       0.4291      2.00000
     60       0.6588      2.00000
     61       0.7629      2.00000
     62       0.7881      2.00000
     63       0.8736      2.00000
     64       0.9362      2.00000
     65       1.0173      2.00000
     66       1.1850      2.00000
     67       1.2529      2.00000
     68       1.2727      2.00000
     69       1.4233      2.00000
     70       1.4989      2.00000
     71       1.6554      2.00000
     72       1.7018      2.00000
     73       1.8175      2.00000
     74       1.8376      2.00000
     75       2.0150      2.00000
     76       2.0640      2.00000
     77       4.1315      0.00000
     78       4.1893      0.00000
     79       4.3621      0.00000
     80       4.5681      0.00000
     81       4.7466      0.00000
     82       4.7841      0.00000
     83       4.9620      0.00000
     84       5.0222      0.00000
     85       5.0671      0.00000
     86       5.2283      0.00000
     87       5.3432      0.00000
     88       5.5322      0.00000
     89       5.5601      0.00000
     90       5.7411      0.00000
     91       5.8281      0.00000
     92       5.9939      0.00000
     93       6.0155      0.00000
     94       6.1044      0.00000
     95       6.2780      0.00000
     96       6.4346      0.00000
     97       6.6080      0.00000
     98       6.6189      0.00000

 k-point     2 :       0.3333    0.2500    0.2500
  band No.  band energies     occupation 
      1     -12.0911      2.00000
      2     -11.9403      2.00000
      3     -11.7068      2.00000
      4     -11.5208      2.00000
      5     -11.3784      2.00000
      6     -11.3642      2.00000
      7     -11.3532      2.00000
      8     -11.3339      2.00000
      9     -11.3134      2.00000
     10     -11.3021      2.00000
     11     -11.1172      2.00000
     12     -11.0431      2.00000
     13     -11.0418      2.00000
     14     -11.0092      2.00000
     15     -10.9535      2.00000
     16     -10.9338      2.00000
     17     -10.9217      2.00000
     18     -10.7891      2.00000
     19     -10.6059      2.00000
     20     -10.4504      2.00000
     21     -10.2226      2.00000
     22     -10.1385      2.00000
     23     -10.1348      2.00000
     24     -10.0300      2.00000
     25      -9.9358      2.00000
     26      -9.8781      2.00000
     27      -7.0925      2.00000
     28      -6.8924      2.00000
     29      -6.4958      2.00000
     30      -6.3997      2.00000
     31      -6.0332      2.00000
     32      -5.5767      2.00000
     33      -5.1734      2.00000
     34      -4.8168      2.00000
     35      -2.7775      2.00000
     36      -2.6103      2.00000
     37      -2.4049      2.00000
     38      -2.3072      2.00000
     39      -2.2145      2.00000
     40      -2.1050      2.00000
     41      -2.0364      2.00000
     42      -1.6718      2.00000
     43      -1.5930      2.00000
     44      -1.4811      2.00000
     45      -1.2250      2.00000
     46      -1.0947      2.00000
     47      -1.0173      2.00000
     48      -0.9232      2.00000
     49      -0.7323      2.00000
     50      -0.6525      2.00000
     51      -0.5606      2.00000
     52      -0.4571      2.00000
     53      -0.4032      2.00000
     54      -0.3351      2.00000
     55      -0.3138      2.00000
     56       0.0809      2.00000
     57       0.1089      2.00000
     58       0.3092      2.00000
     59       0.4541      2.00000
     60       0.6040      2.00000
     61       0.7147      2.00000
     62       0.7592      2.00000
     63       0.8339      2.00000
     64       0.9501      2.00000
     65       1.0685      2.00000
     66       1.0962      2.00000
     67       1.2093      2.00000
     68       1.2577      2.00000
     69       1.4897      2.00000
     70       1.5935      2.00000
     71       1.6849      2.00000
     72       1.7038      2.00000
     73       1.7985      2.00000
     74       1.8774      2.00000
     75       1.8988      2.00000
     76       2.1622      2.00000
     77       3.8075      0.00000
     78       4.3148      0.00000
     79       4.3809      0.00000
     80       4.5835      0.00000
     81       4.7543      0.00000
     82       4.8549      0.00000
     83       4.8620      0.00000
     84       5.0237      0.00000
     85       5.1537      0.00000
     86       5.2394      0.00000
     87       5.3659      0.00000
     88       5.6053      0.00000
     89       5.6740      0.00000
     90       5.7046      0.00000
     91       5.8532      0.00000
     92       5.9315      0.00000
     93       6.1398      0.00000
     94       6.1918      0.00000
     95       6.2661      0.00000
     96       6.4701      0.00000
     97       6.5227      0.00000
     98       6.7768      0.00000

 k-point     3 :      -0.3333    0.2500    0.2500
  band No.  band energies     occupation 
      1     -12.1236      2.00000
      2     -11.8743      2.00000
      3     -11.7141      2.00000
      4     -11.5519      2.00000
      5     -11.3814      2.00000
      6     -11.3672      2.00000
      7     -11.3549      2.00000
      8     -11.3316      2.00000
      9     -11.3268      2.00000
     10     -11.2803      2.00000
     11     -11.1340      2.00000
     12     -11.0580      2.00000
     13     -11.0288      2.00000
     14     -11.0107      2.00000
     15     -10.9802      2.00000
     16     -10.9303      2.00000
     17     -10.8875      2.00000
     18     -10.7770      2.00000
     19     -10.5527      2.00000
     20     -10.4557      2.00000
     21     -10.2562      2.00000
     22     -10.1841      2.00000
     23     -10.1155      2.00000
     24     -10.0577      2.00000
     25      -9.9231      2.00000
     26      -9.8610      2.00000
     27      -7.0113      2.00000
     28      -6.8671      2.00000
     29      -6.5661      2.00000
     30      -6.4752      2.00000
     31      -5.9199      2.00000
     32      -5.5754      2.00000
     33      -5.3671      2.00000
     34      -4.6888      2.00000
     35      -2.8109      2.00000
     36      -2.6328      2.00000
     37      -2.4637      2.00000
     38      -2.2958      2.00000
     39      -2.0600      2.00000
     40      -2.0133      2.00000
     41      -1.9181      2.00000
     42      -1.7912      2.00000
     43      -1.5555      2.00000
     44      -1.4970      2.00000
     45      -1.3726      2.00000
     46      -1.2279      2.00000
     47      -1.0528      2.00000
     48      -0.8468      2.00000
     49      -0.7668      2.00000
     50      -0.6618      2.00000
     51      -0.5820      2.00000
     52      -0.4470      2.00000
     53      -0.3967      2.00000
     54      -0.2885      2.00000
     55      -0.1711      2.00000
     56       0.0318      2.00000
     57       0.0478      2.00000
     58       0.3438      2.00000
     59       0.4510      2.00000
     60       0.6218      2.00000
     61       0.6737      2.00000
     62       0.7722      2.00000
     63       0.8079      2.00000
     64       0.9343      2.00000
     65       1.0815      2.00000
     66       1.1254      2.00000
     67       1.2042      2.00000
     68       1.2657      2.00000
     69       1.4096      2.00000
     70       1.5748      2.00000
     71       1.6279      2.00000
     72       1.6981      2.00000
     73       1.8772      2.00000
     74       1.9483      2.00000
     75       2.0368      2.00000
     76       2.0969      2.00000
     77       4.1145      0.00000
     78       4.2752      0.00000
     79       4.3364      0.00000
     80       4.5514      0.00000
     81       4.6740      0.00000
     82       4.7681      0.00000
     83       4.8388      0.00000
     84       4.9549      0.00000
     85       5.0214      0.00000
     86       5.2358      0.00000
     87       5.3439      0.00000
     88       5.4960      0.00000
     89       5.5794      0.00000
     90       5.6678      0.00000
     91       5.8767      0.00000
     92       6.1319      0.00000
     93       6.1751      0.00000
     94       6.1940      0.00000
     95       6.3779      0.00000
     96       6.4883      0.00000
     97       6.5798      0.00000
     98       6.8303      0.00000

 k-point     4 :       0.0000   -0.2500    0.2500
  band No.  band energies     occupation 
      1     -12.1581      2.00000
      2     -11.8634      2.00000
      3     -11.7321      2.00000
      4     -11.5259      2.00000
      5     -11.3649      2.00000
      6     -11.3581      2.00000
      7     -11.3488      2.00000
      8     -11.3410      2.00000
      9     -11.3233      2.00000
     10     -11.2726      2.00000
     11     -11.1289      2.00000
     12     -11.0487      2.00000
     13     -11.0420      2.00000
     14     -11.0267      2.00000
     15     -11.0052      2.00000
     16     -10.9462      2.00000
     17     -10.8530      2.00000
     18     -10.7992      2.00000
     19     -10.5720      2.00000
     20     -10.4507      2.00000
     21     -10.2485      2.00000
     22     -10.1664      2.00000
     23     -10.1045      2.00000
     24     -10.0015      2.00000
     25      -9.9483      2.00000
     26      -9.8196      2.00000
     27      -7.1040      2.00000
     28      -6.8173      2.00000
     29      -6.6092      2.00000
     30      -6.5817      2.00000
     31      -5.8965      2.00000
     32      -5.5361      2.00000
     33      -5.3710      2.00000
     34      -4.6707      2.00000
     35      -2.7651      2.00000
     36      -2.5039      2.00000
     37      -2.4483      2.00000
     38      -2.3931      2.00000
     39      -2.3160      2.00000
     40      -2.1486      2.00000
     41      -2.0606      2.00000
     42      -1.8560      2.00000
     43      -1.7255      2.00000
     44      -1.4854      2.00000
     45      -1.2688      2.00000
     46      -1.0694      2.00000
     47      -0.9536      2.00000
     48      -0.8168      2.00000
     49      -0.7095      2.00000
     50      -0.5782      2.00000
     51      -0.4751      2.00000
     52      -0.4240      2.00000
     53      -0.3339      2.00000
     54      -0.2285      2.00000
     55      -0.0126      2.00000
     56       0.0212      2.00000
     57       0.1945      2.00000
     58       0.2866      2.00000
     59       0.4504      2.00000
     60       0.6648      2.00000
     61       0.7721      2.00000
     62       0.7925      2.00000
     63       0.8145      2.00000
     64       0.9794      2.00000
     65       1.0530      2.00000
     66       1.1167      2.00000
     67       1.1204      2.00000
     68       1.3187      2.00000
     69       1.4430      2.00000
     70       1.5227      2.00000
     71       1.6612      2.00000
     72       1.7365      2.00000
     73       1.8149      2.00000
     74       1.9632      2.00000
     75       1.9723      2.00000
     76       2.0853      2.00000
     77       4.0815      0.00000
     78       4.2694      0.00000
     79       4.3987      0.00000
     80       4.4582      0.00000
     81       4.5105      0.00000
     82       4.6236      0.00000
     83       4.9239      0.00000
     84       4.9890      0.00000
     85       5.1448      0.00000
     86       5.2766      0.00000
     87       5.3708      0.00000
     88       5.5188      0.00000
     89       5.6402      0.00000
     90       5.7506      0.00000
     91       5.7793      0.00000
     92       6.0183      0.00000
     93       6.0839      0.00000
     94       6.1512      0.00000
     95       6.2704      0.00000
     96       6.4759      0.00000
     97       6.5700      0.00000
     98       6.6863      0.00000

 k-point     5 :       0.3333   -0.2500    0.2500
  band No.  band energies     occupation 
      1     -12.0793      2.00000
      2     -11.9865      2.00000
      3     -11.6633      2.00000
      4     -11.4887      2.00000
      5     -11.3799      2.00000
      6     -11.3576      2.00000
      7     -11.3443      2.00000
      8     -11.3352      2.00000
      9     -11.3093      2.00000
     10     -11.2847      2.00000
     11     -11.1621      2.00000
     12     -11.1063      2.00000
     13     -11.0505      2.00000
     14     -11.0230      2.00000
     15     -10.9908      2.00000
     16     -10.9210      2.00000
     17     -10.8610      2.00000
     18     -10.8186      2.00000
     19     -10.5484      2.00000
     20     -10.4126      2.00000
     21     -10.2215      2.00000
     22     -10.1628      2.00000
     23     -10.1411      2.00000
     24     -10.0698      2.00000
     25      -9.9245      2.00000
     26      -9.8756      2.00000
     27      -7.0134      2.00000
     28      -6.9088      2.00000
     29      -6.4934      2.00000
     30      -6.3716      2.00000
     31      -6.1487      2.00000
     32      -5.6049      2.00000
     33      -5.1137      2.00000
     34      -4.8233      2.00000
     35      -2.8185      2.00000
     36      -2.6695      2.00000
     37      -2.3995      2.00000
     38      -2.2932      2.00000
     39      -2.1301      2.00000
     40      -2.1040      2.00000
     41      -1.9085      2.00000
     42      -1.6749      2.00000
     43      -1.5949      2.00000
     44      -1.4675      2.00000
     45      -1.2949      2.00000
     46      -1.0689      2.00000
     47      -1.0149      2.00000
     48      -0.8656      2.00000
     49      -0.7933      2.00000
     50      -0.7694      2.00000
     51      -0.6195      2.00000
     52      -0.4974      2.00000
     53      -0.3695      2.00000
     54      -0.2959      2.00000
     55      -0.2333      2.00000
     56       0.0215      2.00000
     57       0.1399      2.00000
     58       0.2365      2.00000
     59       0.4224      2.00000
     60       0.6053      2.00000
     61       0.6643      2.00000
     62       0.7784      2.00000
     63       0.8552      2.00000
     64       0.9775      2.00000
     65       1.0575      2.00000
     66       1.1297      2.00000
     67       1.2112      2.00000
     68       1.3380      2.00000
     69       1.4785      2.00000
     70       1.5443      2.00000
     71       1.6348      2.00000
     72       1.7307      2.00000
     73       1.7503      2.00000
     74       1.9465      2.00000
     75       1.9971      2.00000
     76       2.1207      2.00000
     77       3.8740      0.00000
     78       4.3304      0.00000
     79       4.4281      0.00000
     80       4.5168      0.00000
     81       4.6676      0.00000
     82       4.7350      0.00000
     83       4.9101      0.00000
     84       4.9979      0.00000
     85       5.2688      0.00000
     86       5.3838      0.00000
     87       5.4704      0.00000
     88       5.5419      0.00000
     89       5.5924      0.00000
     90       5.6696      0.00000
     91       5.7909      0.00000
     92       5.9562      0.00000
     93       6.0152      0.00000
     94       6.2561      0.00000
     95       6.3586      0.00000
     96       6.5920      0.00000
     97       6.6831      0.00000
     98       6.7402      0.00000

 k-point     6 :      -0.3333   -0.2500    0.2500
  band No.  band energies     occupation 
      1     -12.1065      2.00000
      2     -11.9079      2.00000
      3     -11.7255      2.00000
      4     -11.5115      2.00000
      5     -11.3808      2.00000
      6     -11.3549      2.00000
      7     -11.3417      2.00000
      8     -11.3381      2.00000
      9     -11.3241      2.00000
     10     -11.2650      2.00000
     11     -11.1631      2.00000
     12     -11.0855      2.00000
     13     -11.0416      2.00000
     14     -11.0278      2.00000
     15     -10.9802      2.00000
     16     -10.9258      2.00000
     17     -10.8960      2.00000
     18     -10.7836      2.00000
     19     -10.5132      2.00000
     20     -10.4209      2.00000
     21     -10.2501      2.00000
     22     -10.2167      2.00000
     23     -10.1054      2.00000
     24     -10.0636      2.00000
     25      -9.9244      2.00000
     26      -9.8552      2.00000
     27      -7.1143      2.00000
     28      -6.8261      2.00000
     29      -6.5458      2.00000
     30      -6.4880      2.00000
     31      -5.8694      2.00000
     32      -5.5828      2.00000
     33      -5.2815      2.00000
     34      -4.7599      2.00000
     35      -2.8641      2.00000
     36      -2.6775      2.00000
     37      -2.3682      2.00000
     38      -2.2984      2.00000
     39      -2.0957      2.00000
     40      -2.0328      2.00000
     41      -1.9293      2.00000
     42      -1.7835      2.00000
     43      -1.6552      2.00000
     44      -1.4697      2.00000
     45      -1.3820      2.00000
     46      -1.1084      2.00000
     47      -0.9791      2.00000
     48      -0.8577      2.00000
     49      -0.7799      2.00000
     50      -0.6254      2.00000
     51      -0.5180      2.00000
     52      -0.4169      2.00000
     53      -0.3813      2.00000
     54      -0.3145      2.00000
     55      -0.2771      2.00000
     56      -0.0114      2.00000
     57       0.1275      2.00000
     58       0.2573      2.00000
     59       0.5110      2.00000
     60       0.6496      2.00000
[...]
     86       4.2636      0.00000
     87       4.3165      0.00000
     88       4.3614      0.00000
     89       4.3847      0.00000
     90       4.5150      0.00000
     91       4.6275      0.00000
     92       4.7189      0.00000
     93       4.7812      0.00000
     94       5.0087      0.00000
     95       5.2246      0.00000
     96       5.2783      0.00000
     97       5.3346      0.00000
     98       5.4681      0.00000

 k-point     6 :      -0.3333   -0.2500    0.2500
  band No.  band energies     occupation 
      1     -11.9278      2.00000
      2     -11.8963      2.00000
      3     -11.8880      2.00000
      4     -11.8805      2.00000
      5     -11.8664      2.00000
      6     -11.8531      2.00000
      7     -11.7398      2.00000
      8     -11.6630      2.00000
      9     -11.6352      2.00000
     10     -11.5659      2.00000
     11     -11.5431      2.00000
     12     -11.5304      2.00000
     13     -11.5107      2.00000
     14     -11.3541      2.00000
     15     -11.2838      2.00000
     16     -11.1000      2.00000
     17     -10.9826      2.00000
     18     -10.8009      2.00000
     19     -10.6084      2.00000
     20     -10.5359      2.00000
     21     -10.4763      2.00000
     22     -10.4457      2.00000
     23     -10.3333      2.00000
     24     -10.3170      2.00000
     25     -10.2210      2.00000
     26     -10.2033      2.00000
     27      -7.3935      2.00000
     28      -7.1811      2.00000
     29      -7.0246      2.00000
     30      -6.9756      2.00000
     31      -6.5465      2.00000
     32      -6.3570      2.00000
     33      -6.1956      2.00000
     34      -5.8919      2.00000
     35      -2.8016      2.00000
     36      -2.6243      2.00000
     37      -2.3831      2.00000
     38      -2.3298      2.00000
     39      -2.1754      2.00000
     40      -2.1148      2.00000
     41      -1.9974      2.00000
     42      -1.8898      2.00000
     43      -1.7731      2.00000
     44      -1.6480      2.00000
     45      -1.5544      2.00000
     46      -1.2854      2.00000
     47      -1.2367      2.00000
     48      -1.1247      2.00000
     49      -1.0086      2.00000
     50      -0.9278      2.00000
     51      -0.9168      2.00000
     52      -0.8063      2.00000
     53      -0.7608      2.00000
     54      -0.6735      2.00000
     55      -0.6272      2.00000
     56      -0.4751      2.00000
     57      -0.4054      2.00000
     58      -0.1581      2.00000
     59       0.0316      2.00000
     60       0.1744      2.00000
     61       0.2119      2.00000
     62       0.2743      2.00000
     63       0.3924      2.00000
     64       0.4539      2.00000
     65       0.4696      2.00000
     66       0.5357      2.00000
     67       0.6057      2.00000
     68       0.6773      2.00000
     69       0.7979      2.00000
     70       0.8800      2.00000
     71       0.9333      2.00000
     72       1.0207      2.00000
     73       1.0544      2.00000
     74       1.0838      2.00000
     75       1.2272      2.00000
     76       1.2691      2.00000
     77       3.1111      0.00000
     78       3.2137      0.00000
     79       3.3654      0.00000
     80       3.4499      0.00000
     81       3.6129      0.00000
     82       3.6456      0.00000
     83       3.7814      0.00000
     84       3.8464      0.00000
     85       3.9980      0.00000
     86       4.0701      0.00000
     87       4.2438      0.00000
     88       4.3946      0.00000
     89       4.4764      0.00000
     90       4.5510      0.00000
     91       4.6742      0.00000
     92       4.7967      0.00000
     93       4.9497      0.00000
     94       5.0589      0.00000
     95       5.2033      0.00000
     96       5.2330      0.00000
     97       5.3695      0.00000
     98       5.4317      0.00000


--------------------------------------------------------------------------------------------------------


 soft charge-density along one line, spin component           1
         0         1         2         3         4         5         6         7         8         9
 total charge-density along one line
 
 pseudopotential strength for first ion, spin component:           1
-16.759  -0.011  -0.003 -15.492  -0.010  -0.003  -0.000   0.000
 -0.011 -16.759  -0.007  -0.010 -15.493  -0.006   0.000  -0.000
 -0.003  -0.007 -16.740  -0.003  -0.006 -15.475   0.002  -0.003
-15.492  -0.010  -0.003 -14.323  -0.009  -0.003  -0.000   0.000
 -0.010 -15.493  -0.006  -0.009 -14.324  -0.006   0.000  -0.000
 -0.003  -0.006 -15.475  -0.003  -0.006 -14.308   0.001  -0.003
 -0.000   0.000   0.002  -0.000   0.000   0.001   1.005  -3.848
  0.000  -0.000  -0.003   0.000  -0.000  -0.003  -3.848  14.967
 -0.005   0.000   0.001  -0.005   0.000   0.001   0.001  -0.002
 -0.001   0.001   0.000  -0.001   0.000   0.000   0.002  -0.005
 -0.000   0.000   0.002  -0.000   0.000   0.002   0.001  -0.003
  0.000  -0.005  -0.001   0.000  -0.004  -0.001   0.001  -0.003
 -0.000  -0.000  -0.003  -0.000  -0.000  -0.003  -0.002   0.004
 total augmentation occupancy for first ion, spin component:           1
  3.066  -0.179  -0.041  -1.116   0.174   0.038  -0.001   0.000   0.065   0.015  -0.006  -0.014   0.013
 -0.179   3.054  -0.171   0.174  -1.104   0.169   0.006  -0.001  -0.008  -0.006  -0.041   0.036   0.009
 -0.041  -0.171   3.510   0.038   0.169  -1.557   0.069  -0.001   0.011  -0.007   0.008   0.033  -0.041
 -1.116   0.174   0.038   1.170  -0.167  -0.036   0.001   0.000  -0.062  -0.015   0.006   0.014  -0.013
  0.174  -1.104   0.169  -0.167   1.159  -0.167  -0.007   0.000   0.008   0.006   0.041  -0.034  -0.009
  0.038   0.169  -1.557  -0.036  -0.167   1.606  -0.075  -0.002  -0.011   0.007  -0.009  -0.032   0.043
 -0.001   0.006   0.069   0.001  -0.007  -0.075   0.493   0.012  -0.005  -0.013  -0.013  -0.013   0.020
  0.000  -0.001  -0.001   0.000   0.000  -0.002   0.012   0.000  -0.000  -0.000  -0.000  -0.000   0.000
  0.065  -0.008   0.011  -0.062   0.008  -0.011  -0.005  -0.000   0.015   0.006  -0.005   0.001  -0.006
  0.015  -0.006  -0.007  -0.015   0.006   0.007  -0.013  -0.000   0.006   0.015  -0.007  -0.007   0.000
 -0.006  -0.041   0.008   0.006   0.041  -0.009  -0.013  -0.000  -0.005  -0.007   0.013   0.005  -0.001
 -0.014   0.036   0.033   0.014  -0.034  -0.032  -0.013  -0.000   0.001  -0.007   0.005   0.022  -0.013
  0.013   0.009  -0.041  -0.013  -0.009   0.043   0.020   0.000  -0.006   0.000  -0.001  -0.013   0.022


------------------------ aborting loop because EDIFF is reached ----------------------------------------


 


 total charge     
 
# of ion       s       p       d       tot
------------------------------------------
    1        0.078   6.079   0.070   6.228
    2        0.058   6.033   0.049   6.140
    3        0.058   6.033   0.049   6.140
    4        0.078   6.079   0.070   6.228
    5        1.262   0.982   0.057   2.300
    6        1.256   0.996   0.056   2.308
    7        1.280   0.954   0.055   2.289
    8        1.273   0.957   0.055   2.286
    9        1.280   0.954   0.055   2.289
   10        1.262   0.982   0.057   2.300
   11        1.256   0.996   0.056   2.308
   12        1.273   0.957   0.055   2.286
   13        1.474   2.306   0.020   3.800
   14        1.471   2.322   0.022   3.815
   15        1.465   2.334   0.017   3.816
   16        1.469   2.323   0.020   3.811
   17        1.481   2.288   0.024   3.793
   18        1.471   2.322   0.022   3.815
   19        1.471   2.321   0.020   3.812
   20        1.481   2.288   0.024   3.793
   21        1.471   2.321   0.020   3.812
   22        1.468   2.330   0.018   3.816
   23        1.468   2.330   0.018   3.816
   24        1.469   2.323   0.020   3.811
   25        1.465   2.334   0.017   3.816
   26        1.474   2.306   0.020   3.800
--------------------------------------------------
tot         31.010  64.451   0.965  96.426
 
    CHARGE:  cpu time    0.0375: real time    0.0379
    FORLOC:  cpu time    0.0025: real time    0.0027
    FORNL :  cpu time    0.2494: real time    0.2613
    STRESS:  cpu time    0.6232: real time    0.6417
    FORCOR:  cpu time    0.0120: real time    0.0121
    FORHAR:  cpu time    0.0045: real time    0.0047
    MIXING:  cpu time    0.0005: real time    0.0005
    OFIELD:  cpu time    0.0000: real time    0.0000

  FORCE on cell =-STRESS in cart. coord.  units (eV):
  Direction    XX          YY          ZZ          XY          YZ          ZX
  --------------------------------------------------------------------------------------
  Alpha Z   246.54448   246.54448   246.54448
  Ewald   -1676.83833 -1633.31695 -1884.08894    47.50955  -180.43334   100.27364
  Hartree   479.82978   511.21839   337.75882    32.63932  -126.09419    47.78432
  E(xc)    -575.41306  -574.30711  -575.32478     0.22133    -0.38458     1.35259
  Local    -841.75664  -915.29483  -502.81221   -77.97579   304.23829  -136.91070
  n-local  1151.29733  1143.27507  1149.27752    -1.43114     1.77595    -8.95079
  augment  -170.84533  -170.04816  -172.38862     0.29869    -0.63080     1.97979
  Kinetic  1386.99416  1391.86390  1400.72211    -1.26272     1.46610    -5.50227
  Fock        0.00000     0.00000     0.00000     0.00000     0.00000     0.00000
  -------------------------------------------------------------------------------------
  Total      -0.18761    -0.06520    -0.31163    -0.00076    -0.06256     0.02658
  in kB      -0.33091    -0.11500    -0.54966    -0.00134    -0.11035     0.04689
  external pressure =       -0.33 kB  Pullay stress =        0.00 kB


 VOLUME and BASIS-vectors are now :
 -----------------------------------------------------------------------------
  energy-cutoff  :      300.00
  volume of cell :      908.36
      direct lattice vectors                 reciprocal lattice vectors
    -7.838437659 -0.015886486 -0.310190063    -0.127835226  0.029228994  0.005042410
     2.246234822  9.829517252 -0.031525229     0.000477935  0.101569761 -0.017279248
    -0.923995014 -2.004286063-11.807022103     0.003357167 -0.001039090 -0.084781697

  length of vectors
     7.844588912 10.082954633 12.011523648     0.131231113  0.103030176  0.084854502


 FORCES acting on ions
    electron-ion (+dipol)            ewald-force                    non-local-force                 convergence-correction
 -----------------------------------------------------------------------------------------------
   -.336E+02 0.140E+02 0.480E+02   0.332E+02 -.139E+02 -.481E+02   0.441E+00 -.552E-01 0.530E-01   -.165E-02 -.474E-03 0.299E-02
   0.547E+01 0.367E+02 -.199E+02   -.519E+01 -.361E+02 0.194E+02   -.287E+00 -.549E+00 0.461E+00   0.204E-02 0.138E-02 0.221E-02
   -.547E+01 -.367E+02 0.199E+02   0.519E+01 0.361E+02 -.194E+02   0.287E+00 0.549E+00 -.461E+00   -.204E-02 -.138E-02 -.221E-02
   0.336E+02 -.140E+02 -.480E+02   -.332E+02 0.139E+02 0.481E+02   -.441E+00 0.552E-01 -.530E-01   0.165E-02 0.474E-03 -.299E-02
   0.101E+02 -.336E+02 -.588E+01   -.143E+02 0.409E+02 0.121E+02   0.415E+01 -.730E+01 -.627E+01   0.204E-02 -.136E-02 0.576E-03
   -.192E+02 0.261E+00 0.521E+01   0.205E+02 -.350E+01 -.152E+02   -.136E+01 0.325E+01 0.100E+02   -.107E-02 -.125E-02 -.106E-02
   0.426E+02 0.477E+01 -.379E+01   -.504E+02 -.900E+01 0.808E+01   0.781E+01 0.423E+01 -.431E+01   0.142E-02 0.251E-03 -.343E-04
   0.189E+02 0.204E+01 -.459E+02   -.235E+02 -.440E+01 0.544E+02   0.455E+01 0.237E+01 -.848E+01   0.137E-02 0.382E-04 -.213E-02
   -.426E+02 -.477E+01 0.379E+01   0.504E+02 0.900E+01 -.808E+01   -.781E+01 -.423E+01 0.431E+01   -.142E-02 -.251E-03 0.343E-04
   -.101E+02 0.336E+02 0.588E+01   0.143E+02 -.409E+02 -.121E+02   -.415E+01 0.730E+01 0.627E+01   -.204E-02 0.136E-02 -.576E-03
   0.192E+02 -.261E+00 -.521E+01   -.205E+02 0.350E+01 0.152E+02   0.136E+01 -.325E+01 -.100E+02   0.107E-02 0.125E-02 0.106E-02
   -.189E+02 -.204E+01 0.459E+02   0.235E+02 0.440E+01 -.544E+02   -.455E+01 -.237E+01 0.848E+01   -.137E-02 -.382E-04 0.213E-02
   0.426E+02 -.309E+02 -.103E+02   -.441E+02 0.317E+02 0.118E+02   0.148E+01 -.810E+00 -.146E+01   0.771E-03 -.299E-03 -.985E-03
   0.277E+02 -.326E+02 -.372E+01   -.276E+02 0.350E+02 0.310E+01   -.124E+00 -.240E+01 0.643E+00   0.605E-02 -.278E-02 -.154E-02
   0.296E+02 -.389E+02 -.705E+02   -.309E+02 0.402E+02 0.717E+02   0.124E+01 -.133E+01 -.116E+01   -.104E-02 -.429E-02 -.246E-02
   0.262E+02 0.380E+01 -.673E+01   -.284E+02 -.386E+01 0.697E+01   0.227E+01 0.681E-01 -.236E+00   0.185E-02 -.842E-03 -.309E-02
   0.243E+02 0.547E+02 0.698E+02   -.256E+02 -.559E+02 -.719E+02   0.123E+01 0.123E+01 0.212E+01   -.528E-03 0.616E-03 0.232E-02
   -.277E+02 0.326E+02 0.372E+01   0.276E+02 -.350E+02 -.310E+01   0.124E+00 0.240E+01 -.643E+00   -.605E-02 0.278E-02 0.154E-02
   -.437E+02 -.711E+01 0.512E+02   0.454E+02 0.744E+01 -.524E+02   -.170E+01 -.323E+00 0.120E+01   -.466E-02 -.860E-03 0.307E-02
   -.243E+02 -.547E+02 -.698E+02   0.256E+02 0.559E+02 0.719E+02   -.123E+01 -.123E+01 -.212E+01   0.528E-03 -.616E-03 -.232E-02
   0.437E+02 0.711E+01 -.512E+02   -.454E+02 -.744E+01 0.524E+02   0.170E+01 0.323E+00 -.120E+01   0.466E-02 0.860E-03 -.307E-02
   0.423E+02 0.155E+02 0.631E+02   -.436E+02 -.165E+02 -.649E+02   0.128E+01 0.103E+01 0.186E+01   -.773E-03 -.157E-03 0.360E-02
   -.423E+02 -.155E+02 -.631E+02   0.436E+02 0.165E+02 0.649E+02   -.128E+01 -.103E+01 -.186E+01   0.773E-03 0.157E-03 -.360E-02
   -.262E+02 -.380E+01 0.673E+01   0.284E+02 0.386E+01 -.697E+01   -.227E+01 -.681E-01 0.236E+00   -.185E-02 0.842E-03 0.309E-02
   -.296E+02 0.389E+02 0.705E+02   0.309E+02 -.402E+02 -.717E+02   -.124E+01 0.133E+01 0.116E+01   0.104E-02 0.429E-02 0.246E-02
   -.426E+02 0.309E+02 0.103E+02   0.441E+02 -.317E+02 -.118E+02   -.148E+01 0.810E+00 0.146E+01   -.771E-03 0.299E-03 0.985E-03
 -----------------------------------------------------------------------------------------------
   0.313E-11 0.940E-11 0.144E-10   -.924E-13 0.355E-13 0.107E-13   0.444E-15 -.333E-15 -.444E-15   -.935E-12 -.218E-11 -.505E-11
 
 
 POSITION                                       TOTAL-FORCE (eV/Angst)
 -----------------------------------------------------------------------------------
     -1.56657      3.06157     -1.41812        -0.003885      0.007651      0.005312
     -2.24880      6.08467     -6.83719        -0.012925      0.000762     -0.013710
     -4.26740      1.72468     -5.31155         0.012925     -0.000762      0.013710
     -4.94963      4.74777    -10.73062         0.003885     -0.007651     -0.005312
      1.55447      8.59011     -4.06771        -0.000431      0.005067     -0.026274
     -0.99956      2.64143     -9.69616         0.021789      0.013424      0.018732
     -5.46383      1.22002     -0.79555        -0.042431      0.008821     -0.023824
     -4.27629      0.31678     -9.25429        -0.004550      0.009657     -0.017537
     -1.05236      6.58933    -11.35319         0.042431     -0.008821      0.023824
     -8.07067     -0.78077     -8.08102         0.000431     -0.005067      0.026274
     -5.51664      5.16792     -2.45258        -0.021789     -0.013424     -0.018732
     -2.23990      7.49257     -2.89444         0.004550     -0.009657      0.017537
     -4.56901      8.23582     -1.96547         0.002341     -0.011055     -0.006469
     -5.30570      1.40396    -11.45876        -0.031490      0.011494      0.021239
     -3.31364      2.87591     -8.48851        -0.001660     -0.012370     -0.001657
     -2.35944     -0.95475     -6.28161         0.007523      0.003977     -0.001987
      0.95970      6.03705     -4.23847         0.001386      0.001428      0.003427
     -1.21050      6.40538     -0.68998         0.031490     -0.011494     -0.021239
     -3.36381      0.33083     -2.06202         0.006185      0.006175      0.001811
     -7.47589      1.77230     -7.91027        -0.001386     -0.001428     -0.003427
     -3.15238      7.47852    -10.08672        -0.006185     -0.006175     -0.001811
     -6.37818      2.68654     -2.94497         0.008156     -0.012991     -0.006158
     -0.13801      5.12280     -9.20377        -0.008156      0.012991      0.006158
     -4.15676      8.76409     -5.86712        -0.007523     -0.003977      0.001987
     -3.20256      4.93343     -3.66023         0.001660      0.012370      0.001657
     -1.94719     -0.42647    -10.18327        -0.002341      0.011055      0.006469
 -----------------------------------------------------------------------------------
    total drift:                                0.000000      0.000000      0.000000


--------------------------------------------------------------------------------------------------------



  FREE ENERGIE OF THE ION-ELECTRON SYSTEM (eV)
  ---------------------------------------------------
  free  energy   TOTEN  =      -100.34742830 eV

  energy  without entropy=     -100.34742830  energy(sigma->0) =     -100.34742830
 
 d Force = 0.8456819E-04[ 0.186E-04, 0.151E-03]  d Energy = 0.1021804E-03-0.176E-04
 d Force = 0.2631579E-01[ 0.263E-01, 0.264E-01]  d Ewald  = 0.1508794E+00-0.125E+00


--------------------------------------------------------------------------------------------------------


    POTLOK:  cpu time    0.2520: real time    0.2536


--------------------------------------------------------------------------------------------------------




--------------------------------------------------------------------------------------------------------


  
 reached required accuracy - stopping structural energy minimisation
     LOOP+:  cpu time    3.6121: real time    3.8303
    4ORBIT:  cpu time    0.0000: real time    0.0000
 


 total charge     
 
# of ion       s       p       d       tot
------------------------------------------
    1        0.078   6.079   0.070   6.228
    2        0.058   6.033   0.049   6.140
    3        0.058   6.033   0.049   6.140
    4        0.078   6.079   0.070   6.228
    5        1.262   0.982   0.057   2.300
    6        1.256   0.996   0.056   2.308
    7        1.280   0.954   0.055   2.289
    8        1.273   0.957   0.055   2.286
    9        1.280   0.954   0.055   2.289
   10        1.262   0.982   0.057   2.300
   11        1.256   0.996   0.056   2.308
   12        1.273   0.957   0.055   2.286
   13        1.474   2.306   0.020   3.800
   14        1.471   2.322   0.022   3.815
   15        1.465   2.334   0.017   3.816
   16        1.469   2.323   0.020   3.811
   17        1.481   2.288   0.024   3.793
   18        1.471   2.322   0.022   3.815
   19        1.471   2.321   0.020   3.812
   20        1.481   2.288   0.024   3.793
   21        1.471   2.321   0.020   3.812
   22        1.468   2.330   0.018   3.816
   23        1.468   2.330   0.018   3.816
   24        1.469   2.323   0.020   3.811
   25        1.465   2.334   0.017   3.816
   26        1.474   2.306   0.020   3.800
--------------------------------------------------
tot         31.010  64.451   0.965  96.426
 

 total amount of memory used by VASP MPI-rank0    45990. kBytes
=======================================================================

   base      :      30000. kBytes
   nonlr-proj:       3307. kBytes
   fftplans  :       1116. kBytes
   grid      :       4508. kBytes
   one-center:        210. kBytes
   wavefun   :       6849. kBytes
 
  
  
 General timing and accounting informations for this job:
 ========================================================
  
                  Total CPU time used (sec):      508.904
                            User time (sec):      500.761
                          System time (sec):        8.143
                         Elapsed time (sec):      527.337
  
                   Maximum memory used (kb):      101280.
                   Average memory used (kb):           0.
  
                          Minor page faults:       106208
                          Major page faults:            0
                 Voluntary context switches:         3834
