PROCAR new format
# of k-points:    6         # of bands:   98         # of ions:   26

 k-point     1 :    0.00000000 0.25000000 0.25000000     weight = 0.16666667

band     1 # energy  -11.93392227 # occ.  2.00000000
 
ion      s      p      d    tot
    1  0.000  0.003  0.000  0.003
    2  0.000  0.381  0.000  0.381
    3  0.000  0.381  0.000  0.381
    4  0.000  0.003  0.000  0.003
    5  0.007  0.000  0.000  0.007
    6  0.003  0.000  0.000  0.003
    7  0.000  0.000  0.000  0.000
    8  0.002  0.000  0.000  0.002
    9  0.000  0.000  0.000  0.000
   10  0.007  0.000  0.000  0.007
   11  0.003  0.000  0.000  0.003
   12  0.002  0.000  0.000  0.002
   13  0.004  0.000  0.000  0.004
   14  0.002  0.000  0.000  0.002
   15  0.007  0.000  0.000  0.007
   16  0.026  0.000  0.000  0.026
   17  0.013  0.000  0.000  0.013
   18  0.002  0.000  0.000  0.002
   19  0.001  0.000  0.000  0.001
   20  0.013  0.000  0.000  0.013
   21  0.001  0.000  0.000  0.001
   22  0.005  0.000  0.000  0.005
   23  0.005  0.000  0.000  0.005
   24  0.026  0.000  0.000  0.026
   25  0.007  0.000  0.000  0.007
   26  0.004  0.000  0.000  0.004
tot    0.137  0.772  0.000  0.910
 
band     2 # energy  -11.90140184 # occ.  2.00000000
 
ion      s      p      d    tot
    1  0.000  0.005  0.000  0.005
    2  0.000  0.424  0.000  0.424
    3  0.000  0.424  0.000  0.424
    4  0.000  0.005  0.000  0.005
    5  0.002  0.000  0.000  0.002
    6  0.001  0.000  0.000  0.001
    7  0.002  0.000  0.000  0.003
    8  0.002  0.000  0.000  0.002
    9  0.002  0.000  0.000  0.003
   10  0.002  0.000  0.000  0.002
   11  0.001  0.000  0.000  0.001
   12  0.002  0.000  0.000  0.002
   13  0.004  0.000  0.000  0.004
   14  0.007  0.000  0.000  0.007
   15  0.003  0.000  0.000  0.003
   16  0.005  0.000  0.000  0.005
   17  0.003  0.000  0.000  0.003
   18  0.007  0.000  0.000  0.007
   19  0.009  0.000  0.000  0.009
   20  0.003  0.000  0.000  0.003
   21  0.009  0.000  0.000  0.009
   22  0.002  0.000  0.000  0.002
   23  0.002  0.000  0.000  0.002
   24  0.005  0.000  0.000  0.005
   25  0.003  0.000  0.000  0.003
   26  0.004  0.000  0.000  0.004
tot    0.080  0.861  0.000  0.941
 
band     3 # energy  -11.88616198 # occ.  2.00000000
 
ion      s      p      d    tot
    1  0.000  0.002  0.000  0.002
    2  0.000  0.483  0.000  0.483
    3  0.000  0.483  0.000  0.483
    4  0.000  0.002  0.000  0.002
    5  0.000  0.000  0.000  0.000
    6  0.000  0.000  0.000  0.000
    7  0.000  0.000  0.000  0.000
    8  0.000  0.000  0.000  0.000
    9  0.000  0.000  0.000  0.000
   10  0.000  0.000  0.000  0.000
   11  0.000  0.000  0.000  0.000
   12  0.000  0.000  0.000  0.000
   13  0.000  0.000  0.000  0.000
   14  0.000  0.000  0.000  0.000
   15  0.002  0.000  0.000  0.002
   16  0.000  0.000  0.000  0.000
   17  0.001  0.000  0.000  0.001
   18  0.000  0.000  0.000  0.000
   19  0.001  0.000  0.000  0.001
   20  0.001  0.000  0.000  0.001
   21  0.001  0.000  0.000  0.001
   22  0.000  0.000  0.000  0.000
   23  0.000  0.000  0.000  0.000
   24  0.000  0.000  0.000  0.000
   25  0.002  0.000  0.000  0.002
   26  0.000  0.000  0.000  0.000
tot    0.012  0.969  0.000  0.981
 
band     4 # energy  -11.87296912 # occ.  2.00000000
 
ion      s      p      d    tot
    1  0.000  0.004  0.000  0.004
    2  0.000  0.472  0.000  0.472
    3  0.000  0.472  0.000  0.472
    4  0.000  0.004  0.000  0.004
    5  0.000  0.000  0.000  0.000
    6  0.001  0.000  0.000  0.001
    7  0.000  0.000  0.000  0.000
    8  0.001  0.000  0.000  0.001
    9  0.000  0.000  0.000  0.000
   10  0.000  0.000  0.000  0.000
   11  0.001  0.000  0.000  0.001
   12  0.001  0.000  0.000  0.001
   13  0.001  0.000  0.000  0.001
   14  0.001  0.000  0.000  0.001
   15  0.003  0.000  0.000  0.003
   16  0.001  0.000  0.000  0.001
   17  0.001  0.000  0.000  0.001
   18  0.001  0.000  0.000  0.001
   19  0.001  0.000  0.000  0.001
   20  0.001  0.000  0.000  0.001
   21  0.001  0.000  0.000  0.001
   22  0.000  0.000  0.000  0.000
   23  0.000  0.000  0.000  0.000
   24  0.001  0.000  0.000  0.001
   25  0.003  0.000  0.000  0.003
   26  0.001  0.000  0.000  0.001
tot    0.022  0.952  0.000  0.974
 
band     5 # energy  -11.86748076 # occ.  2.00000000
 
ion      s      p      d    tot
    1  0.000  0.002  0.000  0.002
    2  0.000  0.452  0.000  0.452
    3  0.000  0.452  0.000  0.452
    4  0.000  0.002  0.000  0.002
    5  0.000  0.000  0.000  0.000
    6  0.001  0.000  0.000  0.001
    7  0.001  0.000  0.000  0.002
    8  0.001  0.000  0.000  0.001
    9  0.001  0.000  0.000  0.002
   10  0.000  0.000  0.000  0.000
   11  0.001  0.000  0.000  0.001
   12  0.001  0.000  0.000  0.001
   13  0.002  0.000  0.000  0.002
   14  0.004  0.000  0.000  0.004
   15  0.002  0.000  0.000  0.002
   16  0.003  0.000  0.000  0.003
   17  0.001  0.000  0.000  0.001
   18  0.004  0.000  0.000  0.004
   19  0.003  0.000  0.000  0.003
   20  0.001  0.000  0.000  0.001
   21  0.003  0.000  0.000  0.003
   22  0.007  0.000  0.000  0.007
   23  0.007  0.000  0.000  0.007
   24  0.003  0.000  0.000  0.003
   25  0.002  0.000  0.000  0.002
   26  0.002  0.000  0.000  0.002
tot    0.050  0.909  0.000  0.959
 
band     6 # energy  -11.84760368 # occ.  2.00000000
 
ion      s      p      d    tot
    1  0.000  0.001  0.000  0.001
    2  0.000  0.477  0.000  0.477
    3  0.000  0.477  0.000  0.477
    4  0.000  0.001  0.000  0.001
    5  0.000  0.000  0.000  0.000
    6  0.000  0.000  0.000  0.000
    7  0.000  0.000  0.000  0.000
    8  0.000  0.000  0.000  0.000
    9  0.000  0.000  0.000  0.000
   10  0.000  0.000  0.000  0.000
   11  0.000  0.000  0.000  0.000
   12  0.000  0.000  0.000  0.000
   13  0.000  0.000  0.000  0.000
   14  0.000  0.000  0.000  0.000
   15  0.001  0.000  0.000  0.001
   16  0.000  0.000  0.000  0.000
   17  0.000  0.000  0.000  0.000
   18  0.000  0.000  0.000  0.000
   19  0.001  0.000  0.000  0.001
   20  0.000  0.000  0.000  0.000
   21  0.001  0.000  0.000  0.001
   22  0.006  0.000  0.000  0.007
   23  0.006  0.000  0.000  0.007
   24  0.000  0.000  0.000  0.000
   25  0.001  0.000  0.000  0.001
   26  0.000  0.000  0.000  0.000
tot    0.018  0.958  0.000  0.976
 
band     7 # energy  -11.77780293 # occ.  2.00000000
 
ion      s      p      d    tot
    1  0.000  0.089  0.000  0.089
    2  0.000  0.100  0.000  0.100
    3  0.000  0.100  0.000  0.100
    4  0.000  0.089  0.000  0.089
    5  0.010  0.000  0.000  0.010
    6  0.007  0.001  0.000  0.008
    7  0.008  0.000  0.000  0.009
    8  0.012  0.001  0.000  0.013
    9  0.008  0.000  0.000  0.009
   10  0.010  0.000  0.000  0.010
   11  0.007  0.001  0.000  0.008
   12  0.012  0.001  0.000  0.013
   13  0.030  0.000  0.000  0.031
   14  0.039  0.000  0.000  0.039
   15  0.016  0.000  0.000  0.016
   16  0.014  0.000  0.000  0.014
   17  0.030  0.000  0.000  0.031
   18  0.039  0.000  0.000  0.039
   19  0.021  0.000  0.000  0.022
   20  0.030  0.000  0.000  0.031
   21  0.021  0.000  0.000  0.022
   22  0.006  0.000  0.000  0.007
   23  0.006  0.000  0.000  0.007
   24  0.014  0.000  0.000  0.014
   25  0.016  0.000  0.000  0.016
   26  0.030  0.000  0.000  0.031
tot    0.389  0.387  0.000  0.776
 
band     8 # energy  -11.66551939 # occ.  2.00000000
 
ion      s      p      d    tot
    1  0.000  0.205  0.000  0.205
    2  0.000  0.068  0.000  0.068
    3  0.000  0.068  0.000  0.068
    4  0.000  0.205  0.000  0.205
    5  0.006  0.000  0.000  0.007
    6  0.007  0.000  0.000  0.007
    7  0.002  0.000  0.000  0.003
    8  0.009  0.001  0.000  0.010
    9  0.002  0.000  0.000  0.003
   10  0.006  0.000  0.000  0.007
   11  0.007  0.000  0.000  0.007
   12  0.009  0.001  0.000  0.010
   13  0.022  0.000  0.000  0.022
   14  0.044  0.000  0.000  0.045
   15  0.012  0.000  0.000  0.013
   16  0.008  0.000  0.000  0.008
   17  0.025  0.000  0.000  0.026
   18  0.044  0.000  0.000  0.045
   19  0.004  0.000  0.000  0.004
   20  0.025  0.000  0.000  0.026
   21  0.004  0.000  0.000  0.004
   22  0.002  0.000  0.000  0.002
   23  0.002  0.000  0.000  0.002
   24  0.008  0.000  0.000  0.008
   25  0.012  0.000  0.000  0.013
   26  0.022  0.000  0.000  0.022
tot    0.283  0.554  0.000  0.837
 
band     9 # energy  -11.59847797 # occ.  2.00000000
 
ion      s      p      d    tot
    1  0.000  0.361  0.000  0.361
    2  0.000  0.010  0.000  0.010
    3  0.000  0.010  0.000  0.010
    4  0.000  0.361  0.000  0.361
    5  0.005  0.000  0.000  0.005
    6  0.004  0.000  0.000  0.004
    7  0.003  0.000  0.000  0.004
    8  0.000  0.000  0.000  0.000
    9  0.003  0.000  0.000  0.004
   10  0.005  0.000  0.000  0.005
   11  0.004  0.000  0.000  0.004
   12  0.000  0.000  0.000  0.000
   13  0.001  0.000  0.000  0.001
   14  0.017  0.000  0.000  0.017
   15  0.005  0.000  0.000  0.005
   16  0.011  0.000  0.000  0.012
   17  0.016  0.000  0.000  0.017
   18  0.017  0.000  0.000  0.017
   19  0.014  0.000  0.000  0.014
   20  0.016  0.000  0.000  0.017
   21  0.014  0.000  0.000  0.014
   22  0.003  0.000  0.000  0.003
   23  0.003  0.000  0.000  0.003
   24  0.011  0.000  0.000  0.012
   25  0.005  0.000  0.000  0.005
   26  0.001  0.000  0.000  0.001
tot    0.159  0.746  0.000  0.905
 
band    10 # energy  -11.54513479 # occ.  2.00000000
 
ion      s      p      d    tot
    1  0.000  0.458  0.000  0.458
    2  0.000  0.003  0.000  0.003
    3  0.000  0.003  0.000  0.003
    4  0.000  0.458  0.000  0.458
    5  0.000  0.000  0.000  0.000
    6  0.000  0.000  0.000  0.000
    7  0.001  0.000  0.000  0.001
    8  0.001  0.000  0.000  0.001
    9  0.001  0.000  0.000  0.001
   10  0.000  0.000  0.000  0.000
   11  0.000  0.000  0.000  0.000
   12  0.001  0.000  0.000  0.001
   13  0.001  0.000  0.000  0.001
   14  0.005  0.000  0.000  0.005
   15  0.001  0.000  0.000  0.001
   16  0.000  0.000  0.000  0.000
   17  0.001  0.000  0.000  0.001
   18  0.005  0.000  0.000  0.005
   19  0.010  0.000  0.000  0.010
   20  0.001  0.000  0.000  0.001
   21  0.010  0.000  0.000  0.010
   22  0.001  0.000  0.000  0.001
   23  0.001  0.000  0.000  0.001
   24  0.000  0.000  0.000  0.000
   25  0.001  0.000  0.000  0.001
   26  0.001  0.000  0.000  0.001
tot    0.041  0.924  0.000  0.965
 
band    11 # energy  -11.53386901 # occ.  2.00000000
 
ion      s      p      d    tot
    1  0.000  0.460  0.000  0.460
    2  0.000  0.002  0.000  0.002
    3  0.000  0.002  0.000  0.002
    4  0.000  0.460  0.000  0.460
    5  0.000  0.000  0.000  0.000
    6  0.001  0.000  0.000  0.001
    7  0.000  0.000  0.000  0.000
    8  0.000  0.000  0.000  0.000
    9  0.000  0.000  0.000  0.000
   10  0.000  0.000  0.000  0.000
   11  0.001  0.000  0.000  0.001
   12  0.000  0.000  0.000  0.000
   13  0.003  0.000  0.000  0.003
   14  0.000  0.000  0.000  0.000
   15  0.009  0.000  0.000  0.009
   16  0.001  0.000  0.000  0.001
   17  0.003  0.000  0.000  0.003
   18  0.000  0.000  0.000  0.000
   19  0.000  0.000  0.000  0.000
   20  0.003  0.000  0.000  0.003
   21  0.000  0.000  0.000  0.000
   22  0.002  0.000  0.000  0.002
   23  0.002  0.000  0.000  0.002
   24  0.001  0.000  0.000  0.001
   25  0.009  0.000  0.000  0.009
   26  0.003  0.000  0.000  0.003
tot    0.040  0.925  0.000  0.966
 
band    12 # energy  -11.52062143 # occ.  2.00000000
 
ion      s      p      d    tot
    1  0.000  0.412  0.000  0.412
    2  0.000  0.006  0.000  0.006
    3  0.000  0.006  0.000  0.006
    4  0.000  0.412  0.000  0.412
    5  0.003  0.000  0.000  0.003
    6  0.003  0.000  0.000  0.003
    7  0.001  0.000  0.000  0.001
    8  0.001  0.000  0.000  0.001
    9  0.001  0.000  0.000  0.001
   10  0.003  0.000  0.000  0.003
   11  0.003  0.000  0.000  0.003
   12  0.001  0.000  0.000  0.001
   13  0.004  0.000  0.000  0.004
   14  0.003  0.000  0.000  0.003
   15  0.002  0.000  0.000  0.002
   16  0.006  0.000  0.000  0.006
   17  0.012  0.000  0.000  0.013
   18  0.003  0.000  0.000  0.003
   19  0.001  0.000  0.000  0.001
   20  0.012  0.000  0.000  0.013
   21  0.001  0.000  0.000  0.001
   22  0.013  0.000  0.000  0.013
   23  0.013  0.000  0.000  0.013
   24  0.006  0.000  0.000  0.006
   25  0.002  0.000  0.000  0.002
   26  0.004  0.000  0.000  0.004
tot    0.098  0.838  0.000  0.937
 
band    13 # energy  -11.51439416 # occ.  2.00000000
 
ion      s      p      d    tot
    1  0.000  0.396  0.000  0.396
    2  0.000  0.006  0.000  0.006
    3  0.000  0.006  0.000  0.006
    4  0.000  0.396  0.000  0.396
    5  0.007  0.001  0.000  0.007
    6  0.002  0.000  0.000  0.002
    7  0.000  0.000  0.000  0.001
    8  0.000  0.000  0.000  0.001
    9  0.000  0.000  0.000  0.001
   10  0.007  0.001  0.000  0.007
   11  0.002  0.000  0.000  0.002
   12  0.000  0.000  0.000  0.001
   13  0.003  0.000  0.000  0.003
   14  0.001  0.000  0.000  0.001
   15  0.002  0.000  0.000  0.002
   16  0.017  0.000  0.000  0.018
   17  0.019  0.000  0.000  0.019
   18  0.001  0.000  0.000  0.001
   19  0.001  0.000  0.000  0.001
   20  0.019  0.000  0.000  0.019
   21  0.001  0.000  0.000  0.001
   22  0.007  0.000  0.000  0.007
   23  0.007  0.000  0.000  0.007
   24  0.017  0.000  0.000  0.018
   25  0.002  0.000  0.000  0.002
   26  0.003  0.000  0.000  0.003
tot    0.119  0.808  0.000  0.927
 
band    14 # energy  -11.50361929 # occ.  2.00000000
 
ion      s      p      d    tot
    1  0.000  0.285  0.000  0.285
    2  0.000  0.030  0.000  0.030
    3  0.000  0.030  0.000  0.030
    4  0.000  0.285  0.000  0.285
    5  0.009  0.001  0.000  0.010
    6  0.008  0.001  0.000  0.009
    7  0.002  0.000  0.000  0.002
    8  0.002  0.000  0.000  0.002
    9  0.002  0.000  0.000  0.002
   10  0.009  0.001  0.000  0.010
   11  0.008  0.001  0.000  0.009
   12  0.002  0.000  0.000  0.002
   13  0.007  0.000  0.000  0.008
   14  0.003  0.000  0.000  0.003
   15  0.007  0.000  0.000  0.007
   16  0.017  0.000  0.000  0.017
   17  0.043  0.001  0.000  0.043
   18  0.003  0.000  0.000  0.003
   19  0.003  0.000  0.000  0.003
   20  0.043  0.001  0.000  0.043
   21  0.003  0.000  0.000  0.003
   22  0.015  0.000  0.000  0.015
   23  0.015  0.000  0.000  0.015
   24  0.017  0.000  0.000  0.017
   25  0.007  0.000  0.000  0.007
   26  0.007  0.000  0.000  0.008
tot    0.233  0.638  0.000  0.871
 
band    15 # energy  -11.26020319 # occ.  2.00000000
 
ion      s      p      d    tot
    1  0.000  0.117  0.000  0.117
    2  0.000  0.004  0.000  0.004
    3  0.000  0.004  0.000  0.004
    4  0.000  0.117  0.000  0.117
    5  0.003  0.001  0.000  0.003
    6  0.010  0.001  0.000  0.011
    7  0.019  0.001  0.000  0.020
    8  0.009  0.001  0.000  0.010
    9  0.019  0.001  0.000  0.020
   10  0.003  0.001  0.000  0.003
   11  0.010  0.001  0.000  0.011
   12  0.009  0.001  0.000  0.010
   13  0.014  0.000  0.000  0.014
   14  0.064  0.001  0.000  0.065
   15  0.010  0.000  0.000  0.011
   16  0.000  0.000  0.000  0.000
   17  0.044  0.001  0.000  0.045
   18  0.064  0.001  0.000  0.065
   19  0.040  0.001  0.000  0.040
   20  0.044  0.001  0.000  0.045
   21  0.040  0.001  0.000  0.040
   22  0.035  0.001  0.000  0.036
   23  0.035  0.001  0.000  0.036
   24  0.000  0.000  0.000  0.000
   25  0.010  0.000  0.000  0.011
   26  0.014  0.000  0.000  0.014
tot    0.495  0.256  0.001  0.752
 
band    16 # energy  -11.01861131 # occ.  2.00000000
 
ion      s      p      d    tot
    1  0.000  0.028  0.000  0.028
    2  0.000  0.014  0.000  0.014
    3  0.000  0.014  0.000  0.014
    4  0.000  0.028  0.000  0.028
    5  0.013  0.003  0.000  0.016
    6  0.019  0.001  0.000  0.020
    7  0.006  0.001  0.000  0.007
    8  0.006  0.000  0.000  0.006
    9  0.006  0.001  0.000  0.007
   10  0.013  0.003  0.000  0.016
   11  0.019  0.001  0.000  0.020
   12  0.006  0.000  0.000  0.006
   13  0.015  0.000  0.000  0.015
   14  0.009  0.000  0.000  0.009
   15  0.058  0.001  0.000  0.059
   16  0.097  0.001  0.000  0.099
   17  0.010  0.001  0.000  0.011
   18  0.009  0.000  0.000  0.009
   19  0.016  0.000  0.000  0.016
   20  0.010  0.001  0.000  0.011
   21  0.016  0.000  0.000  0.016
   22  0.053  0.001  0.000  0.054
   23  0.053  0.001  0.000  0.054
   24  0.097  0.001  0.000  0.099
   25  0.058  0.001  0.000  0.059
   26  0.015  0.000  0.000  0.015
tot    0.606  0.103  0.001  0.710
 
band    17 # energy  -10.99018777 # occ.  2.00000000
 
ion      s      p      d    tot
    1  0.000  0.034  0.000  0.034
    2  0.000  0.001  0.000  0.001
    3  0.000  0.001  0.000  0.001
    4  0.000  0.034  0.000  0.034
    5  0.007  0.001  0.000  0.009
    6  0.004  0.002  0.000  0.006
    7  0.010  0.002  0.000  0.012
    8  0.011  0.002  0.000  0.013
    9  0.010  0.002  0.000  0.012
   10  0.007  0.001  0.000  0.009
   11  0.004  0.002  0.000  0.006
   12  0.011  0.002  0.000  0.013
   13  0.009  0.000  0.000  0.009
   14  0.137  0.001  0.000  0.138
   15  0.008  0.000  0.000  0.008
   16  0.006  0.000  0.000  0.007
   17  0.108  0.001  0.000  0.109
   18  0.137  0.001  0.000  0.138
   19  0.010  0.000  0.000  0.010
   20  0.108  0.001  0.000  0.109
   21  0.010  0.000  0.000  0.010
   22  0.005  0.000  0.000  0.005
   23  0.005  0.000  0.000  0.005
   24  0.006  0.000  0.000  0.007
   25  0.008  0.000  0.000  0.008
   26  0.009  0.000  0.000  0.009
tot    0.630  0.089  0.002  0.721
 
band    18 # energy  -10.83970483 # occ.  2.00000000
 
ion      s      p      d    tot
    1  0.000  0.016  0.000  0.016
    2  0.000  0.006  0.000  0.006
    3  0.000  0.006  0.000  0.006
    4  0.000  0.016  0.000  0.016
    5  0.001  0.001  0.000  0.003
    6  0.007  0.002  0.000  0.009
    7  0.011  0.002  0.000  0.013
    8  0.012  0.002  0.000  0.014
    9  0.011  0.002  0.000  0.013
   10  0.001  0.001  0.000  0.003
   11  0.007  0.002  0.000  0.009
   12  0.012  0.002  0.000  0.014
   13  0.103  0.001  0.000  0.104
   14  0.002  0.000  0.000  0.003
   15  0.011  0.000  0.000  0.011
   16  0.019  0.000  0.000  0.019
   17  0.031  0.000  0.000  0.032
   18  0.002  0.000  0.000  0.003
   19  0.063  0.001  0.000  0.064
   20  0.031  0.000  0.000  0.032
   21  0.063  0.001  0.000  0.064
   22  0.059  0.001  0.000  0.060
   23  0.059  0.001  0.000  0.060
   24  0.019  0.000  0.000  0.019
   25  0.011  0.000  0.000  0.011
   26  0.103  0.001  0.000  0.104
tot    0.642  0.064  0.001  0.707
 
band    19 # energy  -10.60271576 # occ.  2.00000000
 
ion      s      p      d    tot
    1  0.000  0.007  0.000  0.007
    2  0.000  0.001  0.000  0.001
    3  0.000  0.001  0.000  0.001
    4  0.000  0.007  0.000  0.007
    5  0.001  0.002  0.000  0.003
    6  0.002  0.002  0.000  0.004
    7  0.006  0.001  0.000  0.007
    8  0.008  0.002  0.000  0.011
    9  0.006  0.001  0.000  0.007
   10  0.001  0.002  0.000  0.003
   11  0.002  0.002  0.000  0.004
   12  0.008  0.002  0.000  0.011
   13  0.098  0.001  0.000  0.099
   14  0.000  0.000  0.000  0.000
   15  0.038  0.000  0.000  0.039
   16  0.025  0.000  0.000  0.025
   17  0.096  0.000  0.000  0.097
   18  0.000  0.000  0.000  0.000
   19  0.066  0.000  0.000  0.067
   20  0.096  0.000  0.000  0.097
   21  0.066  0.000  0.000  0.067
   22  0.001  0.000  0.000  0.001
   23  0.001  0.000  0.000  0.001
   24  0.025  0.000  0.000  0.025
   25  0.038  0.000  0.000  0.039
   26  0.098  0.001  0.000  0.099
tot    0.682  0.036  0.002  0.720
 
band    20 # energy  -10.54996011 # occ.  2.00000000
 
ion      s      p      d    tot
    1  0.000  0.011  0.000  0.011
    2  0.000  0.001  0.000  0.001
    3  0.000  0.001  0.000  0.001
    4  0.000  0.011  0.000  0.011
    5  0.005  0.001  0.000  0.006
    6  0.003  0.001  0.000  0.005
    7  0.001  0.003  0.000  0.004
    8  0.000  0.003  0.000  0.003
    9  0.001  0.003  0.000  0.004
   10  0.005  0.001  0.000  0.006
   11  0.003  0.001  0.000  0.005
   12  0.000  0.003  0.000  0.003
   13  0.063  0.000  0.000  0.063
   14  0.103  0.000  0.000  0.103
   15  0.050  0.000  0.000  0.050
   16  0.006  0.000  0.000  0.006
   17  0.032  0.000  0.000  0.032
   18  0.103  0.000  0.000  0.103
   19  0.063  0.000  0.000  0.063
   20  0.032  0.000  0.000  0.032
   21  0.063  0.000  0.000  0.063
   22  0.013  0.000  0.000  0.014
   23  0.013  0.000  0.000  0.014
   24  0.006  0.000  0.000  0.006
   25  0.050  0.000  0.000  0.050
   26  0.063  0.000  0.000  0.063
tot    0.678  0.043  0.002  0.723
 
band    21 # energy  -10.43994765 # occ.  2.00000000
 
ion      s      p      d    tot
    1  0.000  0.014  0.000  0.014
    2  0.000  0.005  0.000  0.005
    3  0.000  0.005  0.000  0.005
    4  0.000  0.014  0.000  0.014
    5  0.000  0.002  0.000  0.002
    6  0.002  0.001  0.000  0.004
    7  0.001  0.002  0.000  0.003
    8  0.001  0.002  0.000  0.004
    9  0.001  0.002  0.000  0.003
   10  0.000  0.002  0.000  0.002
   11  0.002  0.001  0.000  0.004
   12  0.001  0.002  0.000  0.004
   13  0.018  0.000  0.000  0.018
   14  0.100  0.000  0.000  0.101
   15  0.043  0.000  0.000  0.044
   16  0.043  0.000  0.000  0.043
   17  0.047  0.000  0.000  0.047
   18  0.100  0.000  0.000  0.101
   19  0.044  0.000  0.000  0.044
   20  0.047  0.000  0.000  0.047
   21  0.044  0.000  0.000  0.044
   22  0.039  0.000  0.000  0.039
   23  0.039  0.000  0.000  0.039
   24  0.043  0.000  0.000  0.043
   25  0.043  0.000  0.000  0.044
   26  0.018  0.000  0.000  0.018
tot    0.679  0.057  0.002  0.738
 
band    22 # energy  -10.39313327 # occ.  2.00000000
 
ion      s      p      d    tot
    1  0.000  0.007  0.000  0.007
    2  0.000  0.003  0.000  0.003
    3  0.000  0.003  0.000  0.003
    4  0.000  0.007  0.000  0.007
    5  0.004  0.002  0.000  0.007
    6  0.003  0.001  0.000  0.004
    7  0.002  0.002  0.000  0.004
    8  0.000  0.001  0.000  0.001
    9  0.002  0.002  0.000  0.004
   10  0.004  0.002  0.000  0.007
   11  0.003  0.001  0.000  0.004
   12  0.000  0.001  0.000  0.001
   13  0.028  0.000  0.000  0.028
   14  0.052  0.000  0.000  0.052
   15  0.061  0.000  0.000  0.061
   16  0.093  0.001  0.000  0.094
   17  0.009  0.000  0.000  0.009
   18  0.052  0.000  0.000  0.052
   19  0.078  0.000  0.000  0.078
   20  0.009  0.000  0.000  0.009
   21  0.078  0.000  0.000  0.078
   22  0.019  0.000  0.000  0.019
   23  0.019  0.000  0.000  0.019
   24  0.093  0.001  0.000  0.094
   25  0.061  0.000  0.000  0.061
   26  0.028  0.000  0.000  0.028
tot    0.696  0.036  0.002  0.734
 
band    23 # energy  -10.35036298 # occ.  2.00000000
 
ion      s      p      d    tot
    1  0.000  0.003  0.000  0.004
    2  0.000  0.002  0.000  0.002
    3  0.000  0.002  0.000  0.002
    4  0.000  0.003  0.000  0.004
    5  0.000  0.003  0.000  0.003
    6  0.001  0.003  0.000  0.004
    7  0.000  0.001  0.000  0.001
    8  0.000  0.001  0.000  0.002
    9  0.000  0.001  0.000  0.001
   10  0.000  0.003  0.000  0.003
   11  0.001  0.003  0.000  0.004
   12  0.000  0.001  0.000  0.002
   13  0.080  0.000  0.000  0.080
   14  0.012  0.000  0.000  0.012
   15  0.092  0.000  0.000  0.092
   16  0.046  0.000  0.000  0.046
   17  0.072  0.000  0.000  0.072
   18  0.012  0.000  0.000  0.012
   19  0.019  0.000  0.000  0.019
   20  0.072  0.000  0.000  0.072
   21  0.019  0.000  0.000  0.019
   22  0.031  0.000  0.000  0.031
   23  0.031  0.000  0.000  0.031
   24  0.046  0.000  0.000  0.046
   25  0.092  0.000  0.000  0.092
   26  0.080  0.000  0.000  0.080
tot    0.705  0.027  0.002  0.735
 
band    24 # energy  -10.30369555 # occ.  2.00000000
 
ion      s      p      d    tot
    1  0.000  0.010  0.000  0.010
    2  0.000  0.004  0.000  0.004
    3  0.000  0.004  0.000  0.004
    4  0.000  0.010  0.000  0.010
    5  0.000  0.002  0.000  0.003
    6  0.000  0.002  0.000  0.003
    7  0.000  0.002  0.000  0.003
    8  0.001  0.001  0.000  0.002
    9  0.000  0.002  0.000  0.003
   10  0.000  0.002  0.000  0.003
   11  0.000  0.002  0.000  0.003
   12  0.001  0.001  0.000  0.002
   13  0.008  0.000  0.000  0.008
   14  0.009  0.000  0.000  0.009
   15  0.053  0.000  0.000  0.053
   16  0.108  0.000  0.000  0.108
   17  0.001  0.000  0.000  0.001
   18  0.009  0.000  0.000  0.009
   19  0.060  0.000  0.000  0.060
   20  0.001  0.000  0.000  0.001
   21  0.060  0.000  0.000  0.060
   22  0.105  0.000  0.000  0.105
   23  0.105  0.000  0.000  0.105
   24  0.108  0.000  0.000  0.108
   25  0.053  0.000  0.000  0.053
   26  0.008  0.000  0.000  0.008
tot    0.690  0.045  0.002  0.737
 
band    25 # energy  -10.20159957 # occ.  2.00000000
 
ion      s      p      d    tot
    1  0.000  0.012  0.000  0.012
    2  0.000  0.002  0.000  0.002
    3  0.000  0.002  0.000  0.002
    4  0.000  0.012  0.000  0.012
    5  0.000  0.001  0.000  0.001
    6  0.000  0.001  0.000  0.001
    7  0.000  0.001  0.000  0.002
    8  0.000  0.001  0.000  0.002
    9  0.000  0.001  0.000  0.002
   10  0.000  0.001  0.000  0.001
   11  0.000  0.001  0.000  0.001
   12  0.000  0.001  0.000  0.002
   13  0.106  0.000  0.000  0.107
   14  0.003  0.000  0.000  0.003
   15  0.066  0.000  0.000  0.066
   16  0.083  0.000  0.000  0.083
   17  0.003  0.000  0.000  0.003
   18  0.003  0.000  0.000  0.003
   19  0.035  0.000  0.000  0.036
   20  0.003  0.000  0.000  0.003
   21  0.035  0.000  0.000  0.036
   22  0.056  0.000  0.000  0.056
   23  0.056  0.000  0.000  0.056
   24  0.083  0.000  0.000  0.083
   25  0.066  0.000  0.000  0.066
   26  0.106  0.000  0.000  0.107
tot    0.706  0.038  0.003  0.746
 
band    26 # energy  -10.16702362 # occ.  2.00000000
 
ion      s      p      d    tot
    1  0.000  0.017  0.000  0.017
    2  0.000  0.003  0.000  0.004
    3  0.000  0.003  0.000  0.004
    4  0.000  0.017  0.000  0.017
    5  0.000  0.000  0.000  0.000
    6  0.000  0.002  0.000  0.003
    7  0.000  0.002  0.000  0.002
    8  0.000  0.001  0.000  0.001
    9  0.000  0.002  0.000  0.002
   10  0.000  0.000  0.000  0.000
   11  0.000  0.002  0.000  0.003
   12  0.000  0.001  0.000  0.001
   13  0.018  0.000  0.000  0.018
   14  0.022  0.000  0.000  0.022
   15  0.073  0.000  0.000  0.074
   16  0.001  0.000  0.000  0.001
   17  0.006  0.000  0.000  0.006
   18  0.022  0.000  0.000  0.022
   19  0.076  0.000  0.000  0.076
   20  0.006  0.000  0.000  0.006
   21  0.076  0.000  0.000  0.076
   22  0.151  0.000  0.000  0.152
   23  0.151  0.000  0.000  0.152
   24  0.001  0.000  0.000  0.001
   25  0.073  0.000  0.000  0.074
   26  0.018  0.000  0.000  0.018
tot    0.695  0.053  0.003  0.750
 
band    27 # energy   -7.38146980 # occ.  2.00000000
 
ion      s      p      d    tot
    1  0.000  0.000  0.000  0.000
    2  0.000  0.000  0.000  0.000
    3  0.000  0.000  0.000  0.000
    4  0.000  0.000  0.000  0.000
    5  0.078  0.000  0.000  0.079
    6  0.069  0.000  0.000  0.070
    7  0.058  0.000  0.000  0.058
    8  0.043  0.000  0.000  0.044
    9  0.058  0.000  0.000  0.058
   10  0.078  0.000  0.000  0.079
   11  0.069  0.000  0.000  0.070
   12  0.043  0.000  0.000  0.044
   13  0.006  0.002  0.000  0.008
   14  0.003  0.004  0.000  0.007
   15  0.003  0.004  0.000  0.007
   16  0.001  0.005  0.000  0.007
   17  0.004  0.008  0.001  0.012
   18  0.003  0.004  0.000  0.007
   19  0.003  0.004  0.000  0.007
   20  0.004  0.008  0.001  0.012
   21  0.003  0.004  0.000  0.007
   22  0.006  0.004  0.000  0.011
   23  0.006  0.004  0.000  0.011
   24  0.001  0.005  0.000  0.007
   25  0.003  0.004  0.000  0.007
   26  0.006  0.002  0.000  0.008
tot    0.552  0.065  0.005  0.623
 
band    28 # energy   -7.26116974 # occ.  2.00000000
 
ion      s      p      d    tot
    1  0.000  0.000  0.000  0.000
    2  0.000  0.000  0.000  0.000
    3  0.000  0.000  0.000  0.000
    4  0.000  0.000  0.000  0.000
    5  0.069  0.000  0.000  0.070
    6  0.049  0.001  0.000  0.050
    7  0.055  0.001  0.000  0.055
    8  0.080  0.000  0.000  0.080
    9  0.055  0.001  0.000  0.055
   10  0.069  0.000  0.000  0.070
   11  0.049  0.001  0.000  0.050
   12  0.080  0.000  0.000  0.080
   13  0.004  0.005  0.000  0.009
   14  0.002  0.005  0.001  0.008
   15  0.009  0.003  0.000  0.013
   16  0.002  0.004  0.000  0.006
   17  0.005  0.006  0.000  0.011
   18  0.002  0.005  0.001  0.008
   19  0.008  0.003  0.000  0.011
   20  0.005  0.006  0.000  0.011
   21  0.008  0.003  0.000  0.011
   22  0.000  0.004  0.000  0.005
   23  0.000  0.004  0.000  0.005
   24  0.002  0.004  0.000  0.006
   25  0.009  0.003  0.000  0.013
   26  0.004  0.005  0.000  0.009
tot    0.565  0.065  0.005  0.635
 
band    29 # energy   -7.07900715 # occ.  2.00000000
 
ion      s      p      d    tot
    1  0.000  0.000  0.000  0.000
    2  0.000  0.000  0.000  0.000
    3  0.000  0.000  0.000  0.000
    4  0.000  0.000  0.000  0.000
    5  0.009  0.000  0.000  0.009
    6  0.054  0.000  0.000  0.054
    7  0.038  0.001  0.000  0.039
    8  0.135  0.001  0.000  0.135
    9  0.038  0.001  0.000  0.039
   10  0.009  0.000  0.000  0.009
   11  0.054  0.000  0.000  0.054
   12  0.135  0.001  0.000  0.135
   13  0.011  0.007  0.000  0.018
   14  0.002  0.010  0.001  0.012
   15  0.001  0.006  0.000  0.007
   16  0.000  0.000  0.000  0.001
   17  0.009  0.002  0.000  0.011
   18  0.002  0.010  0.001  0.012
   19  0.011  0.002  0.000  0.013
   20  0.009  0.002  0.000  0.011
   21  0.011  0.002  0.000  0.013
   22  0.015  0.002  0.000  0.017
   23  0.015  0.002  0.000  0.017
   24  0.000  0.000  0.000  0.001
   25  0.001  0.006  0.000  0.007
   26  0.011  0.007  0.000  0.018
tot    0.568  0.064  0.004  0.636
 
band    30 # energy   -6.86578447 # occ.  2.00000000
 
ion      s      p      d    tot
    1  0.000  0.000  0.000  0.000
    2  0.000  0.000  0.000  0.000
    3  0.000  0.000  0.000  0.000
    4  0.000  0.000  0.000  0.000
    5  0.074  0.000  0.000  0.074
    6  0.027  0.001  0.000  0.028
    7  0.112  0.000  0.000  0.112
    8  0.024  0.000  0.000  0.025
    9  0.112  0.000  0.000  0.112
   10  0.074  0.000  0.000  0.074
   11  0.027  0.001  0.000  0.028
   12  0.024  0.000  0.000  0.025
   13  0.003  0.003  0.000  0.006
   14  0.016  0.004  0.000  0.021
   15  0.008  0.001  0.000  0.009
   16  0.003  0.005  0.000  0.008