<?xml version="1.0" encoding="ISO-8859-1"?>
<modeling>
 <generator>
  <i name="program" type="string">vasp </i>
  <i name="version" type="string">5.4.4.18Apr17-6-g9f103f2a35  </i>
  <i name="subversion" type="string">(build Oct 27 2022 13:04:57) complex            parallel </i>
  <i name="platform" type="string">LinuxIFC </i>
  <i name="date" type="string">2024 06 30 </i>
  <i name="time" type="string">03:18:25 </i>
 </generator>
 <incar>
  <i type="string" name="SYSTEM"> CIS</i>
  <i type="int" name="ISTART">     0</i>
  <i type="string" name="PREC">medium</i>
  <i type="int" name="ICHARG">     2</i>
  <i type="int" name="IBRION">     2</i>
  <i name="EDIFF">      0.00010000</i>
  <i name="EDIFFG">     -0.05000000</i>
  <i type="int" name="NSW">    99</i>
  <i type="int" name="ISIF">     3</i>
  <i name="ENCUT">    300.00000000</i>
  <i name="POTIM">      0.10000000</i>
  <i type="string" name="LREAL"> Auto</i>
  <i type="int" name="ISMEAR">     0</i>
  <i name="SIGMA">      0.05000000</i>
  <i type="int" name="LMAXMIX">     4</i>
  <i type="logical" name="LWAVE"> F  </i>
  <i type="logical" name="LCHARG"> F  </i>
  <i type="int" name="LORBIT">    10</i>
  <i type="logical" name="LASPH"> T  </i>
  <v type="int" name="KPOINT_BSE">    -1     0     0     0</v>
  <i type="logical" name="LASPH"> T  </i>
 </incar>
 <structure name="primitive_cell" >
  <crystal>
   <varray name="basis" >
    <v>      -7.80067430       0.02832786      -0.15441976 </v>
    <v>       2.18406053       9.38102627      -0.06620586 </v>
    <v>      -0.70031259      -1.91666317     -11.35439378 </v>
   </varray>
   <i name="volume">    832.22118338 </i>
   <varray name="rec_basis" >
    <v>      -0.12814233       0.02985390       0.00286407 </v>
    <v>       0.00074213       0.10629841      -0.01798933 </v>
    <v>       0.00173841      -0.00102582      -0.08800569 </v>
   </varray>
  </crystal>
  <varray name="positions" >
   <v>       0.26668858       0.33070541       0.11209824 </v>
   <v>      -0.13510634       0.32400091       0.22262654 </v>
   <v>       0.45231880       0.06716037       0.15679833 </v>
   <v>      -0.44940239      -0.43414871       0.28664108 </v>
   <v>      -0.35674523       0.32827297      -0.04901499 </v>
   <v>       0.20030479       0.12772934      -0.15488135 </v>
   <v>       0.35674523      -0.32827297       0.04901499 </v>
   <v>       0.16273823       0.43567745      -0.18448188 </v>
   <v>      -0.27088050       0.13746929       0.04718758 </v>
   <v>      -0.49813727       0.18784230      -0.23124851 </v>
   <v>      -0.16273823      -0.43567745       0.18448188 </v>
   <v>       0.27088050      -0.13746929      -0.04718758 </v>
   <v>       0.49813727      -0.18784230       0.23124851 </v>
   <v>       0.02218365      -0.31194297       0.35166422 </v>
   <v>      -0.42318961       0.26576287       0.44102081 </v>
   <v>       0.02791396      -0.05561623       0.34101224 </v>
   <v>       0.44940239       0.43414871      -0.28664108 </v>
   <v>      -0.20030479      -0.12772934       0.15488135 </v>
   <v>      -0.26668858      -0.33070541      -0.11209824 </v>
   <v>      -0.45231880      -0.06716037      -0.15679833 </v>
   <v>       0.13510634      -0.32400091      -0.22262654 </v>
   <v>      -0.02791396       0.05561623      -0.34101224 </v>
   <v>      -0.02218365       0.31194297      -0.35166422 </v>
   <v>       0.42318961      -0.26576287      -0.44102081 </v>
   <v>       0.22183156       0.01201698      -0.47084154 </v>
   <v>      -0.22183156      -0.01201698       0.47084154 </v>
  </varray>
 </structure>
 <varray name="primitive_index" >
  <v type="int" >        1 </v>
  <v type="int" >       22 </v>
  <v type="int" >       19 </v>
  <v type="int" >       25 </v>
  <v type="int" >       14 </v>
  <v type="int" >       26 </v>
  <v type="int" >       18 </v>
  <v type="int" >        6 </v>
  <v type="int" >        7 </v>
  <v type="int" >        8 </v>
  <v type="int" >       11 </v>
  <v type="int" >        9 </v>
  <v type="int" >       12 </v>
  <v type="int" >       17 </v>
  <v type="int" >        3 </v>
  <v type="int" >        5 </v>
  <v type="int" >       15 </v>
  <v type="int" >       13 </v>
  <v type="int" >        4 </v>
  <v type="int" >       21 </v>
  <v type="int" >       23 </v>
  <v type="int" >       10 </v>
  <v type="int" >       20 </v>
  <v type="int" >        2 </v>
  <v type="int" >       16 </v>
  <v type="int" >       24 </v>
 </varray>
 <kpoints>
  <generation param="Monkhorst-Pack">
   <v type="int" name="divisions">       3        2        2 </v>
   <v name="usershift">      0.00000000       0.00000000       0.00000000 </v>
   <v name="genvec1">      0.33333333       0.00000000      -0.00000000 </v>
   <v name="genvec2">      0.00000000       0.50000000      -0.00000000 </v>
   <v name="genvec3">     -0.00000000       0.00000000       0.50000000 </v>
   <v name="shift">      0.00000000       0.50000000       0.50000000 </v>
  </generation>
  <varray name="kpointlist" >
   <v>       0.00000000       0.25000000       0.25000000 </v>
   <v>       0.33333333       0.25000000       0.25000000 </v>
   <v>      -0.33333333       0.25000000       0.25000000 </v>
   <v>       0.00000000      -0.25000000       0.25000000 </v>
   <v>       0.33333333      -0.25000000       0.25000000 </v>
   <v>      -0.33333333      -0.25000000       0.25000000 </v>
  </varray>
  <varray name="weights" >
   <v>       0.16666667 </v>
   <v>       0.16666667 </v>
   <v>       0.16666667 </v>
   <v>       0.16666667 </v>
   <v>       0.16666667 </v>
   <v>       0.16666667 </v>
  </varray>
 </kpoints>
 <parameters>
  <separator name="general" >
   <i type="string" name="SYSTEM">CIS</i>
   <i type="logical" name="LCOMPAT"> F  </i>
  </separator>
  <separator name="electronic" >
   <i type="string" name="PREC">medium</i>
   <i name="ENMAX">    300.00000000</i>
   <i name="ENAUG">    446.84200000</i>
   <i name="EDIFF">      0.00010000</i>
   <i type="int" name="IALGO">    38</i>
   <i type="int" name="IWAVPR">    11</i>
   <i type="int" name="NBANDS">    98</i>
   <i name="NELECT">    152.00000000</i>
   <i type="int" name="TURBO">     0</i>
   <i type="int" name="IRESTART">     0</i>
   <i type="int" name="NREBOOT">     0</i>
   <i type="int" name="NMIN">     0</i>
   <i name="EREF">      0.00000000</i>
   <separator name="electronic smearing" >
    <i type="int" name="ISMEAR">     0</i>
    <i name="SIGMA">      0.05000000</i>
    <i name="KSPACING">      0.50000000</i>
    <i type="logical" name="KGAMMA"> T  </i>
   </separator>
   <separator name="electronic projectors" >
    <i type="logical" name="LREAL"> T  </i>
    <v name="ROPT">     -0.00200000     -0.00200000     -0.00200000</v>
    <i type="int" name="LMAXPAW">  -100</i>
    <i type="int" name="LMAXMIX">     4</i>
    <i type="logical" name="NLSPLINE"> F  </i>
   </separator>
   <separator name="electronic startup" >
    <i type="int" name="ISTART">     0</i>
    <i type="int" name="ICHARG">     2</i>
    <i type="int" name="INIWAV">     1</i>
   </separator>
   <separator name="electronic spin" >
    <i type="int" name="ISPIN">     1</i>
    <i type="logical" name="LNONCOLLINEAR"> F  </i>
    <v name="MAGMOM">      1.00000000      1.00000000      1.00000000      1.00000000      1.00000000      1.00000000      1.00000000      1.00000000      1.00000000      1.00000000      1.00000000      1.00000000      1.00000000      1.00000000      1.00000000      1.00000000      1.00000000      1.00000000      1.00000000      1.00000000
      1.00000000      1.00000000      1.00000000      1.00000000      1.00000000      1.00000000</v>
    <i name="NUPDOWN">     -1.00000000</i>
    <i type="logical" name="LSORBIT"> F  </i>
    <v name="SAXIS">      0.00000000      0.00000000      1.00000000</v>
    <i type="logical" name="LSPIRAL"> F  </i>
    <v name="QSPIRAL">      0.00000000      0.00000000      0.00000000</v>
    <i type="logical" name="LZEROZ"> F  </i>
   </separator>
   <separator name="electronic exchange-correlation" >
    <i type="logical" name="LASPH"> T  </i>
    <i type="logical" name="LMETAGGA"> F  </i>
   </separator>
   <separator name="electronic convergence" >
    <i type="int" name="NELM">    60</i>
    <i type="int" name="NELMDL">    -5</i>
    <i type="int" name="NELMIN">     2</i>
    <i name="ENINI">    300.00000000</i>
    <separator name="electronic convergence detail" >
     <i type="logical" name="LDIAG"> T  </i>
     <i type="logical" name="LSUBROT"> F  </i>
     <i name="WEIMIN">      0.00100000</i>
     <i name="EBREAK">      0.00000026</i>
     <i name="DEPER">      0.30000000</i>
     <i type="int" name="NRMM">     4</i>
     <i name="TIME">      0.40000000</i>
    </separator>
   </separator>
   <separator name="electronic mixer" >
    <i name="AMIX">      0.40000000</i>
    <i name="BMIX">      1.00000000</i>
    <i name="AMIN">      0.10000000</i>
    <i name="AMIX_MAG">      1.60000000</i>
    <i name="BMIX_MAG">      1.00000000</i>
    <separator name="electronic mixer details" >
     <i type="int" name="IMIX">     4</i>
     <i type="logical" name="MIXFIRST"> F  </i>
     <i type="int" name="MAXMIX">   -45</i>
     <i name="WC">    100.00000000</i>
     <i type="int" name="INIMIX">     1</i>
     <i type="int" name="MIXPRE">     1</i>
     <i type="int" name="MREMOVE">     5</i>
    </separator>
   </separator>
   <separator name="electronic dipolcorrection" >
    <i type="logical" name="LDIPOL"> F  </i>
    <i type="logical" name="LMONO"> F  </i>
    <i type="int" name="IDIPOL">     0</i>
    <i name="EPSILON">      1.00000000</i>
    <v name="DIPOL">   -100.00000000   -100.00000000   -100.00000000</v>
    <i name="EFIELD">      0.00000000</i>
   </separator>
  </separator>
  <separator name="grids" >
   <i type="int" name="NGX">    36</i>
   <i type="int" name="NGY">    42</i>
   <i type="int" name="NGZ">    50</i>
   <i type="int" name="NGXF">    54</i>
   <i type="int" name="NGYF">    70</i>
   <i type="int" name="NGZF">    80</i>
   <i type="logical" name="ADDGRID"> F  </i>
  </separator>
  <separator name="ionic" >
   <i type="int" name="NSW">    99</i>
   <i type="int" name="IBRION">     2</i>
   <i type="int" name="MDALGO">     0</i>
   <i type="int" name="ISIF">     3</i>
   <i name="PSTRESS">      0.00000000</i>
   <i name="EDIFFG">     -0.05000000</i>
   <i type="int" name="NFREE">     1</i>
   <i name="POTIM">      0.10000000</i>
   <i name="SMASS">     -3.00000000</i>
   <i name="SCALEE">      1.00000000</i>
  </separator>
  <separator name="ionic md" >
   <i name="TEBEG">      0.00010000</i>
   <i name="TEEND">      0.00010000</i>
   <i type="int" name="NBLOCK">     1</i>
   <i type="int" name="KBLOCK">    99</i>
   <i type="int" name="NPACO">   256</i>
   <i name="APACO">     16.00000000</i>
  </separator>
  <separator name="symmetry" >
   <i type="int" name="ISYM">     2</i>
   <i name="SYMPREC">      0.00001000</i>
  </separator>
  <separator name="dos" >
   <i type="int" name="LORBIT">    10</i>
   <v name="RWIGS">     -1.00000000     -1.00000000     -1.00000000</v>
   <i type="int" name="NEDOS">   301</i>
   <i name="EMIN">     10.00000000</i>
   <i name="EMAX">    -10.00000000</i>
   <i name="EFERMI">      0.00000000</i>
  </separator>
  <separator name="writing" >
   <i type="int" name="NWRITE">     2</i>
   <i type="logical" name="LWAVE"> F  </i>
   <i type="logical" name="LDOWNSAMPLE"> F  </i>
   <i type="logical" name="LCHARG"> F  </i>
   <i type="logical" name="LPARD"> F  </i>
   <i type="logical" name="LVTOT"> F  </i>
   <i type="logical" name="LVHAR"> F  </i>
   <i type="logical" name="LELF"> F  </i>
   <i type="logical" name="LOPTICS"> F  </i>
   <v name="STM">      0.00000000      0.00000000      0.00000000      0.00000000      0.00000000      0.00000000      0.00000000</v>
  </separator>
  <separator name="performance" >
   <i type="int" name="NPAR">    14</i>
   <i type="int" name="NSIM">     4</i>
   <i type="int" name="NBLK">    -1</i>
   <i type="logical" name="LPLANE"> T  </i>
   <i type="logical" name="LSCALAPACK"> T  </i>
   <i type="logical" name="LSCAAWARE"> F  </i>
   <i type="logical" name="LSCALU"> F  </i>
   <i type="logical" name="LASYNC"> F  </i>
   <i type="logical" name="LORBITALREAL"> F  </i>
  </separator>
  <separator name="miscellaneous" >
   <i type="int" name="IDIOT">     3</i>
   <i type="int" name="ISPECIAL">     0</i>
   <i type="logical" name="LMUSIC"> F  </i>
   <v name="POMASS">     39.09800000    121.75000000     78.96000000</v>
   <v name="DARWINR">      0.00000000      0.00000000      0.00000000</v>
   <v name="DARWINV">      1.00000000      1.00000000      1.00000000</v>
   <i type="logical" name="LCORR"> T  </i>
  </separator>
  <i type="logical" name="GGA_COMPAT"> T  </i>
  <i type="logical" name="LBERRY"> F  </i>
  <i type="int" name="ICORELEVEL">     0</i>
  <i type="logical" name="LDAU"> F  </i>
  <i type="int" name="I_CONSTRAINED_M">     0</i>
  <separator name="electronic exchange-correlation" >
   <i type="string" name="GGA">--</i>
   <i type="int" name="VOSKOWN">     0</i>
   <i type="logical" name="LHFCALC"> F  </i>
   <i type="string" name="PRECFOCK"></i>
   <i type="logical" name="LSYMGRAD"> F  </i>
   <i type="logical" name="LHFONE"> F  </i>
   <i type="logical" name="LRHFCALC"> F  </i>
   <i type="logical" name="LTHOMAS"> F  </i>
   <i type="logical" name="LMODELHF"> F  </i>
   <i name="ENCUT4O">     -1.00000000</i>
   <i type="int" name="EXXOEP">     0</i>
   <i type="int" name="FOURORBIT">     0</i>
   <i name="AEXX">      0.00000000</i>
   <i name="HFALPHA">      0.00000000</i>
   <i name="MCALPHA">      0.00000000</i>
   <i name="ALDAX">      1.00000000</i>
   <i name="AGGAX">      1.00000000</i>
   <i name="ALDAC">      1.00000000</i>
   <i name="AGGAC">      1.00000000</i>
   <i type="int" name="NKREDX">     1</i>
   <i type="int" name="NKREDY">     1</i>
   <i type="int" name="NKREDZ">     1</i>
   <i type="logical" name="SHIFTRED"> F  </i>
   <i type="logical" name="ODDONLY"> F  </i>
   <i type="logical" name="EVENONLY"> F  </i>
   <i type="int" name="LMAXFOCK">     0</i>
   <i type="int" name="NMAXFOCKAE">     0</i>
   <i type="logical" name="LFOCKAEDFT"> F  </i>
   <i name="HFSCREEN">      0.00000000</i>
   <i name="HFSCREENC">      0.00000000</i>
   <i type="int" name="NBANDSGWLOW">     0</i>
  </separator>
  <separator name="vdW DFT" >
   <i type="logical" name="LUSE_VDW"> F  </i>
   <i name="Zab_VDW">     -0.84910000</i>
   <i name="PARAM1">      0.12340000</i>
   <i name="PARAM2">      1.00000000</i>
   <i name="PARAM3">      0.00000000</i>
  </separator>
  <separator name="model GW" >
   <i type="int" name="MODEL_GW">     0</i>
   <i name="MODEL_EPS0">     19.20510423</i>
   <i name="MODEL_ALPHA">      1.00000000</i>
  </separator>
  <separator name="linear response parameters" >
   <i type="logical" name="LEPSILON"> F  </i>
   <i type="logical" name="LRPA"> F  </i>
   <i type="logical" name="LNABLA"> F  </i>
   <i type="logical" name="LVEL"> F  </i>
   <i type="int" name="KINTER">     0</i>
   <i name="CSHIFT">      0.10000000</i>
   <i name="OMEGAMAX">     -1.00000000</i>
   <i name="DEG_THRESHOLD">      0.00200000</i>
   <i name="RTIME">     -0.10000000</i>
   <i name="WPLASMAI">      0.00000000</i>
   <v name="DFIELD">      0.00000000      0.00000000      0.00000000</v>
   <v name="WPLASMA">      0.00000000      0.00000000      0.00000000      0.00000000      0.00000000      0.00000000      0.00000000      0.00000000      0.00000000</v>
  </separator>
  <separator name="orbital magnetization" >
   <i type="logical" name="NUCIND"> F  </i>
   <v name="MAGPOS">      0.00000000      0.00000000      0.00000000</v>
   <i type="logical" name="LNICSALL"> T  </i>
   <i type="logical" name="ORBITALMAG"> F  </i>
   <i type="logical" name="LMAGBLOCH"> F  </i>
   <i type="logical" name="LCHIMAG"> F  </i>
   <i type="logical" name="LGAUGE"> T  </i>
   <i type="int" name="MAGATOM">     0</i>
   <v name="MAGDIPOL">      0.00000000      0.00000000      0.00000000</v>
   <v name="AVECCONST">      0.00000000      0.00000000      0.00000000</v>
  </separator>
  <separator name="response functions" >
   <i type="logical" name="LADDER"> F  </i>
   <i type="logical" name="LRPAFORCE"> F  </i>
   <i type="logical" name="LFXC"> F  </i>
   <i type="logical" name="LHARTREE"> T  </i>
   <i type="int" name="IBSE">     0</i>
   <v type="int" name="KPOINT">    -1     0     0     0</v>
   <i type="logical" name="LTCTE"> F  </i>
   <i type="logical" name="LTETE"> F  </i>
   <i type="logical" name="LTRIPLET"> F  </i>
   <i type="logical" name="LFXCEPS"> F  </i>
   <i type="logical" name="LFXHEG"> F  </i>
   <i type="int" name="NATURALO">     2</i>
   <i type="logical" name="L2ORDER"> F  </i>
   <i type="logical" name="LMP2LT"> F  </i>
   <i type="logical" name="LUSEW"> F  </i>
   <i name="ENCUTGW">     -2.00000000</i>
   <i name="ENCUTGWSOFT">     -2.00000000</i>
   <i name="ENCUTLF">     -1.00000000</i>
   <i type="int" name="LMAXMP2">    -1</i>
   <i name="SCISSOR">      0.00000000</i>
   <i type="int" name="NOMEGA">     0</i>
   <i type="int" name="NOMEGAR">     0</i>
   <i type="int" name="NBANDSGW">    -1</i>
   <i type="int" name="NBANDSO">    -1</i>
   <i type="int" name="NBANDSV">    -1</i>
   <i type="int" name="NELM">     1</i>
   <i type="int" name="NELMHF">     1</i>
   <i type="int" name="DIM">     3</i>
   <i type="int" name="ANTIRES">     0</i>
   <i name="OMEGAMAX">    -30.00000000</i>
   <i name="OMEGAMIN">    -30.00000000</i>
   <i name="OMEGATL">   -200.00000000</i>
   <i type="int" name="OMEGAGRID">   140</i>
   <i name="CSHIFT">     -0.10000000</i>
   <i type="logical" name="SELFENERGY"> F  </i>
   <i type="logical" name="LSPECTRAL"> F  </i>
   <i type="logical" name="LSPECTRALGW"> F  </i>
   <i type="logical" name="LSINGLES"> F  </i>
   <i type="logical" name="LFERMIGW"> F  </i>
   <i type="logical" name="ODDONLYGW"> F  </i>
   <i type="logical" name="EVENONLYGW"> F  </i>
   <i type="int" name="NKREDLFX">     1</i>
   <i type="int" name="NKREDLFY">     1</i>
   <i type="int" name="NKREDLFZ">     1</i>
   <i type="int" name="MAXMEM">  2800</i>
   <i type="int" name="TELESCOPE">     0</i>
   <i type="int" name="TAUPAR">     1</i>
   <i type="int" name="OMEGAPAR">    -1</i>
   <i name="LAMBDA">      1.00000000</i>
  </separator>
  <separator name="External order field" >
   <i name="OFIELD_KAPPA">      0.00000000</i>
   <v name="OFIELD_K">      0.00000000      0.00000000      0.00000000</v>
   <i name="OFIELD_Q6_NEAR">      0.00000000</i>
   <i name="OFIELD_Q6_FAR">      0.00000000</i>
   <i name="OFIELD_A">      0.00000000</i>
  </separator>
 </parameters>
 <atominfo>
  <atoms>      26 </atoms>
  <types>       3 </types>
  <array name="atoms" >
   <dimension dim="1">ion</dimension>
   <field type="string">element</field>
   <field type="int">atomtype</field>
   <set>
    <rc><c>K </c><c>   1</c></rc>
    <rc><c>K </c><c>   1</c></rc>
    <rc><c>K </c><c>   1</c></rc>
    <rc><c>K </c><c>   1</c></rc>
    <rc><c>Sb</c><c>   2</c></rc>
    <rc><c>Sb</c><c>   2</c></rc>
    <rc><c>Sb</c><c>   2</c></rc>
    <rc><c>Sb</c><c>   2</c></rc>
    <rc><c>Sb</c><c>   2</c></rc>
    <rc><c>Sb</c><c>   2</c></rc>
    <rc><c>Sb</c><c>   2</c></rc>
    <rc><c>Sb</c><c>   2</c></rc>
    <rc><c>Se</c><c>   3</c></rc>
    <rc><c>Se</c><c>   3</c></rc>
    <rc><c>Se</c><c>   3</c></rc>
    <rc><c>Se</c><c>   3</c></rc>
    <rc><c>Se</c><c>   3</c></rc>
    <rc><c>Se</c><c>   3</c></rc>
    <rc><c>Se</c><c>   3</c></rc>
    <rc><c>Se</c><c>   3</c></rc>
    <rc><c>Se</c><c>   3</c></rc>
    <rc><c>Se</c><c>   3</c></rc>
    <rc><c>Se</c><c>   3</c></rc>
    <rc><c>Se</c><c>   3</c></rc>
    <rc><c>Se</c><c>   3</c></rc>
    <rc><c>Se</c><c>   3</c></rc>
   </set>
  </array>
  <array name="atomtypes" >
   <dimension dim="1">type</dimension>
   <field type="int">atomspertype</field>
   <field type="string">element</field>
   <field>mass</field>
   <field>valence</field>
   <field type="string">pseudopotential</field>
   <set>
    <rc><c>   4</c><c>K </c><c>     39.09800000</c><c>      7.00000000</c><c>  PAW_PBE K_pv 17Jan2003                </c></rc>
    <rc><c>   8</c><c>Sb</c><c>    121.75000000</c><c>      5.00000000</c><c>  PAW_PBE Sb 06Sep2000                  </c></rc>
    <rc><c>  14</c><c>Se</c><c>     78.96000000</c><c>      6.00000000</c><c>  PAW_PBE Se 06Sep2000                  </c></rc>
   </set>
  </array>
 </atominfo>
 <structure name="initialpos" >
  <crystal>
   <varray name="basis" >
    <v>      -7.80067430       0.02832786      -0.15441976 </v>
    <v>       2.18406053       9.38102627      -0.06620586 </v>
    <v>      -0.70031259      -1.91666317     -11.35439378 </v>
   </varray>
   <i name="volume">    832.22118338 </i>
   <varray name="rec_basis" >
    <v>      -0.12814233       0.02985390       0.00286407 </v>
    <v>       0.00074213       0.10629841      -0.01798933 </v>
    <v>       0.00173841      -0.00102582      -0.08800569 </v>
   </varray>
  </crystal>
  <varray name="positions" >
   <v>       0.26668858       0.33070541       0.11209824 </v>
   <v>       0.42318961       0.73423713       0.55897919 </v>
   <v>       0.57681039       0.26576287       0.44102081 </v>
   <v>       0.73331142       0.66929459       0.88790176 </v>
   <v>       0.02791396       0.94438377       0.34101224 </v>
   <v>       0.16273823       0.43567745       0.81551812 </v>
   <v>       0.72911950       0.13746929       0.04718758 </v>
   <v>       0.50186273       0.18784230       0.76875149 </v>
   <v>       0.27088050       0.86253071       0.95281242 </v>
   <v>       0.97208604       0.05561623       0.65898776 </v>
   <v>       0.83726177       0.56432255       0.18448188 </v>
   <v>       0.49813727       0.81215770       0.23124851 </v>
   <v>       0.79969521       0.87227066       0.15488135 </v>
   <v>       0.64325477       0.32827297       0.95098501 </v>
   <v>       0.44940239       0.43414871       0.71335892 </v>
   <v>       0.22183156       0.01201698       0.52915846 </v>
   <v>       0.02218365       0.68805703       0.35166422 </v>
   <v>       0.35674523       0.67172703       0.04901499 </v>
   <v>       0.45231880       0.06716037       0.15679833 </v>
   <v>       0.97781635       0.31194297       0.64833578 </v>
   <v>       0.54768120       0.93283963       0.84320167 </v>
   <v>       0.86489366       0.32400091       0.22262654 </v>
   <v>       0.13510634       0.67599909       0.77737346 </v>
   <v>       0.77816844       0.98798302       0.47084154 </v>
   <v>       0.55059761       0.56585129       0.28664108 </v>
   <v>       0.20030479       0.12772934       0.84511865 </v>
  </varray>
 </structure>
 <calculation>
  <scstep>
   <time name="dav">    1.01    1.01</time>
   <time name="total">    1.28    1.35</time>
   <energy>
    <i name="alphaZ">    269.10075597 </i>
    <i name="ewald">  -5215.08923952 </i>
    <i name="hartreedc">  -1326.03624901 </i>
    <i name="XCdc">   -330.54544384 </i>
    <i name="pawpsdc">   5607.40266644 </i>
    <i name="pawaedc">  -4969.79583577 </i>
    <i name="eentropy">     -0.01028451 </i>
    <i name="bandstr">    155.66929999 </i>
    <i name="atom">   6601.26369155 </i>
    <i name="e_fr_energy">    791.95936131 </i>
    <i name="e_wo_entrp">    791.96964581 </i>
    <i name="e_0_energy">    791.96450356 </i>
   </energy>
  </scstep>
  <scstep>
   <time name="dav">    0.92    0.92</time>
   <time name="total">    0.92    0.92</time>
   <energy>
    <i name="e_fr_energy">    -19.53213748 </i>
    <i name="e_wo_entrp">    -19.53213748 </i>
    <i name="e_0_energy">    -19.53213748 </i>
   </energy>
  </scstep>
  <scstep>
   <time name="dav">    1.03    1.03</time>
   <time name="total">    1.03    1.03</time>
   <energy>
    <i name="e_fr_energy">    -98.40661897 </i>
    <i name="e_wo_entrp">    -98.40661897 </i>
    <i name="e_0_energy">    -98.40661897 </i>
   </energy>
  </scstep>
  <scstep>
   <time name="dav">    0.96    0.96</time>
   <time name="total">    0.96    0.96</time>
   <energy>
    <i name="e_fr_energy">   -100.20340890 </i>
    <i name="e_wo_entrp">   -100.20340890 </i>
    <i name="e_0_energy">   -100.20340890 </i>
   </energy>
  </scstep>
  <scstep>
   <time name="dav">    1.20    1.20</time>
   <time name="total">    1.24    1.24</time>
   <energy>
    <i name="e_fr_energy">   -100.24101216 </i>
    <i name="e_wo_entrp">   -100.24101216 </i>
    <i name="e_0_energy">   -100.24101216 </i>
   </energy>
  </scstep>
  <scstep>
   <time name="dav">    0.91    0.91</time>
   <time name="total">    1.20    1.20</time>
   <energy>
    <i name="e_fr_energy">    -96.93628261 </i>
    <i name="e_wo_entrp">    -96.93628261 </i>
    <i name="e_0_energy">    -96.93628261 </i>
   </energy>
  </scstep>
  <scstep>
   <time name="dav">    1.05    1.05</time>
   <time name="total">    1.34    1.34</time>
   <energy>
    <i name="e_fr_energy">    -96.78954844 </i>
    <i name="e_wo_entrp">    -96.78954844 </i>
    <i name="e_0_energy">    -96.78954844 </i>
   </energy>
  </scstep>
  <scstep>
   <time name="dav">    1.03    1.03</time>
   <time name="total">    1.31    1.31</time>
   <energy>
    <i name="e_fr_energy">    -96.74287450 </i>
    <i name="e_wo_entrp">    -96.74287450 </i>
    <i name="e_0_energy">    -96.74287450 </i>
   </energy>
  </scstep>
  <scstep>
   <time name="dav">    0.98    0.98</time>
   <time name="total">    1.26    1.26</time>
   <energy>
    <i name="e_fr_energy">    -96.75859201 </i>
    <i name="e_wo_entrp">    -96.75859201 </i>
    <i name="e_0_energy">    -96.75859201 </i>
   </energy>
  </scstep>
  <scstep>
   <time name="dav">    1.04    1.04</time>
   <time name="total">    1.33    1.33</time>
   <energy>
    <i name="e_fr_energy">    -96.76040184 </i>
    <i name="e_wo_entrp">    -96.76040184 </i>
    <i name="e_0_energy">    -96.76040184 </i>
   </energy>
  </scstep>
  <scstep>
   <time name="dav">    0.92    0.93</time>
   <time name="total">    1.21    1.21</time>
   <energy>
    <i name="e_fr_energy">    -96.76309512 </i>
    <i name="e_wo_entrp">    -96.76309512 </i>
    <i name="e_0_energy">    -96.76309512 </i>
   </energy>
  </scstep>
  <scstep>
   <time name="dav">    1.12    1.12</time>
   <time name="total">    1.40    1.40</time>
   <energy>
    <i name="e_fr_energy">    -96.76351364 </i>
    <i name="e_wo_entrp">    -96.76351364 </i>
    <i name="e_0_energy">    -96.76351364 </i>
   </energy>
  </scstep>
  <scstep>
   <time name="dav">    0.78    0.78</time>
   <time name="total">    1.06    1.06</time>
   <energy>
    <i name="e_fr_energy">    -96.76364273 </i>
    <i name="e_wo_entrp">    -96.76364273 </i>
    <i name="e_0_energy">    -96.76364273 </i>
   </energy>
  </scstep>
  <scstep>
   <time name="dav">    0.82    0.82</time>
   <time name="total">    1.07    1.07</time>
   <energy>
    <i name="alphaZ">    269.10075597 </i>
    <i name="ewald">  -5215.08923952 </i>
    <i name="hartreedc">  -1388.26853499 </i>
    <i name="XCdc">   -323.60266635 </i>
    <i name="pawpsdc">   9771.75763825 </i>
    <i name="pawaedc">  -9135.69005836 </i>
    <i name="eentropy">     -0.00000000 </i>
    <i name="bandstr">   -676.23528713 </i>
    <i name="atom">   6601.26369155 </i>
    <i name="e_fr_energy">    -96.76370058 </i>
    <i name="e_wo_entrp">    -96.76370058 </i>
    <i name="e_0_energy">    -96.76370058 </i>
   </energy>
  </scstep>
  <structure>
   <crystal>
    <varray name="basis" >
     <v>      -7.80067430       0.02832786      -0.15441976 </v>
     <v>       2.18406053       9.38102627      -0.06620586 </v>
     <v>      -0.70031259      -1.91666317     -11.35439378 </v>
    </varray>
    <i name="volume">    832.22118338 </i>
    <varray name="rec_basis" >
     <v>      -0.12814233       0.02985390       0.00286407 </v>
     <v>       0.00074213       0.10629841      -0.01798933 </v>
     <v>       0.00173841      -0.00102582      -0.08800569 </v>
    </varray>
   </crystal>
   <varray name="positions" >
    <v>       0.26668858       0.33070541       0.11209824 </v>
    <v>       0.42318961       0.73423713       0.55897919 </v>
    <v>       0.57681039       0.26576287       0.44102081 </v>
    <v>       0.73331142       0.66929459       0.88790176 </v>
    <v>       0.02791396       0.94438377       0.34101224 </v>
    <v>       0.16273823       0.43567745       0.81551812 </v>
    <v>       0.72911950       0.13746929       0.04718758 </v>
    <v>       0.50186273       0.18784230       0.76875149 </v>
    <v>       0.27088050       0.86253071       0.95281242 </v>
    <v>       0.97208604       0.05561623       0.65898776 </v>
    <v>       0.83726177       0.56432255       0.18448188 </v>
    <v>       0.49813727       0.81215770       0.23124851 </v>
    <v>       0.79969521       0.87227066       0.15488135 </v>
    <v>       0.64325477       0.32827297       0.95098501 </v>
    <v>       0.44940239       0.43414871       0.71335892 </v>
    <v>       0.22183156       0.01201698       0.52915846 </v>
    <v>       0.02218365       0.68805703       0.35166422 </v>
    <v>       0.35674523       0.67172703       0.04901499 </v>
    <v>       0.45231880       0.06716037       0.15679833 </v>
    <v>       0.97781635       0.31194297       0.64833578 </v>
    <v>       0.54768120       0.93283963       0.84320167 </v>
    <v>       0.86489366       0.32400091       0.22262654 </v>
    <v>       0.13510634       0.67599909       0.77737346 </v>
    <v>       0.77816844       0.98798302       0.47084154 </v>
    <v>       0.55059761       0.56585129       0.28664108 </v>
    <v>       0.20030479       0.12772934       0.84511865 </v>
   </varray>
  </structure>
  <varray name="forces" >
   <v>       0.02373605      -0.00244025      -0.00493322 </v>
   <v>      -0.03177144       0.01954451       0.00316170 </v>
   <v>       0.03177144      -0.01954451      -0.00316170 </v>
   <v>      -0.02373605       0.00244025       0.00493322 </v>
   <v>      -1.06617022       1.42386924       1.70921348 </v>
   <v>       0.43746758      -0.93634241      -2.39558798 </v>
   <v>      -1.87150785      -0.81799817       1.32108589 </v>
   <v>      -1.31166376      -0.37626322       1.88124311 </v>
   <v>       1.87150785       0.81799817      -1.32108589 </v>
   <v>       1.06617022      -1.42386924      -1.70921348 </v>
   <v>      -0.43746758       0.93634241       2.39558798 </v>
   <v>       1.31166376       0.37626322      -1.88124311 </v>
   <v>      -1.45898374       0.66664440       1.13783504 </v>
   <v>      -0.01737960       1.82612222      -0.69717447 </v>
   <v>      -1.43462386       1.11173206       1.16320589 </v>
   <v>      -2.22908004      -0.07662185       0.38761492 </v>
   <v>      -1.37847448      -1.11016931      -1.45388335 </v>
   <v>       0.01737960      -1.82612222       0.69717447 </v>
   <v>       1.77348009      -0.00934259      -1.10200831 </v>
   <v>       1.37847448       1.11016931       1.45388335 </v>
   <v>      -1.77348009       0.00934259       1.10200831 </v>
   <v>      -1.06929759      -0.94717600      -1.32651391 </v>
   <v>       1.06929759       0.94717600       1.32651391 </v>
   <v>       2.22908004       0.07662185      -0.38761492 </v>
   <v>       1.43462386      -1.11173206      -1.16320589 </v>
   <v>       1.45898374      -0.66664440      -1.13783504 </v>
  </varray>
  <varray name="stress" >
   <v>      84.07397598       0.29985532       3.22307987 </v>
   <v>       0.29985456      79.86766801      -1.63735338 </v>
   <v>       3.22308005      -1.63734924      72.68012672 </v>
  </varray>
  <energy>
   <i name="e_fr_energy">    -96.76370058 </i>
   <i name="e_wo_entrp">    -96.76370058 </i>
   <i name="e_0_energy">     -0.00000000 </i>
  </energy>
  <time name="totalsc">   18.05   18.26</time>
 </calculation>
 <calculation>
  <scstep>
   <time name="dav">    0.95    0.96</time>
   <time name="total">    1.26    1.31</time>
   <energy>
    <i name="alphaZ">    257.19117349 </i>
    <i name="ewald">  -5169.29243780 </i>
    <i name="hartreedc">  -1341.59355651 </i>
    <i name="XCdc">   -327.52859109 </i>
    <i name="pawpsdc">   9772.40033862 </i>
    <i name="pawaedc">  -9136.33306323 </i>
    <i name="eentropy">     -0.00000000 </i>
    <i name="bandstr">   -755.90721219 </i>
    <i name="atom">   6601.26369155 </i>
    <i name="e_fr_energy">    -99.79965715 </i>
    <i name="e_wo_entrp">    -99.79965715 </i>
    <i name="e_0_energy">    -99.79965715 </i>
   </energy>
  </scstep>
  <scstep>
   <time name="dav">    0.97    0.97</time>
   <time name="total">    1.26    1.26</time>
   <energy>
    <i name="e_fr_energy">    -99.20425620 </i>
    <i name="e_wo_entrp">    -99.20425620 </i>
    <i name="e_0_energy">    -99.20425620 </i>
   </energy>
  </scstep>
  <scstep>
   <time name="dav">    1.05    1.05</time>
   <time name="total">    1.34    1.34</time>
   <energy>
    <i name="e_fr_energy">    -99.01896801 </i>
    <i name="e_wo_entrp">    -99.01896801 </i>
    <i name="e_0_energy">    -99.01896801 </i>
   </energy>
  </scstep>
  <scstep>
   <time name="dav">    1.00    1.00</time>
   <time name="total">    1.29    1.29</time>
   <energy>
    <i name="e_fr_energy">    -98.99681714 </i>
    <i name="e_wo_entrp">    -98.99681714 </i>
    <i name="e_0_energy">    -98.99681714 </i>
   </energy>
  </scstep>
  <scstep>
   <time name="dav">    0.98    0.98</time>
   <time name="total">    1.27    1.27</time>
   <energy>
    <i name="e_fr_energy">    -98.99250699 </i>
    <i name="e_wo_entrp">    -98.99250699 </i>
    <i name="e_0_energy">    -98.99250699 </i>
   </energy>
  </scstep>
  <scstep>
   <time name="dav">    0.85    0.85</time>
   <time name="total">    1.10    1.10</time>
   <energy>
    <i name="alphaZ">    257.19117349 </i>
    <i name="ewald">  -5169.29243780 </i>
    <i name="hartreedc">  -1389.64584914 </i>
    <i name="XCdc">   -326.34264139 </i>
    <i name="pawpsdc">   9068.32874933 </i>
    <i name="pawaedc">  -8431.65349213 </i>
    <i name="eentropy">     -0.00000000 </i>
    <i name="bandstr">   -708.84176659 </i>
    <i name="atom">   6601.26369155 </i>
    <i name="e_fr_energy">    -98.99257268 </i>
    <i name="e_wo_entrp">    -98.99257268 </i>
    <i name="e_0_energy">    -98.99257268 </i>
   </energy>
  </scstep>
  <structure>
   <crystal>
    <varray name="basis" >
     <v>      -7.92718685       0.02836183      -0.16143849 </v>
     <v>       2.21995665       9.52559674      -0.06873728 </v>
     <v>      -0.71882694      -1.94262756     -11.51329664 </v>
    </varray>
    <i name="volume">    870.75830225 </i>
    <varray name="rec_basis" >
     <v>      -0.12610222       0.02940934       0.00291092 </v>
     <v>       0.00073517       0.10468118      -0.01770866 </v>
     <v>       0.00176381      -0.00103735      -0.08679119 </v>
    </varray>
   </crystal>
   <varray name="positions" >
    <v>       0.26665839       0.33070393       0.11210285 </v>
    <v>       0.42323461       0.73425640       0.55897578 </v>
    <v>       0.57676539       0.26574360       0.44102422 </v>
    <v>       0.73334161       0.66929607       0.88789715 </v>
    <v>       0.02968953       0.94553982       0.33952893 </v>
    <v>       0.16186144       0.43513605       0.81756888 </v>
    <v>       0.73123429       0.13638763       0.04604252 </v>
    <v>       0.50342806       0.18712047       0.76713580 </v>
    <v>       0.26876571       0.86361237       0.95395748 </v>
    <v>       0.97031047       0.05446018       0.66047107 </v>
    <v>       0.83813856       0.56486395       0.18243112 </v>
    <v>       0.49657194       0.81287953       0.23286420 </v>
    <v>       0.80172254       0.87274644       0.15388412 </v>
    <v>       0.64378300       0.33026677       0.95155863 </v>
    <v>       0.45152851       0.43507676       0.71233615 </v>
    <v>       0.22457620       0.01185516       0.52879270 </v>
    <v>       0.02352802       0.68716090       0.35288662 </v>
    <v>       0.35621700       0.66973323       0.04844137 </v>
    <v>       0.45009295       0.06735476       0.15776391 </v>
    <v>       0.97647198       0.31283910       0.64711338 </v>
    <v>       0.54990705       0.93264524       0.84223609 </v>
    <v>       0.86590624       0.32325205       0.22374436 </v>
    <v>       0.13409376       0.67674795       0.77625564 </v>
    <v>       0.77542380       0.98814484       0.47120730 </v>
    <v>       0.54847149       0.56492324       0.28766385 </v>
    <v>       0.19827746       0.12725356       0.84611588 </v>
   </varray>
  </structure>
  <varray name="forces" >
   <v>      -0.02398975       0.00840922      -0.01381646 </v>
   <v>      -0.02059430       0.02005798      -0.02657096 </v>
   <v>       0.02059430      -0.02005798       0.02657096 </v>
   <v>       0.02398975      -0.00840922       0.01381646 </v>
   <v>      -0.34337438       0.65185927       0.76542851 </v>
   <v>       0.27529125      -0.55007821      -1.20278430 </v>
   <v>      -0.91740277      -0.40610717       0.55002234 </v>
   <v>      -0.67984550      -0.09160795       0.98103702 </v>
   <v>       0.91740277       0.40610717      -0.55002234 </v>
   <v>       0.34337438      -0.65185927      -0.76542851 </v>
   <v>      -0.27529125       0.55007821       1.20278430 </v>
   <v>       0.67984550       0.09160795      -0.98103702 </v>
   <v>      -0.73371575       0.33861314       0.74376173 </v>
   <v>      -0.01355358       0.98849919      -0.34682980 </v>
   <v>      -0.73282661       0.70783826       0.63595073 </v>
   <v>      -1.18837171      -0.06081696       0.10368421 </v>
   <v>      -0.71347971      -0.53725278      -0.72511892 </v>
   <v>       0.01355358      -0.98849919       0.34682980 </v>
   <v>       0.92565217       0.02763090      -0.58967880 </v>
   <v>       0.71347971       0.53725278       0.72511892 </v>
   <v>      -0.92565217      -0.02763090       0.58967880 </v>
   <v>      -0.69246670      -0.49991513      -0.75626963 </v>
   <v>       0.69246670       0.49991513       0.75626963 </v>
   <v>       1.18837171       0.06081696      -0.10368421 </v>
   <v>       0.73282661      -0.70783826      -0.63595073 </v>
   <v>       0.73371575      -0.33861314      -0.74376173 </v>
  </varray>
  <varray name="stress" >
   <v>      42.36366272       1.69627070       4.16387838 </v>
   <v>       1.69627065      44.15659950      -0.66752613 </v>
   <v>       4.16387870      -0.66752354      38.59738501 </v>
  </varray>
  <energy>
   <i name="e_fr_energy">    -98.99257268 </i>
   <i name="e_wo_entrp">    -98.99257268 </i>
   <i name="e_0_energy">     -0.00000000 </i>
  </energy>
  <time name="totalsc">    8.93    9.06</time>
 </calculation>
 <calculation>
  <scstep>
   <time name="dav">    1.00    1.00</time>
   <time name="total">    1.32    1.37</time>
   <energy>
    <i name="alphaZ">    231.18159353 </i>
    <i name="ewald">  -5057.17713898 </i>
    <i name="hartreedc">  -1284.86060772 </i>
    <i name="XCdc">   -335.44773633 </i>
    <i name="pawpsdc">   9080.85507618 </i>
    <i name="pawaedc">  -8444.11652077 </i>
    <i name="eentropy">     -0.00000000 </i>
    <i name="bandstr">   -895.96517834 </i>
    <i name="atom">   6601.26369155 </i>
    <i name="e_fr_energy">   -104.26682088 </i>
    <i name="e_wo_entrp">   -104.26682088 </i>
    <i name="e_0_energy">   -104.26682088 </i>
   </energy>
  </scstep>
  <scstep>
   <time name="dav">    1.07    1.07</time>
   <time name="total">    1.36    1.36</time>
   <energy>
    <i name="e_fr_energy">   -100.83908188 </i>
    <i name="e_wo_entrp">   -100.83908188 </i>
    <i name="e_0_energy">   -100.83908188 </i>
   </energy>
  </scstep>
  <scstep>
   <time name="dav">    1.13    1.14</time>
   <time name="total">    1.42    1.42</time>
   <energy>
    <i name="e_fr_energy">    -99.84467339 </i>
    <i name="e_wo_entrp">    -99.84467339 </i>
    <i name="e_0_energy">    -99.84467339 </i>
   </energy>
  </scstep>
  <scstep>
   <time name="dav">    1.15    1.16</time>
   <time name="total">    1.44    1.45</time>
   <energy>
    <i name="e_fr_energy">    -99.69753708 </i>
    <i name="e_wo_entrp">    -99.69753708 </i>
    <i name="e_0_energy">    -99.69753708 </i>
   </energy>
  </scstep>
  <scstep>
   <time name="dav">    0.88    0.88</time>
   <time name="total">    1.17    1.17</time>
   <energy>
    <i name="e_fr_energy">    -99.67923691 </i>
    <i name="e_wo_entrp">    -99.67923691 </i>
    <i name="e_0_energy">    -99.67923691 </i>
   </energy>
  </scstep>
  <scstep>
   <time name="dav">    1.15    1.16</time>
   <time name="total">    1.44    1.45</time>
   <energy>
    <i name="e_fr_energy">    -99.67966304 </i>
    <i name="e_wo_entrp">    -99.67966304 </i>
    <i name="e_0_energy">    -99.67966304 </i>
   </energy>
  </scstep>
  <scstep>
   <time name="dav">    0.98    0.98</time>
   <time name="total">    1.27    1.27</time>
   <energy>
    <i name="e_fr_energy">    -99.67976681 </i>
    <i name="e_wo_entrp">    -99.67976681 </i>
    <i name="e_0_energy">    -99.67976681 </i>
   </energy>
  </scstep>
  <scstep>
   <time name="dav">    0.81    0.81</time>
   <time name="total">    1.09    1.09</time>
   <energy>
    <i name="e_fr_energy">    -99.67988233 </i>
    <i name="e_wo_entrp">    -99.67988233 </i>
    <i name="e_0_energy">    -99.67988233 </i>
   </energy>
  </scstep>
  <scstep>
   <time name="dav">    0.53    0.53</time>
   <time name="total">    0.78    0.78</time>
   <energy>
    <i name="alphaZ">    231.18159353 </i>
    <i name="ewald">  -5057.17713898 </i>
    <i name="hartreedc">  -1399.30075840 </i>
    <i name="XCdc">   -332.41702862 </i>
    <i name="pawpsdc">   7894.32618887 </i>
    <i name="pawaedc">  -7256.34498193 </i>
    <i name="eentropy">     -0.00000000 </i>
    <i name="bandstr">   -781.21150505 </i>
    <i name="atom">   6601.26369155 </i>
    <i name="e_fr_energy">    -99.67993903 </i>
    <i name="e_wo_entrp">    -99.67993903 </i>
    <i name="e_0_energy">    -99.67993903 </i>
   </energy>
  </scstep>
  <structure>
   <crystal>
    <varray name="basis" >
     <v>      -8.23285310       0.02844392      -0.17839640 </v>
     <v>       2.30668506       9.87489266      -0.07485342 </v>
     <v>      -0.76355935      -2.00535998     -11.89722096 </v>
    </varray>
    <i name="volume">    968.72482865 </i>
    <varray name="rec_basis" >
     <v>      -0.12143168       0.02838814       0.00300842 </v>
     <v>       0.00071863       0.10096970      -0.01706527 </v>
     <v>       0.00181632      -0.00106094      -0.08399098 </v>
    </varray>
   </crystal>
   <varray name="positions" >
    <v>       0.26658661       0.33070042       0.11211387 </v>
    <v>       0.42334162       0.73430224       0.55896760 </v>
    <v>       0.57665838       0.26569776       0.44103240 </v>
    <v>       0.73341339       0.66929958       0.88788613 </v>
    <v>       0.03391588       0.94829062       0.33599248 </v>
    <v>       0.15977093       0.43384754       0.82245640 </v>
    <v>       0.73626474       0.13381402       0.04331245 </v>
    <v>       0.50715361       0.18540318       0.76328473 </v>
    <v>       0.26373526       0.86618598       0.95668755 </v>
    <v>       0.96608412       0.05170938       0.66400752 </v>
    <v>       0.84022907       0.56615246       0.17754360 </v>
    <v>       0.49284639       0.81459682       0.23671527 </v>
    <v>       0.80654572       0.87387853       0.15150587 </v>
    <v>       0.64503874       0.33501057       0.95292432 </v>
    <v>       0.45658694       0.43728494       0.70989681 </v>
    <v>       0.23110272       0.01146996       0.52791865 </v>
    <v>       0.02672050       0.68502831       0.35579836 </v>
    <v>       0.35496126       0.66498943       0.04707568 </v>
    <v>       0.44479833       0.06781729       0.16006670 </v>
    <v>       0.97327950       0.31497169       0.64420164 </v>
    <v>       0.55520167       0.93218271       0.83993330 </v>
    <v>       0.86831023       0.32146994       0.22640717 </v>
    <v>       0.13168977       0.67853006       0.77359283 </v>
    <v>       0.76889728       0.98853004       0.47208135 </v>
    <v>       0.54341306       0.56271506       0.29010319 </v>
    <v>       0.19345428       0.12612147       0.84849413 </v>
   </varray>
  </structure>
  <varray name="forces" >
   <v>      -0.10080395       0.03291207      -0.03902243 </v>
   <v>       0.00252065       0.02199171      -0.07018838 </v>
   <v>      -0.00252065      -0.02199171       0.07018838 </v>
   <v>       0.10080395      -0.03291207       0.03902243 </v>
   <v>       0.36814249      -0.43176329      -0.57666505 </v>
   <v>      -0.28414425       0.33065371       0.86970204 </v>
   <v>       0.60344653       0.21054874      -0.35371142 </v>
   <v>       0.27919679       0.11140665      -0.58378985 </v>
   <v>      -0.60344653      -0.21054874       0.35371142 </v>
   <v>      -0.36814249       0.43176329       0.57666505 </v>
   <v>       0.28414425      -0.33065371      -0.86970204 </v>
   <v>      -0.27919679      -0.11140665       0.58378985 </v>
   <v>       0.30717669      -0.15915483      -0.04987450 </v>
   <v>      -0.06292195      -0.36410656       0.18481119 </v>
   <v>       0.32130881      -0.13740373      -0.31100408 </v>
   <v>       0.39725371      -0.04473249      -0.20580055 </v>
   <v>       0.29791925       0.46109453       0.50302176 </v>
   <v>       0.06292195       0.36410656      -0.18481119 </v>
   <v>      -0.29286747       0.04148979       0.21691215 </v>
   <v>      -0.29791925      -0.46109453      -0.50302176 </v>
   <v>       0.29286747      -0.04148979      -0.21691215 </v>
   <v>      -0.03588388       0.16630761       0.31352306 </v>
   <v>       0.03588388      -0.16630761      -0.31352306 </v>
   <v>      -0.39725371       0.04473249       0.20580055 </v>
   <v>      -0.32130881       0.13740373       0.31100408 </v>
   <v>      -0.30717669       0.15915483       0.04987450 </v>
  </varray>
  <varray name="stress" >
   <v>     -23.13310738       0.57277724       4.75031143 </v>
   <v>       0.57277764     -15.90780560      -0.59048972 </v>
   <v>       4.75031162      -0.59048877     -17.26765228 </v>
  </varray>
  <energy>
   <i name="e_fr_energy">    -99.67993903 </i>
   <i name="e_wo_entrp">    -99.67993903 </i>
   <i name="e_0_energy">     -0.00000000 </i>
  </energy>
  <time name="totalsc">   12.79   13.06</time>
 </calculation>
 <calculation>
  <scstep>
   <time name="dav">    0.72    0.73</time>
   <time name="total">    1.02    1.09</time>
   <energy>
    <i name="alphaZ">    239.41748824 </i>
    <i name="ewald">  -5095.22903906 </i>
    <i name="hartreedc">  -1433.91711682 </i>
    <i name="XCdc">   -329.43019206 </i>
    <i name="pawpsdc">   7893.84372285 </i>
    <i name="pawaedc">  -7255.86392744 </i>
    <i name="eentropy">     -0.00000000 </i>
    <i name="bandstr">   -720.64355159 </i>
    <i name="atom">   6601.26369155 </i>
    <i name="e_fr_energy">   -100.55892433 </i>
    <i name="e_wo_entrp">   -100.55892433 </i>
    <i name="e_0_energy">   -100.55892433 </i>
   </energy>
  </scstep>
  <scstep>
   <time name="dav">    0.88    0.88</time>
   <time name="total">    1.17    1.17</time>
   <energy>
    <i name="e_fr_energy">   -100.18233579 </i>
    <i name="e_wo_entrp">   -100.18233579 </i>
    <i name="e_0_energy">   -100.18233579 </i>
   </energy>
  </scstep>
  <scstep>
   <time name="dav">    1.06    1.06</time>
   <time name="total">    1.35    1.35</time>
   <energy>
    <i name="e_fr_energy">   -100.07568499 </i>
    <i name="e_wo_entrp">   -100.07568499 </i>
    <i name="e_0_energy">   -100.07568499 </i>
   </energy>
  </scstep>
  <scstep>
   <time name="dav">    1.05    1.05</time>
   <time name="total">    1.34    1.34</time>
   <energy>
    <i name="e_fr_energy">   -100.05995665 </i>
    <i name="e_wo_entrp">   -100.05995665 </i>
    <i name="e_0_energy">   -100.05995665 </i>
   </energy>
  </scstep>
  <scstep>
   <time name="dav">    0.96    0.96</time>
   <time name="total">    1.25    1.25</time>
   <energy>
    <i name="e_fr_energy">   -100.05688284 </i>
    <i name="e_wo_entrp">   -100.05688284 </i>
    <i name="e_0_energy">   -100.05688284 </i>
   </energy>
  </scstep>
  <scstep>
   <time name="dav">    0.90    0.90</time>
   <time name="total">    1.15    1.15</time>
   <energy>
    <i name="alphaZ">    239.41748824 </i>
    <i name="ewald">  -5095.22903906 </i>
    <i name="hartreedc">  -1395.63042955 </i>
    <i name="XCdc">   -330.45387585 </i>
    <i name="pawpsdc">   8243.88130558 </i>
    <i name="pawaedc">  -7606.22215004 </i>
    <i name="eentropy">     -0.00000000 </i>
    <i name="bandstr">   -757.08389701 </i>
    <i name="atom">   6601.26369155 </i>
    <i name="e_fr_energy">   -100.05690615 </i>
    <i name="e_wo_entrp">   -100.05690615 </i>
    <i name="e_0_energy">   -100.05690615 </i>
   </energy>
  </scstep>
  <structure>
   <crystal>
    <varray name="basis" >
     <v>      -8.13128779       0.02841664      -0.17276171 </v>
     <v>       2.27786736       9.75883030      -0.07282118 </v>
     <v>      -0.74869588      -1.98451556     -11.76965244 </v>
    </varray>
    <i name="volume">    935.40096521 </i>
    <varray name="rec_basis" >
     <v>      -0.12294466       0.02871948       0.00297833 </v>
     <v>       0.00072408       0.10217339      -0.01727381 </v>
     <v>       0.00180017      -0.00105373      -0.08490112 </v>
    </varray>
   </crystal>
   <varray name="positions" >
    <v>       0.26660959       0.33070155       0.11211030 </v>
    <v>       0.42330736       0.73428755       0.55897027 </v>
    <v>       0.57669264       0.26571245       0.44102973 </v>
    <v>       0.73339041       0.66929845       0.88788970 </v>
    <v>       0.03256011       0.94740888       0.33713117 </v>
    <v>       0.16044413       0.43426075       0.82088401 </v>
    <v>       0.73465348       0.13463883       0.04419154 </v>
    <v>       0.50595876       0.18595344       0.76452401 </v>
    <v>       0.26534652       0.86536117       0.95580846 </v>
    <v>       0.96743989       0.05259112       0.66286883 </v>
    <v>       0.83955587       0.56573925       0.17911599 </v>
    <v>       0.49404124       0.81404656       0.23547599 </v>
    <v>       0.80500029       0.87351568       0.15227214 </v>
    <v>       0.64463709       0.33349029       0.95248600 </v>
    <v>       0.45496597       0.43657720       0.71068290 </v>
    <v>       0.22901387       0.01159353       0.52820156 </v>
    <v>       0.02570190       0.68571207       0.35486275 </v>
    <v>       0.35536291       0.66650971       0.04751400 </v>
    <v>       0.44649420       0.06766905       0.15932472 </v>
    <v>       0.97429810       0.31428793       0.64513725 </v>
    <v>       0.55350580       0.93233095       0.84067528 </v>
    <v>       0.86754364       0.32204134       0.22555142 </v>
    <v>       0.13245636       0.67795866       0.77444858 </v>
    <v>       0.77098613       0.98840647       0.47179844 </v>
    <v>       0.54503403       0.56342280       0.28931710 </v>
    <v>       0.19499971       0.12648432       0.84772786 </v>
   </varray>
  </structure>
  <varray name="forces" >
   <v>      -0.07776911       0.02097201      -0.03202570 </v>
   <v>      -0.00613105       0.01918047      -0.05822863 </v>
   <v>       0.00613105      -0.01918047       0.05822863 </v>
   <v>       0.07776911      -0.02097201       0.03202570 </v>
   <v>       0.14561571      -0.19463272      -0.26807736 </v>
   <v>      -0.05769694      -0.00006085       0.31843265 </v>
   <v>       0.50524565      -0.00274254      -0.03860292 </v>
   <v>       0.03047385       0.02374403      -0.16588237 </v>
   <v>      -0.50524565       0.00274254       0.03860292 </v>
   <v>      -0.14561571       0.19463272       0.26807736 </v>
   <v>       0.05769694       0.00006085      -0.31843265 </v>
   <v>      -0.03047385      -0.02374403       0.16588237 </v>
   <v>       0.03364644      -0.03731721       0.15311702 </v>
   <v>       0.00389728       0.01063509       0.05273960 </v>
   <v>       0.03472306       0.13491305      -0.07722565 </v>
   <v>      -0.00490142      -0.02389237      -0.10587239 </v>
   <v>       0.01503078       0.16866303       0.14345760 </v>
   <v>      -0.00389728      -0.01063509      -0.05273960 </v>
   <v>       0.00861269       0.06460761       0.01989110 </v>
   <v>      -0.01503078      -0.16866303      -0.14345760 </v>
   <v>      -0.00861269      -0.06460761      -0.01989110 </v>
   <v>      -0.25150541      -0.01027939       0.00092537 </v>
   <v>       0.25150541       0.01027939      -0.00092537 </v>
   <v>       0.00490142       0.02389237       0.10587239 </v>
   <v>      -0.03472306      -0.13491305       0.07722565 </v>
   <v>      -0.03364644       0.03731721      -0.15311702 </v>
  </varray>
  <varray name="stress" >
   <v>      -7.20693788       1.37739816       5.10730949 </v>
   <v>       1.37739720      -1.18840699      -1.15402107 </v>
   <v>       5.10730991      -1.15401968      -3.35084129 </v>
  </varray>
  <energy>
   <i name="e_fr_energy">   -100.05690615 </i>
   <i name="e_wo_entrp">   -100.05690615 </i>
   <i name="e_0_energy">     -0.00000000 </i>
  </energy>
  <time name="totalsc">    8.76    8.93</time>
 </calculation>
 <calculation>
  <scstep>
   <time name="dav">    1.04    1.06</time>
   <time name="total">    1.35    1.39</time>
   <energy>
    <i name="alphaZ">    241.40802796 </i>
    <i name="ewald">  -5104.11136235 </i>
    <i name="hartreedc">  -1403.45018983 </i>
    <i name="XCdc">   -329.75912459 </i>
    <i name="pawpsdc">   8229.34530020 </i>
    <i name="pawaedc">  -7591.72788979 </i>
    <i name="eentropy">     -0.00000000 </i>
    <i name="bandstr">   -743.06361229 </i>
    <i name="atom">   6601.26369155 </i>
    <i name="e_fr_energy">   -100.09515913 </i>
    <i name="e_wo_entrp">   -100.09515913 </i>
    <i name="e_0_energy">   -100.09515913 </i>
   </energy>
  </scstep>
  <scstep>
   <time name="dav">    0.80    0.80</time>
   <time name="total">    1.08    1.08</time>
   <energy>
    <i name="e_fr_energy">   -100.07436177 </i>
    <i name="e_wo_entrp">   -100.07436177 </i>
    <i name="e_0_energy">   -100.07436177 </i>
   </energy>
  </scstep>
  <scstep>
   <time name="dav">    1.14    1.15</time>
   <time name="total">    1.42    1.43</time>
   <energy>
    <i name="e_fr_energy">   -100.06846774 </i>
    <i name="e_wo_entrp">   -100.06846774 </i>
    <i name="e_0_energy">   -100.06846774 </i>
   </energy>
  </scstep>
  <scstep>
   <time name="dav">    1.03    1.03</time>
   <time name="total">    1.32    1.32</time>
   <energy>
    <i name="e_fr_energy">   -100.06766305 </i>
    <i name="e_wo_entrp">   -100.06766305 </i>
    <i name="e_0_energy">   -100.06766305 </i>
   </energy>
  </scstep>
  <scstep>
   <time name="dav">    0.89    0.89</time>
   <time name="total">    1.18    1.19</time>
   <energy>
    <i name="e_fr_energy">   -100.06753252 </i>
    <i name="e_wo_entrp">   -100.06753252 </i>
    <i name="e_0_energy">   -100.06753252 </i>
   </energy>
  </scstep>
  <scstep>
   <time name="dav">    0.68    0.68</time>
   <time name="total">    0.93    0.93</time>
   <energy>
    <i name="alphaZ">    241.40802796 </i>
    <i name="ewald">  -5104.11136235 </i>
    <i name="hartreedc">  -1394.41472727 </i>
    <i name="XCdc">   -330.00305183 </i>
    <i name="pawpsdc">   8317.62172101 </i>
    <i name="pawaedc">  -7680.08106897 </i>
    <i name="eentropy">     -0.00000000 </i>
    <i name="bandstr">   -751.75077091 </i>
    <i name="atom">   6601.26369155 </i>
    <i name="e_fr_energy">   -100.06754081 </i>
    <i name="e_wo_entrp">   -100.06754081 </i>
    <i name="e_0_energy">   -100.06754081 </i>
   </energy>
  </scstep>
  <structure>
   <crystal>
    <varray name="basis" >
     <v>      -8.10743840       0.02841024      -0.17143858 </v>
     <v>       2.27110044       9.73157673      -0.07234397 </v>
     <v>      -0.74520567      -1.97962090     -11.73969701 </v>
    </varray>
    <i name="volume">    927.68807847 </i>
    <varray name="rec_basis" >
     <v>      -0.12330543       0.02879841       0.00297094 </v>
     <v>       0.00072536       0.10246021      -0.01732352 </v>
     <v>       0.00179620      -0.00105195      -0.08511771 </v>
    </varray>
   </crystal>
   <varray name="positions" >
    <v>       0.26661505       0.33070181       0.11210946 </v>
    <v>       0.42329922       0.73428406       0.55897090 </v>
    <v>       0.57670078       0.26571594       0.44102910 </v>
    <v>       0.73338495       0.66929819       0.88789054 </v>
    <v>       0.03223805       0.94719937       0.33740134 </v>
    <v>       0.16060385       0.43435892       0.82051084 </v>
    <v>       0.73427055       0.13483482       0.04440011 </v>
    <v>       0.50567490       0.18608420       0.76481809 </v>
    <v>       0.26572945       0.86516518       0.95559989 </v>
    <v>       0.96776195       0.05280063       0.66259866 </v>
    <v>       0.83939615       0.56564108       0.17948916 </v>
    <v>       0.49432510       0.81391580       0.23518191 </v>
    <v>       0.80463305       0.87342946       0.15245391 </v>
    <v>       0.64454159       0.33312904       0.95238189 </v>
    <v>       0.45458078       0.43640903       0.71086935 </v>
    <v>       0.22851730       0.01162288       0.52826857 </v>
    <v>       0.02545951       0.68587452       0.35464062 </v>
    <v>       0.35545841       0.66687096       0.04761811 </v>
    <v>       0.44689725       0.06763383       0.15914872 </v>
    <v>       0.97454049       0.31412548       0.64535938 </v>
    <v>       0.55310275       0.93236617       0.84085128 </v>
    <v>       0.86736118       0.32217709       0.22534826 </v>
    <v>       0.13263882       0.67782291       0.77465174 </v>
    <v>       0.77148270       0.98837712       0.47173143 </v>
    <v>       0.54541922       0.56359097       0.28913065 </v>
    <v>       0.19536695       0.12657054       0.84754609 </v>
   </varray>
  </structure>
  <varray name="forces" >
   <v>      -0.07125165       0.02098688      -0.02862438 </v>
   <v>      -0.00871135       0.02063751      -0.05424870 </v>
   <v>       0.00871135      -0.02063751       0.05424870 </v>
   <v>       0.07125165      -0.02098688       0.02862438 </v>
   <v>       0.05225425      -0.09933958      -0.20622428 </v>
   <v>       0.06494277      -0.03044936       0.13866129 </v>
   <v>       0.30703489      -0.10100917       0.00264102 </v>
   <v>      -0.05394863      -0.01109724      -0.03498623 </v>
   <v>      -0.30703489       0.10100917      -0.00264102 </v>
   <v>      -0.05225425       0.09933958       0.20622428 </v>
   <v>      -0.06494277       0.03044936      -0.13866129 </v>
   <v>       0.05394863       0.01109724       0.03498623 </v>
   <v>       0.00060459      -0.00889797       0.21789451 </v>
   <v>      -0.03227961       0.11587882       0.00020556 </v>
   <v>      -0.02819710       0.16850984      -0.00022752 </v>
   <v>      -0.12378761      -0.02709153      -0.11368745 </v>
   <v>      -0.04015777       0.10185277       0.06133797 </v>
   <v>       0.03227961      -0.11587882      -0.00020556 </v>
   <v>       0.08737823       0.07662832      -0.03317891 </v>
   <v>       0.04015777      -0.10185277      -0.06133797 </v>
   <v>      -0.08737823      -0.07662832       0.03317891 </v>
   <v>      -0.30581686      -0.07137264      -0.07344264 </v>
   <v>       0.30581686       0.07137264       0.07344264 </v>
   <v>       0.12378761       0.02709153       0.11368745 </v>
   <v>       0.02819710      -0.16850984       0.00022752 </v>
   <v>      -0.00060459       0.00889797      -0.21789451 </v>
  </varray>
  <varray name="stress" >
   <v>      -1.65039222       1.08032163       5.44245635 </v>
   <v>       1.08032154       3.67597683      -1.09948818 </v>
   <v>       5.44245700      -1.09948695       1.07369433 </v>
  </varray>
  <energy>
   <i name="e_fr_energy">   -100.06754081 </i>
   <i name="e_wo_entrp">   -100.06754081 </i>
   <i name="e_0_energy">     -0.00000000 </i>
  </energy>
  <time name="totalsc">    8.82    8.96</time>
 </calculation>
 <calculation>
  <scstep>
   <time name="dav">    1.06    1.07</time>
   <time name="total">    1.36    1.40</time>
   <energy>
    <i name="alphaZ">    241.06840950 </i>
    <i name="ewald">  -5102.60513072 </i>
    <i name="hartreedc">  -1392.91229580 </i>
    <i name="XCdc">   -330.12714483 </i>
    <i name="pawpsdc">   8314.23853128 </i>
    <i name="pawaedc">  -7676.70934937 </i>
    <i name="eentropy">     -0.00000000 </i>
    <i name="bandstr">   -754.28593089 </i>
    <i name="atom">   6601.26369155 </i>
    <i name="e_fr_energy">   -100.06921927 </i>
    <i name="e_wo_entrp">   -100.06921927 </i>
    <i name="e_0_energy">   -100.06921927 </i>
   </energy>
  </scstep>
  <scstep>
   <time name="dav">    0.76    0.76</time>
   <time name="total">    1.05    1.05</time>
   <energy>
    <i name="e_fr_energy">   -100.06860752 </i>
    <i name="e_wo_entrp">   -100.06860752 </i>
    <i name="e_0_energy">   -100.06860752 </i>
   </energy>
  </scstep>
  <scstep>
   <time name="dav">    1.06    1.06</time>
   <time name="total">    1.35    1.36</time>
   <energy>
    <i name="e_fr_energy">   -100.06842297 </i>
    <i name="e_wo_entrp">   -100.06842297 </i>
    <i name="e_0_energy">   -100.06842297 </i>
   </energy>
  </scstep>
  <scstep>
   <time name="dav">    0.63    0.63</time>
   <time name="total">    0.89    0.89</time>
   <energy>
    <i name="alphaZ">    241.06840950 </i>
    <i name="ewald">  -5102.60513072 </i>
    <i name="hartreedc">  -1394.32913236 </i>
    <i name="XCdc">   -330.09014878 </i>
    <i name="pawpsdc">   8296.82599333 </i>
    <i name="pawaedc">  -7659.29280956 </i>
    <i name="eentropy">     -0.00000000 </i>
    <i name="bandstr">   -752.90926414 </i>
    <i name="atom">   6601.26369155 </i>
    <i name="e_fr_energy">   -100.06839115 </i>
    <i name="e_wo_entrp">   -100.06839115 </i>
    <i name="e_0_energy">   -100.06839115 </i>
   </energy>
  </scstep>
  <structure>
   <crystal>
    <varray name="basis" >
     <v>      -8.11148888       0.02841132      -0.17166329 </v>
     <v>       2.27224971       9.73620536      -0.07242501 </v>
     <v>      -0.74579843      -1.98045219     -11.74478452 </v>
    </varray>
    <i name="volume">    928.99501036 </i>
    <varray name="rec_basis" >
     <v>      -0.12324401       0.02878497       0.00297221 </v>
     <v>       0.00072514       0.10241138      -0.01731506 </v>
     <v>       0.00179688      -0.00105225      -0.08508084 </v>
    </varray>
   </crystal>
   <varray name="positions" >
    <v>       0.26661412       0.33070177       0.11210960 </v>
    <v>       0.42330061       0.73428466       0.55897079 </v>
    <v>       0.57669939       0.26571534       0.44102921 </v>
    <v>       0.73338588       0.66929823       0.88789040 </v>
    <v>       0.03229290       0.94723505       0.33735534 </v>
    <v>       0.16057666       0.43434220       0.82057438 </v>
    <v>       0.73433577       0.13480144       0.04436460 </v>
    <v>       0.50572324       0.18606193       0.76476802 </v>
    <v>       0.26566423       0.86519856       0.95563540 </v>
    <v>       0.96770710       0.05276495       0.66264466 </v>
    <v>       0.83942334       0.56565780       0.17942562 </v>
    <v>       0.49427676       0.81393807       0.23523198 </v>
    <v>       0.80469559       0.87344414       0.15242296 </v>
    <v>       0.64455786       0.33319057       0.95239962 </v>
    <v>       0.45464638       0.43643767       0.71083761 </v>
    <v>       0.22860188       0.01161788       0.52825717 </v>
    <v>       0.02550081       0.68584686       0.35467845 </v>
    <v>       0.35544214       0.66680943       0.04760038 </v>
    <v>       0.44682860       0.06763983       0.15917868 </v>
    <v>       0.97449919       0.31415314       0.64532155 </v>
    <v>       0.55317140       0.93236017       0.84082132 </v>
    <v>       0.86739227       0.32215397       0.22538285 </v>
    <v>       0.13260773       0.67784603       0.77461715 </v>
    <v>       0.77139812       0.98838212       0.47174283 </v>
    <v>       0.54535362       0.56356233       0.28916239 </v>
    <v>       0.19530441       0.12655586       0.84757704 </v>
   </varray>
  </structure>
  <varray name="forces" >
   <v>      -0.07153065       0.02129935      -0.02881472 </v>
   <v>      -0.00809285       0.02116614      -0.05529230 </v>
   <v>       0.00809285      -0.02116614       0.05529230 </v>
   <v>       0.07153065      -0.02129935       0.02881472 </v>
   <v>       0.05578124      -0.10578117      -0.20791243 </v>
   <v>       0.06459322      -0.02791734       0.14332531 </v>
   <v>       0.30819217      -0.10169714       0.00084913 </v>
   <v>      -0.05226043      -0.00988339      -0.03900776 </v>
   <v>      -0.30819217       0.10169714      -0.00084913 </v>
   <v>      -0.05578124       0.10578117       0.20791243 </v>
   <v>      -0.06459322       0.02791734      -0.14332531 </v>
   <v>       0.05226043       0.00988339       0.03900776 </v>
   <v>       0.00846350      -0.01168264       0.21110349 </v>
   <v>      -0.03416310       0.10417461       0.00420535 </v>
   <v>      -0.02405564       0.15613149      -0.02246167 </v>
   <v>      -0.09756581      -0.02313113      -0.10433734 </v>
   <v>      -0.04438325       0.11834230       0.07870828 </v>
   <v>       0.03416310      -0.10417461      -0.00420535 </v>
   <v>       0.07930391       0.06143493      -0.02007879 </v>
   <v>       0.04438325      -0.11834230      -0.07870828 </v>
   <v>      -0.07930391      -0.06143493       0.02007879 </v>
   <v>      -0.29881220      -0.06390260      -0.06117008 </v>
   <v>       0.29881220       0.06390260       0.06117008 </v>
   <v>       0.09756581       0.02313113       0.10433734 </v>
   <v>       0.02405564      -0.15613149       0.02246167 </v>
   <v>      -0.00846350       0.01168264      -0.21110349 </v>
  </varray>
  <varray name="stress" >
   <v>      -1.86344505       1.08123252       5.39041182 </v>
   <v>       1.08123191       3.51513530      -1.08706079 </v>
   <v>       5.39041284      -1.08705962       0.93575180 </v>
  </varray>
  <energy>
   <i name="e_fr_energy">   -100.06839115 </i>
   <i name="e_wo_entrp">   -100.06839115 </i>
   <i name="e_0_energy">     -0.00000000 </i>
  </energy>
  <time name="totalsc">    6.14    6.34</time>
 </calculation>
 <calculation>
  <scstep>
   <time name="dav">    0.87    0.88</time>
   <time name="total">    1.17    1.21</time>
   <energy>
    <i name="alphaZ">    240.39011864 </i>
    <i name="ewald">  -5099.58759440 </i>
    <i name="hartreedc">  -1391.62454743 </i>
    <i name="XCdc">   -330.33015812 </i>
    <i name="pawpsdc">   8296.80718955 </i>
    <i name="pawaedc">  -7659.26569029 </i>
    <i name="eentropy">     -0.00000000 </i>
    <i name="bandstr">   -757.72329090 </i>
    <i name="atom">   6601.26369155 </i>
    <i name="e_fr_energy">   -100.07028140 </i>
    <i name="e_wo_entrp">   -100.07028140 </i>
    <i name="e_0_energy">   -100.07028140 </i>
   </energy>
  </scstep>
  <scstep>
   <time name="dav">    1.10    1.11</time>
   <time name="total">    1.39    1.40</time>
   <energy>
    <i name="e_fr_energy">   -100.06782651 </i>
    <i name="e_wo_entrp">   -100.06782651 </i>
    <i name="e_0_energy">   -100.06782651 </i>
   </energy>
  </scstep>
  <scstep>
   <time name="dav">    1.07    1.08</time>
   <time name="total">    1.36    1.37</time>
   <energy>
    <i name="e_fr_energy">   -100.06711230 </i>
    <i name="e_wo_entrp">   -100.06711230 </i>
    <i name="e_0_energy">   -100.06711230 </i>
   </energy>
  </scstep>
  <scstep>
   <time name="dav">    0.77    0.77</time>
   <time name="total">    1.05    1.06</time>
   <energy>
    <i name="e_fr_energy">   -100.06699942 </i>
    <i name="e_wo_entrp">   -100.06699942 </i>
    <i name="e_0_energy">   -100.06699942 </i>
   </energy>
  </scstep>
  <scstep>
   <time name="dav">    0.68    0.68</time>
   <time name="total">    0.93    0.93</time>
   <energy>
    <i name="alphaZ">    240.39011864 </i>
    <i name="ewald">  -5099.58759440 </i>
    <i name="hartreedc">  -1394.69462661 </i>
    <i name="XCdc">   -330.24963085 </i>
    <i name="pawpsdc">   8265.26715312 </i>
    <i name="pawaedc">  -7627.69911886 </i>
    <i name="eentropy">     -0.00000000 </i>
    <i name="bandstr">   -754.75696201 </i>
    <i name="atom">   6601.26369155 </i>
    <i name="e_fr_energy">   -100.06696940 </i>
    <i name="e_wo_entrp">   -100.06696940 </i>
    <i name="e_0_energy">   -100.06696940 </i>
   </energy>
  </scstep>
  <structure>
   <crystal>
    <varray name="basis" >
     <v>      -8.11960141       0.02841350      -0.17211337 </v>
     <v>       2.27455152       9.74547585      -0.07258734 </v>
     <v>      -0.74698565      -1.98211714     -11.75497406 </v>
    </varray>
    <i name="volume">    931.61628628 </i>
    <varray name="rec_basis" >
     <v>      -0.12312118       0.02875810       0.00297473 </v>
     <v>       0.00072471       0.10231373      -0.01729814 </v>
     <v>       0.00179823      -0.00105286      -0.08500711 </v>
    </varray>
   </crystal>
   <varray name="positions" >
    <v>       0.26661226       0.33070168       0.11210989 </v>
    <v>       0.42330339       0.73428585       0.55897058 </v>
    <v>       0.57669661       0.26571415       0.44102942 </v>
    <v>       0.73338774       0.66929832       0.88789011 </v>
    <v>       0.03240270       0.94730648       0.33726326 </v>
    <v>       0.16052222       0.43430873       0.82070158 </v>
    <v>       0.73446633       0.13473462       0.04429351 </v>
    <v>       0.50582002       0.18601734       0.76466778 </v>
    <v>       0.26553367       0.86526538       0.95570649 </v>
    <v>       0.96759730       0.05269352       0.66273674 </v>
    <v>       0.83947778       0.56569127       0.17929842 </v>
    <v>       0.49417998       0.81398266       0.23533222 </v>
    <v>       0.80482081       0.87347354       0.15236101 </v>
    <v>       0.64459042       0.33331374       0.95243511 </v>
    <v>       0.45477771       0.43649500       0.71077406 </v>
    <v>       0.22877120       0.01160788       0.52823433 </v>
    <v>       0.02558348       0.68579147       0.35475417 </v>
    <v>       0.35540958       0.66668626       0.04756489 </v>
    <v>       0.44669117       0.06765184       0.15923867 </v>
    <v>       0.97441652       0.31420853       0.64524583 </v>
    <v>       0.55330883       0.93234816       0.84076133 </v>
    <v>       0.86745450       0.32210769       0.22545211 </v>
    <v>       0.13254550       0.67789231       0.77454789 </v>
    <v>       0.77122880       0.98839212       0.47176567 </v>
    <v>       0.54522229       0.56350500       0.28922594 </v>
    <v>       0.19517919       0.12652646       0.84763899 </v>
   </varray>
  </structure>
  <varray name="forces" >
   <v>      -0.07363704       0.02155679      -0.03016045 </v>
   <v>      -0.00722956       0.02093697      -0.05719139 </v>
   <v>       0.00722956      -0.02093697       0.05719139 </v>
   <v>       0.07363704      -0.02155679       0.03016045 </v>
   <v>       0.09079822      -0.14084589      -0.30377698 </v>
   <v>      -0.04575207       0.03083492       0.22995263 </v>
   <v>       0.39807717      -0.06080461       0.01306667 </v>
   <v>      -0.00779140       0.05446652      -0.08271189 </v>
   <v>      -0.39807717       0.06080461      -0.01306667 </v>
   <v>      -0.09079822       0.14084589       0.30377698 </v>
   <v>       0.04575207      -0.03083492      -0.22995263 </v>
   <v>       0.00779140      -0.05446652       0.08271189 </v>
   <v>       0.02757228      -0.02516162       0.17964901 </v>
   <v>      -0.00875195       0.07806053       0.02403630 </v>
   <v>       0.00357183       0.14890595      -0.04608818 </v>
   <v>      -0.06027237      -0.02545167      -0.11907505 </v>
   <v>      -0.01625616       0.14646153       0.09610335 </v>
   <v>       0.00875195      -0.07806053      -0.02403630 </v>
   <v>       0.05191599       0.07136982       0.00258557 </v>
   <v>       0.01625616      -0.14646153      -0.09610335 </v>
   <v>      -0.05191599      -0.07136982      -0.00258557 </v>
   <v>      -0.28701055      -0.04980425      -0.03829937 </v>
   <v>       0.28701055       0.04980425       0.03829937 </v>
   <v>       0.06027237       0.02545167       0.11907505 </v>
   <v>      -0.00357183      -0.14890595       0.04608818 </v>
   <v>      -0.02757228       0.02516162      -0.17964901 </v>
  </varray>
  <varray name="stress" >
   <v>      -4.54173166       1.16836792       5.40680285 </v>
   <v>       1.16836743       1.53469818      -1.42234442 </v>
   <v>       5.40680321      -1.42234333      -1.04089038 </v>
  </varray>
  <energy>
   <i name="e_fr_energy">   -100.06696940 </i>
   <i name="e_wo_entrp">   -100.06696940 </i>
   <i name="e_0_energy">     -0.00000000 </i>
  </energy>
  <time name="totalsc">    7.27    7.44</time>
 </calculation>
 <calculation>
  <scstep>
   <time name="dav">    1.03    1.06</time>
   <time name="total">    1.33    1.42</time>
   <energy>
    <i name="alphaZ">    240.88723122 </i>
    <i name="ewald">  -5101.80139516 </i>
    <i name="hartreedc">  -1396.74887993 </i>
    <i name="XCdc">   -330.07219848 </i>
    <i name="pawpsdc">   8266.96268446 </i>
    <i name="pawaedc">  -7629.38822493 </i>
    <i name="eentropy">     -0.00000000 </i>
    <i name="bandstr">   -751.17305203 </i>
    <i name="atom">   6601.26369155 </i>
    <i name="e_fr_energy">   -100.07014329 </i>
    <i name="e_wo_entrp">   -100.07014329 </i>
    <i name="e_0_energy">   -100.07014329 </i>
   </energy>
  </scstep>
  <scstep>
   <time name="dav">    0.79    0.80</time>
   <time name="total">    1.07    1.08</time>
   <energy>
    <i name="e_fr_energy">   -100.06887303 </i>
    <i name="e_wo_entrp">   -100.06887303 </i>
    <i name="e_0_energy">   -100.06887303 </i>
   </energy>
  </scstep>
  <scstep>
   <time name="dav">    1.13    1.14</time>
   <time name="total">    1.42    1.43</time>
   <energy>
    <i name="e_fr_energy">   -100.06852025 </i>
    <i name="e_wo_entrp">   -100.06852025 </i>
    <i name="e_0_energy">   -100.06852025 </i>
   </energy>
  </scstep>
  <scstep>
   <time name="dav">    0.54    0.54</time>
   <time name="total">    0.79    0.79</time>
   <energy>
    <i name="alphaZ">    240.88723122 </i>
    <i name="ewald">  -5101.80139516 </i>
    <i name="hartreedc">  -1394.68088517 </i>
    <i name="XCdc">   -330.12750946 </i>
    <i name="pawpsdc">   8292.72500548 </i>
    <i name="pawaedc">  -7655.15247439 </i>
    <i name="eentropy">     -0.00000000 </i>
    <i name="bandstr">   -753.18214088 </i>
    <i name="atom">   6601.26369155 </i>
    <i name="e_fr_energy">   -100.06847680 </i>
    <i name="e_wo_entrp">   -100.06847680 </i>
    <i name="e_0_energy">   -100.06847680 </i>
   </energy>
  </scstep>
  <structure>
   <crystal>
    <varray name="basis" >
     <v>      -8.11365284       0.02841191      -0.17178335 </v>
     <v>       2.27286370       9.73867819      -0.07246831 </v>
     <v>      -0.74611511      -1.98089630     -11.74750250 </v>
    </varray>
    <i name="volume">    929.69373448 </i>
    <varray name="rec_basis" >
     <v>      -0.12321122       0.02877780       0.00297288 </v>
     <v>       0.00072503       0.10238532      -0.01731054 </v>
     <v>       0.00179724      -0.00105241      -0.08506116 </v>
    </varray>
   </crystal>
   <varray name="positions" >
    <v>       0.26661362       0.33070174       0.11210968 </v>
    <v>       0.42330135       0.73428497       0.55897073 </v>
    <v>       0.57669865       0.26571503       0.44102927 </v>
    <v>       0.73338638       0.66929826       0.88789032 </v>
    <v>       0.03232226       0.94725416       0.33733073 </v>
    <v>       0.16056210       0.43433325       0.82060839 </v>
    <v>       0.73437069       0.13478357       0.04434560 </v>
    <v>       0.50574912       0.18605000       0.76474122 </v>
    <v>       0.26562931       0.86521643       0.95565440 </v>
    <v>       0.96767774       0.05274584       0.66266927 </v>
    <v>       0.83943790       0.56566675       0.17939161 </v>
    <v>       0.49425088       0.81395000       0.23525878 </v>
    <v>       0.80472908       0.87345200       0.15240640 </v>
    <v>       0.64456657       0.33322351       0.95240911 </v>
    <v>       0.45468151       0.43645300       0.71082062 </v>
    <v>       0.22864717       0.01161521       0.52825106 </v>
    <v>       0.02552293       0.68583204       0.35469869 </v>
    <v>       0.35543343       0.66677649       0.04759089 </v>
    <v>       0.44679184       0.06764304       0.15919472 </v>
    <v>       0.97447707       0.31416796       0.64530131 </v>
    <v>       0.55320816       0.93235696       0.84080528 </v>
    <v>       0.86740892       0.32214159       0.22540137 </v>
    <v>       0.13259108       0.67785841       0.77459863 </v>
    <v>       0.77135283       0.98838479       0.47174894 </v>
    <v>       0.54531849       0.56354700       0.28917938 </v>
    <v>       0.19527092       0.12654800       0.84759360 </v>
   </varray>
  </structure>
  <varray name="forces" >
   <v>      -0.07193280       0.02119220      -0.02903561 </v>
   <v>      -0.00817158       0.02084994      -0.05559795 </v>
   <v>       0.00817158      -0.02084994       0.05559795 </v>
   <v>       0.07193280      -0.02119220       0.02903561 </v>
   <v>       0.03298369      -0.14586655      -0.28065966 </v>
   <v>       0.06478316      -0.02658026       0.14400666 </v>
   <v>       0.33990889      -0.07245866       0.03506565 </v>
   <v>      -0.01341047      -0.03212190      -0.02748552 </v>
   <v>      -0.33990889       0.07245866      -0.03506565 </v>
   <v>      -0.03298369       0.14586655       0.28065966 </v>
   <v>      -0.06478316       0.02658026      -0.14400666 </v>
   <v>       0.01341047       0.03212190       0.02748552 </v>
   <v>       0.01225408      -0.01279949       0.20873322 </v>
   <v>      -0.00746540       0.09015818       0.00462404 </v>
   <v>      -0.01943869       0.15307875      -0.02579859 </v>
   <v>      -0.09103395      -0.02295432      -0.10604875 </v>
   <v>      -0.04035817       0.12357474       0.08376555 </v>
   <v>       0.00746540      -0.09015818      -0.00462404 </v>
   <v>       0.07449091       0.06243010      -0.01755939 </v>
   <v>       0.04035817      -0.12357474      -0.08376555 </v>
   <v>      -0.07449091      -0.06243010       0.01755939 </v>
   <v>      -0.29673435      -0.06047373      -0.05630533 </v>
   <v>       0.29673435       0.06047373       0.05630533 </v>
   <v>       0.09103395       0.02295432       0.10604875 </v>
   <v>       0.01943869      -0.15307875       0.02579859 </v>
   <v>      -0.01225408       0.01279949      -0.20873322 </v>
  </varray>
  <varray name="stress" >
   <v>      -3.00341088       1.11097591       5.33410559 </v>
   <v>       1.11097644       2.72242882      -1.24113409 </v>
   <v>       5.33410605      -1.24113269      -0.04829455 </v>
  </varray>
  <energy>
   <i name="e_fr_energy">   -100.06847680 </i>
   <i name="e_wo_entrp">   -100.06847680 </i>
   <i name="e_0_energy">     -0.00000000 </i>
  </energy>
  <time name="totalsc">    6.08    6.35</time>
 </calculation>
 <calculation>
  <scstep>
   <time name="dav">    0.93    0.94</time>
   <time name="total">    1.23    1.27</time>
   <energy>
    <i name="alphaZ">    240.93782769 </i>
    <i name="ewald">  -5102.02628964 </i>
    <i name="hartreedc">  -1394.74606754 </i>
    <i name="XCdc">   -330.11116716 </i>
    <i name="pawpsdc">   8292.85642950 </i>
    <i name="pawaedc">  -7655.29544827 </i>
    <i name="eentropy">     -0.00000000 </i>
    <i name="bandstr">   -752.94747473 </i>
[...]
        <r>  0.0013  0.0028  0.0016 </r>
        <r>  0.0030  0.0371  0.0008 </r>
        <r>  0.0018  0.0273  0.0006 </r>
        <r>  0.0014  0.0243  0.0005 </r>
        <r>  0.0002  0.0276  0.0006 </r>
        <r>  0.0014  0.0243  0.0005 </r>
        <r>  0.0030  0.0371  0.0008 </r>
        <r>  0.0018  0.0273  0.0006 </r>
        <r>  0.0002  0.0276  0.0006 </r>
        <r>  0.0028  0.0131  0.0006 </r>
        <r>  0.0005  0.0078  0.0017 </r>
        <r>  0.0013  0.0035  0.0011 </r>
        <r>  0.0001  0.0140  0.0020 </r>
        <r>  0.0015  0.0105  0.0020 </r>
        <r>  0.0005  0.0078  0.0017 </r>
        <r>  0.0012  0.0187  0.0012 </r>
        <r>  0.0015  0.0105  0.0020 </r>
        <r>  0.0012  0.0187  0.0012 </r>
        <r>  0.0069  0.0231  0.0012 </r>
        <r>  0.0069  0.0231  0.0012 </r>
        <r>  0.0001  0.0140  0.0020 </r>
        <r>  0.0013  0.0035  0.0011 </r>
        <r>  0.0028  0.0131  0.0006 </r>
       </set>
       <set comment="band 84">
        <r>  0.0001  0.0031  0.0039 </r>
        <r>  0.0017  0.0021  0.0013 </r>
        <r>  0.0017  0.0021  0.0013 </r>
        <r>  0.0001  0.0031  0.0039 </r>
        <r>  0.0005  0.0160  0.0002 </r>
        <r>  0.0029  0.0269  0.0014 </r>
        <r>  0.0006  0.0369  0.0014 </r>
        <r>  0.0002  0.0295  0.0009 </r>
        <r>  0.0006  0.0369  0.0014 </r>
        <r>  0.0005  0.0160  0.0002 </r>
        <r>  0.0029  0.0269  0.0014 </r>
        <r>  0.0002  0.0295  0.0009 </r>
        <r>  0.0055  0.0177  0.0019 </r>
        <r>  0.0070  0.0162  0.0015 </r>
        <r>  0.0044  0.0162  0.0010 </r>
        <r>  0.0006  0.0028  0.0007 </r>
        <r>  0.0013  0.0113  0.0005 </r>
        <r>  0.0070  0.0162  0.0015 </r>
        <r>  0.0007  0.0074  0.0009 </r>
        <r>  0.0013  0.0113  0.0005 </r>
        <r>  0.0007  0.0074  0.0009 </r>
        <r>  0.0011  0.0166  0.0012 </r>
        <r>  0.0011  0.0166  0.0012 </r>
        <r>  0.0006  0.0028  0.0007 </r>
        <r>  0.0044  0.0162  0.0010 </r>
        <r>  0.0055  0.0177  0.0019 </r>
       </set>
       <set comment="band 85">
        <r>  0.0022  0.0016  0.0018 </r>
        <r>  0.0002  0.0015  0.0008 </r>
        <r>  0.0002  0.0015  0.0008 </r>
        <r>  0.0022  0.0016  0.0018 </r>
        <r>  0.0019  0.0487  0.0026 </r>
        <r>  0.0021  0.0231  0.0007 </r>
        <r>  0.0012  0.0181  0.0006 </r>
        <r>  0.0007  0.0199  0.0008 </r>
        <r>  0.0012  0.0181  0.0006 </r>
        <r>  0.0019  0.0487  0.0026 </r>
        <r>  0.0021  0.0231  0.0007 </r>
        <r>  0.0007  0.0199  0.0008 </r>
        <r>  0.0034  0.0060  0.0016 </r>
        <r>  0.0008  0.0125  0.0015 </r>
        <r>  0.0005  0.0049  0.0008 </r>
        <r>  0.0025  0.0180  0.0014 </r>
        <r>  0.0001  0.0398  0.0026 </r>
        <r>  0.0008  0.0125  0.0015 </r>
        <r>  0.0010  0.0100  0.0010 </r>
        <r>  0.0001  0.0398  0.0026 </r>
        <r>  0.0010  0.0100  0.0010 </r>
        <r>  0.0016  0.0054  0.0006 </r>
        <r>  0.0016  0.0054  0.0006 </r>
        <r>  0.0025  0.0180  0.0014 </r>
        <r>  0.0005  0.0049  0.0008 </r>
        <r>  0.0034  0.0060  0.0016 </r>
       </set>
       <set comment="band 86">
        <r>  0.0001  0.0014  0.0033 </r>
        <r>  0.0022  0.0025  0.0017 </r>
        <r>  0.0022  0.0025  0.0017 </r>
        <r>  0.0001  0.0014  0.0033 </r>
        <r>  0.0005  0.0256  0.0005 </r>
        <r>  0.0004  0.0604  0.0023 </r>
        <r>  0.0020  0.0217  0.0004 </r>
        <r>  0.0007  0.0158  0.0005 </r>
        <r>  0.0020  0.0217  0.0004 </r>
        <r>  0.0005  0.0256  0.0005 </r>
        <r>  0.0004  0.0604  0.0023 </r>
        <r>  0.0007  0.0158  0.0005 </r>
        <r>  0.0002  0.0075  0.0018 </r>
        <r>  0.0003  0.0232  0.0020 </r>
        <r>  0.0043  0.0181  0.0017 </r>
        <r>  0.0008  0.0157  0.0010 </r>
        <r>  0.0022  0.0098  0.0011 </r>
        <r>  0.0003  0.0232  0.0020 </r>
        <r>  0.0002  0.0048  0.0008 </r>
        <r>  0.0022  0.0098  0.0011 </r>
        <r>  0.0002  0.0048  0.0008 </r>
        <r>  0.0002  0.0104  0.0016 </r>
        <r>  0.0002  0.0104  0.0016 </r>
        <r>  0.0008  0.0157  0.0010 </r>
        <r>  0.0043  0.0181  0.0017 </r>
        <r>  0.0002  0.0075  0.0018 </r>
       </set>
       <set comment="band 87">
        <r>  0.0002  0.0024  0.0023 </r>
        <r>  0.0013  0.0018  0.0016 </r>
        <r>  0.0013  0.0018  0.0016 </r>
        <r>  0.0002  0.0024  0.0023 </r>
        <r>  0.0022  0.0180  0.0014 </r>
        <r>  0.0087  0.0501  0.0020 </r>
        <r>  0.0008  0.0217  0.0010 </r>
        <r>  0.0001  0.0079  0.0009 </r>
        <r>  0.0008  0.0217  0.0010 </r>
        <r>  0.0022  0.0180  0.0014 </r>
        <r>  0.0087  0.0501  0.0020 </r>
        <r>  0.0001  0.0079  0.0009 </r>
        <r>  0.0016  0.0019  0.0011 </r>
        <r>  0.0001  0.0116  0.0017 </r>
        <r>  0.0017  0.0331  0.0029 </r>
        <r>  0.0013  0.0092  0.0005 </r>
        <r>  0.0030  0.0275  0.0013 </r>
        <r>  0.0001  0.0116  0.0017 </r>
        <r>  0.0009  0.0101  0.0006 </r>
        <r>  0.0030  0.0275  0.0013 </r>
        <r>  0.0009  0.0101  0.0006 </r>
        <r>  0.0001  0.0040  0.0018 </r>
        <r>  0.0001  0.0040  0.0018 </r>
        <r>  0.0013  0.0092  0.0005 </r>
        <r>  0.0017  0.0331  0.0029 </r>
        <r>  0.0016  0.0019  0.0011 </r>
       </set>
       <set comment="band 88">
        <r>  0.0000  0.0020  0.0017 </r>
        <r>  0.0000  0.0013  0.0006 </r>
        <r>  0.0000  0.0013  0.0006 </r>
        <r>  0.0000  0.0020  0.0017 </r>
        <r>  0.0038  0.0181  0.0010 </r>
        <r>  0.0001  0.0191  0.0010 </r>
        <r>  0.0007  0.0373  0.0015 </r>
        <r>  0.0014  0.0455  0.0007 </r>
        <r>  0.0007  0.0373  0.0015 </r>
        <r>  0.0038  0.0181  0.0010 </r>
        <r>  0.0001  0.0191  0.0010 </r>
        <r>  0.0014  0.0455  0.0007 </r>
        <r>  0.0000  0.0045  0.0011 </r>
        <r>  0.0008  0.0143  0.0009 </r>
        <r>  0.0008  0.0089  0.0014 </r>
        <r>  0.0005  0.0095  0.0008 </r>
        <r>  0.0006  0.0239  0.0012 </r>
        <r>  0.0008  0.0143  0.0009 </r>
        <r>  0.0012  0.0135  0.0024 </r>
        <r>  0.0006  0.0239  0.0012 </r>
        <r>  0.0012  0.0135  0.0024 </r>
        <r>  0.0001  0.0393  0.0019 </r>
        <r>  0.0001  0.0393  0.0019 </r>
        <r>  0.0005  0.0095  0.0008 </r>
        <r>  0.0008  0.0089  0.0014 </r>
        <r>  0.0000  0.0045  0.0011 </r>
       </set>
       <set comment="band 89">
        <r>  0.0017  0.0020  0.0031 </r>
        <r>  0.0022  0.0031  0.0016 </r>
        <r>  0.0022  0.0031  0.0016 </r>
        <r>  0.0017  0.0020  0.0031 </r>
        <r>  0.0003  0.0308  0.0015 </r>
        <r>  0.0046  0.0370  0.0012 </r>
        <r>  0.0004  0.0103  0.0008 </r>
        <r>  0.0012  0.0402  0.0010 </r>
        <r>  0.0004  0.0103  0.0008 </r>
        <r>  0.0003  0.0308  0.0015 </r>
        <r>  0.0046  0.0370  0.0012 </r>
        <r>  0.0012  0.0402  0.0010 </r>
        <r>  0.0001  0.0111  0.0016 </r>
        <r>  0.0003  0.0028  0.0010 </r>
        <r>  0.0006  0.0350  0.0047 </r>
        <r>  0.0007  0.0071  0.0010 </r>
        <r>  0.0015  0.0212  0.0012 </r>
        <r>  0.0003  0.0028  0.0010 </r>
        <r>  0.0002  0.0153  0.0017 </r>
        <r>  0.0015  0.0212  0.0012 </r>
        <r>  0.0002  0.0153  0.0017 </r>
        <r>  0.0002  0.0017  0.0008 </r>
        <r>  0.0002  0.0017  0.0008 </r>
        <r>  0.0007  0.0071  0.0010 </r>
        <r>  0.0006  0.0350  0.0047 </r>
        <r>  0.0001  0.0111  0.0016 </r>
       </set>
       <set comment="band 90">
        <r>  0.0002  0.0040  0.0030 </r>
        <r>  0.0048  0.0021  0.0041 </r>
        <r>  0.0048  0.0021  0.0041 </r>
        <r>  0.0002  0.0040  0.0030 </r>
        <r>  0.0005  0.0208  0.0014 </r>
        <r>  0.0004  0.0166  0.0010 </r>
        <r>  0.0028  0.0348  0.0017 </r>
        <r>  0.0004  0.0312  0.0010 </r>
        <r>  0.0028  0.0348  0.0017 </r>
        <r>  0.0005  0.0208  0.0014 </r>
        <r>  0.0004  0.0166  0.0010 </r>
        <r>  0.0004  0.0312  0.0010 </r>
        <r>  0.0005  0.0145  0.0023 </r>
        <r>  0.0008  0.0135  0.0016 </r>
        <r>  0.0021  0.0085  0.0009 </r>
        <r>  0.0007  0.0041  0.0011 </r>
        <r>  0.0000  0.0149  0.0012 </r>
        <r>  0.0008  0.0135  0.0016 </r>
        <r>  0.0074  0.0220  0.0010 </r>
        <r>  0.0000  0.0149  0.0012 </r>
        <r>  0.0074  0.0220  0.0010 </r>
        <r>  0.0001  0.0234  0.0014 </r>
        <r>  0.0001  0.0234  0.0014 </r>
        <r>  0.0007  0.0041  0.0011 </r>
        <r>  0.0021  0.0085  0.0009 </r>
        <r>  0.0005  0.0145  0.0023 </r>
       </set>
       <set comment="band 91">
        <r>  0.0004  0.0007  0.0046 </r>
        <r>  0.0006  0.0011  0.0032 </r>
        <r>  0.0006  0.0011  0.0032 </r>
        <r>  0.0004  0.0007  0.0046 </r>
        <r>  0.0001  0.0246  0.0016 </r>
        <r>  0.0079  0.0422  0.0007 </r>
        <r>  0.0034  0.0236  0.0013 </r>
        <r>  0.0008  0.0196  0.0009 </r>
        <r>  0.0034  0.0236  0.0013 </r>
        <r>  0.0001  0.0246  0.0016 </r>
        <r>  0.0079  0.0422  0.0007 </r>
        <r>  0.0008  0.0196  0.0009 </r>
        <r>  0.0025  0.0068  0.0012 </r>
        <r>  0.0005  0.0068  0.0014 </r>
        <r>  0.0037  0.0161  0.0014 </r>
        <r>  0.0008  0.0082  0.0016 </r>
        <r>  0.0006  0.0241  0.0032 </r>
        <r>  0.0005  0.0068  0.0014 </r>
        <r>  0.0008  0.0232  0.0017 </r>
        <r>  0.0006  0.0241  0.0032 </r>
        <r>  0.0008  0.0232  0.0017 </r>
        <r>  0.0002  0.0074  0.0012 </r>
        <r>  0.0002  0.0074  0.0012 </r>
        <r>  0.0008  0.0082  0.0016 </r>
        <r>  0.0037  0.0161  0.0014 </r>
        <r>  0.0025  0.0068  0.0012 </r>
       </set>
       <set comment="band 92">
        <r>  0.0008  0.0025  0.0030 </r>
        <r>  0.0005  0.0040  0.0038 </r>
        <r>  0.0005  0.0040  0.0038 </r>
        <r>  0.0008  0.0025  0.0030 </r>
        <r>  0.0003  0.0149  0.0003 </r>
        <r>  0.0004  0.0506  0.0023 </r>
        <r>  0.0003  0.0172  0.0019 </r>
        <r>  0.0011  0.0394  0.0006 </r>
        <r>  0.0003  0.0172  0.0019 </r>
        <r>  0.0003  0.0149  0.0003 </r>
        <r>  0.0004  0.0506  0.0023 </r>
        <r>  0.0011  0.0394  0.0006 </r>
        <r>  0.0008  0.0119  0.0022 </r>
        <r>  0.0003  0.0132  0.0007 </r>
        <r>  0.0022  0.0231  0.0030 </r>
        <r>  0.0006  0.0058  0.0010 </r>
        <r>  0.0007  0.0120  0.0011 </r>
        <r>  0.0003  0.0132  0.0007 </r>
        <r>  0.0012  0.0193  0.0022 </r>
        <r>  0.0007  0.0120  0.0011 </r>
        <r>  0.0012  0.0193  0.0022 </r>
        <r>  0.0008  0.0112  0.0011 </r>
        <r>  0.0008  0.0112  0.0011 </r>
        <r>  0.0006  0.0058  0.0010 </r>
        <r>  0.0022  0.0231  0.0030 </r>
        <r>  0.0008  0.0119  0.0022 </r>
       </set>
       <set comment="band 93">
        <r>  0.0028  0.0007  0.0010 </r>
        <r>  0.0000  0.0035  0.0035 </r>
        <r>  0.0000  0.0035  0.0035 </r>
        <r>  0.0028  0.0007  0.0010 </r>
        <r>  0.0023  0.0432  0.0020 </r>
        <r>  0.0008  0.0097  0.0004 </r>
        <r>  0.0021  0.0519  0.0007 </r>
        <r>  0.0020  0.0130  0.0009 </r>
        <r>  0.0021  0.0519  0.0007 </r>
        <r>  0.0023  0.0432  0.0020 </r>
        <r>  0.0008  0.0097  0.0004 </r>
        <r>  0.0020  0.0130  0.0009 </r>
        <r>  0.0016  0.0044  0.0015 </r>
        <r>  0.0002  0.0119  0.0008 </r>
        <r>  0.0004  0.0026  0.0007 </r>
        <r>  0.0002  0.0140  0.0021 </r>
        <r>  0.0014  0.0211  0.0009 </r>
        <r>  0.0002  0.0119  0.0008 </r>
        <r>  0.0016  0.0229  0.0026 </r>
        <r>  0.0014  0.0211  0.0009 </r>
        <r>  0.0016  0.0229  0.0026 </r>
        <r>  0.0050  0.0287  0.0014 </r>
        <r>  0.0050  0.0287  0.0014 </r>
        <r>  0.0002  0.0140  0.0021 </r>
        <r>  0.0004  0.0026  0.0007 </r>
        <r>  0.0016  0.0044  0.0015 </r>
       </set>
       <set comment="band 94">
        <r>  0.0013  0.0010  0.0015 </r>
        <r>  0.0011  0.0014  0.0028 </r>
        <r>  0.0011  0.0014  0.0028 </r>
        <r>  0.0013  0.0010  0.0015 </r>
        <r>  0.0002  0.0192  0.0007 </r>
        <r>  0.0010  0.0079  0.0009 </r>
        <r>  0.0005  0.0262  0.0009 </r>
        <r>  0.0037  0.0601  0.0042 </r>
        <r>  0.0005  0.0262  0.0009 </r>
        <r>  0.0002  0.0192  0.0007 </r>
        <r>  0.0010  0.0079  0.0009 </r>
        <r>  0.0037  0.0601  0.0042 </r>
        <r>  0.0027  0.0609  0.0023 </r>
        <r>  0.0002  0.0090  0.0028 </r>
        <r>  0.0012  0.0095  0.0012 </r>
        <r>  0.0027  0.0063  0.0012 </r>
        <r>  0.0007  0.0026  0.0007 </r>
        <r>  0.0002  0.0090  0.0028 </r>
        <r>  0.0012  0.0135  0.0011 </r>
        <r>  0.0007  0.0026  0.0007 </r>
        <r>  0.0012  0.0135  0.0011 </r>
        <r>  0.0009  0.0034  0.0007 </r>
        <r>  0.0009  0.0034  0.0007 </r>
        <r>  0.0027  0.0063  0.0012 </r>
        <r>  0.0012  0.0095  0.0012 </r>
        <r>  0.0027  0.0609  0.0023 </r>
       </set>
       <set comment="band 95">
        <r>  0.0019  0.0018  0.0031 </r>
        <r>  0.0008  0.0023  0.0033 </r>
        <r>  0.0008  0.0023  0.0033 </r>
        <r>  0.0019  0.0018  0.0031 </r>
        <r>  0.0001  0.0104  0.0005 </r>
        <r>  0.0023  0.0494  0.0011 </r>
        <r>  0.0008  0.0365  0.0010 </r>
        <r>  0.0038  0.0151  0.0014 </r>
        <r>  0.0008  0.0365  0.0010 </r>
        <r>  0.0001  0.0104  0.0005 </r>
        <r>  0.0023  0.0494  0.0011 </r>
        <r>  0.0038  0.0151  0.0014 </r>
        <r>  0.0010  0.0279  0.0012 </r>
        <r>  0.0010  0.0304  0.0019 </r>
        <r>  0.0009  0.0041  0.0011 </r>
        <r>  0.0001  0.0043  0.0007 </r>
        <r>  0.0002  0.0117  0.0026 </r>
        <r>  0.0010  0.0304  0.0019 </r>
        <r>  0.0016  0.0097  0.0009 </r>
        <r>  0.0002  0.0117  0.0026 </r>
        <r>  0.0016  0.0097  0.0009 </r>
        <r>  0.0003  0.0270  0.0032 </r>
        <r>  0.0003  0.0270  0.0032 </r>
        <r>  0.0001  0.0043  0.0007 </r>
        <r>  0.0009  0.0041  0.0011 </r>
        <r>  0.0010  0.0279  0.0012 </r>
       </set>
       <set comment="band 96">
        <r>  0.0009  0.0004  0.0015 </r>
        <r>  0.0030  0.0024  0.0044 </r>
        <r>  0.0030  0.0024  0.0044 </r>
        <r>  0.0009  0.0004  0.0015 </r>
        <r>  0.0011  0.0324  0.0018 </r>
        <r>  0.0003  0.0175  0.0009 </r>
        <r>  0.0011  0.0325  0.0020 </r>
        <r>  0.0001  0.0214  0.0033 </r>
        <r>  0.0011  0.0325  0.0020 </r>
        <r>  0.0011  0.0324  0.0018 </r>
        <r>  0.0003  0.0175  0.0009 </r>
        <r>  0.0001  0.0214  0.0033 </r>
        <r>  0.0003  0.0203  0.0009 </r>
        <r>  0.0005  0.0147  0.0009 </r>
        <r>  0.0005  0.0025  0.0014 </r>
        <r>  0.0035  0.0250  0.0019 </r>
        <r>  0.0013  0.0103  0.0021 </r>
        <r>  0.0005  0.0147  0.0009 </r>
        <r>  0.0007  0.0299  0.0015 </r>
        <r>  0.0013  0.0103  0.0021 </r>
        <r>  0.0007  0.0299  0.0015 </r>
        <r>  0.0005  0.0125  0.0010 </r>
        <r>  0.0005  0.0125  0.0010 </r>
        <r>  0.0035  0.0250  0.0019 </r>
        <r>  0.0005  0.0025  0.0014 </r>
        <r>  0.0003  0.0203  0.0009 </r>
       </set>
       <set comment="band 97">
        <r>  0.0002  0.0021  0.0026 </r>
        <r>  0.0000  0.0024  0.0032 </r>
        <r>  0.0000  0.0024  0.0032 </r>
        <r>  0.0002  0.0021  0.0026 </r>
        <r>  0.0043  0.0559  0.0024 </r>
        <r>  0.0012  0.0062  0.0006 </r>
        <r>  0.0028  0.0201  0.0020 </r>
        <r>  0.0002  0.0253  0.0025 </r>
        <r>  0.0028  0.0201  0.0020 </r>
        <r>  0.0043  0.0559  0.0024 </r>
        <r>  0.0012  0.0062  0.0006 </r>
        <r>  0.0002  0.0253  0.0025 </r>
        <r>  0.0006  0.0169  0.0022 </r>
        <r>  0.0004  0.0074  0.0013 </r>
        <r>  0.0006  0.0078  0.0008 </r>
        <r>  0.0071  0.0482  0.0023 </r>
        <r>  0.0008  0.0051  0.0014 </r>
        <r>  0.0004  0.0074  0.0013 </r>
        <r>  0.0008  0.0183  0.0009 </r>
        <r>  0.0008  0.0051  0.0014 </r>
        <r>  0.0008  0.0183  0.0009 </r>
        <r>  0.0002  0.0031  0.0007 </r>
        <r>  0.0002  0.0031  0.0007 </r>
        <r>  0.0071  0.0482  0.0023 </r>
        <r>  0.0006  0.0078  0.0008 </r>
        <r>  0.0006  0.0169  0.0022 </r>
       </set>
       <set comment="band 98">
        <r>  0.0003  0.0026  0.0029 </r>
        <r>  0.0028  0.0043  0.0026 </r>
        <r>  0.0028  0.0043  0.0026 </r>
        <r>  0.0003  0.0026  0.0029 </r>
        <r>  0.0012  0.0192  0.0013 </r>
        <r>  0.0004  0.0350  0.0006 </r>
        <r>  0.0041  0.0450  0.0017 </r>
        <r>  0.0013  0.0151  0.0013 </r>
        <r>  0.0041  0.0450  0.0017 </r>
        <r>  0.0012  0.0192  0.0013 </r>
        <r>  0.0004  0.0350  0.0006 </r>
        <r>  0.0013  0.0151  0.0013 </r>
        <r>  0.0000  0.0291  0.0012 </r>
        <r>  0.0011  0.0161  0.0017 </r>
        <r>  0.0005  0.0046  0.0009 </r>
        <r>  0.0005  0.0109  0.0015 </r>
        <r>  0.0020  0.0124  0.0017 </r>
        <r>  0.0011  0.0161  0.0017 </r>
        <r>  0.0007  0.0209  0.0020 </r>
        <r>  0.0020  0.0124  0.0017 </r>
        <r>  0.0007  0.0209  0.0020 </r>
        <r>  0.0019  0.0192  0.0020 </r>
        <r>  0.0019  0.0192  0.0020 </r>
        <r>  0.0005  0.0109  0.0015 </r>
        <r>  0.0005  0.0046  0.0009 </r>
        <r>  0.0000  0.0291  0.0012 </r>
       </set>
      </set>
     </set>
    </set>
   </array>
  </projected>
 </calculation>
 <structure name="finalpos" >
  <crystal>
   <varray name="basis" >
    <v>      -7.83843766      -0.01588649      -0.31019006 </v>
    <v>       2.24623482       9.82951725      -0.03152523 </v>
    <v>      -0.92399501      -2.00428606     -11.80702210 </v>
   </varray>
   <i name="volume">    908.36083652 </i>
   <varray name="rec_basis" >
    <v>      -0.12783523       0.02922899       0.00504241 </v>
    <v>       0.00047794       0.10156976      -0.01727925 </v>
    <v>       0.00335717      -0.00103909      -0.08478170 </v>
   </varray>
  </crystal>
  <varray name="positions" >
   <v>       0.28259887       0.33471861       0.11179025 </v>
   <v>       0.43084827       0.73508508       0.56579607 </v>
   <v>       0.56915173       0.26491492       0.43420393 </v>
   <v>       0.71740113       0.66528139       0.88820975 </v>
   <v>       0.03185291       0.94352548       0.34116035 </v>
   <v>       0.15609326       0.43535373       0.81595638 </v>
   <v>       0.73011877       0.13505206       0.04783739 </v>
   <v>       0.50925626       0.19003857       0.76990922 </v>
   <v>       0.26988123       0.86494794       0.95216261 </v>
   <v>       0.96814709       0.05647452       0.65883965 </v>
   <v>       0.84390674       0.56464627       0.18404362 </v>
   <v>       0.49074374       0.80996143       0.23009078 </v>
   <v>       0.81489415       0.86828787       0.14273883 </v>
   <v>       0.66151175       0.33806325       0.95222212 </v>
   <v>       0.46485694       0.43719720       0.70555762 </v>
   <v>       0.24203854       0.01044022       0.52563687 </v>
   <v>       0.03240170       0.68687778       0.35629356 </v>
   <v>       0.33848825       0.66193675       0.04777788 </v>
   <v>       0.42928624       0.06762455       0.16318471 </v>
   <v>       0.96759830       0.31312222       0.64370644 </v>
   <v>       0.57071376       0.93237545       0.83681529 </v>
   <v>       0.87903191       0.32071008       0.22547523 </v>
   <v>       0.12096809       0.67928992       0.77452477 </v>
   <v>       0.75796146       0.98955978       0.47436313 </v>
   <v>       0.53514306       0.56280280       0.29444238 </v>
   <v>       0.18510585       0.13171213       0.85726117 </v>
  </varray>
 </structure>
</modeling>
