CIS                                     
           1
    -7.800674    0.028328   -0.154420
     2.184061    9.381026   -0.066206
    -0.700313   -1.916663  -11.354394
   K    Sb   Se
   4   8  14
Direct configuration=     1
   0.26668858  0.33070541  0.11209824
   0.42318961  0.73423713  0.55897919
   0.57681039  0.26576287  0.44102081
   0.73331142  0.66929459  0.88790176
   0.02791396  0.94438377  0.34101224
   0.16273823  0.43567745  0.81551812
   0.72911950  0.13746929  0.04718758
   0.50186273  0.18784230  0.76875149
   0.27088050  0.86253071  0.95281242
   0.97208604  0.05561623  0.65898776
   0.83726177  0.56432255  0.18448188
   0.49813727  0.81215770  0.23124851
   0.79969521  0.87227066  0.15488135
   0.64325477  0.32827297  0.95098501
   0.44940239  0.43414871  0.71335892
   0.22183156  0.01201698  0.52915846
   0.02218365  0.68805703  0.35166422
   0.35674523  0.67172703  0.04901499
   0.45231880  0.06716037  0.15679833
   0.97781635  0.31194297  0.64833578
   0.54768120  0.93283963  0.84320167
   0.86489366  0.32400091  0.22262654
   0.13510634  0.67599909  0.77737346
   0.77816844  0.98798302  0.47084154
   0.55059761  0.56585129  0.28664108
   0.20030479  0.12772934  0.84511865
CIS                                     
           1
    -7.927187    0.028362   -0.161438
     2.219957    9.525597   -0.068737
    -0.718827   -1.942628  -11.513297
   K    Sb   Se
   4   8  14
Direct configuration=     2
   0.26665839  0.33070393  0.11210285
   0.42323461  0.73425640  0.55897578
   0.57676539  0.26574360  0.44102422
   0.73334161  0.66929607  0.88789715
   0.02968953  0.94553982  0.33952893
   0.16186144  0.43513605  0.81756888
   0.73123429  0.13638763  0.04604252
   0.50342806  0.18712047  0.76713580
   0.26876571  0.86361237  0.95395748
   0.97031047  0.05446018  0.66047107
   0.83813856  0.56486395  0.18243112
   0.49657194  0.81287953  0.23286420
   0.80172254  0.87274644  0.15388412
   0.64378300  0.33026677  0.95155863
   0.45152851  0.43507676  0.71233615
   0.22457620  0.01185516  0.52879270
   0.02352802  0.68716090  0.35288662
   0.35621700  0.66973323  0.04844137
   0.45009295  0.06735476  0.15776391
   0.97647198  0.31283910  0.64711338
   0.54990705  0.93264524  0.84223609
   0.86590624  0.32325205  0.22374436
   0.13409376  0.67674795  0.77625564
   0.77542380  0.98814484  0.47120730
   0.54847149  0.56492324  0.28766385
   0.19827746  0.12725356  0.84611588
CIS                                     
           1
    -8.232853    0.028444   -0.178396
     2.306685    9.874893   -0.074853
    -0.763559   -2.005360  -11.897221
   K    Sb   Se
   4   8  14
Direct configuration=     3
   0.26658661  0.33070042  0.11211387
   0.42334162  0.73430224  0.55896760
   0.57665838  0.26569776  0.44103240
   0.73341339  0.66929958  0.88788613
   0.03391588  0.94829062  0.33599248
   0.15977093  0.43384754  0.82245640
   0.73626474  0.13381402  0.04331245
   0.50715361  0.18540318  0.76328473
   0.26373526  0.86618598  0.95668755
   0.96608412  0.05170938  0.66400752
   0.84022907  0.56615246  0.17754360
   0.49284639  0.81459682  0.23671527
   0.80654572  0.87387853  0.15150587
   0.64503874  0.33501057  0.95292432
   0.45658694  0.43728494  0.70989681
   0.23110272  0.01146996  0.52791865
   0.02672050  0.68502831  0.35579836
   0.35496126  0.66498943  0.04707568
   0.44479833  0.06781729  0.16006670
   0.97327950  0.31497169  0.64420164
   0.55520167  0.93218271  0.83993330
   0.86831023  0.32146994  0.22640717
   0.13168977  0.67853006  0.77359283
   0.76889728  0.98853004  0.47208135
   0.54341306  0.56271506  0.29010319
   0.19345428  0.12612147  0.84849413
CIS                                     
           1
    -8.131288    0.028417   -0.172762
     2.277867    9.758830   -0.072821
    -0.748696   -1.984516  -11.769652
   K    Sb   Se
   4   8  14
Direct configuration=     4
   0.26660959  0.33070155  0.11211030
   0.42330736  0.73428755  0.55897027
   0.57669264  0.26571245  0.44102973
   0.73339041  0.66929845  0.88788970
   0.03256011  0.94740888  0.33713117
   0.16044413  0.43426075  0.82088401
   0.73465348  0.13463883  0.04419154
   0.50595876  0.18595344  0.76452401
   0.26534652  0.86536117  0.95580846
   0.96743989  0.05259112  0.66286883
   0.83955587  0.56573925  0.17911599
   0.49404124  0.81404656  0.23547599
   0.80500029  0.87351568  0.15227214
   0.64463709  0.33349029  0.95248600
   0.45496597  0.43657720  0.71068290
   0.22901387  0.01159353  0.52820156
   0.02570190  0.68571207  0.35486275
   0.35536291  0.66650971  0.04751400
   0.44649420  0.06766905  0.15932472
   0.97429810  0.31428793  0.64513725
   0.55350580  0.93233095  0.84067528
   0.86754364  0.32204134  0.22555142
   0.13245636  0.67795866  0.77444858
   0.77098613  0.98840647  0.47179844
   0.54503403  0.56342280  0.28931710
   0.19499971  0.12648432  0.84772786
CIS                                     
           1
    -8.107438    0.028410   -0.171439
     2.271100    9.731577   -0.072344
    -0.745206   -1.979621  -11.739697
   K    Sb   Se
   4   8  14
Direct configuration=     5
   0.26661505  0.33070181  0.11210946
   0.42329922  0.73428406  0.55897090
   0.57670078  0.26571594  0.44102910
   0.73338495  0.66929819  0.88789054
   0.03223805  0.94719937  0.33740134
   0.16060385  0.43435892  0.82051084
   0.73427055  0.13483482  0.04440011
   0.50567490  0.18608420  0.76481809
   0.26572945  0.86516518  0.95559989
   0.96776195  0.05280063  0.66259866
   0.83939615  0.56564108  0.17948916
   0.49432510  0.81391580  0.23518191
   0.80463305  0.87342946  0.15245391
   0.64454159  0.33312904  0.95238189
   0.45458078  0.43640903  0.71086935
   0.22851730  0.01162288  0.52826857
   0.02545951  0.68587452  0.35464062
   0.35545841  0.66687096  0.04761811
   0.44689725  0.06763383  0.15914872
   0.97454049  0.31412548  0.64535938
   0.55310275  0.93236617  0.84085128
   0.86736118  0.32217709  0.22534826
   0.13263882  0.67782291  0.77465174
   0.77148270  0.98837712  0.47173143
   0.54541922  0.56359097  0.28913065
   0.19536695  0.12657054  0.84754609
CIS                                     
           1
    -8.111489    0.028411   -0.171663
     2.272250    9.736205   -0.072425
    -0.745798   -1.980452  -11.744785
   K    Sb   Se
   4   8  14
Direct configuration=     6
   0.26661412  0.33070177  0.11210960
   0.42330061  0.73428466  0.55897079
   0.57669939  0.26571534  0.44102921
   0.73338588  0.66929823  0.88789040
   0.03229290  0.94723505  0.33735534
   0.16057666  0.43434220  0.82057438
   0.73433577  0.13480144  0.04436460
   0.50572324  0.18606193  0.76476802
   0.26566423  0.86519856  0.95563540
   0.96770710  0.05276495  0.66264466
   0.83942334  0.56565780  0.17942562
   0.49427676  0.81393807  0.23523198
   0.80469559  0.87344414  0.15242296
   0.64455786  0.33319057  0.95239962
   0.45464638  0.43643767  0.71083761
   0.22860188  0.01161788  0.52825717
   0.02550081  0.68584686  0.35467845
   0.35544214  0.66680943  0.04760038
   0.44682860  0.06763983  0.15917868
   0.97449919  0.31415314  0.64532155
   0.55317140  0.93236017  0.84082132
   0.86739227  0.32215397  0.22538285
   0.13260773  0.67784603  0.77461715
   0.77139812  0.98838212  0.47174283
   0.54535362  0.56356233  0.28916239
   0.19530441  0.12655586  0.84757704
CIS                                     
           1
    -8.119601    0.028414   -0.172113
     2.274552    9.745476   -0.072587
    -0.746986   -1.982117  -11.754974
   K    Sb   Se
   4   8  14
Direct configuration=     7
   0.26661226  0.33070168  0.11210989
   0.42330339  0.73428585  0.55897058
   0.57669661  0.26571415  0.44102942
   0.73338774  0.66929832  0.88789011
   0.03240270  0.94730648  0.33726326
   0.16052222  0.43430873  0.82070158
   0.73446633  0.13473462  0.04429351
   0.50582002  0.18601734  0.76466778
   0.26553367  0.86526538  0.95570649
   0.96759730  0.05269352  0.66273674
   0.83947778  0.56569127  0.17929842
   0.49417998  0.81398266  0.23533222
   0.80482081  0.87347354  0.15236101
   0.64459042  0.33331374  0.95243511
   0.45477771  0.43649500  0.71077406
   0.22877120  0.01160788  0.52823433
   0.02558348  0.68579147  0.35475417
   0.35540958  0.66668626  0.04756489
   0.44669117  0.06765184  0.15923867
   0.97441652  0.31420853  0.64524583
   0.55330883  0.93234816  0.84076133
   0.86745450  0.32210769  0.22545211
   0.13254550  0.67789231  0.77454789
   0.77122880  0.98839212  0.47176567
   0.54522229  0.56350500  0.28922594
   0.19517919  0.12652646  0.84763899
CIS                                     
           1
    -8.113653    0.028412   -0.171783
     2.272864    9.738678   -0.072468
    -0.746115   -1.980896  -11.747503
   K    Sb   Se
   4   8  14
Direct configuration=     8
   0.26661362  0.33070174  0.11210968
   0.42330135  0.73428497  0.55897073
   0.57669865  0.26571503  0.44102927
   0.73338638  0.66929826  0.88789032
   0.03232226  0.94725416  0.33733073
   0.16056210  0.43433325  0.82060839
   0.73437069  0.13478357  0.04434560
   0.50574912  0.18605000  0.76474122
   0.26562931  0.86521643  0.95565440
   0.96767774  0.05274584  0.66266927
   0.83943790  0.56566675  0.17939161
   0.49425088  0.81395000  0.23525878
   0.80472908  0.87345200  0.15240640
   0.64456657  0.33322351  0.95240911
   0.45468151  0.43645300  0.71082062
   0.22864717  0.01161521  0.52825106
   0.02552293  0.68583204  0.35469869
   0.35543343  0.66677649  0.04759089
   0.44679184  0.06764304  0.15919472
   0.97447707  0.31416796  0.64530131
   0.55320816  0.93235696  0.84080528
   0.86740892  0.32214159  0.22540137
   0.13259108  0.67785841  0.77459863
   0.77135283  0.98838479  0.47174894
   0.54531849  0.56354700  0.28917938
   0.19527092  0.12654800  0.84759360
CIS                                     
           1
    -8.113048    0.028412   -0.171750
     2.272692    9.737987   -0.072456
    -0.746027   -1.980772  -11.746743
   K    Sb   Se
   4   8  14
Direct configuration=     9
   0.26661376  0.33070175  0.11210966
   0.42330114  0.73428489  0.55897075
   0.57669886  0.26571511  0.44102925
   0.73338624  0.66929825  0.88789034
   0.03231408  0.94724883  0.33733759
   0.16056616  0.43433575  0.82059891
   0.73436096  0.13478854  0.04435089
   0.50574191  0.18605332  0.76474869
   0.26563904  0.86521146  0.95564911
   0.96768592  0.05275117  0.66266241
   0.83943384  0.56566425  0.17940109
   0.49425809  0.81394668  0.23525131
   0.80471975  0.87344981  0.15241101
   0.64456414  0.33321433  0.95240647
   0.45467172  0.43644873  0.71082536
   0.22863455  0.01161595  0.52825276
   0.02551677  0.68583617  0.35469305
   0.35543586  0.66678567  0.04759353
   0.44680208  0.06764215  0.15919025
   0.97448323  0.31416383  0.64530695
   0.55319792  0.93235785  0.84080975
   0.86740428  0.32214504  0.22539621
   0.13259572  0.67785496  0.77460379
   0.77136545  0.98838405  0.47174724
   0.54532828  0.56355127  0.28917464
   0.19528025  0.12655019  0.84758899
CIS                                     
           1
    -8.108089    0.026098   -0.183699
     2.274004    9.747763   -0.072320
    -0.763379   -1.978993  -11.749129
   K    Sb   Se
   4   8  14
Direct configuration=    10
   0.26673030  0.33073440  0.11213864
   0.42331966  0.73432375  0.55902917
   0.57668034  0.26567625  0.44097083
   0.73326970  0.66926560  0.88786136
   0.03225602  0.94715303  0.33758809
   0.16045486  0.43426620  0.82046521
   0.73383080  0.13468275  0.04431238
   0.50576304  0.18601186  0.76476437
   0.26616920  0.86531725  0.95568762
   0.96774398  0.05284697  0.66241191
   0.83954514  0.56573380  0.17953479
   0.49423696  0.81398814  0.23523563
   0.80472424  0.87339300  0.15218019
   0.64463583  0.33335161  0.95240151
   0.45477692  0.43665869  0.71084025
   0.22878976  0.01160711  0.52835976
   0.02563979  0.68596634  0.35461367
   0.35536417  0.66664839  0.04759849
   0.44668697  0.06772725  0.15921907
   0.97436021  0.31403366  0.64538633
   0.55331303  0.93227275  0.84078093
   0.86784650  0.32206946  0.22546122
   0.13215350  0.67793054  0.77453878
   0.77121024  0.98839289  0.47164024
   0.54522308  0.56334131  0.28915975
   0.19527576  0.12660700  0.84781981
CIS                                     
           1
    -8.093211    0.019158   -0.219546
     2.277941    9.777088   -0.071913
    -0.815438   -1.973655  -11.756288
   K    Sb   Se
   4   8  14
Direct configuration=    11
   0.26707998  0.33083226  0.11222521
   0.42337487  0.73444017  0.55920435
   0.57662513  0.26555983  0.44079565
   0.73292002  0.66916774  0.88777479
   0.03208010  0.94686576  0.33833963
   0.16012163  0.43405786  0.82006451
   0.73223949  0.13436565  0.04419849
   0.50582638  0.18588756  0.76481134
   0.26776051  0.86563435  0.95580151
   0.96791990  0.05313424  0.66166037
   0.83987837  0.56594214  0.17993549
   0.49417362  0.81411244  0.23518866
   0.80473924  0.87322286  0.15148781
   0.64485102  0.33376302  0.95238643
   0.45509255  0.43728793  0.71088462
   0.22925502  0.01158057  0.52868022
   0.02600958  0.68635653  0.35437519
   0.35514898  0.66623698  0.04761357
   0.44634118  0.06798230  0.15930587
   0.97399042  0.31364347  0.64562481
   0.55365882  0.93201770  0.84069413
   0.86917371  0.32184295  0.22565486
   0.13082629  0.67815705  0.77434514
   0.77074498  0.98841943  0.47131978
   0.54490745  0.56271207  0.28911538
   0.19526076  0.12677714  0.84851219
CIS                                     
           1
    -8.063456    0.005277   -0.291240
     2.285815    9.835739   -0.071098
    -0.919554   -1.962978  -11.770606
   K    Sb   Se
   4   8  14
Direct configuration=    12
   0.26777966  0.33102733  0.11239613
   0.42348313  0.73467212  0.55955422
   0.57651687  0.26532788  0.44044578
   0.73222034  0.66897267  0.88760387
   0.03171784  0.94629194  0.33984305
   0.15945913  0.43364288  0.81926554
   0.72905166  0.13373324  0.04398063
   0.50595280  0.18563968  0.76490484
   0.27094834  0.86626676  0.95601937
   0.96828216  0.05370806  0.66015695
   0.84054087  0.56635712  0.18073446
   0.49404720  0.81436032  0.23509516
   0.80477851  0.87288449  0.15010362
   0.64528225  0.33458345  0.95235499
   0.45572415  0.43854264  0.71097144
   0.23018339  0.01152731  0.52931795
   0.02675363  0.68713495  0.35389622
   0.35471775  0.66541655  0.04764501
   0.44564676  0.06849069  0.15948154
   0.97324637  0.31286505  0.64610378
   0.55435324  0.93150931  0.84051846
   0.87183151  0.32139126  0.22603372
   0.12816849  0.67860874  0.77396628
   0.76981661  0.98847269  0.47068205
   0.54427585  0.56145736  0.28902856
   0.19522149  0.12711551  0.84989638
CIS                                     
           1
    -8.084315    0.015008   -0.240980
     2.280295    9.794623   -0.071669
    -0.846565   -1.970463  -11.760569
   K    Sb   Se
   4   8  14
Direct configuration=    13
   0.26728866  0.33089146  0.11227944
   0.42341024  0.73451078  0.55930962
   0.57658976  0.26548922  0.44069038
   0.73271134  0.66910854  0.88772056
   0.03198651  0.94669318  0.33878851
   0.15991804  0.43393145  0.81982231
   0.73129403  0.13417414  0.04411942
   0.50586452  0.18581249  0.76483992
   0.26870597  0.86582586  0.95588058
   0.96801349  0.05330682  0.66121149
   0.84008196  0.56606855  0.18017769
   0.49413548  0.81418751  0.23516008
   0.80473791  0.87311907  0.15107333
   0.64497873  0.33401164  0.95237881
   0.45528085  0.43766827  0.71091327
   0.22953554  0.01156488  0.52887532
   0.02622568  0.68659198  0.35423487
   0.35502127  0.66598836  0.04762119
   0.44613761  0.06813665  0.15935543
   0.97377432  0.31340802  0.64576513
   0.55386239  0.93186335  0.84064457
   0.86996329  0.32170605  0.22577995
   0.13003671  0.67829395  0.77422005
   0.77046446  0.98843512  0.47112468
   0.54471915  0.56233173  0.28908673
   0.19526209  0.12688093  0.84892667
CIS                                     
           1
    -8.079194    0.014459   -0.250115
     2.279320    9.797109   -0.067659
    -0.859665   -1.972592  -11.753560
   K    Sb   Se
   4   8  14
Direct configuration=    14
   0.26764785  0.33098876  0.11234183
   0.42347696  0.73459529  0.55945822
   0.57652304  0.26540471  0.44054178
   0.73235215  0.66901124  0.88765817
   0.03170251  0.94613500  0.33925630
   0.15937788  0.43393763  0.81926774
   0.73117615  0.13459263  0.04407306
   0.50625420  0.18604551  0.76504374
   0.26882385  0.86540737  0.95592694
   0.96829749  0.05386500  0.66074370
   0.84062212  0.56606237  0.18073226
   0.49374580  0.81395449  0.23495626
   0.80523744  0.87302135  0.15050358
   0.64501973  0.33401795  0.95215379
   0.45584953  0.43803390  0.71086912
   0.23025670  0.01140168  0.52874807
   0.02647043  0.68692191  0.35398352
   0.35498027  0.66598205  0.04784621
   0.44524504  0.06811865  0.15971537
   0.97352957  0.31307809  0.64601648
   0.55475496  0.93188135  0.84028463
   0.87083688  0.32173420  0.22570816
   0.12916312  0.67826580  0.77429184
   0.76974330  0.98859832  0.47125193
   0.54415047  0.56196610  0.28913088
   0.19476256  0.12697865  0.84949642
CIS                                     
           1
    -8.063830    0.012811   -0.277521
     2.276395    9.804566   -0.055629
    -0.898964   -1.978982  -11.732535
   K    Sb   Se
   4   8  14
Direct configuration=    15
   0.26872582  0.33128058  0.11252835
   0.42367649  0.73484894  0.55990422
   0.57632351  0.26515106  0.44009578
   0.73127418  0.66871942  0.88747165
   0.03084804  0.94446134  0.34066065
   0.15775894  0.43395577  0.81760430
   0.73082220  0.13584784  0.04393461
   0.50742294  0.18674452  0.76565488
   0.26917780  0.86415216  0.95606539
   0.96915196  0.05553866  0.65933935
   0.84224106  0.56604423  0.18239570
   0.49257706  0.81325548  0.23434512
   0.80673986  0.87272749  0.14879196
   0.64514387  0.33403661  0.95147820
   0.45755675  0.43913035  0.71073559
   0.23242237  0.01091181  0.52836421
   0.02720618  0.68791119  0.35322879
   0.35485613  0.66596339  0.04852180
   0.44256376  0.06806534  0.16079797
   0.97279382  0.31208881  0.64677121
   0.55743624  0.93193466  0.83920203
   0.87345978  0.32181831  0.22549062
   0.12654022  0.67818169  0.77450938
   0.76757763  0.98908819  0.47163579
   0.54244325  0.56086965  0.28926441
   0.19326014  0.12727251  0.85120804
CIS                                     
           1
    -8.059303    0.012326   -0.285595
     2.275533    9.806763   -0.052084
    -0.910544   -1.980865  -11.726340
   K    Sb   Se
   4   8  14
Direct configuration=    16
   0.26904378  0.33136647  0.11258275
   0.42373472  0.73492375  0.56003581
   0.57626528  0.26507625  0.43996419
   0.73095622  0.66863353  0.88741725
   0.03059408  0.94396899  0.34107530
   0.15728328  0.43396075  0.81711439
   0.73071766  0.13621747  0.04389437
   0.50776702  0.18695045  0.76583469
   0.26928234  0.86378253  0.95610563
   0.96940592  0.05603101  0.65892470
   0.84271672  0.56603925  0.18288561
   0.49223298  0.81304955  0.23416531
   0.80718592  0.87264029  0.14828555
   0.64518148  0.33404189  0.95127868
   0.45806079  0.43945304  0.71069532
   0.23306242  0.01076723  0.52824923
   0.02742429  0.68820221  0.35300577
   0.35481852  0.66595811  0.04872132
   0.44177058  0.06805022  0.16111942
   0.97257571  0.31179779  0.64699423
   0.55822942  0.93194978  0.83888058
   0.87423449  0.32184277  0.22542458
   0.12576551  0.67815723  0.77457542
   0.76693758  0.98923277  0.47175077
   0.54193921  0.56054696  0.28930468
   0.19281408  0.12735971  0.85171445
CIS                                     
           1
    -8.047380    0.004679   -0.293677
     2.281273    9.822095   -0.047305
    -0.922535   -1.987472  -11.735065
   K    Sb   Se
   4   8  14
Direct configuration=    17
   0.26992873  0.33152816  0.11265130
   0.42395121  0.73508226  0.56040263
   0.57604879  0.26491774  0.43959737
   0.73007127  0.66847184  0.88734870
   0.03047429  0.94389308  0.34096949
   0.15663391  0.43443047  0.81678685
   0.73082607  0.13657753  0.04436505
   0.50793471  0.18705148  0.76610844
   0.26917393  0.86342247  0.95563495
   0.96952571  0.05610692  0.65903051
   0.84336609  0.56556953  0.18321315
   0.49206529  0.81294852  0.23389156
   0.80823364  0.87243067  0.14739499
   0.64530186  0.33438069  0.95107661
   0.45952143  0.44002150  0.71037883
   0.23499857  0.01020965  0.52752080
   0.02833448  0.68823390  0.35333437
   0.35469814  0.66561931  0.04892339
   0.43977901  0.06791298  0.16187973
   0.97166552  0.31176610  0.64666563
   0.56022099  0.93208702  0.83812027
   0.87559442  0.32181554  0.22514512
   0.12440558  0.67818446  0.77485488
   0.76500143  0.98979035  0.47247920
   0.54047857  0.55997850  0.28962117
   0.19176636  0.12756933  0.85260501
CIS                                     
           1
    -8.030880   -0.005903   -0.304861
     2.289216    9.843311   -0.040692
    -0.939130   -1.996616  -11.747140
   K    Sb   Se
   4   8  14
Direct configuration=    18
   0.27115549  0.33175240  0.11274529
   0.42425075  0.73530176  0.56090978
   0.57574925  0.26469824  0.43909022
   0.72884451  0.66824760  0.88725471
   0.03030837  0.94378799  0.34082323
   0.15573441  0.43507875  0.81633484
   0.73097567  0.13707551  0.04501603
   0.50816673  0.18719144  0.76648690
   0.26902433  0.86292449  0.95498397
   0.96969163  0.05621201  0.65917677
   0.84426559  0.56492125  0.18366516
   0.49183327  0.81280856  0.23351310
   0.80968758  0.87214128  0.14616225
   0.64546920  0.33484883  0.95079724
   0.46154707  0.44080806  0.70993999
   0.23768374  0.00944030  0.52651116
   0.02959571  0.68827873  0.35378788
   0.35453080  0.66515117  0.04920276
   0.43701671  0.06772215  0.16293312
   0.97040429  0.31172127  0.64621212
   0.56298329  0.93227785  0.83706688
   0.87748018  0.32177889  0.22475726
   0.12251982  0.67822111  0.77524274
   0.76231626  0.99055970  0.47348884
   0.53845293  0.55919194  0.29006001
   0.19031242  0.12785872  0.85383775
CIS                                     
           1
    -7.983888   -0.013129   -0.316671
     2.284774    9.830737   -0.044549
    -0.952710   -1.985882  -11.747282
   K    Sb   Se
   4   8  14
Direct configuration=    19
   0.27242186  0.33191492  0.11274823
   0.42458936  0.73544451  0.56139940
   0.57541064  0.26455549  0.43860060
   0.72757814  0.66808508  0.88725177
   0.02985606  0.94422512  0.34039377
   0.15610019  0.43569387  0.81540635
   0.73058057  0.13704954  0.04559352
   0.50748943  0.18714061  0.76680812
   0.26941943  0.86295046  0.95440648
   0.97014394  0.05577488  0.65960623
   0.84389981  0.56430613  0.18459365
   0.49251057  0.81285939  0.23319188
   0.81049319  0.87197495  0.14549466
   0.64635195  0.33512693  0.95113923
   0.46271463  0.44089930  0.70953202
   0.23922787  0.00901750  0.52562257
   0.03064763  0.68816758  0.35451201
   0.35364805  0.66487307  0.04886077
   0.43521867  0.06739323  0.16351269
   0.96935237  0.31183242  0.64548799
   0.56478133  0.93260677  0.83648731
   0.87853354  0.32170907  0.22435044
   0.12146646  0.67829093  0.77564956
   0.76077213  0.99098250  0.47437743
   0.53728537  0.55910070  0.29046798
   0.18950681  0.12802505  0.85450534
CIS                                     
           1
    -7.939328   -0.019982   -0.327870
     2.280562    9.818813   -0.048205
    -0.965587   -1.975704  -11.747417
   K    Sb   Se
   4   8  14
Direct configuration=    20
   0.27363010  0.33206982  0.11274956
   0.42491148  0.73557970  0.56186328
   0.57508852  0.26442030  0.43813672
   0.72636990  0.66793018  0.88725044
   0.02942524  0.94464036  0.33998688
   0.15645086  0.43627899  0.81452526
   0.73020251  0.13702410  0.04614160
   0.50684259  0.18709169  0.76711351
   0.26979749  0.86297590  0.95385840
   0.97057476  0.05535964  0.66001312
   0.84354914  0.56372101  0.18547474
   0.49315741  0.81290831  0.23288649
   0.81126314  0.87181812  0.14486072
   0.64719351  0.33539105  0.95146247
   0.46382940  0.44098691  0.70914380
   0.24070293  0.00861774  0.52477833
   0.03164992  0.68806181  0.35519757
   0.35280649  0.66460895  0.04853753
   0.43350207  0.06707948  0.16406441
   0.96835008  0.31193819  0.64480243
   0.56649793  0.93292052  0.83593559
   0.87953936  0.32164371  0.22396350
   0.12046064  0.67835629  0.77603650
   0.75929707  0.99138226  0.47522167
   0.53617060  0.55901309  0.29085620
   0.18873686  0.12818188  0.85513928
CIS                                     
           1
    -7.947379   -0.018744   -0.325847
     2.281323    9.820967   -0.047545
    -0.963260   -1.977543  -11.747393
   K    Sb   Se
   4   8  14
Direct configuration=    21
   0.27341052  0.33204170  0.11274957
   0.42485310  0.73555530  0.56177954
   0.57514690  0.26444470  0.43822046
   0.72658948  0.66795830  0.88725043
   0.02950341  0.94456521  0.34006034
   0.15638684  0.43617296  0.81468457
   0.73027141  0.13702883  0.04604249
   0.50696025  0.18710065  0.76705819
   0.26972859  0.86297117  0.95395751
   0.97049659  0.05543479  0.65993966
   0.84361316  0.56382704  0.18531543
   0.49303975  0.81289935  0.23294181
   0.81112298  0.87184630  0.14497541
   0.64704068  0.33534326  0.95140425
   0.46362667  0.44097089  0.70921418
   0.24043455  0.00868977  0.52493114
   0.03146800  0.68808099  0.35507390
   0.35295932  0.66465674  0.04859575
   0.43381423  0.06713649  0.16396436
   0.96853200  0.31191901  0.64492610
   0.56618577  0.93286351  0.83603564
   0.87935642  0.32165537  0.22403362
   0.12064358  0.67834463  0.77596638
   0.75956545  0.99131023  0.47506886
   0.53637333  0.55902911  0.29078582
   0.18887702  0.12815370  0.85502459
CIS                                     
           1
    -7.928972   -0.017020   -0.322689
     2.273945    9.816882   -0.047709
    -0.956203   -1.977407  -11.740819
   K    Sb   Se
   4   8  14
Direct configuration=    22
   0.27430529  0.33212512  0.11263676
   0.42512090  0.73553371  0.56204299
   0.57487910  0.26446629  0.43795701
   0.72569471  0.66787488  0.88736324
   0.02905583  0.94448917  0.34011901
   0.15632271  0.43583201  0.81482740
   0.72895270  0.13681172  0.04628924
   0.50675427  0.18708676  0.76708801
   0.27104730  0.86318828  0.95371076
   0.97094417  0.05551083  0.65988099
   0.84367729  0.56416799  0.18517260
   0.49324573  0.81291324  0.23291199
   0.81212550  0.87202610  0.14465998
   0.64785594  0.33550167  0.95162661
   0.46430010  0.44071067  0.70877641
   0.24065386  0.00874943  0.52463130
   0.03167671  0.68811374  0.35570587
   0.35214406  0.66449833  0.04837339
   0.43318267  0.06706691  0.16411569
   0.96832329  0.31188626  0.64429413
   0.56681733  0.93293309  0.83588431
   0.87917683  0.32109072  0.22409842
   0.12082317  0.67890928  0.77590158
   0.75934614  0.99125057  0.47536870
   0.53569990  0.55928933  0.29122359
   0.18787450  0.12797390  0.85534002
CIS                                     
           1
    -7.920454   -0.016223   -0.321228
     2.270530    9.814991   -0.047785
    -0.952937   -1.977345  -11.737778
   K    Sb   Se
   4   8  14
Direct configuration=    23
   0.27472020  0.33216368  0.11258461
   0.42524522  0.73552371  0.56216499
   0.57475478  0.26447629  0.43783501
   0.72527980  0.66783632  0.88741539
   0.02884829  0.94445400  0.34014613
   0.15629316  0.43567418  0.81489352
   0.72834128  0.13671130  0.04640335
   0.50665875  0.18708035  0.76710179
   0.27165872  0.86328870  0.95359665
   0.97115171  0.05554600  0.65985387
   0.84370684  0.56432582  0.18510648
   0.49334125  0.81291965  0.23289821
   0.81259026  0.87210926  0.14451404
   0.64823408  0.33557497  0.95172964
   0.46461235  0.44059015  0.70857379
   0.24075544  0.00877702  0.52449249
   0.03177374  0.68812892  0.35599850
   0.35176592  0.66442503  0.04827036
   0.43288985  0.06703474  0.16418569
   0.96822626  0.31187108  0.64400150
   0.56711015  0.93296526  0.83581431
   0.87909378  0.32082934  0.22412841
   0.12090622  0.67917066  0.77587159
   0.75924456  0.99122298  0.47550751
   0.53538765  0.55940985  0.29142621
   0.18740974  0.12789074  0.85548596
CIS                                     
           1
    -7.912713   -0.012403   -0.315267
     2.263649    9.811079   -0.048443
    -0.942266   -1.977564  -11.736591
   K    Sb   Se
   4   8  14
Direct configuration=    24
   0.27555545  0.33224770  0.11245217
   0.42554607  0.73545363  0.56240934
   0.57445393  0.26454637  0.43759066
   0.72444455  0.66775230  0.88754783
   0.02882365  0.94386405  0.33984169
   0.15636311  0.43534570  0.81524387
   0.72854469  0.13661660  0.04665715
   0.50680520  0.18725848  0.76683902
   0.27145531  0.86338340  0.95334285
   0.97117635  0.05613595  0.66015831
   0.84363689  0.56465430  0.18475613
   0.49319480  0.81274152  0.23316098
   0.81366789  0.87231231  0.14426501
   0.64919968  0.33593206  0.95193467
   0.46486799  0.44023294  0.70814250
   0.24092942  0.00899944  0.52433647
   0.03174915  0.68815660  0.35660031
   0.35080032  0.66406794  0.04806533
   0.43213223  0.06702540  0.16438326
   0.96825085  0.31184340  0.64339969
   0.56786777  0.93297460  0.83561674
   0.87870445  0.32023675  0.22429829
   0.12129555  0.67976325  0.77570171
   0.75907058  0.99100056  0.47566353
   0.53513201  0.55976706  0.29185750
   0.18633211  0.12768769  0.85573499
CIS                                     
           1
    -7.908231   -0.010191   -0.311815
     2.259664    9.808814   -0.048825
    -0.936087   -1.977691  -11.735904
   K    Sb   Se
   4   8  14
Direct configuration=    25
   0.27603938  0.33229623  0.11237571
   0.42572066  0.73541300  0.56255093
   0.57427934  0.26458700  0.43744907
   0.72396062  0.66770377  0.88762429
   0.02880938  0.94352230  0.33966539
   0.15640406  0.43515541  0.81544678
   0.72866282  0.13656172  0.04680419
   0.50688979  0.18736164  0.76668689
   0.27133718  0.86343828  0.95319581
   0.97119062  0.05647770  0.66033461
   0.84359594  0.56484459  0.18455322
   0.49311021  0.81263836  0.23331311
   0.81429214  0.87242974  0.14412110
   0.64975929  0.33613876  0.95205367
   0.46501596  0.44002596  0.70789282
   0.24103003  0.00912825  0.52424617
   0.03173535  0.68817266  0.35694881