  16  16   1   0
  0.3391098E+02  0.6801577E-09  0.6754273E-09  0.1274025E-08  0.1000000E-15
  1.000000000000000E-004
  CAR 
 CIS                                     
      8.71376708    -13.14177830  301      1.21458307      1.00000000
    -13.142  0.0000E+00  0.0000E+00
    -13.069  0.0000E+00  0.0000E+00
    -12.996  0.0000E+00  0.0000E+00
    -12.923  0.0000E+00  0.0000E+00
    -12.850  0.0000E+00  0.0000E+00
    -12.778  0.0000E+00  0.0000E+00
    -12.705  0.0000E+00  0.0000E+00
    -12.632  0.0000E+00  0.0000E+00
    -12.559  0.0000E+00  0.0000E+00
    -12.486  0.0000E+00  0.0000E+00
    -12.413  0.1753E-14  0.1277E-15
    -12.340  0.1702E-08  0.1240E-09
    -12.268  0.2904E-04  0.2116E-05
    -12.195  0.1060E-01  0.7747E-03
    -12.122  0.1417E+00  0.1110E-01
    -12.049  0.3704E+00  0.3808E-01
    -11.976  0.9806E+00  0.1095E+00
    -11.903  0.1419E+01  0.2129E+00
    -11.830  0.3998E+00  0.2420E+00
    -11.758  0.2613E-01  0.2439E+00
    -11.685  0.2002E-01  0.2454E+00
    -11.612  0.8768E-01  0.2518E+00
    -11.539  0.1256E+00  0.2609E+00
    -11.466  0.6084E-01  0.2653E+00
    -11.393  0.1056E+00  0.2730E+00
    -11.320  0.8107E-01  0.2789E+00
    -11.248  0.5110E-01  0.2827E+00
    -11.175  0.4081E-01  0.2856E+00
    -11.102  0.1072E+00  0.2935E+00
    -11.029  0.3922E-01  0.2963E+00
    -10.956  0.4091E-01  0.2993E+00
    -10.883  0.4920E-01  0.3029E+00
    -10.811  0.3428E-01  0.3054E+00
    -10.738  0.9899E-01  0.3126E+00
    -10.665  0.6411E-01  0.3173E+00
    -10.592  0.1951E+00  0.3315E+00
    -10.519  0.2982E+00  0.3532E+00
    -10.446  0.2580E+00  0.3720E+00
    -10.373  0.3439E+00  0.3970E+00
    -10.301  0.9476E-01  0.4039E+00
    -10.228  0.1342E-02  0.4040E+00
    -10.155  0.5200E-06  0.4040E+00
    -10.082  0.4141E-11  0.4040E+00
    -10.009  0.0000E+00  0.4040E+00
     -9.936  0.0000E+00  0.4040E+00
     -9.863  0.0000E+00  0.4040E+00
     -9.791  0.0000E+00  0.4040E+00
     -9.718  0.0000E+00  0.4040E+00
     -9.645  0.0000E+00  0.4040E+00
     -9.572  0.0000E+00  0.4040E+00
     -9.499  0.0000E+00  0.4040E+00
     -9.426  0.0000E+00  0.4040E+00
     -9.353  0.0000E+00  0.4040E+00
     -9.281  0.0000E+00  0.4040E+00
     -9.208  0.0000E+00  0.4040E+00
     -9.135  0.0000E+00  0.4040E+00
     -9.062  0.0000E+00  0.4040E+00
     -8.989  0.0000E+00  0.4040E+00
     -8.916  0.0000E+00  0.4040E+00
     -8.844  0.0000E+00  0.4040E+00
     -8.771  0.0000E+00  0.4040E+00
     -8.698  0.0000E+00  0.4040E+00
     -8.625  0.0000E+00  0.4040E+00
     -8.552  0.0000E+00  0.4040E+00
     -8.479  0.0000E+00  0.4040E+00
     -8.406  0.0000E+00  0.4040E+00
     -8.334  0.0000E+00  0.4040E+00
     -8.261  0.0000E+00  0.4040E+00
     -8.188  0.0000E+00  0.4040E+00
     -8.115  0.0000E+00  0.4040E+00
     -8.042  0.0000E+00  0.4040E+00
     -7.969  0.0000E+00  0.4040E+00
     -7.896  0.6139E-14  0.4040E+00
     -7.824  0.3632E-08  0.4040E+00
     -7.751  0.3619E-04  0.4040E+00
     -7.678  0.7132E-02  0.4046E+00
     -7.605  0.4386E-01  0.4078E+00
     -7.532  0.5882E-01  0.4120E+00
     -7.459  0.9694E-01  0.4191E+00
     -7.386  0.5428E-01  0.4231E+00
     -7.314  0.1910E-01  0.4245E+00
     -7.241  0.4844E-01  0.4280E+00
     -7.168  0.3948E-01  0.4309E+00
     -7.095  0.5034E-02  0.4312E+00
     -7.022  0.4784E-01  0.4347E+00
     -6.949  0.8838E-01  0.4411E+00
     -6.877  0.5964E-01  0.4455E+00
     -6.804  0.5983E-01  0.4499E+00
     -6.731  0.1785E-01  0.4512E+00
     -6.658  0.2857E-02  0.4514E+00
     -6.585  0.6188E-01  0.4559E+00
     -6.512  0.1184E+00  0.4645E+00
     -6.439  0.7540E-01  0.4700E+00
     -6.367  0.7700E-01  0.4756E+00
     -6.294  0.8443E-01  0.4817E+00
     -6.221  0.4086E-01  0.4847E+00
     -6.148  0.1770E-02  0.4848E+00
     -6.075  0.2923E-05  0.4848E+00
     -6.002  0.1005E-09  0.4848E+00
     -5.929  0.5473E-16  0.4848E+00
     -5.857  0.0000E+00  0.4848E+00
     -5.784  0.0000E+00  0.4848E+00
     -5.711  0.0000E+00  0.4848E+00
     -5.638  0.0000E+00  0.4848E+00
     -5.565  0.0000E+00  0.4848E+00
     -5.492  0.0000E+00  0.4848E+00
     -5.419  0.0000E+00  0.4848E+00
     -5.347  0.0000E+00  0.4848E+00
     -5.274  0.0000E+00  0.4848E+00
     -5.201  0.0000E+00  0.4848E+00
     -5.128  0.0000E+00  0.4848E+00
     -5.055  0.0000E+00  0.4848E+00
     -4.982  0.0000E+00  0.4848E+00
     -4.910  0.0000E+00  0.4848E+00
     -4.837  0.0000E+00  0.4848E+00
     -4.764  0.0000E+00  0.4848E+00
     -4.691  0.0000E+00  0.4848E+00
     -4.618  0.0000E+00  0.4848E+00
     -4.545  0.0000E+00  0.4848E+00
     -4.472  0.0000E+00  0.4848E+00
     -4.400  0.0000E+00  0.4848E+00
     -4.327  0.0000E+00  0.4848E+00
     -4.254  0.0000E+00  0.4848E+00
     -4.181  0.0000E+00  0.4848E+00
     -4.108  0.0000E+00  0.4848E+00
     -4.035  0.0000E+00  0.4848E+00
     -3.962  0.0000E+00  0.4848E+00
     -3.890  0.0000E+00  0.4848E+00
     -3.817  0.0000E+00  0.4848E+00
     -3.744  0.0000E+00  0.4848E+00
     -3.671  0.0000E+00  0.4848E+00
     -3.598  0.0000E+00  0.4848E+00
     -3.525  0.0000E+00  0.4848E+00
     -3.452  0.0000E+00  0.4848E+00
     -3.380  0.0000E+00  0.4848E+00
     -3.307  0.0000E+00  0.4848E+00
     -3.234  0.0000E+00  0.4848E+00
     -3.161  0.0000E+00  0.4848E+00
     -3.088  0.2139E-12  0.4848E+00
     -3.015  0.4581E-07  0.4848E+00
     -2.943  0.1739E-03  0.4849E+00
     -2.870  0.1562E-01  0.4860E+00
     -2.797  0.8759E-01  0.4924E+00
     -2.724  0.8767E-01  0.4988E+00
     -2.651  0.7888E-01  0.5045E+00
     -2.578  0.1451E+00  0.5151E+00
     -2.505  0.7017E-01  0.5202E+00
     -2.433  0.9901E-01  0.5274E+00
     -2.360  0.3242E-01  0.5298E+00
     -2.287  0.4180E-01  0.5328E+00
     -2.214  0.1470E+00  0.5435E+00
     -2.141  0.1343E+00  0.5533E+00
     -2.068  0.1092E+00  0.5613E+00
     -1.995  0.1713E+00  0.5737E+00
     -1.923  0.1539E+00  0.5850E+00
     -1.850  0.1361E+00  0.5949E+00
     -1.777  0.1051E+00  0.6025E+00
     -1.704  0.6756E-01  0.6074E+00
     -1.631  0.1291E+00  0.6169E+00
     -1.558  0.1454E+00  0.6274E+00
     -1.485  0.8535E-01  0.6337E+00
     -1.413  0.3861E-01  0.6365E+00
     -1.340  0.8400E-01  0.6426E+00
     -1.267  0.1307E+00  0.6521E+00
     -1.194  0.1016E+00  0.6595E+00
     -1.121  0.4205E-01  0.6626E+00
     -1.048  0.8010E-01  0.6684E+00
     -0.976  0.1408E+00  0.6787E+00
     -0.903  0.1009E+00  0.6860E+00
     -0.830  0.1159E+00  0.6945E+00
     -0.757  0.4477E-01  0.6977E+00
     -0.684  0.9198E-01  0.7044E+00
     -0.611  0.1258E+00  0.7136E+00
     -0.538  0.9628E-01  0.7206E+00
     -0.466  0.8800E-01  0.7270E+00
     -0.393  0.6973E-01  0.7321E+00
     -0.320  0.5979E-01  0.7365E+00
     -0.247  0.1414E+00  0.7468E+00
     -0.174  0.1430E+00  0.7572E+00
     -0.101  0.1709E+00  0.7696E+00
     -0.028  0.1593E+00  0.7812E+00
      0.044  0.2160E+00  0.7970E+00
      0.117  0.1609E+00  0.8087E+00
      0.190  0.2272E+00  0.8252E+00
      0.263  0.2469E+00  0.8432E+00
      0.336  0.2135E+00  0.8588E+00
      0.409  0.1368E+00  0.8687E+00
      0.482  0.1589E+00  0.8803E+00
      0.554  0.1367E+00  0.8903E+00
      0.627  0.8859E-01  0.8967E+00
      0.700  0.1628E+00  0.9086E+00
      0.773  0.2032E+00  0.9234E+00
      0.846  0.2277E+00  0.9400E+00
      0.919  0.2358E+00  0.9572E+00
      0.991  0.1354E+00  0.9670E+00
      1.064  0.3567E-01  0.9696E+00
      1.137  0.9431E-03  0.9697E+00
      1.210  0.8122E-06  0.9697E+00
      1.283  0.1408E-10  0.9697E+00
      1.356  0.3421E-17  0.9697E+00
      1.429  0.0000E+00  0.9697E+00
      1.501  0.0000E+00  0.9697E+00
      1.574  0.0000E+00  0.9697E+00
      1.647  0.0000E+00  0.9697E+00
      1.720  0.0000E+00  0.9697E+00
      1.793  0.0000E+00  0.9697E+00
      1.866  0.0000E+00  0.9697E+00
      1.939  0.0000E+00  0.9697E+00
      2.011  0.0000E+00  0.9697E+00
      2.084  0.0000E+00  0.9697E+00
      2.157  0.0000E+00  0.9697E+00
      2.230  0.0000E+00  0.9697E+00
      2.303  0.0000E+00  0.9697E+00
      2.376  0.0000E+00  0.9697E+00
      2.449  0.8552E-16  0.9697E+00
      2.521  0.1356E-09  0.9697E+00
      2.594  0.3448E-05  0.9697E+00
      2.667  0.1688E-02  0.9698E+00
      2.740  0.3409E-01  0.9723E+00
      2.813  0.1125E+00  0.9805E+00
      2.886  0.1253E+00  0.9896E+00
      2.958  0.7456E-01  0.9951E+00
      3.031  0.5453E-01  0.9990E+00
      3.104  0.1424E+00  0.1009E+01
      3.177  0.8359E-01  0.1015E+01
      3.250  0.7690E-01  0.1021E+01
      3.323  0.6071E-01  0.1026E+01
      3.396  0.6885E-01  0.1031E+01
      3.468  0.6957E-01  0.1036E+01
      3.541  0.6831E-01  0.1041E+01
      3.614  0.8595E-01  0.1047E+01
      3.687  0.1113E+00  0.1055E+01
      3.760  0.8396E-01  0.1061E+01
      3.833  0.1005E+00  0.1068E+01
      3.906  0.7382E-01  0.1074E+01
      3.978  0.9986E-01  0.1081E+01
      4.051  0.8809E-01  0.1087E+01
      4.124  0.1101E+00  0.1095E+01
      4.197  0.1353E+00  0.1105E+01
      4.270  0.1219E+00  0.1114E+01
      4.343  0.1573E+00  0.1126E+01
      4.416  0.1665E+00  0.1138E+01
      4.488  0.9210E-01  0.1145E+01
      4.561  0.1291E+00  0.1154E+01
      4.634  0.1302E+00  0.1163E+01
      4.707  0.2167E+00  0.1179E+01
      4.780  0.1665E+00  0.1191E+01
      4.853  0.4774E-01  0.1195E+01
      4.925  0.2394E-01  0.1197E+01
      4.998  0.2308E-01  0.1198E+01
      5.071  0.1307E-01  0.1199E+01
      5.144  0.6491E-01  0.1204E+01
      5.217  0.6963E-01  0.1209E+01
      5.290  0.3974E-01  0.1212E+01
      5.363  0.3239E-02  0.1212E+01
      5.435  0.9869E-05  0.1212E+01
      5.508  0.6348E-08  0.1212E+01
      5.581  0.3861E-04  0.1212E+01
      5.654  0.5139E-02  0.1212E+01
      5.727  0.2144E-01  0.1214E+01
      5.800  0.4410E-02  0.1214E+01
      5.873  0.1096E-01  0.1215E+01
      5.945  0.1930E-01  0.1217E+01
      6.018  0.2517E-01  0.1218E+01
      6.091  0.5369E-01  0.1222E+01
      6.164  0.7448E-01  0.1228E+01
      6.237  0.9493E-01  0.1235E+01
      6.310  0.1210E+00  0.1243E+01
      6.383  0.1068E+00  0.1251E+01
      6.455  0.1386E+00  0.1261E+01
      6.528  0.1318E+00  0.1271E+01
      6.601  0.1092E+00  0.1279E+01
      6.674  0.1402E+00  0.1289E+01
      6.747  0.1634E+00  0.1301E+01
      6.820  0.9432E-01  0.1308E+01
      6.892  0.5435E-01  0.1312E+01
      6.965  0.1586E+00  0.1323E+01
      7.038  0.1729E+00  0.1336E+01
      7.111  0.1600E+00  0.1348E+01
      7.184  0.1477E+00  0.1358E+01
      7.257  0.9499E-01  0.1365E+01
      7.330  0.1658E+00  0.1377E+01
      7.402  0.1402E+00  0.1388E+01
      7.475  0.1114E+00  0.1396E+01
      7.548  0.8996E-01  0.1402E+01
      7.621  0.1072E+00  0.1410E+01
      7.694  0.3112E-01  0.1412E+01
      7.767  0.2113E-01  0.1414E+01
      7.840  0.2912E-02  0.1414E+01
      7.912  0.1150E-04  0.1414E+01
      7.985  0.8566E-09  0.1414E+01
      8.058  0.1040E-14  0.1414E+01
      8.131  0.0000E+00  0.1414E+01
      8.204  0.0000E+00  0.1414E+01
      8.277  0.0000E+00  0.1414E+01
      8.350  0.0000E+00  0.1414E+01
      8.422  0.0000E+00  0.1414E+01
      8.495  0.0000E+00  0.1414E+01
      8.568  0.0000E+00  0.1414E+01
      8.641  0.0000E+00  0.1414E+01
      8.714  0.0000E+00  0.1414E+01
      8.71376708    -13.14177830  301      1.21458307      1.00000000
    -13.142  0.0000E+00  0.0000E+00  0.0000E+00
    -13.069  0.0000E+00  0.0000E+00  0.0000E+00
    -12.996  0.0000E+00  0.0000E+00  0.0000E+00
    -12.923  0.0000E+00  0.0000E+00  0.0000E+00
    -12.850  0.0000E+00  0.0000E+00  0.0000E+00
    -12.778  0.0000E+00  0.0000E+00  0.0000E+00
    -12.705  0.0000E+00  0.0000E+00  0.0000E+00
    -12.632  0.0000E+00  0.0000E+00  0.0000E+00
    -12.559  0.0000E+00  0.0000E+00  0.0000E+00
    -12.486  0.0000E+00  0.0000E+00  0.0000E+00
    -12.413  0.6522E-17  0.2497E-13  0.1055E-17
    -12.340  0.6406E-11  0.2486E-07  0.1025E-11
    -12.268  0.1103E-06  0.4331E-03  0.1771E-07
    -12.195  0.4181E-04  0.1597E+00  0.6694E-05
    -12.122  0.6338E-03  0.2182E+01  0.9199E-04
    -12.049  0.1346E-02  0.6838E+01  0.1591E-03
    -11.976  0.9674E-03  0.2351E+02  0.2505E-03
    -11.903  0.3657E-03  0.3506E+02  0.3575E-03
    -11.830  0.1169E-03  0.8229E+01  0.9435E-04
    -11.758  0.7799E-03  0.2553E+00  0.2168E-04
    -11.685  0.6715E-03  0.1786E+00  0.2628E-04
    -11.612  0.1737E-02  0.1013E+01  0.1922E-03
    -11.539  0.1536E-02  0.1448E+01  0.4302E-03
    -11.466  0.7356E-03  0.3972E+00  0.2244E-03
    -11.393  0.1005E-02  0.3811E+00  0.3280E-03
    -11.320  0.7006E-03  0.2632E+00  0.3216E-03
    -11.248  0.5246E-03  0.1292E+00  0.2524E-03
    -11.175  0.1572E-03  0.7696E-01  0.1988E-03
    -11.102  0.3472E-03  0.1464E+00  0.7812E-03
    -11.029  0.9914E-04  0.3980E-01  0.3635E-03
    -10.956  0.6176E-04  0.5444E-01  0.2281E-03
    -10.883  0.8810E-04  0.6048E-01  0.2826E-03
    -10.811  0.1121E-03  0.2830E-01  0.2856E-03
    -10.738  0.3062E-03  0.6052E-01  0.1045E-02
    -10.665  0.3378E-03  0.3238E-01  0.7736E-03
    -10.592  0.2899E-02  0.1616E+00  0.1985E-02
    -10.519  0.3119E-02  0.2354E+00  0.2776E-02
    -10.446  0.1990E-02  0.1435E+00  0.1628E-02
    -10.373  0.3378E-02  0.1570E+00  0.1566E-02
    -10.301  0.8185E-03  0.4416E-01  0.4914E-03
    -10.228  0.9938E-05  0.6380E-03  0.8087E-05
    -10.155  0.3331E-08  0.2496E-06  0.3528E-08
    -10.082  0.2344E-13  0.1997E-11  0.3044E-13
    -10.009  0.0000E+00  0.0000E+00  0.0000E+00
     -9.936  0.0000E+00  0.0000E+00  0.0000E+00
     -9.863  0.0000E+00  0.0000E+00  0.0000E+00
     -9.791  0.0000E+00  0.0000E+00  0.0000E+00
     -9.718  0.0000E+00  0.0000E+00  0.0000E+00
     -9.645  0.0000E+00  0.0000E+00  0.0000E+00
     -9.572  0.0000E+00  0.0000E+00  0.0000E+00
     -9.499  0.0000E+00  0.0000E+00  0.0000E+00
     -9.426  0.0000E+00  0.0000E+00  0.0000E+00
     -9.353  0.0000E+00  0.0000E+00  0.0000E+00
     -9.281  0.0000E+00  0.0000E+00  0.0000E+00
     -9.208  0.0000E+00  0.0000E+00  0.0000E+00
     -9.135  0.0000E+00  0.0000E+00  0.0000E+00
     -9.062  0.0000E+00  0.0000E+00  0.0000E+00
     -8.989  0.0000E+00  0.0000E+00  0.0000E+00
     -8.916  0.0000E+00  0.0000E+00  0.0000E+00
     -8.844  0.0000E+00  0.0000E+00  0.0000E+00
     -8.771  0.0000E+00  0.0000E+00  0.0000E+00
     -8.698  0.0000E+00  0.0000E+00  0.0000E+00
     -8.625  0.0000E+00  0.0000E+00  0.0000E+00
     -8.552  0.0000E+00  0.0000E+00  0.0000E+00
     -8.479  0.0000E+00  0.0000E+00  0.0000E+00
     -8.406  0.0000E+00  0.0000E+00  0.0000E+00
     -8.334  0.0000E+00  0.0000E+00  0.0000E+00
     -8.261  0.0000E+00  0.0000E+00  0.0000E+00
     -8.188  0.0000E+00  0.0000E+00  0.0000E+00
     -8.115  0.0000E+00  0.0000E+00  0.0000E+00
     -8.042  0.0000E+00  0.0000E+00  0.0000E+00
     -7.969  0.0000E+00  0.0000E+00  0.0000E+00
     -7.896  0.7356E-16  0.3762E-15  0.2279E-16
     -7.824  0.4045E-10  0.2332E-09  0.1350E-10
     -7.751  0.3671E-06  0.2449E-05  0.1346E-06
     -7.678  0.6485E-04  0.5086E-03  0.2656E-04
     -7.605  0.3605E-03  0.3248E-02  0.1641E-03
     -7.532  0.4876E-03  0.3704E-02  0.2630E-03
     -7.459  0.7379E-03  0.4976E-02  0.5129E-03
     -7.386  0.4220E-03  0.2238E-02  0.3292E-03
     -7.314  0.1300E-03  0.7067E-03  0.1154E-03
     -7.241  0.3883E-03  0.1953E-02  0.1919E-03
     -7.168  0.3072E-03  0.1551E-02  0.1593E-03
     -7.095  0.1707E-04  0.1115E-03  0.4055E-04
     -7.022  0.8326E-04  0.9492E-03  0.4619E-03
     -6.949  0.5252E-03  0.3059E-02  0.6347E-03
     -6.877  0.7499E-03  0.2297E-02  0.3769E-03
     -6.804  0.7158E-03  0.2526E-02  0.5647E-03
     -6.731  0.1917E-03  0.7294E-03  0.1589E-03
     -6.658  0.8023E-04  0.1092E-03  0.1679E-04
     -6.585  0.1517E-02  0.2060E-02  0.3589E-03
     -6.512  0.2047E-02  0.4883E-02  0.7572E-03
     -6.439  0.5515E-03  0.7096E-02  0.5789E-03
     -6.367  0.1234E-02  0.6974E-02  0.5373E-03
     -6.294  0.2947E-02  0.4163E-02  0.5112E-03
     -6.221  0.1803E-02  0.1366E-02  0.1872E-03
     -6.148  0.8180E-04  0.5276E-04  0.5679E-05
     -6.075  0.1355E-06  0.8350E-07  0.7813E-08
     -6.002  0.4659E-11  0.2843E-11  0.2568E-12
     -5.929  0.2537E-17  0.1545E-17  0.1384E-18
     -5.857  0.0000E+00  0.0000E+00  0.0000E+00
     -5.784  0.0000E+00  0.0000E+00  0.0000E+00
     -5.711  0.0000E+00  0.0000E+00  0.0000E+00
     -5.638  0.0000E+00  0.0000E+00  0.0000E+00
     -5.565  0.0000E+00  0.0000E+00  0.0000E+00
     -5.492  0.0000E+00  0.0000E+00  0.0000E+00
     -5.419  0.0000E+00  0.0000E+00  0.0000E+00
     -5.347  0.0000E+00  0.0000E+00  0.0000E+00
     -5.274  0.0000E+00  0.0000E+00  0.0000E+00
     -5.201  0.0000E+00  0.0000E+00  0.0000E+00
     -5.128  0.0000E+00  0.0000E+00  0.0000E+00
     -5.055  0.0000E+00  0.0000E+00  0.0000E+00
     -4.982  0.0000E+00  0.0000E+00  0.0000E+00
     -4.910  0.0000E+00  0.0000E+00  0.0000E+00
     -4.837  0.0000E+00  0.0000E+00  0.0000E+00
     -4.764  0.0000E+00  0.0000E+00  0.0000E+00
     -4.691  0.0000E+00  0.0000E+00  0.0000E+00
     -4.618  0.0000E+00  0.0000E+00  0.0000E+00
     -4.545  0.0000E+00  0.0000E+00  0.0000E+00
     -4.472  0.0000E+00  0.0000E+00  0.0000E+00
     -4.400  0.0000E+00  0.0000E+00  0.0000E+00
     -4.327  0.0000E+00  0.0000E+00  0.0000E+00
     -4.254  0.0000E+00  0.0000E+00  0.0000E+00
     -4.181  0.0000E+00  0.0000E+00  0.0000E+00
     -4.108  0.0000E+00  0.0000E+00  0.0000E+00
     -4.035  0.0000E+00  0.0000E+00  0.0000E+00
     -3.962  0.0000E+00  0.0000E+00  0.0000E+00
     -3.890  0.0000E+00  0.0000E+00  0.0000E+00
     -3.817  0.0000E+00  0.0000E+00  0.0000E+00
     -3.744  0.0000E+00  0.0000E+00  0.0000E+00
     -3.671  0.0000E+00  0.0000E+00  0.0000E+00
     -3.598  0.0000E+00  0.0000E+00  0.0000E+00
     -3.525  0.0000E+00  0.0000E+00  0.0000E+00
     -3.452  0.0000E+00  0.0000E+00  0.0000E+00
     -3.380  0.0000E+00  0.0000E+00  0.0000E+00
     -3.307  0.0000E+00  0.0000E+00  0.0000E+00
     -3.234  0.0000E+00  0.0000E+00  0.0000E+00
     -3.161  0.0000E+00  0.0000E+00  0.0000E+00
     -3.088  0.4213E-14  0.3520E-13  0.1110E-13
     -3.015  0.1015E-08  0.7505E-08  0.2364E-08
     -2.943  0.4446E-05  0.2829E-04  0.8907E-05
     -2.870  0.4721E-03  0.2511E-02  0.7932E-03
     -2.797  0.3114E-02  0.1435E-01  0.4273E-02
     -2.724  0.3456E-02  0.1547E-01  0.3907E-02
     -2.651  0.3898E-02  0.1245E-01  0.4406E-02
     -2.578  0.7842E-02  0.2712E-01  0.7625E-02
     -2.505  0.3755E-02  0.1398E-01  0.3437E-02
     -2.433  0.6439E-02  0.2327E-01  0.4745E-02
     -2.360  0.1999E-02  0.7808E-02  0.1523E-02
     -2.287  0.4110E-02  0.5223E-02  0.1780E-02
     -2.214  0.1496E-01  0.2068E-01  0.6061E-02
     -2.141  0.1187E-01  0.3077E-01  0.4237E-02
     -2.068  0.7419E-02  0.1971E-01  0.4334E-02
     -1.995  0.1437E-01  0.2195E-01  0.9264E-02
     -1.923  0.1206E-01  0.1924E-01  0.9032E-02
     -1.850  0.1280E-01  0.1552E-01  0.7622E-02
     -1.777  0.1402E-01  0.9887E-02  0.7260E-02
     -1.704  0.6890E-02  0.9758E-02  0.4288E-02
     -1.631  0.1347E-01  0.2412E-01  0.6650E-02
     -1.558  0.2180E-01  0.2376E-01  0.8067E-02
     -1.485  0.1164E-01  0.1571E-01  0.4974E-02
     -1.413  0.4255E-02  0.6934E-02  0.2795E-02
     -1.340  0.9429E-02  0.1220E-01  0.6937E-02
     -1.267  0.1244E-01  0.2614E-01  0.9752E-02
     -1.194  0.9643E-02  0.2725E-01  0.6072E-02
     -1.121  0.3557E-02  0.1046E-01  0.2521E-02
     -1.048  0.8059E-02  0.1751E-01  0.7094E-02
     -0.976  0.2893E-01  0.2240E-01  0.1375E-01
     -0.903  0.1678E-01  0.1788E-01  0.9125E-02
     -0.830  0.1327E-01  0.1725E-01  0.9274E-02
     -0.757  0.4715E-02  0.8416E-02  0.3264E-02
     -0.684  0.1297E-01  0.1704E-01  0.5829E-02
     -0.611  0.1756E-01  0.1902E-01  0.8021E-02
     -0.538  0.3034E-01  0.1776E-01  0.7764E-02
     -0.466  0.5317E-01  0.1807E-01  0.7139E-02
     -0.393  0.3707E-01  0.1597E-01  0.8164E-02
     -0.320  0.3445E-01  0.2126E-01  0.7694E-02
     -0.247  0.6740E-01  0.5099E-01  0.1756E-01
     -0.174  0.5544E-01  0.4862E-01  0.1441E-01
     -0.101  0.3754E-01  0.9244E-01  0.1212E-01
     -0.028  0.3139E-01  0.8085E-01  0.1481E-01
      0.044  0.4830E-01  0.1116E+00  0.2783E-01
      0.117  0.2296E-01  0.8534E-01  0.2467E-01
      0.190  0.1637E-01  0.1121E+00  0.4270E-01
      0.263  0.1297E-01  0.9694E-01  0.4604E-01
      0.336  0.1094E-01  0.9219E-01  0.5248E-01
      0.409  0.5719E-02  0.5134E-01  0.4124E-01
      0.482  0.3949E-02  0.4751E-01  0.4745E-01
      0.554  0.7018E-02  0.3746E-01  0.3562E-01
      0.627  0.7159E-02  0.2518E-01  0.1479E-01
      0.700  0.8577E-02  0.4217E-01  0.2961E-01
      0.773  0.1154E-01  0.4901E-01  0.4281E-01
      0.846  0.1370E-01  0.3782E-01  0.4573E-01
      0.919  0.9006E-02  0.4349E-01  0.4580E-01
      0.991  0.3589E-02  0.2687E-01  0.2277E-01
      1.064  0.1060E-02  0.7017E-02  0.4836E-02
      1.137  0.3363E-04  0.1541E-03  0.1097E-03
      1.210  0.3207E-07  0.1113E-06  0.8857E-07
      1.283  0.5802E-12  0.1762E-11  0.1512E-11
      1.356  0.1444E-18  0.4049E-18  0.3663E-18
      1.429  0.0000E+00  0.0000E+00  0.0000E+00
      1.501  0.0000E+00  0.0000E+00  0.0000E+00
      1.574  0.0000E+00  0.0000E+00  0.0000E+00
      1.647  0.0000E+00  0.0000E+00  0.0000E+00
      1.720  0.0000E+00  0.0000E+00  0.0000E+00
      1.793  0.0000E+00  0.0000E+00  0.0000E+00
      1.866  0.0000E+00  0.0000E+00  0.0000E+00
      1.939  0.0000E+00  0.0000E+00  0.0000E+00
      2.011  0.0000E+00  0.0000E+00  0.0000E+00
      2.084  0.0000E+00  0.0000E+00  0.0000E+00
      2.157  0.0000E+00  0.0000E+00  0.0000E+00
      2.230  0.0000E+00  0.0000E+00  0.0000E+00
      2.303  0.0000E+00  0.0000E+00  0.0000E+00
      2.376  0.0000E+00  0.0000E+00  0.0000E+00
      2.449  0.2421E-16  0.3994E-16  0.7221E-17
      2.521  0.3839E-10  0.6337E-10  0.1146E-10
      2.594  0.9760E-06  0.1615E-05  0.2924E-06
      2.667  0.4797E-03  0.8094E-03  0.1516E-03
      2.740  0.1031E-01  0.1807E-01  0.4474E-02
      2.813  0.4058E-01  0.6391E-01  0.2270E-01
      2.886  0.4680E-01  0.6740E-01  0.3511E-01
      2.958  0.2114E-01  0.3952E-01  0.2433E-01
      3.031  0.2081E-01  0.3005E-01  0.1644E-01
      3.104  0.4006E-01  0.5410E-01  0.4262E-01
      3.177  0.1150E-01  0.3343E-01  0.2543E-01
      3.250  0.1057E-01  0.2737E-01  0.3420E-01
      3.323  0.9295E-02  0.1796E-01  0.2411E-01
      3.396  0.1105E-01  0.1958E-01  0.2487E-01
      3.468  0.1220E-01  0.1787E-01  0.2179E-01
      3.541  0.1216E-01  0.9333E-02  0.1680E-01
      3.614  0.1028E-01  0.2614E-01  0.1981E-01
      3.687  0.2758E-01  0.5056E-01  0.3122E-01
      3.760  0.2348E-01  0.3511E-01  0.2788E-01
      3.833  0.2110E-01  0.6057E-01  0.4017E-01
      3.906  0.1973E-01  0.3298E-01  0.3481E-01
      3.978  0.1878E-01  0.5916E-01  0.4354E-01
      4.051  0.1088E-01  0.3880E-01  0.4561E-01
      4.124  0.1470E-01  0.3062E-01  0.5696E-01
      4.197  0.2009E-01  0.5552E-01  0.6680E-01
      4.270  0.3411E-01  0.6103E-01  0.6259E-01
      4.343  0.6466E-01  0.6889E-01  0.8870E-01
      4.416  0.5599E-01  0.8212E-01  0.9131E-01
      4.488  0.2806E-01  0.6300E-01  0.5337E-01
      4.561  0.4408E-01  0.8269E-01  0.6983E-01
      4.634  0.3639E-01  0.4380E-01  0.5696E-01
      4.707  0.4846E-01  0.8461E-01  0.1131E+00
      4.780  0.2427E-01  0.6660E-01  0.8923E-01
      4.853  0.3366E-02  0.1769E-01  0.2620E-01
      4.925  0.1914E-02  0.8597E-02  0.9693E-02
      4.998  0.3593E-02  0.7229E-02  0.8282E-02
      5.071  0.7477E-02  0.4797E-02  0.8649E-02
      5.144  0.4397E-01  0.2999E-01  0.5639E-01
      5.217  0.3861E-01  0.2995E-01  0.4479E-01
      5.290  0.2504E-01  0.1262E-01  0.1907E-01
      5.363  0.1560E-02  0.8736E-03  0.1617E-02
      5.435  0.3703E-05  0.2468E-05  0.5105E-05
      5.508  0.2256E-07  0.8337E-09  0.1949E-08
      5.581  0.1508E-03  0.4594E-05  0.1094E-04
      5.654  0.2007E-01  0.6114E-03  0.1455E-02
      5.727  0.8375E-01  0.2552E-02  0.6074E-02
      5.800  0.1723E-01  0.7216E-03  0.1532E-02
      5.873  0.4295E-01  0.1011E-01  0.1574E-01
      5.945  0.7371E-01  0.1763E-01  0.2872E-01
      6.018  0.4336E-01  0.1570E-01  0.5407E-01
      6.091  0.1050E+00  0.2289E-01  0.7594E-01
      6.164  0.2592E+00  0.3587E-01  0.5245E-01
      6.237  0.2650E+00  0.4723E-01  0.1496E+00
      6.310  0.1802E+00  0.5013E-01  0.2256E+00
      6.383  0.1230E+00  0.6734E-01  0.2126E+00
      6.455  0.2562E+00  0.1011E+00  0.2915E+00
      6.528  0.2887E+00  0.9179E-01  0.3105E+00
      6.601  0.1853E+00  0.6814E-01  0.3353E+00
      6.674  0.2852E+00  0.9091E-01  0.4039E+00
      6.747  0.3775E+00  0.1512E+00  0.5581E+00
      6.820  0.2450E+00  0.9861E-01  0.3855E+00
      6.892  0.5990E-01  0.7303E-01  0.2873E+00
      6.965  0.1803E+00  0.1864E+00  0.7464E+00
      7.038  0.3006E+00  0.2058E+00  0.8427E+00
      7.111  0.1658E+00  0.2044E+00  0.7623E+00
      7.184  0.9373E-01  0.2160E+00  0.6360E+00
      7.257  0.8617E-01  0.1224E+00  0.4507E+00
      7.330  0.1711E+00  0.1908E+00  0.8891E+00
      7.402  0.2723E+00  0.2035E+00  0.7428E+00
      7.475  0.1810E+00  0.1827E+00  0.4735E+00
      7.548  0.9052E-01  0.1679E+00  0.4720E+00
      7.621  0.5496E-01  0.2204E+00  0.6088E+00
      7.694  0.1584E-01  0.5536E-01  0.2114E+00
      7.767  0.1187E-01  0.2695E-01  0.2096E+00
      7.840  0.1638E-02  0.3702E-02  0.2901E-01
      7.912  0.6469E-05  0.1462E-04  0.1146E-03
      7.985  0.4817E-09  0.1089E-08  0.8534E-08
      8.058  0.5848E-15  0.1322E-14  0.1036E-13
      8.131  0.0000E+00  0.0000E+00  0.0000E+00
      8.204  0.0000E+00  0.0000E+00  0.0000E+00
      8.277  0.0000E+00  0.0000E+00  0.0000E+00
      8.350  0.0000E+00  0.0000E+00  0.0000E+00
      8.422  0.0000E+00  0.0000E+00  0.0000E+00
      8.495  0.0000E+00  0.0000E+00  0.0000E+00
      8.568  0.0000E+00  0.0000E+00  0.0000E+00
      8.641  0.0000E+00  0.0000E+00  0.0000E+00
      8.714  0.0000E+00  0.0000E+00  0.0000E+00
      8.71376708    -13.14177830  301      1.21458307      1.00000000
    -13.142  0.0000E+00  0.0000E+00  0.0000E+00
    -13.069  0.0000E+00  0.0000E+00  0.0000E+00
    -12.996  0.0000E+00  0.0000E+00  0.0000E+00
    -12.923  0.0000E+00  0.0000E+00  0.0000E+00
    -12.850  0.0000E+00  0.0000E+00  0.0000E+00
    -12.778  0.0000E+00  0.0000E+00  0.0000E+00
    -12.705  0.0000E+00  0.0000E+00  0.0000E+00
    -12.632  0.0000E+00  0.0000E+00  0.0000E+00
    -12.559  0.0000E+00  0.0000E+00  0.0000E+00
    -12.486  0.0000E+00  0.0000E+00  0.0000E+00
    -12.413  0.5733E-17  0.3177E-13  0.1321E-17
    -12.340  0.5789E-11  0.3015E-07  0.1255E-11
    -12.268  0.1017E-06  0.5073E-03  0.2076E-07
    -12.195  0.3793E-04  0.1864E+00  0.7212E-05
    -12.122  0.5245E-03  0.2580E+01  0.9010E-04
    -12.049  0.1173E-02  0.7897E+01  0.2251E-03
    -11.976  0.1266E-02  0.2164E+02  0.4085E-03
    -11.903  0.7327E-03  0.3322E+02  0.3870E-03
    -11.830  0.1983E-03  0.1111E+02  0.9995E-04
    -11.758  0.5058E-03  0.4013E+00  0.1408E-04
    -11.685  0.4003E-03  0.1499E+00  0.1584E-04
    -11.612  0.9339E-03  0.4706E+00  0.9025E-04
    -11.539  0.9838E-03  0.5693E+00  0.1684E-03
    -11.466  0.1232E-02  0.2700E+00  0.1456E-03
    -11.393  0.2069E-02  0.5813E+00  0.3654E-03
    -11.320  0.8755E-03  0.3205E+00  0.3312E-03
    -11.248  0.2779E-03  0.1422E+00  0.2280E-03
    -11.175  0.5618E-03  0.1368E+00  0.2761E-03
    -11.102  0.1378E-02  0.2710E+00  0.9720E-03
    -11.029  0.4549E-03  0.6163E-01  0.4262E-03
    -10.956  0.6776E-04  0.5465E-01  0.3560E-03
    -10.883  0.7581E-04  0.6313E-01  0.4297E-03
    -10.811  0.2888E-03  0.5022E-01  0.1865E-03
    -10.738  0.1010E-02  0.9880E-01  0.8731E-03
    -10.665  0.8408E-03  0.2851E-01  0.7130E-03
    -10.592  0.2850E-02  0.1218E+00  0.9083E-03
    -10.519  0.3975E-02  0.1883E+00  0.1730E-02
    -10.446  0.4301E-02  0.1873E+00  0.3269E-02
    -10.373  0.3690E-02  0.3725E+00  0.5344E-02
    -10.301  0.7468E-03  0.1227E+00  0.1316E-02
    -10.228  0.1059E-04  0.1960E-02  0.1736E-04
    -10.155  0.4303E-08  0.8297E-06  0.6370E-08
    -10.082  0.3541E-13  0.6960E-11  0.4878E-13
    -10.009  0.0000E+00  0.0000E+00  0.0000E+00
     -9.936  0.0000E+00  0.0000E+00  0.0000E+00
     -9.863  0.0000E+00  0.0000E+00  0.0000E+00
     -9.791  0.0000E+00  0.0000E+00  0.0000E+00
     -9.718  0.0000E+00  0.0000E+00  0.0000E+00
     -9.645  0.0000E+00  0.0000E+00  0.0000E+00
     -9.572  0.0000E+00  0.0000E+00  0.0000E+00
     -9.499  0.0000E+00  0.0000E+00  0.0000E+00
     -9.426  0.0000E+00  0.0000E+00  0.0000E+00
     -9.353  0.0000E+00  0.0000E+00  0.0000E+00
     -9.281  0.0000E+00  0.0000E+00  0.0000E+00
     -9.208  0.0000E+00  0.0000E+00  0.0000E+00
     -9.135  0.0000E+00  0.0000E+00  0.0000E+00
     -9.062  0.0000E+00  0.0000E+00  0.0000E+00
     -8.989  0.0000E+00  0.0000E+00  0.0000E+00
     -8.916  0.0000E+00  0.0000E+00  0.0000E+00
     -8.844  0.0000E+00  0.0000E+00  0.0000E+00
     -8.771  0.0000E+00  0.0000E+00  0.0000E+00
     -8.698  0.0000E+00  0.0000E+00  0.0000E+00
     -8.625  0.0000E+00  0.0000E+00  0.0000E+00
     -8.552  0.0000E+00  0.0000E+00  0.0000E+00
     -8.479  0.0000E+00  0.0000E+00  0.0000E+00
     -8.406  0.0000E+00  0.0000E+00  0.0000E+00
     -8.334  0.0000E+00  0.0000E+00  0.0000E+00
     -8.261  0.0000E+00  0.0000E+00  0.0000E+00
     -8.188  0.0000E+00  0.0000E+00  0.0000E+00
     -8.115  0.0000E+00  0.0000E+00  0.0000E+00
     -8.042  0.0000E+00  0.0000E+00  0.0000E+00
     -7.969  0.0000E+00  0.0000E+00  0.0000E+00
     -7.896  0.3881E-16  0.1648E-15  0.1215E-16
     -7.824  0.2221E-10  0.9790E-10  0.7433E-11
     -7.751  0.2125E-06  0.9796E-06  0.7693E-07
     -7.678  0.4005E-04  0.1939E-03  0.1576E-04
     -7.605  0.2301E-03  0.1191E-02  0.9969E-04
     -7.532  0.1637E-03  0.1215E-02  0.1207E-03
     -7.459  0.3207E-03  0.1400E-02  0.2081E-03
     -7.386  0.7522E-04  0.6919E-03  0.1601E-03
     -7.314  0.2752E-04  0.4292E-03  0.7695E-04
     -7.241  0.2857E-03  0.3238E-02  0.3259E-03
     -7.168  0.1775E-03  0.2567E-02  0.2401E-03
     -7.095  0.2358E-04  0.1674E-03  0.4792E-04
     -7.022  0.2251E-03  0.1012E-02  0.5218E-03
     -6.949  0.6081E-03  0.2866E-02  0.7032E-03
     -6.877  0.5500E-03  0.2377E-02  0.3788E-03
     -6.804  0.3792E-03  0.2458E-02  0.6310E-03
     -6.731  0.8280E-04  0.5910E-03  0.1689E-03
     -6.658  0.6652E-04  0.1310E-03  0.2245E-04