       N       E                     dE             d eps       ncg     rms          rms(c)
DAV:   1     0.453170792025E+03    0.45317E+03   -0.26864E+04  1260   0.742E+02
DAV:   2    -0.225070440320E+02   -0.47568E+03   -0.46139E+03  1610   0.193E+02
DAV:   3    -0.618055082468E+02   -0.39298E+02   -0.39024E+02  1596   0.527E+01
DAV:   4    -0.623874858823E+02   -0.58198E+00   -0.58133E+00  1512   0.739E+00
DAV:   5    -0.623949073522E+02   -0.74215E-02   -0.74211E-02  1638   0.889E-01    0.104E+01
DAV:   6    -0.597870553611E+02    0.26079E+01   -0.42228E+00  1624   0.642E+00    0.718E+00
DAV:   7    -0.597394377408E+02    0.47618E-01   -0.17875E+00  1512   0.329E+00    0.280E+00
DAV:   8    -0.597304031974E+02    0.90345E-02   -0.95245E-02  1554   0.986E-01    0.138E+00
DAV:   9    -0.597379034108E+02   -0.75002E-02   -0.38105E-02  1512   0.656E-01    0.305E-01
DAV:  10    -0.597382226761E+02   -0.31927E-03   -0.19168E-03  1624   0.138E-01    0.148E-01
DAV:  11    -0.597393331285E+02   -0.11105E-02   -0.12835E-03  1512   0.112E-01    0.569E-02
DAV:  12    -0.597394622818E+02   -0.12915E-03   -0.16144E-04  1288   0.409E-02    0.296E-02
DAV:  13    -0.597394795734E+02   -0.17292E-04   -0.35109E-05   994   0.208E-02
   1 F= -.59739480E+02 E0= -.59739480E+02  d E =-.597395E+02
       N       E                     dE             d eps       ncg     rms          rms(c)
DAV:   1    -0.597493734923E+02   -0.99112E-02   -0.82786E-02  1372   0.815E-01    0.174E-01
DAV:   2    -0.597493914691E+02   -0.17977E-04   -0.53798E-03  1568   0.200E-01    0.782E-02
DAV:   3    -0.597492797709E+02    0.11170E-03   -0.25592E-04  1344   0.467E-02    0.378E-02
DAV:   4    -0.597492373677E+02    0.42403E-04   -0.48531E-05   966   0.255E-02
   2 F= -.59749237E+02 E0= -.59749237E+02  d E =-.975779E-02
       N       E                     dE             d eps       ncg     rms          rms(c)
DAV:   1    -0.597661934961E+02   -0.16914E-01   -0.73845E-01  1260   0.243E+00    0.514E-01
DAV:   2    -0.597663533371E+02   -0.15984E-03   -0.47678E-02  1568   0.594E-01    0.236E-01
DAV:   3    -0.597654033553E+02    0.94998E-03   -0.23068E-03  1512   0.138E-01    0.114E-01
DAV:   4    -0.597650648787E+02    0.33848E-03   -0.38500E-04  1484   0.686E-02    0.402E-02
DAV:   5    -0.597650132163E+02    0.51662E-04   -0.84263E-05   980   0.312E-02
   3 F= -.59765013E+02 E0= -.59765013E+02  d E =-.255336E-01
       N       E                     dE             d eps       ncg     rms          rms(c)
DAV:   1    -0.597658389789E+02   -0.77410E-03   -0.42143E-02  1260   0.580E-01    0.123E-01
DAV:   2    -0.597658430468E+02   -0.40679E-05   -0.26849E-03  1568   0.141E-01    0.547E-02
DAV:   3    -0.597657819083E+02    0.61139E-04   -0.11707E-04   994   0.331E-02
   4 F= -.59765782E+02 E0= -.59765782E+02  d E =-.263023E-01
       N       E                     dE             d eps       ncg     rms          rms(c)
DAV:   1    -0.597657031675E+02    0.13988E-03   -0.68717E-02  1260   0.736E-01    0.160E-01
DAV:   2    -0.597656718380E+02    0.31329E-04   -0.43391E-03  1568   0.180E-01    0.726E-02
DAV:   3    -0.597655639870E+02    0.10785E-03   -0.20951E-04  1078   0.439E-02    0.357E-02
DAV:   4    -0.597655239257E+02    0.40061E-04   -0.61810E-05   882   0.286E-02
   5 F= -.59765524E+02 E0= -.59765524E+02  d E =-.260444E-01
       N       E                     dE             d eps       ncg     rms          rms(c)
DAV:   1    -0.597798002354E+02   -0.14236E-01   -0.37924E-01  1260   0.171E+00    0.325E-01
DAV:   2    -0.597779103588E+02    0.18899E-02   -0.17041E-02  1512   0.368E-01    0.164E-01
DAV:   3    -0.597769562401E+02    0.95412E-03   -0.15852E-03  1498   0.107E-01    0.817E-02
DAV:   4    -0.597767649540E+02    0.19129E-03   -0.36298E-04  1554   0.553E-02    0.375E-02
DAV:   5    -0.597767558424E+02    0.91116E-05   -0.37911E-05   882   0.205E-02
   6 F= -.59776756E+02 E0= -.59776756E+02  d E =-.112319E-01
       N       E                     dE             d eps       ncg     rms          rms(c)
DAV:   1    -0.598340115656E+02   -0.57247E-01   -0.34205E+00  1260   0.513E+00    0.976E-01
DAV:   2    -0.598170892733E+02    0.16922E-01   -0.15584E-01  1512   0.111E+00    0.490E-01
DAV:   3    -0.598084742605E+02    0.86150E-02   -0.14415E-02  1526   0.324E-01    0.248E-01
DAV:   4    -0.598067739640E+02    0.17003E-02   -0.32105E-03  1624   0.165E-01    0.118E-01
DAV:   5    -0.598066637812E+02    0.11018E-03   -0.36722E-04  1512   0.617E-02    0.450E-02
DAV:   6    -0.598066699158E+02   -0.61345E-05   -0.30342E-05   966   0.184E-02
   7 F= -.59806670E+02 E0= -.59806670E+02  d E =-.411460E-01
       N       E                     dE             d eps       ncg     rms          rms(c)
DAV:   1    -0.599395889143E+02   -0.13293E+00   -0.13765E+01  1260   0.103E+01    0.198E+00
DAV:   2    -0.598707327788E+02    0.68856E-01   -0.64041E-01  1512   0.224E+00    0.989E-01
DAV:   3    -0.598358014611E+02    0.34931E-01   -0.59624E-02  1512   0.661E-01    0.501E-01
DAV:   4    -0.598293172993E+02    0.64842E-02   -0.12435E-02  1638   0.327E-01    0.248E-01
DAV:   5    -0.598288145625E+02    0.50274E-03   -0.13937E-03  1526   0.122E-01    0.891E-02
DAV:   6    -0.598288298837E+02   -0.15321E-04   -0.12475E-04  1008   0.368E-02
   8 F= -.59828830E+02 E0= -.59828830E+02  d E =-.633060E-01
       N       E                     dE             d eps       ncg     rms          rms(c)
DAV:   1    -0.598593635071E+02   -0.30549E-01   -0.10509E+00  1260   0.304E+00    0.793E-01
DAV:   2    -0.598445325042E+02    0.14831E-01   -0.55339E-02  1512   0.676E-01    0.373E-01
DAV:   3    -0.598398101362E+02    0.47224E-02   -0.11584E-02  1526   0.295E-01    0.144E-01
DAV:   4    -0.598393486312E+02    0.46150E-03   -0.61778E-04  1554   0.891E-02    0.832E-02
DAV:   5    -0.598392777141E+02    0.70917E-04   -0.16481E-04  1064   0.419E-02
   9 F= -.59839278E+02 E0= -.59839278E+02  d E =-.104478E-01
       N       E                     dE             d eps       ncg     rms          rms(c)
DAV:   1    -0.598394020231E+02   -0.53392E-04   -0.33976E-03  1372   0.174E-01    0.504E-02
DAV:   2    -0.598393570820E+02    0.44941E-04   -0.16701E-04   924   0.388E-02
  10 F= -.59839357E+02 E0= -.59839357E+02  d E =-.105272E-01
       N       E                     dE             d eps       ncg     rms          rms(c)
DAV:   1    -0.598472954834E+02   -0.78935E-02   -0.57593E-01  1260   0.214E+00    0.285E-01
DAV:   2    -0.598475206188E+02   -0.22514E-03   -0.25350E-02  1596   0.459E-01    0.153E-01
DAV:   3    -0.598470013802E+02    0.51924E-03   -0.14644E-03  1554   0.116E-01    0.870E-02
DAV:   4    -0.598467955190E+02    0.20586E-03   -0.20735E-04  1162   0.545E-02    0.373E-02
DAV:   5    -0.598467546014E+02    0.40918E-04   -0.12221E-04  1008   0.428E-02
  11 F= -.59846755E+02 E0= -.59846755E+02  d E =-.739752E-02
       N       E                     dE             d eps       ncg     rms          rms(c)
DAV:   1    -0.598470731778E+02   -0.27766E-03   -0.14961E-02  1288   0.346E-01    0.482E-02
DAV:   2    -0.598470824417E+02   -0.92638E-05   -0.66739E-04  1582   0.743E-02
  12 F= -.59847082E+02 E0= -.59847082E+02  d E =-.772536E-02
       N       E                     dE             d eps       ncg     rms          rms(c)
DAV:   1    -0.598671925113E+02   -0.20119E-01   -0.56793E-01  1260   0.219E+00    0.589E-01
DAV:   2    -0.598581124588E+02    0.90801E-02   -0.26897E-02  1512   0.490E-01    0.283E-01
DAV:   3    -0.598548667458E+02    0.32457E-02   -0.72957E-03  1498   0.236E-01    0.111E-01
DAV:   4    -0.598545010918E+02    0.36565E-03   -0.44489E-04  1568   0.756E-02    0.653E-02
DAV:   5    -0.598544096603E+02    0.91431E-04   -0.15380E-04  1008   0.431E-02
  13 F= -.59854410E+02 E0= -.59854410E+02  d E =-.732722E-02
       N       E                     dE             d eps       ncg     rms          rms(c)
DAV:   1    -0.598557446469E+02   -0.12436E-02   -0.55798E-02  1260   0.683E-01    0.179E-01
DAV:   2    -0.598548833898E+02    0.86126E-03   -0.25992E-03  1512   0.152E-01    0.858E-02
DAV:   3    -0.598545750438E+02    0.30835E-03   -0.68854E-04  1498   0.724E-02    0.349E-02
DAV:   4    -0.598545362077E+02    0.38836E-04   -0.39071E-05   896   0.234E-02
  14 F= -.59854536E+02 E0= -.59854536E+02  d E =-.745377E-02
       N       E                     dE             d eps       ncg     rms          rms(c)
DAV:   1    -0.598574519926E+02   -0.28769E-02   -0.93854E-02  1260   0.855E-01    0.182E-01
DAV:   2    -0.598565217238E+02    0.93027E-03   -0.34124E-03  1512   0.173E-01    0.923E-02
DAV:   3    -0.598561466860E+02    0.37504E-03   -0.81590E-04  1484   0.773E-02    0.385E-02
DAV:   4    -0.598561070958E+02    0.39590E-04   -0.47252E-05   742   0.249E-02
  15 F= -.59856107E+02 E0= -.59856107E+02  d E =-.157089E-02
       N       E                     dE             d eps       ncg     rms          rms(c)
DAV:   1    -0.598584207850E+02   -0.22741E-02   -0.99392E-02  1260   0.879E-01    0.187E-01
DAV:   2    -0.598574364833E+02    0.98430E-03   -0.36057E-03  1512   0.177E-01    0.949E-02
DAV:   3    -0.598570412382E+02    0.39525E-03   -0.86610E-04  1484   0.797E-02    0.397E-02
DAV:   4    -0.598569995096E+02    0.41729E-04   -0.50064E-05   812   0.257E-02
  16 F= -.59857000E+02 E0= -.59857000E+02  d E =-.246330E-02
       N       E                     dE             d eps       ncg     rms          rms(c)
DAV:   1    -0.598587762150E+02   -0.17350E-02   -0.97156E-02  1260   0.859E-01    0.131E-01
DAV:   2    -0.598588501154E+02   -0.73900E-04   -0.38596E-03  1526   0.178E-01    0.645E-02
DAV:   3    -0.598587743226E+02    0.75793E-04   -0.16525E-04  1064   0.408E-02
  17 F= -.59858774E+02 E0= -.59858774E+02  d E =-.177481E-02
       N       E                     dE             d eps       ncg     rms          rms(c)
DAV:   1    -0.598593162851E+02   -0.46617E-03   -0.15848E-01  1260   0.109E+00    0.168E-01
DAV:   2    -0.598593870886E+02   -0.70803E-04   -0.61890E-03  1540   0.227E-01    0.832E-02
DAV:   3    -0.598592490694E+02    0.13802E-03   -0.30611E-04  1498   0.536E-02    0.453E-02
DAV:   4    -0.598592049810E+02    0.44088E-04   -0.50688E-05   980   0.275E-02
  18 F= -.59859205E+02 E0= -.59859205E+02  d E =-.220547E-02
       N       E                     dE             d eps       ncg     rms          rms(c)
DAV:   1    -0.598603201985E+02   -0.10711E-02   -0.51875E-02  1288   0.616E-01    0.841E-02
DAV:   2    -0.598603697954E+02   -0.49597E-04   -0.17721E-03  1540   0.122E-01    0.405E-02
DAV:   3    -0.598603359092E+02    0.33886E-04   -0.59051E-05  1008   0.247E-02
  19 F= -.59860336E+02 E0= -.59860336E+02  d E =-.113093E-02
       N       E                     dE             d eps       ncg     rms          rms(c)
DAV:   1    -0.598611111324E+02   -0.74134E-03   -0.93202E-02  1288   0.827E-01    0.113E-01
DAV:   2    -0.598611806880E+02   -0.69556E-04   -0.31827E-03  1540   0.163E-01    0.576E-02
DAV:   3    -0.598611101443E+02    0.70544E-04   -0.10613E-04  1008   0.334E-02
  20 F= -.59861110E+02 E0= -.59861110E+02  d E =-.190516E-02
       N       E                     dE             d eps       ncg     rms          rms(c)
DAV:   1    -0.598601278623E+02    0.10528E-02   -0.37401E-01  1288   0.166E+00    0.226E-01
DAV:   2    -0.598604366277E+02   -0.30877E-03   -0.12827E-02  1526   0.327E-01    0.114E-01
DAV:   3    -0.598601650427E+02    0.27159E-03   -0.46749E-04  1624   0.662E-02    0.660E-02
DAV:   4    -0.598600681492E+02    0.96893E-04   -0.12224E-04   980   0.394E-02
  21 F= -.59860068E+02 E0= -.59860068E+02  d E =-.863168E-03
       N       E                     dE             d eps       ncg     rms          rms(c)
DAV:   1    -0.598609870641E+02   -0.82202E-03   -0.15770E-01  1288   0.108E+00    0.144E-01
DAV:   2    -0.598611376054E+02   -0.15054E-03   -0.54725E-03  1526   0.214E-01    0.751E-02
DAV:   3    -0.598610203096E+02    0.11730E-03   -0.17103E-04  1106   0.417E-02    0.435E-02
DAV:   4    -0.598609714441E+02    0.48865E-04   -0.88262E-05   812   0.320E-02
  22 F= -.59860971E+02 E0= -.59860971E+02  d E =-.176646E-02
       N       E                     dE             d eps       ncg     rms          rms(c)
DAV:   1    -0.598625462778E+02   -0.15260E-02   -0.82660E-02  1288   0.770E-01    0.963E-02
DAV:   2    -0.598625838965E+02   -0.37619E-04   -0.26083E-03  1554   0.147E-01    0.479E-02
DAV:   3    -0.598625293140E+02    0.54583E-04   -0.86612E-05   966   0.295E-02
  23 F= -.59862529E+02 E0= -.59862529E+02  d E =-.155787E-02
       N       E                     dE             d eps       ncg     rms          rms(c)
DAV:   1    -0.598641289880E+02   -0.15451E-02   -0.73926E-01  1260   0.230E+00    0.293E-01
DAV:   2    -0.598643706704E+02   -0.24168E-03   -0.23160E-02  1568   0.437E-01    0.148E-01
DAV:   3    -0.598638802203E+02    0.49045E-03   -0.89758E-04  1540   0.904E-02    0.829E-02
DAV:   4    -0.598636994355E+02    0.18078E-03   -0.20266E-04  1092   0.515E-02    0.277E-02
DAV:   5    -0.598636861960E+02    0.13240E-04   -0.64153E-05   868   0.276E-02
  24 F= -.59863686E+02 E0= -.59863686E+02  d E =-.271475E-02
       N       E                     dE             d eps       ncg     rms          rms(c)
DAV:   1    -0.598641156572E+02   -0.41622E-03   -0.72464E-02  1288   0.720E-01    0.922E-02
DAV:   2    -0.598641466642E+02   -0.31007E-04   -0.22796E-03  1568   0.137E-01    0.459E-02
DAV:   3    -0.598641035633E+02    0.43101E-04   -0.79261E-05   840   0.279E-02
  25 F= -.59864104E+02 E0= -.59864104E+02  d E =-.313212E-02
       N       E                     dE             d eps       ncg     rms          rms(c)
DAV:   1    -0.598650921184E+02   -0.94545E-03   -0.30379E-02  1288   0.468E-01    0.460E-02
DAV:   2    -0.598651710892E+02   -0.78971E-04   -0.99868E-04  1568   0.899E-02
  26 F= -.59865171E+02 E0= -.59865171E+02  d E =-.106753E-02
       N       E                     dE             d eps       ncg     rms          rms(c)
DAV:   1    -0.598654252537E+02   -0.33314E-03   -0.18614E-01  1260   0.116E+00    0.107E-01
DAV:   2    -0.598658885811E+02   -0.46333E-03   -0.60182E-03  1610   0.222E-01    0.558E-02
DAV:   3    -0.598658529884E+02    0.35593E-04   -0.75591E-05  1022   0.309E-02
  27 F= -.59865853E+02 E0= -.59865853E+02  d E =-.174943E-02
       N       E                     dE             d eps       ncg     rms          rms(c)
DAV:   1    -0.598666138735E+02   -0.72529E-03   -0.26430E-02  1288   0.439E-01    0.523E-02
DAV:   2    -0.598666656015E+02   -0.51728E-04   -0.90821E-04  1512   0.863E-02
  28 F= -.59866666E+02 E0= -.59866666E+02  d E =-.812613E-03
       N       E                     dE             d eps       ncg     rms          rms(c)
DAV:   1    -0.598671558087E+02   -0.54194E-03   -0.34100E-02  1274   0.498E-01    0.635E-02
DAV:   2    -0.598671994723E+02   -0.43664E-04   -0.11878E-03  1568   0.992E-02    0.371E-02
DAV:   3    -0.598671733060E+02    0.26166E-04   -0.22630E-05   798   0.174E-02
  29 F= -.59867173E+02 E0= -.59867173E+02  d E =-.132032E-02
       N       E                     dE             d eps       ncg     rms          rms(c)
DAV:   1    -0.598672679009E+02   -0.68429E-04   -0.13493E-01  1260   0.992E-01    0.121E-01
DAV:   2    -0.598675642190E+02   -0.29632E-03   -0.47819E-03  1540   0.197E-01    0.543E-02
DAV:   3    -0.598675040294E+02    0.60190E-04   -0.65716E-05  1022   0.297E-02
  30 F= -.59867504E+02 E0= -.59867504E+02  d E =-.165104E-02
       N       E                     dE             d eps       ncg     rms          rms(c)
DAV:   1    -0.598685148113E+02   -0.95059E-03   -0.66473E-02  1260   0.698E-01    0.114E-01
DAV:   2    -0.598684585545E+02    0.56257E-04   -0.22744E-03  1554   0.138E-01    0.563E-02
DAV:   3    -0.598683616372E+02    0.96917E-04   -0.10696E-04   994   0.338E-02
  31 F= -.59868362E+02 E0= -.59868362E+02  d E =-.857608E-03
       N       E                     dE             d eps       ncg     rms          rms(c)
DAV:   1    -0.598690300051E+02   -0.57145E-03   -0.12673E-01  1260   0.964E-01    0.158E-01
DAV:   2    -0.598689221078E+02    0.10790E-03   -0.43830E-03  1568   0.192E-01    0.784E-02
DAV:   3    -0.598687334443E+02    0.18866E-03   -0.20553E-04  1050   0.467E-02    0.430E-02
DAV:   4    -0.598686631203E+02    0.70324E-04   -0.12303E-04  1008   0.392E-02
  32 F= -.59868663E+02 E0= -.59868663E+02  d E =-.115909E-02
       N       E                     dE             d eps       ncg     rms          rms(c)
DAV:   1    -0.598696771740E+02   -0.94373E-03   -0.56081E-02  1260   0.640E-01    0.844E-02
DAV:   2    -0.598696904267E+02   -0.13253E-04   -0.17098E-03  1610   0.122E-01    0.437E-02
DAV:   3    -0.598696426695E+02    0.47757E-04   -0.82872E-05  1008   0.295E-02
  33 F= -.59869643E+02 E0= -.59869643E+02  d E =-.979549E-03
       N       E                     dE             d eps       ncg     rms          rms(c)
DAV:   1    -0.598716540836E+02   -0.19637E-02   -0.42325E-01  1260   0.176E+00    0.231E-01
DAV:   2    -0.598717166220E+02   -0.62538E-04   -0.12879E-02  1596   0.336E-01    0.123E-01
DAV:   3    -0.598713503244E+02    0.36630E-03   -0.70156E-04  1568   0.808E-02    0.737E-02
DAV:   4    -0.598712007387E+02    0.14959E-03   -0.16746E-04  1008   0.480E-02    0.216E-02
DAV:   5    -0.598711960665E+02    0.46722E-05   -0.67710E-05   952   0.284E-02
  34 F= -.59871196E+02 E0= -.59871196E+02  d E =-.253295E-02
       N       E                     dE             d eps       ncg     rms          rms(c)
DAV:   1    -0.598689059954E+02    0.22947E-02   -0.17053E+00  1260   0.353E+00    0.460E-01
DAV:   2    -0.598694651115E+02   -0.55912E-03   -0.52646E-02  1596   0.677E-01    0.241E-01
DAV:   3    -0.598680831866E+02    0.13819E-02   -0.27431E-03  1582   0.159E-01    0.145E-01
DAV:   4    -0.598675109849E+02    0.57220E-03   -0.72794E-04  1526   0.937E-02    0.453E-02
DAV:   5    -0.598674790871E+02    0.31898E-04   -0.15533E-04  1008   0.444E-02
  35 F= -.59867479E+02 E0= -.59867479E+02  d E =0.118403E-02
       N       E                     dE             d eps       ncg     rms          rms(c)
DAV:   1    -0.598724823074E+02   -0.49713E-02   -0.10239E+00  1260   0.274E+00    0.350E-01
DAV:   2    -0.598727918406E+02   -0.30953E-03   -0.31381E-02  1596   0.525E-01    0.191E-01
DAV:   3    -0.598719665415E+02    0.82530E-03   -0.16746E-03  1582   0.123E-01    0.115E-01
DAV:   4    -0.598716119824E+02    0.35456E-03   -0.43465E-04  1512   0.720E-02    0.362E-02
DAV:   5    -0.598715877524E+02    0.24230E-04   -0.97497E-05  1008   0.353E-02
  36 F= -.59871588E+02 E0= -.59871588E+02  d E =-.292463E-02
       N       E                     dE             d eps       ncg     rms          rms(c)
DAV:   1    -0.598720892397E+02   -0.47726E-03   -0.27119E-02  1260   0.443E-01    0.469E-02
DAV:   2    -0.598721215146E+02   -0.32275E-04   -0.83836E-04  1582   0.849E-02
  37 F= -.59872122E+02 E0= -.59872122E+02  d E =-.533762E-03
       N       E                     dE             d eps       ncg     rms          rms(c)
DAV:   1    -0.598726854424E+02   -0.59620E-03   -0.13127E-01  1260   0.975E-01    0.111E-01
DAV:   2    -0.598727909461E+02   -0.10550E-03   -0.40699E-03  1596   0.187E-01    0.668E-02
DAV:   3    -0.598727136581E+02    0.77288E-04   -0.17297E-04  1106   0.414E-02
  38 F= -.59872714E+02 E0= -.59872714E+02  d E =-.112591E-02
       N       E                     dE             d eps       ncg     rms          rms(c)
DAV:   1    -0.598726092176E+02    0.18173E-03   -0.13187E-02  1260   0.311E-01    0.329E-02
DAV:   2    -0.598726416028E+02   -0.32385E-04   -0.44884E-04  1512   0.610E-02
  39 F= -.59872642E+02 E0= -.59872642E+02  d E =-.105385E-02
       N       E                     dE             d eps       ncg     rms          rms(c)
DAV:   1    -0.598726953899E+02   -0.86172E-04   -0.51533E-03  1274   0.194E-01    0.219E-02
DAV:   2    -0.598727050720E+02   -0.96822E-05   -0.16334E-04   980   0.378E-02
  40 F= -.59872705E+02 E0= -.59872705E+02  d E =-.111732E-02
       N       E                     dE             d eps       ncg     rms          rms(c)
DAV:   1    -0.598736212086E+02   -0.92582E-03   -0.18883E-02  1260   0.377E-01    0.462E-02
DAV:   2    -0.598736616450E+02   -0.40436E-04   -0.71815E-04  1512   0.766E-02
  41 F= -.59873662E+02 E0= -.59873662E+02  d E =-.956573E-03
       N       E                     dE             d eps       ncg     rms          rms(c)
DAV:   1    -0.598752639190E+02   -0.16427E-02   -0.16856E-01  1260   0.113E+00    0.141E-01
DAV:   2    -0.598755544388E+02   -0.29052E-03   -0.63037E-03  1512   0.228E-01    0.740E-02
DAV:   3    -0.598754454745E+02    0.10896E-03   -0.14166E-04  1106   0.414E-02    0.474E-02
DAV:   4    -0.598753821212E+02    0.63353E-04   -0.10108E-04  1008   0.392E-02
  42 F= -.59875382E+02 E0= -.59875382E+02  d E =-.267705E-02
       N       E                     dE             d eps       ncg     rms          rms(c)
DAV:   1    -0.598755008049E+02   -0.55330E-04   -0.67511E-01  1260   0.226E+00    0.284E-01
DAV:   2    -0.598769302302E+02   -0.14294E-02   -0.25683E-02  1512   0.458E-01    0.130E-01
DAV:   3    -0.598765940688E+02    0.33616E-03   -0.59701E-04  1638   0.796E-02    0.849E-02
DAV:   4    -0.598763994319E+02    0.19464E-03   -0.22081E-04  1232   0.560E-02    0.248E-02
DAV:   5    -0.598763907521E+02    0.86798E-05   -0.78700E-05  1008   0.330E-02
  43 F= -.59876391E+02 E0= -.59876391E+02  d E =-.368568E-02
       N       E                     dE             d eps       ncg     rms          rms(c)
DAV:   1    -0.598777788701E+02   -0.13794E-02   -0.63297E-02  1288   0.696E-01    0.803E-02
DAV:   2    -0.598779283037E+02   -0.14943E-03   -0.23394E-03  1568   0.137E-01    0.355E-02
DAV:   3    -0.598779063809E+02    0.21923E-04   -0.39688E-05   966   0.218E-02
  44 F= -.59877906E+02 E0= -.59877906E+02  d E =-.151563E-02
       N       E                     dE             d eps       ncg     rms          rms(c)
DAV:   1    -0.598791539253E+02   -0.12256E-02   -0.56342E-01  1260   0.207E+00    0.229E-01
DAV:   2    -0.598804198614E+02   -0.12659E-02   -0.20452E-02  1554   0.406E-01    0.111E-01
DAV:   3    -0.598802157147E+02    0.20415E-03   -0.40298E-04  1568   0.646E-02    0.762E-02
DAV:   4    -0.598800873043E+02    0.12841E-03   -0.16439E-04  1008   0.469E-02    0.217E-02
DAV:   5    -0.598800858224E+02    0.14819E-05   -0.72019E-05   966   0.289E-02
  45 F= -.59880086E+02 E0= -.59880086E+02  d E =-.369507E-02
       N       E                     dE             d eps       ncg     rms          rms(c)
DAV:   1    -0.598822574303E+02   -0.21701E-02   -0.44029E-02  1288   0.594E-01    0.887E-02
DAV:   2    -0.598823252560E+02   -0.67826E-04   -0.21941E-03  1568   0.132E-01    0.402E-02
DAV:   3    -0.598822930280E+02    0.32228E-04   -0.91974E-05   882   0.291E-02
  46 F= -.59882293E+02 E0= -.59882293E+02  d E =-.220721E-02
       N       E                     dE             d eps       ncg     rms          rms(c)
DAV:   1    -0.598847159723E+02   -0.23907E-02   -0.39252E-01  1288   0.177E+00    0.261E-01
DAV:   2    -0.598852115477E+02   -0.49558E-03   -0.19153E-02  1582   0.393E-01    0.124E-01
DAV:   3    -0.598849108050E+02    0.30074E-03   -0.93841E-04  1540   0.892E-02    0.757E-02
DAV:   4    -0.598847600882E+02    0.15072E-03   -0.13243E-04  1008   0.416E-02    0.322E-02
DAV:   5    -0.598847276440E+02    0.32444E-04   -0.10151E-04  1008   0.370E-02
  47 F= -.59884728E+02 E0= -.59884728E+02  d E =-.464182E-02
       N       E                     dE             d eps       ncg     rms          rms(c)
DAV:   1    -0.598852706936E+02   -0.51061E-03   -0.88782E-02  1288   0.826E-01    0.114E-01
DAV:   2    -0.598855364111E+02   -0.26572E-03   -0.41933E-03  1568   0.178E-01    0.457E-02
DAV:   3    -0.598854920240E+02    0.44387E-04   -0.73281E-05  1008   0.285E-02
  48 F= -.59885492E+02 E0= -.59885492E+02  d E =-.764380E-03
       N       E                     dE             d eps       ncg     rms          rms(c)
DAV:   1    -0.598854637103E+02    0.72701E-04   -0.21420E-04  1218   0.431E-02    0.962E-03
DAV:   2    -0.598854623903E+02    0.13200E-05   -0.12701E-05   812   0.120E-02
  49 F= -.59885462E+02 E0= -.59885462E+02  d E =-.734746E-03
       N       E                     dE             d eps       ncg     rms          rms(c)
DAV:   1    -0.598862399019E+02   -0.77619E-03   -0.37136E-02  1288   0.532E-01    0.755E-02
DAV:   2    -0.598863237258E+02   -0.83824E-04   -0.17938E-03  1540   0.118E-01    0.346E-02
DAV:   3    -0.598863031492E+02    0.20577E-04   -0.60011E-05   896   0.239E-02
  50 F= -.59886303E+02 E0= -.59886303E+02  d E =-.840759E-03
