 vasp.5.4.4.18Apr17-6-g9f103f2a35 (build Oct 27 2022 13:04:57) complex          
  
 executed on             LinuxIFC date 2024.06.30  03:14:24
 running on   14 total cores
 distrk:  each k-point on   14 cores,    1 groups
 distr:  one band on NCORES_PER_BAND=   1 cores,   14 groups


--------------------------------------------------------------------------------------------------------


 INCAR:
 POTCAR:    PAW_PBE K_pv 17Jan2003                
 POTCAR:    PAW_PBE Sb 06Sep2000                  
 POTCAR:    PAW_PBE Se 06Sep2000                  

 ----------------------------------------------------------------------------- 
|                                                                             |
|           W    W    AA    RRRRR   N    N  II  N    N   GGGG   !!!           |
|           W    W   A  A   R    R  NN   N  II  NN   N  G    G  !!!           |
|           W    W  A    A  R    R  N N  N  II  N N  N  G       !!!           |
|           W WW W  AAAAAA  RRRRR   N  N N  II  N  N N  G  GGG   !            |
|           WW  WW  A    A  R   R   N   NN  II  N   NN  G    G                |
|           W    W  A    A  R    R  N    N  II  N    N   GGGG   !!!           |
|                                                                             |
|      For optimal performance we recommend to set                            |
|        NCORE= 4 - approx SQRT( number of cores)                             |
|      NCORE specifies how many cores store one orbital (NPAR=cpu/NCORE).     |
|      This setting can  greatly improve the performance of VASP for DFT.     |
|      The default,   NCORE=1            might be grossly inefficient         |
|      on modern multi-core architectures or massively parallel machines.     |
|      Do your own testing !!!!                                               |
|      Unfortunately you need to use the default for GW and RPA calculations. |
|      (for HF NCORE is supported but not extensively tested yet)             |
|                                                                             |
 ----------------------------------------------------------------------------- 

 POTCAR:    PAW_PBE K_pv 17Jan2003                
   VRHFIN =K:  p6s1                                                             
   LEXCH  = PE                                                                  
   EATOM  =   450.4813 eV,   33.1094 Ry                                         
                                                                                
   TITEL  = PAW_PBE K_pv 17Jan2003                                              
   LULTRA =        F    use ultrasoft PP ?                                      
   IUNSCR =        1    unscreen: 0-lin 1-nonlin 2-no                           
   RPACOR =    2.500    partial core radius                                     
   POMASS =   39.098; ZVAL   =    7.000    mass and valenz                      
   RCORE  =    3.100    outmost cutoff radius                                   
   RWIGS  =    4.300; RWIGS  =    2.275    wigner-seitz radius (au A)           
   ENMAX  =  116.731; ENMIN  =   87.548 eV                                      
   RCLOC  =    2.806    cutoff for local pot                                    
   LCOR   =        T    correct aug charges                                     
   LPAW   =        T    paw PP                                                  
   EAUG   =  291.424                                                            
   DEXC   =    0.000                                                            
   RMAX   =    3.171    core radius for proj-oper                               
   RAUG   =    1.300    factor for augmentation sphere                          
   RDEP   =    3.267    radius for radial grids                                 
   RDEPT  =    2.513    core radius for aug-charge                              
                                                                                
   Atomic configuration                                                         
    7 entries                                                                   
     n  l   j            E        occ.                                          
     1  0  0.50     -3522.0595   2.0000                                         
     2  0  0.50      -353.3851   2.0000                                         
     2  1  1.50      -280.0935   6.0000                                         
     3  0  0.50       -35.3419   2.0000                                         
     3  1  1.50       -18.8125   6.0000                                         
     4  0  0.50        -2.3190   1.0000                                         
     3  2  1.50        -1.3606   0.0000                                         
   Description                                                                  
     l       E           TYP  RCUT    TYP  RCUT                                 
     1    -18.8124623     23  3.000                                             
     1    -20.4087390     23  3.000                                             
     0     -2.3190215     23  3.100                                             
     0     20.4087390     23  3.100                                             
     2     -1.3605826     23  3.000                                             
  local pseudopotential read in
  partial core-charges read in
  partial kinetic energy density read in
  atomic valenz-charges read in
  non local Contribution for L=           1  read in
    real space projection operators read in
  non local Contribution for L=           1  read in
    real space projection operators read in
  non local Contribution for L=           0  read in
    real space projection operators read in
  non local Contribution for L=           0  read in
    real space projection operators read in
  non local Contribution for L=           2  read in
    real space projection operators read in
    PAW grid and wavefunctions read in
 
   number of l-projection  operators is LMAX  =           5
   number of lm-projection operators is LMMAX =          13
 
 POTCAR:    PAW_PBE Sb 06Sep2000                  
   VRHFIN =Sb: s2p3                                                             
   LEXCH  = PE                                                                  
   EATOM  =   149.9515 eV,   11.0211 Ry                                         
                                                                                
   TITEL  = PAW_PBE Sb 06Sep2000                                                
   LULTRA =        F    use ultrasoft PP ?                                      
   IUNSCR =        1    unscreen: 0-lin 1-nonlin 2-no                           
   RPACOR =    2.200    partial core radius                                     
   POMASS =  121.750; ZVAL   =    5.000    mass and valenz                      
   RCORE  =    2.300    outmost cutoff radius                                   
   RWIGS  =    2.980; RWIGS  =    1.577    wigner-seitz radius (au A)           
   ENMAX  =  172.069; ENMIN  =  129.052 eV                                      
   ICORE  =        3    local potential                                         
   LCOR   =        T    correct aug charges                                     
   LPAW   =        T    paw PP                                                  
   EAUG   =  380.513                                                            
   DEXC   =    0.000                                                            
   RMAX   =    2.346    core radius for proj-oper                               
   RAUG   =    1.300    factor for augmentation sphere                          
   RDEP   =    2.360    radius for radial grids                                 
   RDEPT  =    2.192    core radius for aug-charge                              
                                                                                
   Atomic configuration                                                         
   13 entries                                                                   
     n  l   j            E        occ.                                          
     1  0  0.50    -30298.2797   2.0000                                         
     2  0  0.50     -4610.2252   2.0000                                         
     2  1  1.50     -4138.3407   6.0000                                         
     3  0  0.50      -903.8815   2.0000                                         
     3  1  1.50      -750.1337   6.0000                                         
     3  2  2.50      -515.7092  10.0000                                         
     4  0  0.50      -148.8034   2.0000                                         
     4  1  1.50      -101.7581   6.0000                                         
     4  2  2.50       -33.5048  10.0000                                         
     5  0  0.50       -12.8298   2.0000                                         
     5  1  0.50        -4.8276   3.0000                                         
     5  2  1.50        -4.0817   0.0000                                         
     4  3  2.50        -4.0817   0.0000                                         
   Description                                                                  
     l       E           TYP  RCUT    TYP  RCUT                                 
     0    -12.8297861     23  2.300                                             
     0     13.6058260     23  2.300                                             
     1     -4.8275512     23  2.300                                             
     1     -0.7245443     23  2.300                                             
     2     -4.0817478     23  2.300                                             
     3     -1.3605826     23  2.300                                             
  local pseudopotential read in
  partial core-charges read in
  partial kinetic energy density read in
  atomic valenz-charges read in
  non local Contribution for L=           0  read in
    real space projection operators read in
  non local Contribution for L=           0  read in
    real space projection operators read in
  non local Contribution for L=           1  read in
    real space projection operators read in
  non local Contribution for L=           1  read in
    real space projection operators read in
  non local Contribution for L=           2  read in
    real space projection operators read in
    PAW grid and wavefunctions read in
 
   number of l-projection  operators is LMAX  =           5
   number of lm-projection operators is LMMAX =          13
 
 POTCAR:    PAW_PBE Se 06Sep2000                  
   VRHFIN =Se: s2p4                                                             
   LEXCH  = PE                                                                  
   EATOM  =   257.1286 eV,   18.8984 Ry                                         
                                                                                
   TITEL  = PAW_PBE Se 06Sep2000                                                
   LULTRA =        F    use ultrasoft PP ?                                      
   IUNSCR =        1    unscreen: 0-lin 1-nonlin 2-no                           
   RPACOR =    1.900    partial core radius                                     
   POMASS =   78.960; ZVAL   =    6.000    mass and valenz                      
   RCORE  =    2.100    outmost cutoff radius                                   
   RWIGS  =    2.200; RWIGS  =    1.164    wigner-seitz radius (au A)           
   ENMAX  =  211.555; ENMIN  =  158.666 eV                                      
   ICORE  =        3    local potential                                         
   LCOR   =        T    correct aug charges                                     
   LPAW   =        T    paw PP                                                  
   EAUG   =  446.842                                                            
   DEXC   =    0.000                                                            
   RMAX   =    2.147    core radius for proj-oper                               
   RAUG   =    1.300    factor for augmentation sphere                          
   RDEP   =    2.177    radius for radial grids                                 
   RDEPT  =    1.928    core radius for aug-charge                              
                                                                                
   Atomic configuration                                                         
   10 entries                                                                   
     n  l   j            E        occ.                                          
     1  0  0.50    -12503.4787   2.0000                                         
     2  0  0.50     -1606.9547   2.0000                                         
     2  1  1.50     -1413.3140   6.0000                                         
     3  0  0.50      -213.4885   2.0000                                         
     3  1  1.50      -152.9538   6.0000                                         
     3  2  2.50       -53.1221  10.0000                                         
     4  0  0.50       -17.2865   2.0000                                         
     4  1  0.50        -6.5110   4.0000                                         
     4  2  2.50        -6.8029   0.0000                                         
     4  3  2.50        -6.8029   0.0000                                         
   Description                                                                  
     l       E           TYP  RCUT    TYP  RCUT                                 
     0    -17.2865377     23  2.100                                             
     0    -15.3094411     23  2.100                                             
     1     -6.5110275     23  2.100                                             
     1     -0.0695192     23  2.100                                             
     2     -6.8029130     23  2.100                                             
     3     -1.3605826      7  2.100                                             
  local pseudopotential read in
  partial core-charges read in
  partial kinetic energy density read in
  atomic valenz-charges read in
  non local Contribution for L=           0  read in
    real space projection operators read in
  non local Contribution for L=           0  read in
    real space projection operators read in
  non local Contribution for L=           1  read in
    real space projection operators read in
  non local Contribution for L=           1  read in
    real space projection operators read in
  non local Contribution for L=           2  read in
    real space projection operators read in
    PAW grid and wavefunctions read in
 
   number of l-projection  operators is LMAX  =           5
   number of lm-projection operators is LMMAX =          13
 
 Optimization of the real space projectors (new method)

 maximal supplied QI-value         = 12.09
 optimisation between [QCUT,QGAM] = [  8.83, 17.66] = [ 21.83, 87.31] Ry 
 Optimized for a Real-space Cutoff    1.69 Angstroem

   l    n(q)    QCUT    max X(q) W(low)/X(q) W(high)/X(q)  e(spline) 
   1      8     8.829    42.457    0.27E-03    0.59E-03    0.25E-06
   1      8     8.829    43.305    0.28E-03    0.61E-03    0.26E-06
   0      9     8.829    47.210    0.17E-02    0.12E-03    0.43E-06
   0      9     8.829    15.951    0.11E-02    0.76E-04    0.28E-06
   2      8     8.829     5.674    0.29E-03    0.69E-04    0.39E-07
 Optimization of the real space projectors (new method)

 maximal supplied QI-value         = 16.25
 optimisation between [QCUT,QGAM] = [  8.78, 17.71] = [ 21.57, 87.87] Ry 
 Optimized for a Real-space Cutoff    1.26 Angstroem

   l    n(q)    QCUT    max X(q) W(low)/X(q) W(high)/X(q)  e(spline) 
   0      7     8.776    19.000    0.12E-02    0.42E-03    0.95E-07
   0      7     8.776     9.057    0.14E-02    0.54E-03    0.11E-06
   1      6     8.776   125.345    0.45E-03    0.22E-02    0.77E-07
   1      6     8.776    79.963    0.45E-03    0.21E-02    0.76E-07
   2      6     8.776     6.963    0.11E-02    0.51E-03    0.39E-07
 Optimization of the real space projectors (new method)

 maximal supplied QI-value         = 17.95
 optimisation between [QCUT,QGAM] = [  8.80, 17.59] = [ 21.67, 86.68] Ry 
 Optimized for a Real-space Cutoff    1.19 Angstroem

   l    n(q)    QCUT    max X(q) W(low)/X(q) W(high)/X(q)  e(spline) 
   0      6     8.797   133.320    0.14E-02    0.11E-02    0.95E-07
   0      6     8.797   111.601    0.15E-02    0.12E-02    0.10E-06
   1      6     8.797    47.222    0.19E-02    0.96E-03    0.11E-06
   1      6     8.797    33.775    0.19E-02    0.99E-03    0.11E-06
   2      5     8.797     3.720    0.16E-02    0.14E-02    0.40E-07
  PAW_PBE K_pv 17Jan2003                :
 energy of atom  1       EATOM= -450.4813
 kinetic energy error for atom=    0.0008 (will be added to EATOM!!)
  PAW_PBE Sb 06Sep2000                  :
 energy of atom  2       EATOM= -149.9515
 kinetic energy error for atom=    0.0018 (will be added to EATOM!!)
  PAW_PBE Se 06Sep2000                  :
 energy of atom  3       EATOM= -257.1286
 kinetic energy error for atom=    0.0040 (will be added to EATOM!!)
 
 
 POSCAR: K4 Sb4 Se8                              
  positions in direct lattice
  No initial velocities read in
 exchange correlation table for  LEXCH =        8
   RHO(1)=    0.500       N(1)  =     2000
   RHO(2)=  100.500       N(2)  =     4000
 


--------------------------------------------------------------------------------------------------------


 ion  position               nearest neighbor table
   1  0.565  0.328  0.153-  13 3.47  12 3.48  15 3.53  15 3.54  11 3.62   9 3.65  13 3.70   7 3.98
                             6 4.17   5 4.22   7 4.49   4 4.61   3 4.90   4 5.03   3 5.18   2 5.41
   2  0.894  0.716  0.580-  14 3.40  10 3.44  14 3.48  16 3.50   9 3.62  12 3.68  10 3.78   8 3.96
                             4 4.02   5 4.21   8 4.32   3 4.61   4 4.66   3 5.03   4 5.24   1 5.41
   3  0.435  0.672  0.847-  11 3.47  14 3.48  16 3.53  16 3.54  13 3.62  10 3.65  11 3.70   6 3.98
                             7 4.17   8 4.22   6 4.49   2 4.61   1 4.90   2 5.03   1 5.18   4 5.41
   4  0.106  0.284  0.420-  12 3.40   9 3.44  12 3.48  15 3.50  10 3.62  14 3.68   9 3.78   5 3.96
                             2 4.02   8 4.21   5 4.32   1 4.61   2 4.66   1 5.03   2 5.24   3 5.41
   5  0.410  0.806  0.348-  12 2.55   9 2.57  13 2.80  14 3.10   4 3.96   2 4.21   1 4.22   4 4.32

   6  0.012  0.216  0.915-  16 2.57  11 2.58  15 2.84  10 2.97   3 3.98   1 4.17   3 4.49
   7  0.988  0.784  0.085-  15 2.57  13 2.58  16 2.84   9 2.97   1 3.98   3 4.17   1 4.49
   8  0.590  0.194  0.652-  14 2.55  10 2.57  11 2.80  12 3.10   2 3.96   4 4.21   3 4.22   2 4.32

   9  0.014  0.757  0.318-   5 2.57   7 2.97   4 3.44   2 3.62   1 3.65   4 3.78
  10  0.986  0.243  0.682-   8 2.57   6 2.97   2 3.44   4 3.62   3 3.65   2 3.78
  11  0.623  0.210  0.876-   6 2.58   8 2.80   3 3.47   1 3.62   3 3.70
  12  0.576  0.202  0.408-   5 2.55   8 3.10   4 3.40   4 3.48   1 3.48   2 3.68
  13  0.377  0.790  0.124-   7 2.58   5 2.80   1 3.47   3 3.62   1 3.70
  14  0.424  0.798  0.592-   8 2.55   5 3.10   2 3.40   2 3.48   3 3.48   4 3.68
  15  0.021  0.176  0.134-   7 2.57   6 2.84   4 3.50   1 3.53   1 3.54
  16  0.979  0.824  0.866-   6 2.57   7 2.84   2 3.50   3 3.53   3 3.54
 
  LATTYP: Found a triclinic cell.
 ALAT       =     6.7542731366
 B/A-ratio  =     1.2288700634
 C/A-ratio  =     1.9891892860
 COS(alpha) =     0.0331239032
 COS(beta)  =     0.3516341537
 COS(gamma) =     0.6087158828
  
  Lattice vectors:
  
 A1 = (   1.7032276300,  -6.5359932400,  -0.0036892600)
 A2 = (  -5.0983349500,  -6.5497324300,  -0.0067236600)
 A3 = (   4.1615526200,  -3.7908156300, -12.1993689500)


Analysis of symmetry for initial positions (statically):
=====================================================================
 Subroutine PRICEL returns:
 Original cell was already a primitive cell.
 

 Routine SETGRP: Setting up the symmetry group for a 
 triclinic supercell.


 Subroutine GETGRP returns: Found  2 space group operations
 (whereof  2 operations were pure point group operations)
 out of a pool of  2 trial point group operations.


The static configuration has the point symmetry S_2 .


Analysis of symmetry for dynamics (positions and initial velocities):
=====================================================================
 Subroutine PRICEL returns:
 Original cell was already a primitive cell.
 

 Routine SETGRP: Setting up the symmetry group for a 
 triclinic supercell.


 Subroutine GETGRP returns: Found  2 space group operations
 (whereof  2 operations were pure point group operations)
 out of a pool of  2 trial point group operations.


The dynamic configuration has the point symmetry S_2 .


 Subroutine INISYM returns: Found  2 space group operations
 (whereof  2 operations are pure point group operations),
 and found     1 'primitive' translations

 
 
 KPOINTS: pymatgen with grid density = 807 / numbe

Automatic generation of k-mesh.
Space group operators:
 irot       det(A)        alpha          n_x          n_y          n_z        tau_x        tau_y        tau_z
    1     1.000000     0.000000     1.000000     0.000000     0.000000     0.000000     0.000000     0.000000
    2    -1.000000     0.000000     1.000000     0.000000     0.000000     0.000000     0.000000     0.000000
 
 Subroutine IBZKPT returns following result:
 ===========================================
 
 Found      9 irreducible k-points:
 
 Following reciprocal coordinates:
            Coordinates               Weight
  0.000000 -0.000000  0.250000      2.000000
  0.333333  0.000000  0.250000      2.000000
 -0.333333 -0.000000  0.250000      2.000000
  0.000000  0.333333  0.250000      2.000000
  0.333333  0.333333  0.250000      2.000000
 -0.333333  0.333333  0.250000      2.000000
 -0.000000 -0.333333  0.250000      2.000000
  0.333333 -0.333333  0.250000      2.000000
 -0.333333 -0.333333  0.250000      2.000000
 
 Following cartesian coordinates:
            Coordinates               Weight
 -0.000009 -0.000014  0.020494      2.000000
  0.048968  0.012742  0.033238      2.000000
 -0.048986 -0.012770  0.007750      2.000000
 -0.000117  0.050951  0.031944      2.000000
  0.048860  0.063707  0.044688      2.000000
 -0.049094  0.038195  0.019201      2.000000
  0.000099 -0.050979  0.009044      2.000000
  0.049076 -0.038223  0.021788      2.000000
 -0.048878 -0.063735 -0.003700      2.000000
 


--------------------------------------------------------------------------------------------------------




 Dimension of arrays:
   k-points           NKPTS =      9   k-points in BZ     NKDIM =      9   number of bands    NBANDS=     70
   number of dos      NEDOS =    301   number of ions     NIONS =     16
   non local maximal  LDIM  =      5   non local SUM 2l+1 LMDIM =     13
   total plane-waves  NPLWV =  48600
   max r-space proj   IRMAX =   1864   max aug-charges    IRDMAX=   4155
   dimension x,y,z NGX =    30 NGY =   30 NGZ =   54
   dimension x,y,z NGXF=    48 NGYF=   48 NGZF=   90
   support grid    NGXF=    48 NGYF=   48 NGZF=   90
   ions per type =               4   4   8
   NGX,Y,Z   is equivalent  to a cutoff of   7.33,  7.38,  7.05 a.u.
   NGXF,Y,Z  is equivalent  to a cutoff of  11.73, 11.81, 11.74 a.u.

 SYSTEM =  CIS                                     
 POSCAR =  K4 Sb4 Se8                              

 Startparameter for this run:
   NWRITE =      2    write-flag & timer
   PREC   = medium    normal or accurate (medium, high low for compatibility)
   ISTART =      0    job   : 0-new  1-cont  2-samecut
   ICHARG =      2    charge: 1-file 2-atom 10-const
   ISPIN  =      1    spin polarized calculation?
   LNONCOLLINEAR =      F non collinear calculations
   LSORBIT =      F    spin-orbit coupling
   INIWAV =      1    electr: 0-lowe 1-rand  2-diag
   LASPH  =      T    aspherical Exc in radial PAW
   METAGGA=      F    non-selfconsistent MetaGGA calc.

 Electronic Relaxation 1
   ENCUT  =  300.0 eV  22.05 Ry    4.70 a.u.   9.61  9.54 17.99*2*pi/ulx,y,z
   ENINI  =  300.0     initial cutoff
   ENAUG  =  446.8 eV  augmentation charge cutoff
   NELM   =     60;   NELMIN=  2; NELMDL= -5     # of ELM steps 
   EDIFF  = 0.1E-03   stopping-criterion for ELM
   LREAL  =      T    real-space projection
   NLSPLINE    = F    spline interpolate recip. space projectors
   LCOMPAT=      F    compatible to vasp.4.4
   GGA_COMPAT  = T    GGA compatible to vasp.4.4-vasp.4.6
   LMAXPAW     = -100 max onsite density
   LMAXMIX     =    4 max onsite mixed and CHGCAR
   VOSKOWN=      0    Vosko Wilk Nusair interpolation
   ROPT   =   -0.00200  -0.00200  -0.00200
 Ionic relaxation
   EDIFFG = -.5E-01   stopping-criterion for IOM
   NSW    =     99    number of steps for IOM
   NBLOCK =      1;   KBLOCK =     99    inner block; outer block 
   IBRION =      2    ionic relax: 0-MD 1-quasi-New 2-CG
   NFREE  =      1    steps in history (QN), initial steepest desc. (CG)
   ISIF   =      3    stress and relaxation
   IWAVPR =     11    prediction:  0-non 1-charg 2-wave 3-comb
   ISYM   =      2    0-nonsym 1-usesym 2-fastsym
   LCORR  =      T    Harris-Foulkes like correction to forces

   POTIM  = 0.1000    time-step for ionic-motion
   TEIN   =    0.0    initial temperature
   TEBEG  =    0.0;   TEEND  =   0.0 temperature during run
   SMASS  =  -3.00    Nose mass-parameter (am)
   estimated Nose-frequenzy (Omega)   =  0.10E-29 period in steps =****** mass=  -0.106E-26a.u.
   SCALEE = 1.0000    scale energy and forces
   NPACO  =    256;   APACO  = 16.0  distance and # of slots for P.C.
   PSTRESS=    0.0 pullay stress

  Mass of Ions in am
   POMASS =  39.10121.75 78.96
  Ionic Valenz
   ZVAL   =   7.00  5.00  6.00
  Atomic Wigner-Seitz radii
   RWIGS  =  -1.00 -1.00 -1.00
  virtual crystal weights 
   VCA    =   1.00  1.00  1.00
   NELECT =      96.0000    total number of electrons
   NUPDOWN=      -1.0000    fix difference up-down

 DOS related values:
   EMIN   =  10.00;   EMAX   =-10.00  energy-range for DOS
   EFERMI =   0.00
   ISMEAR =     0;   SIGMA  =   0.05  broadening in eV -4-tet -1-fermi 0-gaus

 Electronic relaxation 2 (details)
   IALGO  =     38    algorithm
   LDIAG  =      T    sub-space diagonalisation (order eigenvalues)
   LSUBROT=      F    optimize rotation matrix (better conditioning)
   TURBO    =      0    0=normal 1=particle mesh
   IRESTART =      0    0=no restart 2=restart with 2 vectors
   NREBOOT  =      0    no. of reboots
   NMIN     =      0    reboot dimension
   EREF     =   0.00    reference energy to select bands
   IMIX   =      4    mixing-type and parameters
     AMIX     =   0.40;   BMIX     =  1.00
     AMIX_MAG =   1.60;   BMIX_MAG =  1.00
     AMIN     =   0.10
     WC   =   100.;   INIMIX=   1;  MIXPRE=   1;  MAXMIX= -45

 Intra band minimization:
   WEIMIN = 0.0010     energy-eigenvalue tresh-hold
   EBREAK =  0.36E-06  absolut break condition
   DEPER  =   0.30     relativ break condition  

   TIME   =   0.40     timestep for ELM

  volume/ion in A,a.u.               =      33.91       228.84
  Fermi-wavevector in a.u.,A,eV,Ry     =   0.919063  1.736777 11.492518  0.844676
  Thomas-Fermi vector in A             =   2.044215
 
 Write flags
   LWAVE        =      F    write WAVECAR
   LDOWNSAMPLE  =      F    k-point downsampling of WAVECAR
   LCHARG       =      F    write CHGCAR
   LVTOT        =      F    write LOCPOT, total local potential
   LVHAR        =      F    write LOCPOT, Hartree potential only
   LELF         =      F    write electronic localiz. function (ELF)
   LORBIT       =     10    0 simple, 1 ext, 2 COOP (PROOUT), +10 PAW based schemes


 Dipole corrections
   LMONO  =      F    monopole corrections only (constant potential shift)
   LDIPOL =      F    correct potential (dipole corrections)
   IDIPOL =      0    1-x, 2-y, 3-z, 4-all directions 
   EPSILON=  1.0000000 bulk dielectric constant

 Exchange correlation treatment:
   GGA     =    --    GGA type
   LEXCH   =     8    internal setting for exchange type
   VOSKOWN=      0    Vosko Wilk Nusair interpolation
   LHFCALC =     F    Hartree Fock is set to
   LHFONE  =     F    Hartree Fock one center treatment
   AEXX    =    0.0000 exact exchange contribution

 Linear response parameters
   LEPSILON=     F    determine dielectric tensor
   LRPA    =     F    only Hartree local field effects (RPA)
   LNABLA  =     F    use nabla operator in PAW spheres
   LVEL    =     F    velocity operator in full k-point grid
   LINTERFAST=   F  fast interpolation
   KINTER  =     0    interpolate to denser k-point grid
   CSHIFT  =0.1000    complex shift for real part using Kramers Kronig
   OMEGAMAX=  -1.0    maximum frequency
   DEG_THRESHOLD= 0.2000000E-02 threshold for treating states as degnerate
   RTIME   =   -0.100 relaxation time in fs
  (WPLASMAI=    0.000 imaginary part of plasma frequency in eV, 0.658/RTIME)
   DFIELD  = 0.0000000 0.0000000 0.0000000 field for delta impulse in time
 
 Orbital magnetization related:
   ORBITALMAG=     F  switch on orbital magnetization
   LCHIMAG   =     F  perturbation theory with respect to B field
   DQ        =  0.001000  dq finite difference perturbation B field
   LLRAUG    =     F  two centre corrections for induced B field



--------------------------------------------------------------------------------------------------------


 conjugate gradient relaxation of ions
 charge density and potential will be updated during run
 non-spin polarized calculation
 Variant of blocked Davidson
 Davidson routine will perform the subspace rotation
 perform sub-space diagonalisation
    after iterative eigenvector-optimisation
 modified Broyden-mixing scheme, WC =      100.0
 initial mixing is a Kerker type mixing with AMIX =  0.4000 and BMIX =      1.0000
 Hartree-type preconditioning will be used
 using additional bands           22
 real space projection scheme for non local part
 use partial core corrections
 calculate Harris-corrections to forces 
   (improved forces if not selfconsistent)
 use gradient corrections 
 use of overlap-Matrix (Vanderbilt PP)
 Gauss-broadening in eV      SIGMA  =   0.05


--------------------------------------------------------------------------------------------------------


  energy-cutoff  :      300.00
  volume of cell :      542.58
      direct lattice vectors                 reciprocal lattice vectors
     6.801562580  0.013739190  0.003034400     0.146930682  0.038267382  0.038231090
    -1.703227630  6.535993240  0.003689260    -0.000324174  0.152895068  0.034350459
    -2.458324990 -2.745177610 12.195679690    -0.000036460 -0.000055773  0.081976346

  length of vectors
     6.801577133  6.754273137 12.740249800     0.156571498  0.156706608  0.081976374


 
 k-points in units of 2pi/SCALE and weight: pymatgen with grid density = 807 / numbe
  -0.00000911 -0.00001394  0.02049409       0.111
   0.04896778  0.01274185  0.03323778       0.111
  -0.04898601 -0.01276974  0.00775039       0.111
  -0.00011717  0.05095108  0.03194424       0.111
   0.04885972  0.06370687  0.04468794       0.111
  -0.04909407  0.03819529  0.01920054       0.111
   0.00009894 -0.05097897  0.00904393       0.111
   0.04907584 -0.03822317  0.02178763       0.111
  -0.04887795 -0.06373476 -0.00369976       0.111
 
 k-points in reciprocal lattice and weights: pymatgen with grid density = 807 / numbe
   0.00000000 -0.00000000  0.25000000       0.111
   0.33333333  0.00000000  0.25000000       0.111
  -0.33333333 -0.00000000  0.25000000       0.111
   0.00000000  0.33333333  0.25000000       0.111
   0.33333333  0.33333333  0.25000000       0.111
  -0.33333333  0.33333333  0.25000000       0.111
  -0.00000000 -0.33333333  0.25000000       0.111
   0.33333333 -0.33333333  0.25000000       0.111
  -0.33333333 -0.33333333  0.25000000       0.111
 
 position of ions in fractional coordinates (direct lattice) 
   0.56456518  0.32792680  0.15321973
   0.89362269  0.71643670  0.57986382
   0.43543482  0.67207320  0.84678027
   0.10637731  0.28356330  0.42013618
   0.40997226  0.80601860  0.34789500
   0.01220549  0.21644890  0.91463899
   0.98779451  0.78355110  0.08536101
   0.59002774  0.19398140  0.65210500
   0.01438569  0.75686519  0.31821392
   0.98561431  0.24313481  0.68178608
   0.62317443  0.21014110  0.87599128
   0.57601898  0.20157447  0.40838269
   0.37682557  0.78985890  0.12400872
   0.42398102  0.79842553  0.59161731
   0.02079445  0.17614819  0.13400333
   0.97920555  0.82385181  0.86599667
 
 position of ions in cartesian coordinates  (Angst):
   2.90472752  1.73046864  1.87154167
   3.43228215  3.10307390  7.07718814
  -0.26471756  2.07408618 10.33086168
  -0.79227219  0.70148092  5.12521521
   0.56037986  4.31873124  4.24703362
  -2.53412523 -1.09597024 11.15547973
   5.17413519  4.90052506  1.04692362
   2.07963010 -0.51417642  7.95536973
  -1.97354176  4.07350968  3.88367097
   4.61355172 -0.26895486  8.31873238
   1.72717050 -1.02270893 10.68597529
   2.57056456  0.20432039  4.98299601
   0.91283946  4.82726375  1.51642806
   0.06944540  3.60023443  7.21940734
  -0.48800945  0.78372614  1.63497465
   3.12801941  3.02082868 10.56742870
 


--------------------------------------------------------------------------------------------------------


 k-point  1 :   0.0000-0.0000 0.2500  plane waves:    6420
 k-point  2 :   0.3333 0.0000 0.2500  plane waves:    6400
 k-point  3 :  -0.3333-0.0000 0.2500  plane waves:    6410
 k-point  4 :   0.0000 0.3333 0.2500  plane waves:    6404
 k-point  5 :   0.3333 0.3333 0.2500  plane waves:    6394
 k-point  6 :  -0.3333 0.3333 0.2500  plane waves:    6405
 k-point  7 :  -0.0000-0.3333 0.2500  plane waves:    6407
 k-point  8 :   0.3333-0.3333 0.2500  plane waves:    6392
 k-point  9 :  -0.3333-0.3333 0.2500  plane waves:    6382

 maximum and minimum number of plane-waves per node :      6420     6382

 maximum number of plane-waves:      6420
 maximum index in each direction: 
   IXMAX=    9   IYMAX=    9   IZMAX=   17
   IXMIN=   -9   IYMIN=   -9   IZMIN=  -18


 serial   3D FFT for wavefunctions
 parallel 3D FFT for charge:
    minimum data exchange during FFTs selected (reduces bandwidth)


 total amount of memory used by VASP MPI-rank0    40975. kBytes
=======================================================================

   base      :      30000. kBytes
   nonlr-proj:       2184. kBytes
   fftplans  :        803. kBytes
   grid      :       3082. kBytes
   one-center:        129. kBytes
   wavefun   :       4777. kBytes
 
     INWAV:  cpu time    0.0000: real time    0.0000
 Broyden mixing: mesh for mixing (old mesh)
   NGX = 19   NGY = 19   NGZ = 35
  (NGX  = 48   NGY  = 48   NGZ  = 90)
  gives a total of  12635 points

 initial charge density was supplied:
 charge density of overlapping atoms calculated
 number of electron      96.0000000 magnetization 
 keeping initial charge density in first step


--------------------------------------------------------------------------------------------------------


 Maximum index for non-local projection operator         1762
 Maximum index for augmentation-charges          500 (set IRDMAX)


--------------------------------------------------------------------------------------------------------


 First call to EWALD:  gamma=   0.217
 Maximum number of real-space cells 3x 3x 2
 Maximum number of reciprocal cells 2x 2x 4

    FEWALD:  cpu time    0.0021: real time    0.0021


--------------------------------------- Iteration      1(   1)  ---------------------------------------


    POTLOK:  cpu time    0.0210: real time    0.0438
    SETDIJ:  cpu time    0.2390: real time    0.2404
     EDDAV:  cpu time    0.7164: real time    0.7235
       DOS:  cpu time    0.0005: real time    0.0005
    --------------------------------------------
      LOOP:  cpu time    0.9770: real time    1.0082

 eigenvalue-minimisations  :  1260
 total energy-change (2. order) : 0.4531708E+03  (-0.2686375E+04)
 number of electron      96.0000000 magnetization 
 augmentation part       96.0000000 magnetization 

 Free energy of the ion-electron system (eV)
  ---------------------------------------------------
  alpha Z        PSCENC =       207.42412270
  Ewald energy   TEWEN  =     -3574.07745075
  -Hartree energ DENC   =      -759.80422509
  -exchange      EXHF   =         0.00000000
  -V(xc)+E(xc)   XCENC  =      -146.26030361
  PAW double counting   =      3690.88201897    -3351.74198289
  entropy T*S    EENTRO =        -0.01295950
  eigenvalues    EBANDS =       -71.95583831
  atomic energy  EATOM  =      4458.71741050
  Solvation  Ediel_sol  =         0.00000000
  ---------------------------------------------------
  free energy    TOTEN  =       453.17079203 eV

  energy without entropy =      453.18375153  energy(sigma->0) =      453.17727178


--------------------------------------------------------------------------------------------------------




--------------------------------------- Iteration      1(   2)  ---------------------------------------


     EDDAV:  cpu time    0.7554: real time    0.7570
       DOS:  cpu time    0.0002: real time    0.0002
    --------------------------------------------
      LOOP:  cpu time    0.7556: real time    0.7572

 eigenvalue-minimisations  :  1610
 total energy-change (2. order) :-0.4756778E+03  (-0.4613941E+03)
 number of electron      96.0000000 magnetization 
 augmentation part       96.0000000 magnetization 

 Free energy of the ion-electron system (eV)
  ---------------------------------------------------
  alpha Z        PSCENC =       207.42412270
  Ewald energy   TEWEN  =     -3574.07745075
  -Hartree energ DENC   =      -759.80422509
  -exchange      EXHF   =         0.00000000
  -V(xc)+E(xc)   XCENC  =      -146.26030361
  PAW double counting   =      3690.88201897    -3351.74198289
  entropy T*S    EENTRO =        -0.00000000
  eigenvalues    EBANDS =      -547.64663387
  atomic energy  EATOM  =      4458.71741050
  Solvation  Ediel_sol  =         0.00000000
  ---------------------------------------------------
  free energy    TOTEN  =       -22.50704403 eV

  energy without entropy =      -22.50704403  energy(sigma->0) =      -22.50704403


--------------------------------------------------------------------------------------------------------




--------------------------------------- Iteration      1(   3)  ---------------------------------------


     EDDAV:  cpu time    0.7210: real time    0.7212
       DOS:  cpu time    0.0002: real time    0.0002
    --------------------------------------------
      LOOP:  cpu time    0.7212: real time    0.7214

 eigenvalue-minimisations  :  1596
 total energy-change (2. order) :-0.3929846E+02  (-0.3902406E+02)
 number of electron      96.0000000 magnetization 
 augmentation part       96.0000000 magnetization 

 Free energy of the ion-electron system (eV)
  ---------------------------------------------------
  alpha Z        PSCENC =       207.42412270
  Ewald energy   TEWEN  =     -3574.07745075
  -Hartree energ DENC   =      -759.80422509
  -exchange      EXHF   =         0.00000000
  -V(xc)+E(xc)   XCENC  =      -146.26030361
  PAW double counting   =      3690.88201897    -3351.74198289
  entropy T*S    EENTRO =        -0.00000000
  eigenvalues    EBANDS =      -586.94509808
  atomic energy  EATOM  =      4458.71741050
  Solvation  Ediel_sol  =         0.00000000
  ---------------------------------------------------
  free energy    TOTEN  =       -61.80550825 eV

  energy without entropy =      -61.80550825  energy(sigma->0) =      -61.80550825


--------------------------------------------------------------------------------------------------------




--------------------------------------- Iteration      1(   4)  ---------------------------------------


     EDDAV:  cpu time    0.7894: real time    0.7894
       DOS:  cpu time    0.0003: real time    0.0003
    --------------------------------------------
      LOOP:  cpu time    0.7896: real time    0.7897

 eigenvalue-minimisations  :  1512
 total energy-change (2. order) :-0.5819776E+00  (-0.5813255E+00)
 number of electron      96.0000000 magnetization 
 augmentation part       96.0000000 magnetization 

 Free energy of the ion-electron system (eV)
  ---------------------------------------------------
  alpha Z        PSCENC =       207.42412270
  Ewald energy   TEWEN  =     -3574.07745075
  -Hartree energ DENC   =      -759.80422509
  -exchange      EXHF   =         0.00000000
  -V(xc)+E(xc)   XCENC  =      -146.26030361
  PAW double counting   =      3690.88201897    -3351.74198289
  entropy T*S    EENTRO =        -0.00000000
  eigenvalues    EBANDS =      -587.52707572
  atomic energy  EATOM  =      4458.71741050
  Solvation  Ediel_sol  =         0.00000000
  ---------------------------------------------------
  free energy    TOTEN  =       -62.38748588 eV

  energy without entropy =      -62.38748588  energy(sigma->0) =      -62.38748588


--------------------------------------------------------------------------------------------------------




--------------------------------------- Iteration      1(   5)  ---------------------------------------


     EDDAV:  cpu time    0.6502: real time    0.6504
       DOS:  cpu time    0.0002: real time    0.0002
    CHARGE:  cpu time    0.0211: real time    0.0211
    MIXING:  cpu time    0.0005: real time    0.0005
    --------------------------------------------
      LOOP:  cpu time    0.6720: real time    0.6722

 eigenvalue-minimisations  :  1638
 total energy-change (2. order) :-0.7421470E-02  (-0.7421142E-02)
 number of electron      95.9999956 magnetization 
 augmentation part        2.3794719 magnetization 

 Broyden mixing:
  rms(total) = 0.10389E+01    rms(broyden)= 0.10388E+01
  rms(prec ) = 0.12768E+01
  weight for this iteration     100.00

 Free energy of the ion-electron system (eV)
  ---------------------------------------------------
  alpha Z        PSCENC =       207.42412270
  Ewald energy   TEWEN  =     -3574.07745075
  -Hartree energ DENC   =      -759.80422509
  -exchange      EXHF   =         0.00000000
  -V(xc)+E(xc)   XCENC  =      -146.26030361
  PAW double counting   =      3690.88201897    -3351.74198289
  entropy T*S    EENTRO =        -0.00000000
  eigenvalues    EBANDS =      -587.53449719
  atomic energy  EATOM  =      4458.71741050
  Solvation  Ediel_sol  =         0.00000000
  ---------------------------------------------------
  free energy    TOTEN  =       -62.39490735 eV

  energy without entropy =      -62.39490735  energy(sigma->0) =      -62.39490735


--------------------------------------------------------------------------------------------------------




--------------------------------------- Iteration      1(   6)  ---------------------------------------


    POTLOK:  cpu time    0.0075: real time    0.0075
    SETDIJ:  cpu time    0.2379: real time    0.2379
     EDDAV:  cpu time    0.8449: real time    0.8450
       DOS:  cpu time    0.0002: real time    0.0002
    CHARGE:  cpu time    0.0237: real time    0.0237
    MIXING:  cpu time    0.0006: real time    0.0006
    --------------------------------------------
      LOOP:  cpu time    1.1148: real time    1.1149

 eigenvalue-minimisations  :  1624
 total energy-change (2. order) : 0.2607852E+01  (-0.4222822E+00)
 number of electron      95.9999951 magnetization 
 augmentation part        2.6084398 magnetization 

 Broyden mixing:
  rms(total) = 0.71835E+00    rms(broyden)= 0.71834E+00
  rms(prec ) = 0.75874E+00
  weight for this iteration     100.00

 eigenvalues of (default mixing * dielectric matrix)
  average eigenvalue GAMMA=   1.6868
  1.6868

 Free energy of the ion-electron system (eV)
  ---------------------------------------------------
  alpha Z        PSCENC =       207.42412270
  Ewald energy   TEWEN  =     -3574.07745075
  -Hartree energ DENC   =      -778.58378777
  -exchange      EXHF   =         0.00000000
  -V(xc)+E(xc)   XCENC  =      -144.32318410
  PAW double counting   =      4237.95507739    -3898.55189618
  entropy T*S    EENTRO =        -0.00000000
  eigenvalues    EBANDS =      -568.34734715
  atomic energy  EATOM  =      4458.71741050
  Solvation  Ediel_sol  =         0.00000000
  ---------------------------------------------------
  free energy    TOTEN  =       -59.78705536 eV

  energy without entropy =      -59.78705536  energy(sigma->0) =      -59.78705536


--------------------------------------------------------------------------------------------------------




--------------------------------------- Iteration      1(   7)  ---------------------------------------


    POTLOK:  cpu time    0.0097: real time    0.0098
    SETDIJ:  cpu time    0.2507: real time    0.2507
     EDDAV:  cpu time    0.7387: real time    0.7389
       DOS:  cpu time    0.0002: real time    0.0002
    CHARGE:  cpu time    0.0211: real time    0.0211
    MIXING:  cpu time    0.0006: real time    0.0006
    --------------------------------------------
      LOOP:  cpu time    1.0210: real time    1.0213

 eigenvalue-minimisations  :  1512
 total energy-change (2. order) : 0.4761762E-01  (-0.1787533E+00)
 number of electron      95.9999947 magnetization 
 augmentation part        2.7054456 magnetization 

 Broyden mixing:
  rms(total) = 0.27987E+00    rms(broyden)= 0.27987E+00
  rms(prec ) = 0.30051E+00
  weight for this iteration     100.00

 eigenvalues of (default mixing * dielectric matrix)
  average eigenvalue GAMMA=   1.3766
  1.0114  1.7418

 Free energy of the ion-electron system (eV)
  ---------------------------------------------------
  alpha Z        PSCENC =       207.42412270
  Ewald energy   TEWEN  =     -3574.07745075
  -Hartree energ DENC   =      -786.73225841
  -exchange      EXHF   =         0.00000000
  -V(xc)+E(xc)   XCENC  =      -143.15614368
  PAW double counting   =      4916.79256482    -4577.11475390
  entropy T*S    EENTRO =        -0.00000000
  eigenvalues    EBANDS =      -561.59292902
  atomic energy  EATOM  =      4458.71741050
  Solvation  Ediel_sol  =         0.00000000
  ---------------------------------------------------
  free energy    TOTEN  =       -59.73943774 eV

  energy without entropy =      -59.73943774  energy(sigma->0) =      -59.73943774


--------------------------------------------------------------------------------------------------------




--------------------------------------- Iteration      1(   8)  ---------------------------------------


    POTLOK:  cpu time    0.0081: real time    0.0088
    SETDIJ:  cpu time    0.2390: real time    0.2390
     EDDAV:  cpu time    0.7632: real time    0.7633
       DOS:  cpu time    0.0003: real time    0.0003
    CHARGE:  cpu time    0.0230: real time    0.0230
    MIXING:  cpu time    0.0008: real time    0.0008
    --------------------------------------------
      LOOP:  cpu time    1.0344: real time    1.0352

 eigenvalue-minimisations  :  1554
 total energy-change (2. order) : 0.9034543E-02  (-0.9524503E-02)
 number of electron      95.9999947 magnetization 
 augmentation part        2.7018129 magnetization 

 Broyden mixing:
  rms(total) = 0.13804E+00    rms(broyden)= 0.13804E+00
  rms(prec ) = 0.14868E+00
  weight for this iteration     100.00

 eigenvalues of (default mixing * dielectric matrix)
  average eigenvalue GAMMA=   1.6701
  2.6798  1.1653  1.1653

 Free energy of the ion-electron system (eV)
  ---------------------------------------------------
  alpha Z        PSCENC =       207.42412270
  Ewald energy   TEWEN  =     -3574.07745075
  -Hartree energ DENC   =      -786.96593603
  -exchange      EXHF   =         0.00000000
  -V(xc)+E(xc)   XCENC  =      -142.86560361
  PAW double counting   =      5104.48866341    -4764.76949576
  entropy T*S    EENTRO =        -0.00000000
  eigenvalues    EBANDS =      -561.68211366
  atomic energy  EATOM  =      4458.71741050
  Solvation  Ediel_sol  =         0.00000000
  ---------------------------------------------------
  free energy    TOTEN  =       -59.73040320 eV

  energy without entropy =      -59.73040320  energy(sigma->0) =      -59.73040320


--------------------------------------------------------------------------------------------------------




--------------------------------------- Iteration      1(   9)  ---------------------------------------


    POTLOK:  cpu time    0.0103: real time    0.0103
    SETDIJ:  cpu time    0.2418: real time    0.2418
     EDDAV:  cpu time    0.8058: real time    0.8058
       DOS:  cpu time    0.0002: real time    0.0002
    CHARGE:  cpu time    0.0217: real time    0.0217
    MIXING:  cpu time    0.0005: real time    0.0005
    --------------------------------------------
      LOOP:  cpu time    1.0803: real time    1.0803

 eigenvalue-minimisations  :  1512
 total energy-change (2. order) :-0.7500213E-02  (-0.3810518E-02)
 number of electron      95.9999948 magnetization 
 augmentation part        2.7068730 magnetization 

 Broyden mixing:
  rms(total) = 0.30503E-01    rms(broyden)= 0.30503E-01
  rms(prec ) = 0.32001E-01
  weight for this iteration     100.00

 eigenvalues of (default mixing * dielectric matrix)
  average eigenvalue GAMMA=   1.4088
  2.4909  1.1779  1.1779  0.7886

 Free energy of the ion-electron system (eV)
  ---------------------------------------------------
  alpha Z        PSCENC =       207.42412270
  Ewald energy   TEWEN  =     -3574.07745075
  -Hartree energ DENC   =      -789.15399257
  -exchange      EXHF   =         0.00000000
  -V(xc)+E(xc)   XCENC  =      -142.37944729
  PAW double counting   =      5289.05467742    -4949.29488415
  entropy T*S    EENTRO =        -0.00000000
  eigenvalues    EBANDS =      -560.02833927
  atomic energy  EATOM  =      4458.71741050
  Solvation  Ediel_sol  =         0.00000000
  ---------------------------------------------------
  free energy    TOTEN  =       -59.73790341 eV

  energy without entropy =      -59.73790341  energy(sigma->0) =      -59.73790341


--------------------------------------------------------------------------------------------------------




--------------------------------------- Iteration      1(  10)  ---------------------------------------


    POTLOK:  cpu time    0.0077: real time    0.0077
    SETDIJ:  cpu time    0.2381: real time    0.2381
     EDDAV:  cpu time    0.5477: real time    0.5477
       DOS:  cpu time    0.0002: real time    0.0002
    CHARGE:  cpu time    0.0221: real time    0.0221
    MIXING:  cpu time    0.0007: real time    0.0007
    --------------------------------------------
      LOOP:  cpu time    0.8164: real time    0.8165

 eigenvalue-minimisations  :  1624
 total energy-change (2. order) :-0.3192653E-03  (-0.1916834E-03)
 number of electron      95.9999948 magnetization 
 augmentation part        2.7077475 magnetization 

 Broyden mixing:
  rms(total) = 0.14813E-01    rms(broyden)= 0.14813E-01
  rms(prec ) = 0.16964E-01
  weight for this iteration     100.00

 eigenvalues of (default mixing * dielectric matrix)
  average eigenvalue GAMMA=   1.5400
  2.5586  1.8326  1.1449  1.1449  1.0190

 Free energy of the ion-electron system (eV)
  ---------------------------------------------------
  alpha Z        PSCENC =       207.42412270
  Ewald energy   TEWEN  =     -3574.07745075
  -Hartree energ DENC   =      -789.03785616
  -exchange      EXHF   =         0.00000000
  -V(xc)+E(xc)   XCENC  =      -142.40751892
  PAW double counting   =      5256.53659193    -4916.78462258
  entropy T*S    EENTRO =        -0.00000000
  eigenvalues    EBANDS =      -560.10889939
  atomic energy  EATOM  =      4458.71741050
  Solvation  Ediel_sol  =         0.00000000
  ---------------------------------------------------
  free energy    TOTEN  =       -59.73822268 eV

  energy without entropy =      -59.73822268  energy(sigma->0) =      -59.73822268


--------------------------------------------------------------------------------------------------------




--------------------------------------- Iteration      1(  11)  ---------------------------------------


    POTLOK:  cpu time    0.0088: real time    0.0089
    SETDIJ:  cpu time    0.2453: real time    0.2453
     EDDAV:  cpu time    0.7794: real time    0.7796
       DOS:  cpu time    0.0003: real time    0.0003
    CHARGE:  cpu time    0.0238: real time    0.0238
    MIXING:  cpu time    0.0007: real time    0.0007
    --------------------------------------------
      LOOP:  cpu time    1.0583: real time    1.0586

 eigenvalue-minimisations  :  1512
 total energy-change (2. order) :-0.1110452E-02  (-0.1283463E-03)
 number of electron      95.9999948 magnetization 
 augmentation part        2.7070634 magnetization 

 Broyden mixing:
  rms(total) = 0.56912E-02    rms(broyden)= 0.56911E-02
  rms(prec ) = 0.62786E-02
  weight for this iteration     100.00

 eigenvalues of (default mixing * dielectric matrix)
  average eigenvalue GAMMA=   1.5718
  2.7497  2.4826  1.1509  1.1509  1.0914  0.8051

 Free energy of the ion-electron system (eV)
  ---------------------------------------------------
  alpha Z        PSCENC =       207.42412270
  Ewald energy   TEWEN  =     -3574.07745075
  -Hartree energ DENC   =      -789.17214307
  -exchange      EXHF   =         0.00000000
  -V(xc)+E(xc)   XCENC  =      -142.37192656
  PAW double counting   =      5239.28627405    -4899.53473190
  entropy T*S    EENTRO =        -0.00000000
  eigenvalues    EBANDS =      -560.01088809
  atomic energy  EATOM  =      4458.71741050
  Solvation  Ediel_sol  =         0.00000000
  ---------------------------------------------------
  free energy    TOTEN  =       -59.73933313 eV

  energy without entropy =      -59.73933313  energy(sigma->0) =      -59.73933313


--------------------------------------------------------------------------------------------------------




--------------------------------------- Iteration      1(  12)  ---------------------------------------


    POTLOK:  cpu time    0.0100: real time    0.0101
    SETDIJ:  cpu time    0.2398: real time    0.2398
     EDDAV:  cpu time    0.6104: real time    0.6104
       DOS:  cpu time    0.0003: real time    0.0003
    CHARGE:  cpu time    0.0242: real time    0.0242
    MIXING:  cpu time    0.0006: real time    0.0006
    --------------------------------------------
      LOOP:  cpu time    0.8853: real time    0.8854

 eigenvalue-minimisations  :  1288
 total energy-change (2. order) :-0.1291533E-03  (-0.1614409E-04)
 number of electron      95.9999948 magnetization 
 augmentation part        2.7074975 magnetization 

 Broyden mixing:
  rms(total) = 0.29595E-02    rms(broyden)= 0.29595E-02
  rms(prec ) = 0.32572E-02
  weight for this iteration     100.00

 eigenvalues of (default mixing * dielectric matrix)
  average eigenvalue GAMMA=   1.5648
  2.8132  2.5983  0.9311  1.2185  1.2185  1.0871  1.0871

 Free energy of the ion-electron system (eV)
  ---------------------------------------------------
  alpha Z        PSCENC =       207.42412270
  Ewald energy   TEWEN  =     -3574.07745075
  -Hartree energ DENC   =      -789.23875935
  -exchange      EXHF   =         0.00000000
  -V(xc)+E(xc)   XCENC  =      -142.36333376
  PAW double counting   =      5232.91248041    -4893.15959593
  entropy T*S    EENTRO =        -0.00000000
  eigenvalues    EBANDS =      -559.95433611
  atomic energy  EATOM  =      4458.71741050
  Solvation  Ediel_sol  =         0.00000000
  ---------------------------------------------------
  free energy    TOTEN  =       -59.73946228 eV

  energy without entropy =      -59.73946228  energy(sigma->0) =      -59.73946228


--------------------------------------------------------------------------------------------------------




--------------------------------------- Iteration      1(  13)  ---------------------------------------


    POTLOK:  cpu time    0.0103: real time    0.0104
    SETDIJ:  cpu time    0.2406: real time    0.2406
     EDDAV:  cpu time    0.5410: real time    0.5410
       DOS:  cpu time    0.0002: real time    0.0002
    --------------------------------------------
      LOOP:  cpu time    0.7921: real time    0.7922

 eigenvalue-minimisations  :   994
 total energy-change (2. order) :-0.1729160E-04  (-0.3510930E-05)
 number of electron      95.9999948 magnetization 
 augmentation part        2.7074975 magnetization 

 Free energy of the ion-electron system (eV)
  ---------------------------------------------------
  alpha Z        PSCENC =       207.42412270
  Ewald energy   TEWEN  =     -3574.07745075
  -Hartree energ DENC   =      -789.27095423
  -exchange      EXHF   =         0.00000000
  -V(xc)+E(xc)   XCENC  =      -142.36090111
  PAW double counting   =      5230.80230884    -4891.04882561
  entropy T*S    EENTRO =        -0.00000000
  eigenvalues    EBANDS =      -559.92518991
  atomic energy  EATOM  =      4458.71741050
  Solvation  Ediel_sol  =         0.00000000
  ---------------------------------------------------
  free energy    TOTEN  =       -59.73947957 eV

  energy without entropy =      -59.73947957  energy(sigma->0) =      -59.73947957


--------------------------------------------------------------------------------------------------------




 average (electrostatic) potential at core
  the test charge radii are     1.3383  1.1712  1.0808
  (the norm of the test charge is              1.0000)
       1 -12.7328       2 -12.7475       3 -12.7328       4 -12.7475       5 -91.6796
       6 -91.6950       7 -91.6950       8 -91.6796       9 -56.1432      10 -56.1432
      11 -56.3335      12 -56.0358      13 -56.3335      14 -56.0358      15 -56.2282
      16 -56.2282
 
 
 
 E-fermi :   1.2654     XC(G=0):  -7.9924     alpha+bet : -7.1051


 k-point     1 :       0.0000   -0.0000    0.2500
  band No.  band energies     occupation 
      1     -12.2484      2.00000
      2     -12.2321      2.00000
      3     -12.2129      2.00000
      4     -12.1998      2.00000
      5     -12.1900      2.00000
      6     -12.1838      2.00000
      7     -12.1749      2.00000
      8     -12.1669      2.00000
      9     -12.1651      2.00000
     10     -12.1501      2.00000
     11     -12.1410      2.00000
     12     -12.1374      2.00000
     13     -11.9814      2.00000
     14     -11.6674      2.00000
     15     -11.2579      2.00000
     16     -10.8335      2.00000
     17     -10.6701      2.00000
     18     -10.6159      2.00000
     19     -10.5106      2.00000
     20     -10.4779      2.00000
     21      -7.5063      2.00000
     22      -7.0845      2.00000
     23      -6.5840      2.00000
     24      -6.2845      2.00000
     25      -2.9908      2.00000
     26      -2.7644      2.00000
     27      -2.6644      2.00000
     28      -2.3797      2.00000
     29      -2.3249      2.00000
     30      -2.1362      2.00000
     31      -1.7785      2.00000
     32      -1.6403      2.00000
     33      -1.3627      2.00000
     34      -1.1980      2.00000
     35      -1.1033      2.00000
     36      -0.5907      2.00000
     37      -0.1781      2.00000
     38      -0.1534      2.00000
     39      -0.1137      2.00000
     40       0.0369      2.00000
     41       0.1464      2.00000
     42       0.2455      2.00000
     43       0.2717      2.00000
     44       0.4867      2.00000
     45       0.5879      2.00000
     46       0.6881      2.00000
     47       0.8712      2.00000
     48       0.9482      2.00000
     49       3.0774      0.00000
     50       3.6363      0.00000
     51       3.6695      0.00000
     52       4.0441      0.00000
     53       4.2096      0.00000
     54       4.3143      0.00000
     55       4.5076      0.00000
     56       4.6016      0.00000
     57       4.6831      0.00000
     58       4.7388      0.00000
     59       5.0379      0.00000
     60       5.1120      0.00000
     61       5.5695      0.00000
     62       5.9255      0.00000
     63       6.3069      0.00000
     64       6.4316      0.00000
     65       6.5933      0.00000
     66       6.6111      0.00000
     67       6.8147      0.00000
     68       6.9316      0.00000
     69       7.1878      0.00000
     70       7.2555      0.00000

 k-point     2 :       0.3333    0.0000    0.2500
  band No.  band energies     occupation 
      1     -12.3010      2.00000
      2     -12.2523      2.00000
      3     -12.2386      2.00000
      4     -12.2229      2.00000
      5     -12.1992      2.00000
      6     -12.1869      2.00000
      7     -12.1788      2.00000
      8     -12.1719      2.00000
      9     -12.1629      2.00000
     10     -12.1547      2.00000
     11     -12.1477      2.00000
     12     -12.1458      2.00000
     13     -11.8273      2.00000
     14     -11.6716      2.00000
     15     -11.0986      2.00000
     16     -10.9271      2.00000
     17     -10.7022      2.00000
     18     -10.6387      2.00000
     19     -10.4851      2.00000
     20     -10.4784      2.00000
     21      -7.4835      2.00000
     22      -7.2810      2.00000
     23      -6.5331      2.00000
     24      -6.3980      2.00000
     25      -2.8490      2.00000
     26      -2.6846      2.00000
     27      -2.6092      2.00000
     28      -2.3812      2.00000
     29      -2.0728      2.00000
     30      -1.9530      2.00000
     31      -1.6892      2.00000
     32      -1.6039      2.00000
     33      -1.0051      2.00000
     34      -0.9376      2.00000
     35      -0.8634      2.00000
     36      -0.7529      2.00000
     37      -0.3610      2.00000
     38      -0.2981      2.00000
     39      -0.0997      2.00000
     40      -0.0173      2.00000
     41       0.0314      2.00000
     42       0.1151      2.00000
     43       0.2027      2.00000
     44       0.3622      2.00000
     45       0.6888      2.00000
     46       0.7491      2.00000
     47       0.7810      2.00000
     48       0.9598      2.00000
     49       2.9111      0.00000
     50       3.0200      0.00000
     51       3.3311      0.00000
     52       3.4409      0.00000
     53       3.6687      0.00000
     54       3.9783      0.00000
     55       4.0849      0.00000
     56       4.3786      0.00000
     57       4.4907      0.00000
     58       4.7410      0.00000
     59       4.8468      0.00000
     60       4.9106      0.00000
     61       6.1285      0.00000
     62       6.3257      0.00000
     63       6.4227      0.00000
     64       6.5828      0.00000
     65       6.6774      0.00000
     66       6.8647      0.00000
     67       7.0440      0.00000
     68       7.0864      0.00000
     69       7.3645      0.00000
     70       7.5612      0.00000

 k-point     3 :      -0.3333   -0.0000    0.2500
  band No.  band energies     occupation 
      1     -12.3089      2.00000
      2     -12.2509      2.00000
      3     -12.2421      2.00000
      4     -12.2117      2.00000
      5     -12.2013      2.00000
      6     -12.1831      2.00000
      7     -12.1785      2.00000
      8     -12.1740      2.00000
      9     -12.1651      2.00000
     10     -12.1527      2.00000
     11     -12.1519      2.00000
     12     -12.1449      2.00000
     13     -11.8584      2.00000
     14     -11.5347      2.00000
     15     -11.3377      2.00000
     16     -10.7319      2.00000
     17     -10.7095      2.00000
     18     -10.6297      2.00000
     19     -10.5321      2.00000
     20     -10.4887      2.00000
     21      -7.6158      2.00000
     22      -6.9789      2.00000
     23      -6.8059      2.00000
     24      -6.2991      2.00000
     25      -2.9941      2.00000
     26      -2.7265      2.00000
     27      -2.3321      2.00000
     28      -2.2937      2.00000
     29      -2.1301      2.00000
     30      -1.9716      2.00000
     31      -1.7486      2.00000
     32      -1.4789      2.00000
     33      -1.3973      2.00000
     34      -1.0507      2.00000
     35      -0.7263      2.00000
     36      -0.5101      2.00000
     37      -0.3078      2.00000
     38      -0.2367      2.00000
     39      -0.0985      2.00000
     40      -0.0729      2.00000
     41       0.0834      2.00000
     42       0.1505      2.00000
     43       0.1959      2.00000
     44       0.4421      2.00000
     45       0.4940      2.00000
     46       0.6233      2.00000
     47       0.8213      2.00000
     48       0.8798      2.00000
     49       2.8507      0.00000
     50       3.0375      0.00000
     51       3.2317      0.00000
     52       3.7749      0.00000
     53       3.9045      0.00000
     54       3.9418      0.00000
     55       4.1973      0.00000
     56       4.2376      0.00000
     57       4.3779      0.00000
     58       4.7156      0.00000
     59       4.7590      0.00000
     60       4.9930      0.00000
     61       5.9702      0.00000
     62       6.0476      0.00000
     63       6.3617      0.00000
     64       6.6630      0.00000
     65       6.7529      0.00000
     66       6.9089      0.00000
     67       7.0403      0.00000
     68       7.2076      0.00000
     69       7.3405      0.00000
     70       7.4456      0.00000

 k-point     4 :       0.0000    0.3333    0.2500
  band No.  band energies     occupation 
      1     -12.2913      2.00000
      2     -12.2770      2.00000
      3     -12.2242      2.00000
      4     -12.2146      2.00000
      5     -12.1998      2.00000
      6     -12.1857      2.00000
      7     -12.1770      2.00000
      8     -12.1667      2.00000
      9     -12.1627      2.00000
     10     -12.1490      2.00000
     11     -12.1403      2.00000
     12     -12.1340      2.00000
     13     -11.8373      2.00000
     14     -11.6255      2.00000
     15     -11.2417      2.00000
     16     -10.8540      2.00000
     17     -10.6852      2.00000
     18     -10.6177      2.00000
     19     -10.5418      2.00000
     20     -10.4967      2.00000
     21      -7.6147      2.00000
     22      -7.0671      2.00000
     23      -6.6000      2.00000
     24      -6.3193      2.00000
     25      -2.9087      2.00000
     26      -2.6878      2.00000
     27      -2.5169      2.00000
     28      -2.3795      2.00000
     29      -2.1912      2.00000
     30      -1.9736      2.00000
     31      -1.7951      2.00000
     32      -1.5578      2.00000
     33      -1.3246      2.00000
     34      -1.0891      2.00000
     35      -0.9304      2.00000
     36      -0.6959      2.00000
     37      -0.2503      2.00000
     38      -0.1981      2.00000
     39      -0.0599      2.00000
     40      -0.0144      2.00000
     41       0.0599      2.00000
     42       0.1783      2.00000
     43       0.2548      2.00000
     44       0.4416      2.00000
     45       0.6415      2.00000
     46       0.6716      2.00000
     47       0.8353      2.00000
     48       0.9971      2.00000
     49       2.8106      0.00000
     50       3.3851      0.00000
     51       3.4144      0.00000
     52       3.8022      0.00000
     53       4.1108      0.00000
     54       4.2063      0.00000
     55       4.2383      0.00000
     56       4.4713      0.00000
     57       4.6239      0.00000
     58       4.7291      0.00000
     59       5.0395      0.00000
     60       5.1434      0.00000
     61       5.8669      0.00000
     62       6.0163      0.00000
     63       6.0767      0.00000
     64       6.3439      0.00000
     65       6.5634      0.00000
     66       6.7670      0.00000
     67       6.8171      0.00000
     68       7.0998      0.00000
     69       7.1842      0.00000
     70       7.1995      0.00000

 k-point     5 :       0.3333    0.3333    0.2500
  band No.  band energies     occupation 
      1     -12.3263      2.00000
      2     -12.2542      2.00000
      3     -12.2355      2.00000
      4     -12.2294      2.00000
      5     -12.2023      2.00000
      6     -12.1942      2.00000
      7     -12.1811      2.00000
      8     -12.1734      2.00000
      9     -12.1687      2.00000
     10     -12.1527      2.00000
     11     -12.1502      2.00000
     12     -12.1401      2.00000
     13     -11.7832      2.00000
     14     -11.6255      2.00000
     15     -11.1231      2.00000
     16     -10.9217      2.00000
     17     -10.6883      2.00000
     18     -10.6328      2.00000
     19     -10.5071      2.00000
     20     -10.4928      2.00000
     21      -7.5756      2.00000
     22      -7.2985      2.00000
     23      -6.5640      2.00000
     24      -6.4377      2.00000
     25      -2.7764      2.00000
     26      -2.6028      2.00000
     27      -2.3569      2.00000
     28      -2.1840      2.00000
     29      -2.0097      2.00000
     30      -1.9315      2.00000
     31      -1.7053      2.00000
     32      -1.4248      2.00000
     33      -1.1042      2.00000
     34      -1.0132      2.00000
     35      -0.7718      2.00000
     36      -0.7425      2.00000
     37      -0.4535      2.00000
     38      -0.2650      2.00000
     39      -0.1687      2.00000
     40      -0.0673      2.00000
     41       0.0936      2.00000
     42       0.2037      2.00000
     43       0.2698      2.00000
     44       0.3451      2.00000
     45       0.7082      2.00000
     46       0.7903      2.00000
     47       0.8318      2.00000
     48       0.8664      2.00000
     49       2.7860      0.00000
     50       2.9565      0.00000
     51       3.1625      0.00000
     52       3.1892      0.00000
     53       3.5508      0.00000
     54       3.7036      0.00000
     55       3.9644      0.00000
     56       4.1908      0.00000
     57       4.2579      0.00000
     58       4.5182      0.00000
     59       4.5956      0.00000
     60       4.8012      0.00000
     61       6.1054      0.00000
     62       6.3646      0.00000
     63       6.4863      0.00000
     64       6.5715      0.00000
     65       6.8276      0.00000
     66       7.0100      0.00000
     67       7.2267      0.00000
     68       7.2620      0.00000
     69       7.3623      0.00000
     70       7.4229      0.00000

 k-point     6 :      -0.3333    0.3333    0.2500
  band No.  band energies     occupation 
      1     -12.3143      2.00000
      2     -12.2463      2.00000
      3     -12.2379      2.00000
      4     -12.2263      2.00000
      5     -12.2094      2.00000
      6     -12.1940      2.00000
      7     -12.1754      2.00000
      8     -12.1715      2.00000
      9     -12.1623      2.00000
     10     -12.1543      2.00000
     11     -12.1524      2.00000
     12     -12.1428      2.00000
     13     -11.8291      2.00000
     14     -11.5252      2.00000
     15     -11.3425      2.00000
     16     -10.7451      2.00000
     17     -10.6960      2.00000
     18     -10.6235      2.00000
     19     -10.5254      2.00000
     20     -10.4952      2.00000
     21      -7.7097      2.00000
     22      -7.0008      2.00000
     23      -6.8376      2.00000
     24      -6.3575      2.00000
     25      -2.9386      2.00000
     26      -2.3517      2.00000
     27      -2.2100      2.00000
     28      -2.1827      2.00000
     29      -2.1247      2.00000
     30      -1.8857      2.00000
     31      -1.7276      2.00000
     32      -1.5121      2.00000
     33      -1.3868      2.00000
     34      -1.0764      2.00000
     35      -0.7199      2.00000
     36      -0.5726      2.00000
     37      -0.4665      2.00000
     38      -0.2115      2.00000
     39      -0.1693      2.00000
     40       0.0169      2.00000
     41       0.1355      2.00000
     42       0.2607      2.00000
     43       0.3466      2.00000
     44       0.4146      2.00000
     45       0.6377      2.00000
     46       0.6647      2.00000
     47       0.8464      2.00000
     48       0.9011      2.00000
     49       2.7612      0.00000
     50       2.8380      0.00000
     51       3.0903      0.00000
     52       3.3100      0.00000
     53       3.5842      0.00000
     54       3.6473      0.00000
     55       3.9653      0.00000
     56       4.2014      0.00000
     57       4.3321      0.00000
     58       4.4035      0.00000
     59       4.6428      0.00000
     60       4.8538      0.00000
     61       6.1421      0.00000
     62       6.1928      0.00000
     63       6.3467      0.00000
     64       6.6361      0.00000
     65       6.7478      0.00000
     66       6.9028      0.00000
     67       6.9808      0.00000
     68       7.2081      0.00000
     69       7.2708      0.00000
     70       7.4607      0.00000

 k-point     7 :      -0.0000   -0.3333    0.2500
  band No.  band energies     occupation 
      1     -12.3033      2.00000
      2     -12.2647      2.00000
      3     -12.2249      2.00000
      4     -12.2152      2.00000
      5     -12.1935      2.00000
      6     -12.1847      2.00000
      7     -12.1779      2.00000
      8     -12.1693      2.00000
      9     -12.1639      2.00000
     10     -12.1468      2.00000
     11     -12.1417      2.00000
     12     -12.1339      2.00000
     13     -11.8561      2.00000
     14     -11.5858      2.00000
     15     -11.2783      2.00000
     16     -10.8399      2.00000
     17     -10.6812      2.00000
     18     -10.6159      2.00000
     19     -10.5384      2.00000
     20     -10.5072      2.00000
     21      -7.5898      2.00000
     22      -7.1075      2.00000
     23      -6.5916      2.00000
     24      -6.3122      2.00000
     25      -2.9198      2.00000
     26      -2.6684      2.00000
     27      -2.5751      2.00000
     28      -2.3643      2.00000
     29      -2.0893      2.00000
     30      -2.0392      2.00000
     31      -1.7479      2.00000
     32      -1.6002      2.00000
     33      -1.2957      2.00000
     34      -1.0987      2.00000
     35      -0.9340      2.00000
     36      -0.6682      2.00000
     37      -0.3341      2.00000
     38      -0.2018      2.00000
     39      -0.0369      2.00000
     40       0.0185      2.00000
     41       0.0716      2.00000
     42       0.1611      2.00000
     43       0.2676      2.00000
     44       0.3728      2.00000
     45       0.6311      2.00000
     46       0.6945      2.00000
     47       0.8587      2.00000
     48       0.9747      2.00000
     49       2.8928      0.00000
     50       3.2126      0.00000
     51       3.6036      0.00000
     52       3.8146      0.00000
     53       3.9422      0.00000
     54       4.2528      0.00000
     55       4.2782      0.00000
     56       4.5747      0.00000
     57       4.6005      0.00000
     58       4.7547      0.00000
     59       5.0284      0.00000
     60       5.0586      0.00000
     61       5.7474      0.00000
     62       6.0214      0.00000
     63       6.2693      0.00000
     64       6.4064      0.00000
     65       6.5653      0.00000
     66       6.6592      0.00000
     67       6.8553      0.00000
     68       6.9689      0.00000
     69       7.0982      0.00000
     70       7.2425      0.00000

 k-point     8 :       0.3333   -0.3333    0.2500
  band No.  band energies     occupation 
      1     -12.3129      2.00000
      2     -12.2471      2.00000
      3     -12.2372      2.00000
      4     -12.2264      2.00000
      5     -12.1992      2.00000
      6     -12.1927      2.00000
      7     -12.1803      2.00000
      8     -12.1749      2.00000
      9     -12.1636      2.00000
     10     -12.1550      2.00000
     11     -12.1517      2.00000
     12     -12.1424      2.00000
     13     -11.8012      2.00000
     14     -11.6581      2.00000
     15     -11.1082      2.00000
     16     -10.9363      2.00000
     17     -10.6905      2.00000
     18     -10.6230      2.00000
     19     -10.4884      2.00000
     20     -10.4840      2.00000
     21      -7.5941      2.00000
     22      -7.2848      2.00000
     23      -6.5805      2.00000
     24      -6.4421      2.00000
     25      -2.7586      2.00000
     26      -2.6084      2.00000
     27      -2.3105      2.00000
     28      -2.1833      2.00000
     29      -2.0790      2.00000
     30      -1.8756      2.00000
     31      -1.7569      2.00000
     32      -1.3517      2.00000
     33      -1.1203      2.00000
     34      -0.9785      2.00000
     35      -0.9434      2.00000
     36      -0.7422      2.00000
     37      -0.5338      2.00000
     38      -0.2615      2.00000
     39      -0.1912      2.00000
     40      -0.0764      2.00000
     41       0.1874      2.00000
     42       0.2293      2.00000
     43       0.4146      2.00000
     44       0.4357      2.00000
     45       0.7436      2.00000
     46       0.7867      2.00000
     47       0.8271      2.00000
     48       0.9203      2.00000
     49       2.7693      0.00000
     50       2.8773      0.00000
     51       3.0692      0.00000
     52       3.2410      0.00000
     53       3.5535      0.00000
     54       3.6405      0.00000
     55       3.8727      0.00000
     56       4.0681      0.00000
     57       4.2996      0.00000
     58       4.4372      0.00000
     59       4.7680      0.00000
     60       4.8523      0.00000
     61       6.1777      0.00000
     62       6.2225      0.00000
     63       6.5461      0.00000
     64       6.6955      0.00000
     65       6.7972      0.00000
     66       6.8580      0.00000
     67       6.9306      0.00000
     68       7.1738      0.00000
     69       7.2752      0.00000
     70       7.2942      0.00000

 k-point     9 :      -0.3333   -0.3333    0.2500
  band No.  band energies     occupation 
      1     -12.3346      2.00000
      2     -12.2386      2.00000
      3     -12.2332      2.00000
      4     -12.2261      2.00000
      5     -12.2128      2.00000
      6     -12.2035      2.00000
      7     -12.1793      2.00000
      8     -12.1706      2.00000
      9     -12.1592      2.00000
     10     -12.1568      2.00000
     11     -12.1539      2.00000
     12     -12.1395      2.00000
     13     -11.8065      2.00000
     14     -11.5222      2.00000
     15     -11.3184      2.00000
     16     -10.7366      2.00000
     17     -10.7070      2.00000
     18     -10.6280      2.00000
     19     -10.5342      2.00000
     20     -10.5163      2.00000
     21      -7.7190      2.00000
     22      -6.9595      2.00000
     23      -6.8469      2.00000
     24      -6.3531      2.00000
     25      -2.9397      2.00000
     26      -2.3560      2.00000
     27      -2.2677      2.00000
     28      -2.1900      2.00000
     29      -2.0362      2.00000
     30      -1.9792      2.00000
     31      -1.7392      2.00000
     32      -1.5159      2.00000
     33      -1.3046      2.00000
     34      -1.1030      2.00000
     35      -0.6430      2.00000
     36      -0.5084      2.00000
     37      -0.3474      2.00000
     38      -0.3220      2.00000
     39      -0.0996      2.00000
     40       0.0410      2.00000
     41       0.0574      2.00000
     42       0.1747      2.00000
     43       0.2462      2.00000
     44       0.3635      2.00000
     45       0.5203      2.00000
     46       0.6952      2.00000
     47       0.8268      2.00000
     48       0.9181      2.00000
     49       2.7348      0.00000
     50       2.8675      0.00000
     51       3.0414      0.00000
     52       3.3875      0.00000
     53       3.6346      0.00000
     54       3.7980      0.00000
     55       4.0852      0.00000
     56       4.1309      0.00000
     57       4.2269      0.00000
     58       4.4719      0.00000
     59       4.6182      0.00000
     60       4.8538      0.00000
     61       6.1111      0.00000
[...]
     27      -2.4995      2.00000
     28      -2.2383      2.00000
     29      -1.9937      2.00000
     30      -1.9327      2.00000
     31      -1.6788      2.00000
     32      -1.5223      2.00000
     33      -1.2280      2.00000
     34      -1.0717      2.00000
     35      -0.8809      2.00000
     36      -0.5791      2.00000
     37      -0.2640      2.00000
     38      -0.1374      2.00000
     39       0.0169      2.00000
     40       0.0593      2.00000
     41       0.1328      2.00000
     42       0.2225      2.00000
     43       0.3289      2.00000
     44       0.4216      2.00000
     45       0.6607      2.00000
     46       0.7116      2.00000
     47       0.8422      2.00000
     48       0.9750      2.00000
     49       2.8864      0.00000
     50       3.2074      0.00000
     51       3.5896      0.00000
     52       3.7874      0.00000
     53       4.0235      0.00000
     54       4.3077      0.00000
     55       4.3620      0.00000
     56       4.6125      0.00000
     57       4.6472      0.00000
     58       4.7538      0.00000
     59       5.1236      0.00000
     60       5.1766      0.00000
     61       5.8849      0.00000
     62       6.0452      0.00000
     63       6.3971      0.00000
     64       6.4945      0.00000
     65       6.7075      0.00000
     66       6.7616      0.00000
     67       6.9396      0.00000
     68       7.0699      0.00000
     69       7.2953      0.00000
     70       7.3049      0.00000

 k-point     8 :       0.3333   -0.3333    0.2500
  band No.  band energies     occupation 
      1     -12.1248      2.00000
      2     -12.0611      2.00000
      3     -12.0289      2.00000
      4     -12.0101      2.00000
      5     -11.9875      2.00000
      6     -11.9845      2.00000
      7     -11.9712      2.00000
      8     -11.9499      2.00000
      9     -11.9350      2.00000
     10     -11.9232      2.00000
     11     -11.9182      2.00000
     12     -11.9156      2.00000
     13     -11.5719      2.00000
     14     -11.4282      2.00000
     15     -10.9477      2.00000
     16     -10.7997      2.00000
     17     -10.5871      2.00000
     18     -10.5063      2.00000
     19     -10.3972      2.00000
     20     -10.3897      2.00000
     21      -7.5260      2.00000
     22      -7.2478      2.00000
     23      -6.6004      2.00000
     24      -6.4788      2.00000
     25      -2.6139      2.00000
     26      -2.4648      2.00000
     27      -2.1598      2.00000
     28      -2.0232      2.00000
     29      -1.9234      2.00000
     30      -1.7730      2.00000
     31      -1.6314      2.00000
     32      -1.2497      2.00000
     33      -1.0463      2.00000
     34      -0.8863      2.00000
     35      -0.8571      2.00000
     36      -0.6696      2.00000
     37      -0.5164      2.00000
     38      -0.2499      2.00000
     39      -0.1398      2.00000
     40      -0.0018      2.00000
     41       0.2439      2.00000
     42       0.3265      2.00000
     43       0.4585      2.00000
     44       0.5092      2.00000
     45       0.7809      2.00000
     46       0.8011      2.00000
     47       0.8376      2.00000
     48       0.9331      2.00000
     49       2.7689      0.00000
     50       2.8614      0.00000
     51       3.0549      0.00000
     52       3.1954      0.00000
     53       3.4969      0.00000
     54       3.6166      0.00000
     55       3.8411      0.00000
     56       4.0054      0.00000
     57       4.2363      0.00000
     58       4.4080      0.00000
     59       4.6783      0.00000
     60       4.7211      0.00000
     61       6.3091      0.00000
     62       6.3664      0.00000
     63       6.6122      0.00000
     64       6.7958      0.00000
     65       6.9428      0.00000
     66       6.9740      0.00000
     67       7.0889      0.00000
     68       7.2929      0.00000
     69       7.4076      0.00000
     70       7.4972      0.00000

 k-point     9 :      -0.3333   -0.3333    0.2500
  band No.  band energies     occupation 
      1     -12.1483      2.00000
      2     -12.0477      2.00000
      3     -12.0203      2.00000
      4     -12.0140      2.00000
      5     -12.0030      2.00000
      6     -11.9918      2.00000
      7     -11.9675      2.00000
      8     -11.9467      2.00000
      9     -11.9285      2.00000
     10     -11.9273      2.00000
     11     -11.9195      2.00000
     12     -11.9138      2.00000
     13     -11.5739      2.00000
     14     -11.3051      2.00000
     15     -11.1447      2.00000
     16     -10.6185      2.00000
     17     -10.5847      2.00000
     18     -10.5388      2.00000
     19     -10.4324      2.00000
     20     -10.4174      2.00000
     21      -7.6389      2.00000
     22      -6.9349      2.00000
     23      -6.8602      2.00000
     24      -6.3921      2.00000
     25      -2.7960      2.00000
     26      -2.2009      2.00000
     27      -2.1137      2.00000
     28      -2.0554      2.00000
     29      -1.8850      2.00000
     30      -1.8552      2.00000
     31      -1.6458      2.00000
     32      -1.3681      2.00000
     33      -1.2053      2.00000
     34      -1.0134      2.00000
     35      -0.5997      2.00000
     36      -0.4595      2.00000
     37      -0.3123      2.00000
     38      -0.2789      2.00000
     39      -0.0518      2.00000
     40       0.0836      2.00000
     41       0.1450      2.00000
     42       0.2101      2.00000
     43       0.3077      2.00000
     44       0.4196      2.00000
     45       0.5638      2.00000
     46       0.7067      2.00000
     47       0.8540      2.00000
     48       0.8840      2.00000
     49       2.7247      0.00000
     50       2.8688      0.00000
     51       3.0595      0.00000
     52       3.3730      0.00000
     53       3.5879      0.00000
     54       3.7786      0.00000
     55       4.0538      0.00000
     56       4.0758      0.00000
     57       4.1934      0.00000
     58       4.4029      0.00000
     59       4.5279      0.00000
     60       4.7579      0.00000
     61       6.2396      0.00000
     62       6.3746      0.00000
     63       6.4949      0.00000
     64       6.5933      0.00000
     65       7.0075      0.00000
     66       7.1745      0.00000
     67       7.2540      0.00000
     68       7.4083      0.00000
     69       7.5587      0.00000
     70       7.5935      0.00000


--------------------------------------------------------------------------------------------------------


 soft charge-density along one line, spin component           1
         0         1         2         3         4         5         6         7         8         9
 total charge-density along one line
 
 pseudopotential strength for first ion, spin component:           1
-17.038  -0.003  -0.001 -15.741  -0.003  -0.000   0.004  -0.009
 -0.003 -17.046  -0.003  -0.003 -15.748  -0.002  -0.001   0.001
 -0.001  -0.003 -17.027  -0.000  -0.002 -15.731   0.001  -0.001
-15.741  -0.003  -0.000 -14.546  -0.002  -0.000   0.004  -0.008
 -0.003 -15.748  -0.002  -0.002 -14.552  -0.002  -0.001   0.001
 -0.000  -0.002 -15.731  -0.000  -0.002 -14.536   0.001  -0.001
  0.004  -0.001   0.001   0.004  -0.001   0.001   1.003  -3.853
 -0.009   0.001  -0.001  -0.008   0.001  -0.001  -3.853  15.025
 -0.002   0.001  -0.011  -0.002   0.001  -0.011   0.000  -0.000
  0.001  -0.011   0.001   0.001  -0.011   0.001   0.000  -0.001
  0.007   0.002   0.002   0.006   0.002   0.002   0.001  -0.004
  0.001  -0.001   0.001   0.001  -0.001   0.001   0.000  -0.001
  0.011  -0.000  -0.002   0.011  -0.000  -0.001  -0.001   0.003
 total augmentation occupancy for first ion, spin component:           1
  2.951  -0.079   0.050  -0.981   0.079  -0.052   0.169  -0.004   0.014  -0.001  -0.018  -0.010  -0.028
 -0.079   2.884  -0.049   0.079  -0.920   0.047  -0.033   0.001  -0.010   0.038  -0.029  -0.012   0.010
  0.050  -0.049   3.226  -0.052   0.047  -1.252   0.026  -0.001   0.042  -0.008  -0.016   0.012  -0.001
 -0.981   0.079  -0.052   1.012  -0.079   0.055  -0.183  -0.004  -0.013   0.000   0.015   0.009   0.022
  0.079  -0.920   0.047  -0.079   0.958  -0.046   0.036   0.001   0.009  -0.031   0.028   0.012  -0.010
 -0.052   0.047  -1.252   0.055  -0.046   1.278  -0.028  -0.001  -0.036   0.007   0.015  -0.013   0.001
  0.169  -0.033   0.026  -0.183   0.036  -0.028   0.409   0.010   0.003  -0.006  -0.009  -0.005   0.011
 -0.004   0.001  -0.001  -0.004   0.001  -0.001   0.010   0.000   0.000  -0.000  -0.000  -0.000   0.000
  0.014  -0.010   0.042  -0.013   0.009  -0.036   0.003   0.000   0.012   0.001   0.001   0.001  -0.000
 -0.001   0.038  -0.008   0.000  -0.031   0.007  -0.006  -0.000   0.001   0.011  -0.006   0.002  -0.000
 -0.018  -0.029  -0.016   0.015   0.028   0.015  -0.009  -0.000   0.001  -0.006   0.021  -0.004  -0.003
 -0.010  -0.012   0.012   0.009   0.012  -0.013  -0.005  -0.000   0.001   0.002  -0.004   0.008   0.000
 -0.028   0.010  -0.001   0.022  -0.010   0.001   0.011   0.000  -0.000  -0.000  -0.003   0.000   0.023


------------------------ aborting loop because EDIFF is reached ----------------------------------------


 


 total charge     
 
# of ion       s       p       d       tot
------------------------------------------
    1        0.065   6.053   0.060   6.178
    2        0.072   6.066   0.066   6.205
    3        0.065   6.053   0.060   6.178
    4        0.072   6.066   0.066   6.205
    5        1.253   0.995   0.056   2.303
    6        1.254   0.991   0.056   2.300
    7        1.254   0.991   0.056   2.300
    8        1.253   0.995   0.056   2.303
    9        1.465   2.332   0.016   3.812
   10        1.465   2.332   0.016   3.812
   11        1.468   2.326   0.018   3.812
   12        1.462   2.348   0.015   3.826
   13        1.468   2.326   0.018   3.812
   14        1.462   2.348   0.015   3.826
   15        1.468   2.335   0.019   3.822
   16        1.468   2.335   0.019   3.822
--------------------------------------------------
tot         17.013  46.890   0.614  64.516
 
    CHARGE:  cpu time    0.0217: real time    0.0219
    FORLOC:  cpu time    0.0012: real time    0.0012
    FORNL :  cpu time    0.1172: real time    0.1184
    STRESS:  cpu time    0.4678: real time    0.4687
    FORCOR:  cpu time    0.0094: real time    0.0094
    FORHAR:  cpu time    0.0027: real time    0.0027
    MIXING:  cpu time    0.0004: real time    0.0004
    OFIELD:  cpu time    0.0000: real time    0.0000

  FORCE on cell =-STRESS in cart. coord.  units (eV):
  Direction    XX          YY          ZZ          XY          YZ          ZX
  --------------------------------------------------------------------------------------
  Alpha Z   210.66556   210.66556   210.66556
  Ewald   -1205.50963 -1269.64018 -1131.40911     4.18950   -22.77299    -2.16381
  Hartree   260.43169   217.01245   293.60312     0.28765   -15.67695    -5.34047
  E(xc)    -363.54725  -363.79718  -361.42583     0.06537    -0.54241    -0.21935
  Local    -235.79650  -128.71230  -337.25108    -3.38832    39.26657     9.16861
  n-local   571.41987   572.08251   556.72671    -0.13281     3.63948     1.54132
  augment   -76.61261   -77.57308   -74.63152     0.18064    -0.55396    -0.26984
  Kinetic   838.66598   840.08584   843.92572    -1.27446    -3.24952    -2.49711
  Fock        0.00000     0.00000     0.00000     0.00000     0.00000     0.00000
  -------------------------------------------------------------------------------------
  Total      -0.28289     0.12363     0.20356    -0.07243     0.11022     0.21935
  in kB      -0.84841     0.37077     0.61048    -0.21722     0.33055     0.65783
  external pressure =        0.04 kB  Pullay stress =        0.00 kB


 VOLUME and BASIS-vectors are now :
 -----------------------------------------------------------------------------
  energy-cutoff  :      300.00
  volume of cell :      534.23
      direct lattice vectors                 reciprocal lattice vectors
     6.621979585  0.059011524  0.103244689     0.150129078  0.036791844  0.035616053
    -1.614036036  6.567563284  0.019119983    -0.001870472  0.151706964  0.033258535
    -2.232834971 -2.703025131 12.204124025    -0.001267134 -0.000548929  0.081586104

  length of vectors
     6.623047294  6.763014519 12.697737597     0.158621824  0.155321060  0.081597790


 FORCES acting on ions
    electron-ion (+dipol)            ewald-force                    non-local-force                 convergence-correction
 -----------------------------------------------------------------------------------------------
   -.245E+01 -.251E+02 0.404E+01   0.231E+01 0.239E+02 -.388E+01   0.136E+00 0.115E+01 -.180E+00   -.312E-02 -.320E-02 0.967E-02
   -.290E+01 0.125E+02 0.111E+02   0.278E+01 -.115E+02 -.104E+02   0.153E+00 -.100E+01 -.705E+00   -.771E-02 -.778E-03 0.141E-02
   0.245E+01 0.251E+02 -.404E+01   -.231E+01 -.239E+02 0.388E+01   -.136E+00 -.115E+01 0.180E+00   0.312E-02 0.320E-02 -.967E-02
   0.290E+01 -.125E+02 -.111E+02   -.278E+01 0.115E+02 0.104E+02   -.153E+00 0.100E+01 0.705E+00   0.771E-02 0.778E-03 -.141E-02
   -.295E+02 0.267E+02 0.352E+00   0.368E+02 -.343E+02 0.811E+00   -.740E+01 0.763E+01 -.114E+01   -.256E-02 0.977E-03 0.296E-02
   -.236E+02 -.308E+02 -.839E+01   0.303E+02 0.387E+02 0.106E+02   -.670E+01 -.792E+01 -.222E+01   -.248E-02 -.414E-02 -.192E-02
   0.236E+02 0.308E+02 0.839E+01   -.303E+02 -.387E+02 -.106E+02   0.670E+01 0.792E+01 0.222E+01   0.248E-02 0.414E-02 0.192E-02
   0.295E+02 -.267E+02 -.352E+00   -.368E+02 0.343E+02 -.811E+00   0.740E+01 -.763E+01 0.114E+01   0.256E-02 -.977E-03 -.296E-02
   0.408E+02 0.207E+02 -.761E+00   -.428E+02 -.211E+02 0.133E+01   0.191E+01 0.324E+00 -.572E+00   0.643E-02 0.103E-01 -.222E-02
   -.408E+02 -.207E+02 0.761E+00   0.428E+02 0.211E+02 -.133E+01   -.191E+01 -.324E+00 0.572E+00   -.643E-02 -.103E-01 0.222E-02
   0.426E+02 -.154E+02 -.165E+02   -.446E+02 0.150E+02 0.173E+02   0.200E+01 0.446E+00 -.811E+00   0.463E-02 -.263E-02 -.792E-02
   -.638E+01 -.380E+02 -.379E+01   0.646E+01 0.400E+02 0.367E+01   -.671E-01 -.203E+01 0.104E+00   -.101E-02 0.363E-02 0.230E-02
   -.426E+02 0.154E+02 0.165E+02   0.446E+02 -.150E+02 -.173E+02   -.200E+01 -.446E+00 0.811E+00   -.463E-02 0.263E-02 0.792E-02
   0.638E+01 0.380E+02 0.379E+01   -.646E+01 -.400E+02 -.367E+01   0.671E-01 0.203E+01 -.104E+00   0.101E-02 -.363E-02 -.230E-02
   0.130E+02 -.299E+02 -.176E+02   -.133E+02 0.316E+02 0.192E+02   0.209E+00 -.164E+01 -.165E+01   0.337E-02 -.701E-02 0.659E-02
   -.130E+02 0.299E+02 0.176E+02   0.133E+02 -.316E+02 -.192E+02   -.209E+00 0.164E+01 0.165E+01   -.337E-02 0.701E-02 -.659E-02
 -----------------------------------------------------------------------------------------------
   -.942E-12 -.854E-12 0.291E-11   0.000E+00 0.000E+00 -.142E-13   0.833E-16 0.444E-15 -.222E-15   -.676E-13 0.876E-12 -.190E-11
 
 
 POSITION                                       TOTAL-FORCE (eV/Angst)
 -----------------------------------------------------------------------------------
      2.89628      1.67294      1.95829        -0.002566     -0.001793     -0.015202
      3.56613      3.27434      7.28993         0.020004      0.001233      0.014527
     -0.12117      2.25061     10.36820         0.002566      0.001793      0.015202
     -0.79103      0.64921      5.03656        -0.020004     -0.001233     -0.014527
      0.67721      4.41825      4.32065        -0.031380     -0.001962      0.023287
     -2.29297     -1.07138     11.11935         0.017169     -0.036588     -0.015715
      5.06808      4.99493      1.20714        -0.017169      0.036588      0.015715
      2.09790     -0.49470      8.00583         0.031380      0.001962     -0.023287
     -1.87860      4.08171      3.96629         0.003399     -0.048117     -0.002369
      4.65371     -0.15816      8.36020        -0.003399      0.048117      0.002369
      1.75029     -0.92757     10.79085         0.024222      0.007689      0.017472
      2.48401      0.32106      5.04709         0.015598      0.009248     -0.017173
      1.02482      4.85112      1.53564        -0.024222     -0.007689     -0.017472
      0.29110      3.60249      7.27940        -0.015598     -0.009248      0.017173
     -0.38989      0.85626      1.65681        -0.021542      0.032834     -0.002289
      3.16500      3.06729     10.66968         0.021542     -0.032834      0.002289
 -----------------------------------------------------------------------------------
    total drift:                               -0.000000      0.000000      0.000000


--------------------------------------------------------------------------------------------------------



  FREE ENERGIE OF THE ION-ELECTRON SYSTEM (eV)
  ---------------------------------------------------
  free  energy   TOTEN  =       -59.88630315 eV

  energy  without entropy=      -59.88630315  energy(sigma->0) =      -59.88630315
 
 d Force = 0.6722866E-03[ 0.421E-03, 0.923E-03]  d Energy = 0.8407589E-03-0.168E-03
 d Force =-0.4756209E-01[-0.495E-01,-0.456E-01]  d Ewald  = 0.2035095E+00-0.251E+00


--------------------------------------------------------------------------------------------------------


    POTLOK:  cpu time    0.2579: real time    0.2579


--------------------------------------------------------------------------------------------------------


 Conjugate gradient step on ions:
 trial-energy change:   -0.000841  1 .order   -0.000826   -0.001052   -0.000599
  (g-gl).g = 0.255E-03      g.g   = 0.384E-03  gl.gl    = 0.674E-03
 g(Force)  = 0.340E-03   g(Stress)= 0.442E-04 ortho     =-0.345E-04
 gamma     =   0.37804
 trial     =   2.83573
 opt step  =   6.58746  (harmonic =   6.58746) maximal distance =0.00505163
 next E    =   -59.886685   (d E  =  -0.00122)


--------------------------------------------------------------------------------------------------------


  
 reached required accuracy - stopping structural energy minimisation
     LOOP+:  cpu time    3.5893: real time    3.7353
    4ORBIT:  cpu time    0.0000: real time    0.0000
 


 total charge     
 
# of ion       s       p       d       tot
------------------------------------------
    1        0.065   6.053   0.060   6.178
    2        0.072   6.066   0.066   6.205
    3        0.065   6.053   0.060   6.178
    4        0.072   6.066   0.066   6.205
    5        1.253   0.995   0.056   2.303
    6        1.254   0.991   0.056   2.300
    7        1.254   0.991   0.056   2.300
    8        1.253   0.995   0.056   2.303
    9        1.465   2.332   0.016   3.812
   10        1.465   2.332   0.016   3.812
   11        1.468   2.326   0.018   3.812
   12        1.462   2.348   0.015   3.826
   13        1.468   2.326   0.018   3.812
   14        1.462   2.348   0.015   3.826
   15        1.468   2.335   0.019   3.822
   16        1.468   2.335   0.019   3.822
--------------------------------------------------
tot         17.013  46.890   0.614  64.516
 

 total amount of memory used by VASP MPI-rank0    40975. kBytes
=======================================================================

   base      :      30000. kBytes
   nonlr-proj:       2184. kBytes
   fftplans  :        803. kBytes
   grid      :       3082. kBytes
   one-center:        129. kBytes
   wavefun   :       4777. kBytes
 
  
  
 General timing and accounting informations for this job:
 ========================================================
  
                  Total CPU time used (sec):      229.357
                            User time (sec):      225.019
                          System time (sec):        4.338
                         Elapsed time (sec):      239.200
  
                   Maximum memory used (kb):       87344.
                   Average memory used (kb):           0.
  
                          Minor page faults:        56049
                          Major page faults:            0
                 Voluntary context switches:         2249
