PROCAR new format
# of k-points:    9         # of bands:   70         # of ions:   16

 k-point     1 :    0.00000000-0.00000000 0.25000000     weight = 0.11111111

band     1 # energy  -12.05570492 # occ.  2.00000000
 
ion      s      p      d    tot
    1  0.000  0.116  0.000  0.116
    2  0.000  0.214  0.000  0.214
    3  0.000  0.116  0.000  0.116
    4  0.000  0.214  0.000  0.214
    5  0.003  0.000  0.000  0.003
    6  0.016  0.001  0.000  0.017
    7  0.016  0.001  0.000  0.017
    8  0.003  0.000  0.000  0.003
    9  0.010  0.000  0.000  0.010
   10  0.010  0.000  0.000  0.010
   11  0.027  0.000  0.000  0.027
   12  0.001  0.000  0.000  0.002
   13  0.027  0.000  0.000  0.027
   14  0.001  0.000  0.000  0.002
   15  0.046  0.001  0.000  0.047
   16  0.046  0.001  0.000  0.047
tot    0.206  0.665  0.000  0.872
 
band     2 # energy  -12.01541103 # occ.  2.00000000
 
ion      s      p      d    tot
    1  0.000  0.172  0.000  0.172
    2  0.000  0.275  0.000  0.276
    3  0.000  0.172  0.000  0.172
    4  0.000  0.275  0.000  0.276
    5  0.003  0.000  0.000  0.003
    6  0.001  0.000  0.000  0.001
    7  0.001  0.000  0.000  0.001
    8  0.003  0.000  0.000  0.003
    9  0.008  0.000  0.000  0.008
   10  0.008  0.000  0.000  0.008
   11  0.007  0.000  0.000  0.007
   12  0.006  0.000  0.000  0.007
   13  0.007  0.000  0.000  0.007
   14  0.006  0.000  0.000  0.007
   15  0.003  0.000  0.000  0.003
   16  0.003  0.000  0.000  0.003
tot    0.057  0.896  0.000  0.953
 
band     3 # energy  -11.99740783 # occ.  2.00000000
 
ion      s      p      d    tot
    1  0.000  0.336  0.000  0.336
    2  0.000  0.141  0.000  0.141
    3  0.000  0.336  0.000  0.336
    4  0.000  0.141  0.000  0.141
    5  0.001  0.000  0.000  0.001
    6  0.000  0.000  0.000  0.000
    7  0.000  0.000  0.000  0.000
    8  0.001  0.000  0.000  0.001
    9  0.003  0.000  0.000  0.003
   10  0.003  0.000  0.000  0.003
   11  0.002  0.000  0.000  0.002
   12  0.004  0.000  0.000  0.004
   13  0.002  0.000  0.000  0.002
   14  0.004  0.000  0.000  0.004
   15  0.000  0.000  0.000  0.000
   16  0.000  0.000  0.000  0.000
tot    0.020  0.954  0.000  0.974
 
band     4 # energy  -11.97751905 # occ.  2.00000000
 
ion      s      p      d    tot
    1  0.000  0.274  0.000  0.274
    2  0.000  0.202  0.000  0.202
    3  0.000  0.274  0.000  0.274
    4  0.000  0.202  0.000  0.202
    5  0.001  0.000  0.000  0.001
    6  0.001  0.000  0.000  0.001
    7  0.001  0.000  0.000  0.001
    8  0.001  0.000  0.000  0.001
    9  0.000  0.000  0.000  0.000
   10  0.000  0.000  0.000  0.000
   11  0.003  0.000  0.000  0.003
   12  0.004  0.000  0.000  0.004
   13  0.003  0.000  0.000  0.003
   14  0.004  0.000  0.000  0.004
   15  0.002  0.000  0.000  0.002
   16  0.002  0.000  0.000  0.002
tot    0.021  0.953  0.000  0.974
 
band     5 # energy  -11.96691072 # occ.  2.00000000
 
ion      s      p      d    tot
    1  0.000  0.074  0.000  0.074
    2  0.000  0.404  0.000  0.404
    3  0.000  0.074  0.000  0.074
    4  0.000  0.404  0.000  0.404
    5  0.001  0.000  0.000  0.001
    6  0.000  0.000  0.000  0.000
    7  0.000  0.000  0.000  0.000
    8  0.001  0.000  0.000  0.001
    9  0.003  0.000  0.000  0.003
   10  0.003  0.000  0.000  0.003
   11  0.001  0.000  0.000  0.001
   12  0.002  0.000  0.000  0.002
   13  0.001  0.000  0.000  0.001
   14  0.002  0.000  0.000  0.002
   15  0.002  0.000  0.000  0.002
   16  0.002  0.000  0.000  0.002
tot    0.019  0.957  0.000  0.976
 
band     6 # energy  -11.95632072 # occ.  2.00000000
 
ion      s      p      d    tot
    1  0.000  0.454  0.000  0.454
    2  0.000  0.033  0.000  0.033
    3  0.000  0.454  0.000  0.454
    4  0.000  0.033  0.000  0.033
    5  0.000  0.000  0.000  0.000
    6  0.000  0.000  0.000  0.000
    7  0.000  0.000  0.000  0.000
    8  0.000  0.000  0.000  0.000
    9  0.001  0.000  0.000  0.001
   10  0.001  0.000  0.000  0.001
   11  0.002  0.000  0.000  0.002
   12  0.000  0.000  0.000  0.000
   13  0.002  0.000  0.000  0.002
   14  0.000  0.000  0.000  0.000
   15  0.000  0.000  0.000  0.000
   16  0.000  0.000  0.000  0.000
tot    0.007  0.976  0.000  0.982
 
band     7 # energy  -11.95107238 # occ.  2.00000000
 
ion      s      p      d    tot
    1  0.000  0.397  0.000  0.397
    2  0.000  0.092  0.000  0.092
    3  0.000  0.397  0.000  0.397
    4  0.000  0.092  0.000  0.092
    5  0.000  0.000  0.000  0.000
    6  0.000  0.000  0.000  0.000
    7  0.000  0.000  0.000  0.000
    8  0.000  0.000  0.000  0.000
    9  0.001  0.000  0.000  0.001
   10  0.001  0.000  0.000  0.001
   11  0.000  0.000  0.000  0.000
   12  0.002  0.000  0.000  0.002
   13  0.000  0.000  0.000  0.000
   14  0.002  0.000  0.000  0.002
   15  0.000  0.000  0.000  0.000
   16  0.000  0.000  0.000  0.000
tot    0.005  0.978  0.000  0.983
 
band     8 # energy  -11.93506069 # occ.  2.00000000
 
ion      s      p      d    tot
    1  0.000  0.020  0.000  0.020
    2  0.000  0.473  0.000  0.473
    3  0.000  0.020  0.000  0.020
    4  0.000  0.473  0.000  0.473
    5  0.000  0.000  0.000  0.000
    6  0.000  0.000  0.000  0.000
    7  0.000  0.000  0.000  0.000
    8  0.000  0.000  0.000  0.000
    9  0.000  0.000  0.000  0.000
   10  0.000  0.000  0.000  0.000
   11  0.000  0.000  0.000  0.000
   12  0.000  0.000  0.000  0.001
   13  0.000  0.000  0.000  0.000
   14  0.000  0.000  0.000  0.001
   15  0.000  0.000  0.000  0.000
   16  0.000  0.000  0.000  0.000
tot    0.002  0.985  0.000  0.987
 
band     9 # energy  -11.93327955 # occ.  2.00000000
 
ion      s      p      d    tot
    1  0.000  0.261  0.000  0.261
    2  0.000  0.231  0.000  0.231
    3  0.000  0.261  0.000  0.261
    4  0.000  0.231  0.000  0.231
    5  0.000  0.000  0.000  0.000
    6  0.000  0.000  0.000  0.000
    7  0.000  0.000  0.000  0.000
    8  0.000  0.000  0.000  0.000
    9  0.000  0.000  0.000  0.000
   10  0.000  0.000  0.000  0.000
   11  0.000  0.000  0.000  0.000
   12  0.000  0.000  0.000  0.000
   13  0.000  0.000  0.000  0.000
   14  0.000  0.000  0.000  0.000
   15  0.000  0.000  0.000  0.000
   16  0.000  0.000  0.000  0.000
tot    0.001  0.984  0.000  0.985
 
band    10 # energy  -11.92964292 # occ.  2.00000000
 
ion      s      p      d    tot
    1  0.000  0.374  0.000  0.374
    2  0.000  0.114  0.000  0.114
    3  0.000  0.374  0.000  0.374
    4  0.000  0.114  0.000  0.114
    5  0.000  0.000  0.000  0.000
    6  0.000  0.000  0.000  0.000
    7  0.000  0.000  0.000  0.000
    8  0.000  0.000  0.000  0.000
    9  0.001  0.000  0.000  0.001
   10  0.001  0.000  0.000  0.001
   11  0.000  0.000  0.000  0.000
   12  0.000  0.000  0.000  0.000
   13  0.000  0.000  0.000  0.000
   14  0.000  0.000  0.000  0.000
   15  0.000  0.000  0.000  0.000
   16  0.000  0.000  0.000  0.000
tot    0.005  0.978  0.000  0.983
 
band    11 # energy  -11.91208100 # occ.  2.00000000
 
ion      s      p      d    tot
    1  0.000  0.224  0.000  0.224
    2  0.000  0.268  0.000  0.268
    3  0.000  0.224  0.000  0.224
    4  0.000  0.268  0.000  0.268
    5  0.000  0.000  0.000  0.000
    6  0.000  0.000  0.000  0.000
    7  0.000  0.000  0.000  0.000
    8  0.000  0.000  0.000  0.000
    9  0.000  0.000  0.000  0.000
   10  0.000  0.000  0.000  0.000
   11  0.000  0.000  0.000  0.000
   12  0.000  0.000  0.000  0.001
   13  0.000  0.000  0.000  0.000
   14  0.000  0.000  0.000  0.001
   15  0.000  0.000  0.000  0.000
   16  0.000  0.000  0.000  0.000
tot    0.002  0.984  0.000  0.986
 
band    12 # energy  -11.90638696 # occ.  2.00000000
 
ion      s      p      d    tot
    1  0.000  0.127  0.000  0.127
    2  0.000  0.363  0.000  0.363
    3  0.000  0.127  0.000  0.127
    4  0.000  0.363  0.000  0.363
    5  0.000  0.000  0.000  0.000
    6  0.000  0.000  0.000  0.000
    7  0.000  0.000  0.000  0.000
    8  0.000  0.000  0.000  0.000
    9  0.001  0.000  0.000  0.001
   10  0.001  0.000  0.000  0.001
   11  0.000  0.000  0.000  0.000
   12  0.000  0.000  0.000  0.001
   13  0.000  0.000  0.000  0.000
   14  0.000  0.000  0.000  0.001
   15  0.000  0.000  0.000  0.000
   16  0.000  0.000  0.000  0.000
tot    0.004  0.980  0.000  0.985
 
band    13 # energy  -11.77254348 # occ.  2.00000000
 
ion      s      p      d    tot
    1  0.000  0.071  0.000  0.072
    2  0.000  0.093  0.000  0.093
    3  0.000  0.071  0.000  0.072
    4  0.000  0.093  0.000  0.093
    5  0.014  0.001  0.000  0.014
    6  0.031  0.001  0.000  0.032
    7  0.031  0.001  0.000  0.032
    8  0.014  0.001  0.000  0.014
    9  0.030  0.001  0.000  0.030
   10  0.030  0.001  0.000  0.030
   11  0.056  0.001  0.000  0.057
   12  0.017  0.000  0.000  0.017
   13  0.056  0.001  0.000  0.057
   14  0.017  0.000  0.000  0.017
   15  0.065  0.001  0.000  0.067
   16  0.065  0.001  0.000  0.067
tot    0.425  0.339  0.001  0.765
 
band    14 # energy  -11.47627301 # occ.  2.00000000
 
ion      s      p      d    tot
    1  0.000  0.035  0.000  0.035
    2  0.000  0.030  0.000  0.031
    3  0.000  0.035  0.000  0.035
    4  0.000  0.030  0.000  0.031
    5  0.033  0.002  0.000  0.035
    6  0.018  0.002  0.000  0.020
    7  0.018  0.002  0.000  0.020
    8  0.033  0.002  0.000  0.035
    9  0.069  0.001  0.000  0.070
   10  0.069  0.001  0.000  0.070
   11  0.080  0.001  0.000  0.081
   12  0.053  0.001  0.000  0.054
   13  0.080  0.001  0.000  0.081
   14  0.053  0.001  0.000  0.054
   15  0.028  0.001  0.000  0.029
   16  0.028  0.001  0.000  0.029
tot    0.563  0.146  0.001  0.710
 
band    15 # energy  -11.11951449 # occ.  2.00000000
 
ion      s      p      d    tot
    1  0.000  0.007  0.000  0.007
    2  0.000  0.010  0.000  0.010
    3  0.000  0.007  0.000  0.007
    4  0.000  0.010  0.000  0.010
    5  0.028  0.003  0.000  0.031
    6  0.014  0.003  0.000  0.017
    7  0.014  0.003  0.000  0.017
    8  0.028  0.003  0.000  0.031
    9  0.063  0.001  0.000  0.064
   10  0.063  0.001  0.000  0.064
   11  0.059  0.001  0.000  0.060
   12  0.082  0.001  0.000  0.084
   13  0.059  0.001  0.000  0.060
   14  0.082  0.001  0.000  0.084
   15  0.076  0.001  0.000  0.078
   16  0.076  0.001  0.000  0.078
tot    0.645  0.053  0.002  0.700
 
band    16 # energy  -10.73139136 # occ.  2.00000000
 
ion      s      p      d    tot
    1  0.000  0.002  0.000  0.002
    2  0.000  0.001  0.000  0.002
    3  0.000  0.002  0.000  0.002
    4  0.000  0.001  0.000  0.002
    5  0.011  0.003  0.000  0.015
    6  0.008  0.003  0.000  0.012
    7  0.008  0.003  0.000  0.012
    8  0.011  0.003  0.000  0.015
    9  0.047  0.001  0.000  0.048
   10  0.047  0.001  0.000  0.048
   11  0.112  0.001  0.000  0.112
   12  0.087  0.001  0.000  0.088
   13  0.112  0.001  0.000  0.112
   14  0.087  0.001  0.000  0.088
   15  0.080  0.001  0.000  0.081
   16  0.080  0.001  0.000  0.081
tot    0.692  0.025  0.003  0.720
 
band    17 # energy  -10.57058913 # occ.  2.00000000
 
ion      s      p      d    tot
    1  0.000  0.002  0.000  0.002
    2  0.000  0.005  0.000  0.005
    3  0.000  0.002  0.000  0.002
    4  0.000  0.005  0.000  0.005
    5  0.000  0.001  0.000  0.001
    6  0.000  0.006  0.001  0.007
    7  0.000  0.006  0.001  0.007
    8  0.000  0.001  0.000  0.001
    9  0.013  0.000  0.000  0.013
   10  0.013  0.000  0.000  0.013
   11  0.078  0.000  0.000  0.079
   12  0.003  0.000  0.000  0.003
   13  0.078  0.000  0.000  0.079
   14  0.003  0.000  0.000  0.003
   15  0.258  0.001  0.000  0.259
   16  0.258  0.001  0.000  0.259
tot    0.706  0.028  0.003  0.736
 
band    18 # energy  -10.50219951 # occ.  2.00000000
 
ion      s      p      d    tot
    1  0.000  0.004  0.000  0.005
    2  0.000  0.006  0.000  0.006
    3  0.000  0.004  0.000  0.005
    4  0.000  0.006  0.000  0.006
    5  0.003  0.003  0.000  0.006
    6  0.001  0.003  0.001  0.004
    7  0.001  0.003  0.001  0.004
    8  0.003  0.003  0.000  0.006
    9  0.133  0.001  0.000  0.133
   10  0.133  0.001  0.000  0.133
   11  0.180  0.000  0.000  0.180
   12  0.002  0.000  0.000  0.002
   13  0.180  0.000  0.000  0.180
   14  0.002  0.000  0.000  0.002
   15  0.035  0.000  0.000  0.035
   16  0.035  0.000  0.000  0.035
tot    0.705  0.033  0.003  0.741
 
band    19 # energy  -10.43105417 # occ.  2.00000000
 
ion      s      p      d    tot
    1  0.000  0.005  0.000  0.005
    2  0.000  0.001  0.000  0.002
    3  0.000  0.005  0.000  0.005
    4  0.000  0.001  0.000  0.002
    5  0.002  0.006  0.001  0.008
    6  0.000  0.001  0.000  0.001
    7  0.000  0.001  0.000  0.001
    8  0.002  0.006  0.001  0.008
    9  0.046  0.000  0.000  0.046
   10  0.046  0.000  0.000  0.046
   11  0.011  0.000  0.000  0.011
   12  0.284  0.001  0.000  0.285
   13  0.011  0.000  0.000  0.011
   14  0.284  0.001  0.000  0.285
   15  0.009  0.000  0.000  0.009
   16  0.009  0.000  0.000  0.009
tot    0.706  0.026  0.003  0.735
 
band    20 # energy  -10.39542481 # occ.  2.00000000
 
ion      s      p      d    tot
    1  0.000  0.004  0.000  0.004
    2  0.000  0.002  0.000  0.003
    3  0.000  0.004  0.000  0.004
    4  0.000  0.002  0.000  0.003
    5  0.000  0.005  0.001  0.005
    6  0.000  0.001  0.000  0.001
    7  0.000  0.001  0.000  0.001
    8  0.000  0.005  0.001  0.005
    9  0.212  0.001  0.000  0.213
   10  0.212  0.001  0.000  0.213
   11  0.023  0.000  0.000  0.023
   12  0.089  0.000  0.000  0.089
   13  0.023  0.000  0.000  0.023
   14  0.089  0.000  0.000  0.089
   15  0.031  0.000  0.000  0.031
   16  0.031  0.000  0.000  0.031
tot    0.712  0.026  0.003  0.740
 
band    21 # energy   -7.40192012 # occ.  2.00000000
 
ion      s      p      d    tot
    1  0.000  0.000  0.000  0.000
    2  0.000  0.000  0.000  0.000
    3  0.000  0.000  0.000  0.000
    4  0.000  0.000  0.000  0.000
    5  0.087  0.000  0.000  0.087
    6  0.173  0.000  0.000  0.173
    7  0.173  0.000  0.000  0.173
    8  0.087  0.000  0.000  0.087
    9  0.005  0.005  0.000  0.010
   10  0.005  0.005  0.000  0.010
   11  0.010  0.008  0.001  0.019
   12  0.010  0.004  0.000  0.014
   13  0.010  0.008  0.001  0.019
   14  0.010  0.004  0.000  0.014
   15  0.007  0.010  0.001  0.018
   16  0.007  0.010  0.001  0.018
tot    0.582  0.055  0.006  0.643
 
band    22 # energy   -7.01418676 # occ.  2.00000000
 
ion      s      p      d    tot
    1  0.000  0.000  0.000  0.000
    2  0.000  0.000  0.000  0.000
    3  0.000  0.000  0.000  0.000
    4  0.000  0.000  0.000  0.000
    5  0.139  0.000  0.000  0.139
    6  0.096  0.001  0.000  0.097
    7  0.096  0.001  0.000  0.097
    8  0.139  0.000  0.000  0.139
    9  0.018  0.006  0.001  0.024
   10  0.018  0.006  0.001  0.024
   11  0.008  0.007  0.001  0.016
   12  0.020  0.007  0.000  0.027
   13  0.008  0.007  0.001  0.016
   14  0.020  0.007  0.000  0.027
   15  0.023  0.005  0.000  0.028
   16  0.023  0.005  0.000  0.028
tot    0.608  0.053  0.005  0.666
 
band    23 # energy   -6.55278341 # occ.  2.00000000
 
ion      s      p      d    tot
    1  0.000  0.000  0.000  0.000
    2  0.000  0.000  0.000  0.001
    3  0.000  0.000  0.000  0.000
    4  0.000  0.000  0.000  0.001
    5  0.135  0.000  0.000  0.135
    6  0.086  0.000  0.000  0.086
    7  0.086  0.000  0.000  0.086
    8  0.135  0.000  0.000  0.135
    9  0.030  0.006  0.000  0.037
   10  0.030  0.006  0.000  0.037
   11  0.027  0.006  0.000  0.033
   12  0.025  0.008  0.000  0.033
   13  0.027  0.006  0.000  0.033
   14  0.025  0.008  0.000  0.033
   15  0.016  0.006  0.000  0.022
   16  0.016  0.006  0.000  0.022
tot    0.636  0.054  0.003  0.694
 
band    24 # energy   -6.28035979 # occ.  2.00000000
 
ion      s      p      d    tot
    1  0.000  0.000  0.000  0.001
    2  0.001  0.000  0.000  0.001
    3  0.000  0.000  0.000  0.001
    4  0.001  0.000  0.000  0.001
    5  0.097  0.000  0.000  0.097
    6  0.115  0.000  0.000  0.115
    7  0.115  0.000  0.000  0.115
    8  0.097  0.000  0.000  0.097
    9  0.025  0.006  0.000  0.031
   10  0.025  0.006  0.000  0.031
   11  0.032  0.007  0.000  0.039
   12  0.021  0.006  0.000  0.028
   13  0.032  0.007  0.000  0.039
   14  0.021  0.006  0.000  0.028
   15  0.033  0.008  0.000  0.041
   16  0.033  0.008  0.000  0.041
tot    0.647  0.056  0.002  0.705
 
band    25 # energy   -2.84858375 # occ.  2.00000000
 
ion      s      p      d    tot
    1  0.000  0.002  0.001  0.002
    2  0.000  0.002  0.000  0.002
    3  0.000  0.002  0.001  0.002
    4  0.000  0.002  0.000  0.002
    5  0.000  0.020  0.000  0.021
    6  0.000  0.055  0.001  0.056
    7  0.000  0.055  0.001  0.056
    8  0.000  0.020  0.000  0.021
    9  0.000  0.021  0.000  0.021
   10  0.000  0.021  0.000  0.021
   11  0.000  0.033  0.000  0.033
   12  0.000  0.013  0.000  0.014
   13  0.000  0.033  0.000  0.033
   14  0.000  0.013  0.000  0.014
   15  0.000  0.064  0.001  0.065
   16  0.000  0.064  0.001  0.065
tot    0.003  0.420  0.006  0.429
 
band    26 # energy   -2.68346407 # occ.  2.00000000
 
ion      s      p      d    tot
    1  0.000  0.002  0.001  0.003
    2  0.000  0.002  0.000  0.002
    3  0.000  0.002  0.001  0.003
    4  0.000  0.002  0.000  0.002
    5  0.000  0.019  0.000  0.020
    6  0.001  0.047  0.001  0.049
    7  0.001  0.047  0.001  0.049
    8  0.000  0.019  0.000  0.020
    9  0.003  0.026  0.000  0.029
   10  0.003  0.026  0.000  0.029
   11  0.003  0.043  0.000  0.046
   12  0.001  0.013  0.000  0.014
   13  0.003  0.043  0.000  0.046
   14  0.001  0.013  0.000  0.014
   15  0.004  0.054  0.000  0.059
   16  0.004  0.054  0.000  0.059
tot    0.026  0.411  0.007  0.444
 
band    27 # energy   -2.60067445 # occ.  2.00000000
 
ion      s      p      d    tot
    1  0.000  0.003  0.001  0.003
    2  0.000  0.002  0.000  0.002
    3  0.000  0.003  0.001  0.003
    4  0.000  0.002  0.000  0.002
    5  0.000  0.026  0.000  0.027
    6  0.001  0.045  0.001  0.046
    7  0.001  0.045  0.001  0.046
    8  0.000  0.026  0.000  0.027
    9  0.001  0.039  0.000  0.040
   10  0.001  0.039  0.000  0.040
   11  0.002  0.066  0.000  0.068
   12  0.001  0.009  0.000  0.010
   13  0.002  0.066  0.000  0.068
   14  0.001  0.009  0.000  0.010
   15  0.001  0.024  0.000  0.025
   16  0.001  0.024  0.000  0.025
tot    0.013  0.425  0.006  0.444
 
band    28 # energy   -2.27581153 # occ.  2.00000000
 
ion      s      p      d    tot
    1  0.002  0.002  0.000  0.005
    2  0.000  0.001  0.000  0.002
    3  0.002  0.002  0.000  0.005
    4  0.000  0.001  0.000  0.002
    5  0.003  0.040  0.000  0.043
    6  0.003  0.035  0.001  0.039
    7  0.003  0.035  0.001  0.039
    8  0.003  0.040  0.000  0.043
    9  0.001  0.049  0.000  0.051
   10  0.001  0.049  0.000  0.051
   11  0.001  0.039  0.001  0.040
   12  0.000  0.017  0.000  0.018
   13  0.001  0.039  0.001  0.040
   14  0.000  0.017  0.000  0.018
   15  0.000  0.023  0.000  0.024
   16  0.000  0.023  0.000  0.024
tot    0.021  0.415  0.006  0.441
 
band    29 # energy   -2.24675932 # occ.  2.00000000
 
ion      s      p      d    tot
    1  0.001  0.002  0.000  0.003
    2  0.000  0.002  0.001  0.003
    3  0.001  0.002  0.000  0.003
    4  0.000  0.002  0.001  0.003
    5  0.000  0.041  0.001  0.042
    6  0.001  0.028  0.001  0.029
    7  0.001  0.028  0.001  0.029
    8  0.000  0.041  0.001  0.042
    9  0.001  0.041  0.001  0.043
   10  0.001  0.041  0.001  0.043
   11  0.003  0.038  0.000  0.041
   12  0.003  0.036  0.000  0.039
   13  0.003  0.038  0.000  0.041
   14  0.003  0.036  0.000  0.039
   15  0.001  0.026  0.000  0.027
   16  0.001  0.026  0.000  0.027
tot    0.021  0.426  0.008  0.454
 
band    30 # energy   -2.07105773 # occ.  2.00000000
 
ion      s      p      d    tot
    1  0.000  0.002  0.000  0.002
    2  0.001  0.004  0.000  0.006
    3  0.000  0.002  0.000  0.002
    4  0.001  0.004  0.000  0.006
    5  0.004  0.055  0.001  0.060
    6  0.002  0.020  0.000  0.023
    7  0.002  0.020  0.000  0.023
    8  0.004  0.055  0.001  0.060
    9  0.001  0.016  0.000  0.017
   10  0.001  0.016  0.000  0.017
   11  0.001  0.029  0.000  0.030
   12  0.000  0.080  0.001  0.081
   13  0.001  0.029  0.000  0.030
   14  0.000  0.080  0.001  0.081
   15  0.000  0.009  0.000  0.010
   16  0.000  0.009  0.000  0.010
tot    0.021  0.431  0.007  0.459
 
band    31 # energy   -1.66739794 # occ.  2.00000000
 
ion      s      p      d    tot
    1  0.000  0.004  0.000  0.005
    2  0.000  0.002  0.001  0.003
    3  0.000  0.004  0.000  0.005
    4  0.000  0.002  0.001  0.003
    5  0.001  0.037  0.001  0.039
    6  0.003  0.030  0.001  0.035
    7  0.003  0.030  0.001  0.035
    8  0.001  0.037  0.001  0.039
    9  0.000  0.030  0.001  0.031
   10  0.000  0.030  0.001  0.031
   11  0.001  0.024  0.000  0.025
   12  0.002  0.043  0.000  0.045
   13  0.001  0.024  0.000  0.025
   14  0.002  0.043  0.000  0.045
   15  0.001  0.051  0.000  0.052
   16  0.001  0.051  0.000  0.052
tot    0.016  0.443  0.010  0.469
 
band    32 # energy   -1.59895396 # occ.  2.00000000
 
ion      s      p      d    tot
    1  0.000  0.002  0.001  0.003
    2  0.000  0.002  0.000  0.003
    3  0.000  0.002  0.001  0.003
    4  0.000  0.002  0.000  0.003
    5  0.002  0.049  0.001  0.052
    6  0.001  0.027  0.001  0.028
    7  0.001  0.027  0.001  0.028
    8  0.002  0.049  0.001  0.052
    9  0.002  0.061  0.000  0.064
   10  0.002  0.061  0.000  0.064
   11  0.001  0.045  0.001  0.047
   12  0.001  0.032  0.001  0.033
   13  0.001  0.045  0.001  0.047
   14  0.001  0.032  0.001  0.033
   15  0.000  0.014  0.000  0.015
   16  0.000  0.014  0.000  0.015
tot    0.016  0.464  0.009  0.490
 
band    33 # energy   -1.31466177 # occ.  2.00000000
 
ion      s      p      d    tot
    1  0.001  0.003  0.000  0.004
    2  0.001  0.003  0.000  0.004
    3  0.001  0.003  0.000  0.004
    4  0.001  0.003  0.000  0.004
    5  0.003  0.040  0.000  0.043
    6  0.002  0.029  0.000  0.032
    7  0.002  0.029  0.000  0.032
    8  0.003  0.040  0.000  0.043
    9  0.002  0.058  0.000  0.060
   10  0.002  0.058  0.000  0.060
   11  0.001  0.048  0.000  0.049
   12  0.001  0.023  0.000  0.025
   13  0.001  0.048  0.000  0.049
   14  0.001  0.023  0.000  0.025
   15  0.000  0.020  0.000  0.021
   16  0.000  0.020  0.000  0.021
tot    0.024  0.447  0.006  0.477
 
band    34 # energy   -1.18817918 # occ.  2.00000000
 
ion      s      p      d    tot
    1  0.000  0.003  0.001  0.004
    2  0.000  0.004  0.001  0.005
    3  0.000  0.003  0.001  0.004
    4  0.000  0.004  0.001  0.005
    5  0.003  0.048  0.001  0.051
    6  0.000  0.025  0.000  0.026
    7  0.000  0.025  0.000  0.026
    8  0.003  0.048  0.001  0.051
    9  0.000  0.044  0.000  0.045
   10  0.000  0.044  0.000  0.045
   11  0.000  0.022  0.000  0.023
   12  0.002  0.068  0.000  0.070
   13  0.000  0.022  0.000  0.023
   14  0.002  0.068  0.000  0.070
   15  0.000  0.016  0.000  0.017
   16  0.000  0.016  0.000  0.017
tot    0.010  0.463  0.008  0.482
 
band    35 # energy   -1.07870431 # occ.  2.00000000
 
ion      s      p      d    tot
    1  0.000  0.003  0.001  0.004
    2  0.001  0.001  0.000  0.002
    3  0.000  0.003  0.001  0.004
    4  0.001  0.001  0.000  0.002
    5  0.002  0.033  0.001  0.036
    6  0.004  0.035  0.001  0.040
    7  0.004  0.035  0.001  0.040
    8  0.002  0.033  0.001  0.036
    9  0.000  0.014  0.000  0.015
   10  0.000  0.014  0.000  0.015
   11  0.001  0.051  0.001  0.052
   12  0.000  0.023  0.000  0.024
   13  0.001  0.051  0.001  0.052
   14  0.000  0.023  0.000  0.024
   15  0.001  0.073  0.000  0.075
   16  0.001  0.073  0.000  0.075
tot    0.020  0.467  0.010  0.497
 
band    36 # energy   -0.54163794 # occ.  2.00000000
 
ion      s      p      d    tot
    1  0.001  0.002  0.001  0.004
    2  0.002  0.003  0.001  0.006
    3  0.001  0.002  0.001  0.004
    4  0.002  0.003  0.001  0.006
    5  0.002  0.018  0.001  0.020
    6  0.001  0.033  0.001  0.034
    7  0.001  0.033  0.001  0.034
    8  0.002  0.018  0.001  0.020
    9  0.001  0.027  0.000  0.028
   10  0.001  0.027  0.000  0.028
   11  0.000  0.028  0.000  0.028
   12  0.001  0.038  0.000  0.039
   13  0.000  0.028  0.000  0.028
   14  0.001  0.038  0.000  0.039
   15  0.002  0.094  0.000  0.096
   16  0.002  0.094  0.000  0.096
tot    0.020  0.483  0.010  0.513
 
band    37 # energy   -0.11330872 # occ.  2.00000000
 
ion      s      p      d    tot
    1  0.000  0.005  0.000  0.006
    2  0.001  0.019  0.001  0.021
    3  0.000  0.005  0.000  0.006
    4  0.001  0.019  0.001  0.021
    5  0.000  0.001  0.001  0.002
    6  0.002  0.001  0.002  0.005
    7  0.002  0.001  0.002  0.005
    8  0.000  0.001  0.001  0.002
    9  0.000  0.041  0.000  0.041
   10  0.000  0.041  0.000  0.041
   11  0.000  0.012  0.000  0.012
   12  0.000  0.081  0.000  0.081
   13  0.000  0.012  0.000  0.012
   14  0.000  0.081  0.000  0.081
   15  0.000  0.091  0.000  0.091
   16  0.000  0.091  0.000  0.091
tot    0.008  0.502  0.010  0.519
 
band    38 # energy   -0.06961639 # occ.  2.00000000
 
ion      s      p      d    tot
    1  0.001  0.011  0.001  0.013
    2  0.001  0.008  0.001  0.011
    3  0.001  0.011  0.001  0.013
    4  0.001  0.008  0.001  0.011
    5  0.001  0.002  0.002  0.005
    6  0.002  0.002  0.001  0.005
    7  0.002  0.002  0.001  0.005
    8  0.001  0.002  0.002  0.005
    9  0.000  0.052  0.000  0.052
   10  0.000  0.052  0.000  0.052
   11  0.000  0.027  0.000  0.027
   12  0.000  0.071  0.000  0.071
   13  0.000  0.027  0.000  0.027
   14  0.000  0.071  0.000  0.071
   15  0.000  0.069  0.000  0.069
   16  0.000  0.069  0.000  0.069
tot    0.013  0.484  0.010  0.506
 
band    39 # energy    0.01573426 # occ.  2.00000000
 
ion      s      p      d    tot
    1  0.005  0.009  0.001  0.016
    2  0.000  0.003  0.000  0.003
    3  0.005  0.009  0.001  0.016
    4  0.000  0.003  0.000  0.003
    5  0.006  0.002  0.002  0.009
    6  0.000  0.002  0.001  0.003
    7  0.000  0.002  0.001  0.003
    8  0.006  0.002  0.002  0.009
    9  0.000  0.016  0.000  0.016
   10  0.000  0.016  0.000  0.016
   11  0.000  0.116  0.000  0.117
   12  0.000  0.070  0.000  0.070
   13  0.000  0.116  0.000  0.117
   14  0.000  0.070  0.000  0.070
   15  0.000  0.020  0.000  0.021
   16  0.000  0.020  0.000  0.021
tot    0.024  0.476  0.011  0.511
 
band    40 # energy    0.15880206 # occ.  2.00000000
 
ion      s      p      d    tot
    1  0.001  0.003  0.002  0.006
    2  0.000  0.009  0.002  0.011
    3  0.001  0.003  0.002  0.006
    4  0.000  0.009  0.002  0.011
    5  0.001  0.002  0.002  0.004
    6  0.002  0.001  0.001  0.004
    7  0.002  0.001  0.001  0.004
    8  0.001  0.002  0.002  0.004
    9  0.000  0.099  0.000  0.099
   10  0.000  0.099  0.000  0.099
   11  0.000  0.091  0.000  0.091
   12  0.000  0.033  0.000  0.033
   13  0.000  0.091  0.000  0.091
   14  0.000  0.033  0.000  0.033
   15  0.000  0.015  0.000  0.015
   16  0.000  0.015  0.000  0.015
tot    0.008  0.504  0.014  0.526
 
band    41 # energy    0.22407168 # occ.  2.00000000
 
ion      s      p      d    tot
    1  0.002  0.006  0.002  0.009
    2  0.002  0.006  0.002  0.009
    3  0.002  0.006  0.002  0.009
    4  0.002  0.006  0.002  0.009
    5  0.000  0.001  0.000  0.002
    6  0.001  0.001  0.002  0.004
    7  0.001  0.001  0.002  0.004
    8  0.000  0.001  0.000  0.002
    9  0.000  0.068  0.000  0.068
   10  0.000  0.068  0.000  0.068
   11  0.000  0.052  0.000  0.053
   12  0.000  0.038  0.000  0.038
   13  0.000  0.052  0.000  0.053
   14  0.000  0.038  0.000  0.038
   15  0.000  0.079  0.000  0.079
   16  0.000  0.079  0.000  0.079
tot    0.010  0.502  0.013  0.525
 
band    42 # energy    0.29206752 # occ.  2.00000000
 
ion      s      p      d    tot
    1  0.000  0.009  0.001  0.010
    2  0.001  0.007  0.001  0.008
    3  0.000  0.009  0.001  0.010
    4  0.001  0.007  0.001  0.008
    5  0.001  0.003  0.002  0.005
    6  0.000  0.002  0.001  0.003
    7  0.000  0.002  0.001  0.003
    8  0.001  0.003  0.002  0.005
    9  0.000  0.046  0.000  0.046
   10  0.000  0.046  0.000  0.046
   11  0.000  0.037  0.000  0.037
   12  0.000  0.059  0.000  0.059
   13  0.000  0.037  0.000  0.037
   14  0.000  0.059  0.000  0.059
   15  0.000  0.096  0.000  0.096
   16  0.000  0.096  0.000  0.096
tot    0.005  0.515  0.010  0.530
 
band    43 # energy    0.34097569 # occ.  2.00000000
 
ion      s      p      d    tot
    1  0.000  0.003  0.002  0.005
    2  0.001  0.009  0.001  0.011
    3  0.000  0.003  0.002  0.005
    4  0.001  0.009  0.001  0.011
    5  0.001  0.002  0.002  0.004
    6  0.003  0.002  0.001  0.006
    7  0.003  0.002  0.001  0.006
    8  0.001  0.002  0.002  0.004
    9  0.000  0.104  0.000  0.104
   10  0.000  0.104  0.000  0.104
   11  0.000  0.033  0.000  0.033
   12  0.000  0.056  0.000  0.056
   13  0.000  0.033  0.000  0.033
   14  0.000  0.056  0.000  0.056
   15  0.000  0.048  0.000  0.048
   16  0.000  0.048  0.000  0.048
tot    0.011  0.511  0.013  0.536
 
band    44 # energy    0.53632422 # occ.  2.00000000
 
ion      s      p      d    tot
    1  0.000  0.004  0.001  0.006
    2  0.000  0.005  0.001  0.006
    3  0.000  0.004  0.001  0.006
    4  0.000  0.005  0.001  0.006
    5  0.002  0.001  0.002  0.004
    6  0.001  0.005  0.002  0.008
    7  0.001  0.005  0.002  0.008
    8  0.002  0.001  0.002  0.004
    9  0.000  0.042  0.000  0.042
   10  0.000  0.042  0.000  0.042
   11  0.000  0.077  0.000  0.077
   12  0.000  0.084  0.000  0.084
   13  0.000  0.077  0.000  0.077
   14  0.000  0.084  0.000  0.084
   15  0.000  0.048  0.000  0.048
   16  0.000  0.048  0.000  0.048
tot    0.007  0.533  0.012  0.552
 
band    45 # energy    0.60904997 # occ.  2.00000000
 
ion      s      p      d    tot
    1  0.002  0.004  0.001  0.007
    2  0.002  0.002  0.001  0.004
    3  0.002  0.004  0.001  0.007
    4  0.002  0.002  0.001  0.004
    5  0.008  0.004  0.002  0.015
    6  0.006  0.008  0.001  0.015
    7  0.006  0.008  0.001  0.015
    8  0.008  0.004  0.002  0.015
    9  0.001  0.046  0.000  0.047
   10  0.001  0.046  0.000  0.047
   11  0.001  0.055  0.000  0.056