<?xml version="1.0" encoding="ISO-8859-1"?>
<modeling>
 <generator>
  <i name="program" type="string">vasp </i>
  <i name="version" type="string">5.4.4.18Apr17-6-g9f103f2a35  </i>
  <i name="subversion" type="string">(build Oct 27 2022 13:04:57) complex            parallel </i>
  <i name="platform" type="string">LinuxIFC </i>
  <i name="date" type="string">2024 06 30 </i>
  <i name="time" type="string">03:14:24 </i>
 </generator>
 <incar>
  <i type="string" name="SYSTEM"> CIS</i>
  <i type="int" name="ISTART">     0</i>
  <i type="string" name="PREC">medium</i>
  <i type="int" name="ICHARG">     2</i>
  <i type="int" name="IBRION">     2</i>
  <i name="EDIFF">      0.00010000</i>
  <i name="EDIFFG">     -0.05000000</i>
  <i type="int" name="NSW">    99</i>
  <i type="int" name="ISIF">     3</i>
  <i name="ENCUT">    300.00000000</i>
  <i name="POTIM">      0.10000000</i>
  <i type="string" name="LREAL"> Auto</i>
  <i type="int" name="ISMEAR">     0</i>
  <i name="SIGMA">      0.05000000</i>
  <i type="int" name="LMAXMIX">     4</i>
  <i type="logical" name="LWAVE"> F  </i>
  <i type="logical" name="LCHARG"> F  </i>
  <i type="int" name="LORBIT">    10</i>
  <i type="logical" name="LASPH"> T  </i>
  <v type="int" name="KPOINT_BSE">    -1     0     0     0</v>
  <i type="logical" name="LASPH"> T  </i>
 </incar>
 <structure name="primitive_cell" >
  <crystal>
   <varray name="basis" >
    <v>       6.80156258       0.01373919       0.00303440 </v>
    <v>      -1.70322763       6.53599324       0.00368926 </v>
    <v>      -2.45832499      -2.74517761      12.19567969 </v>
   </varray>
   <i name="volume">    542.57563216 </i>
   <varray name="rec_basis" >
    <v>       0.14693068       0.03826738       0.03823109 </v>
    <v>      -0.00032417       0.15289507       0.03435046 </v>
    <v>      -0.00003646      -0.00005577       0.08197635 </v>
   </varray>
  </crystal>
  <varray name="positions" >
   <v>      -0.43543482       0.32792680       0.15321973 </v>
   <v>       0.37682557      -0.21014110       0.12400872 </v>
   <v>      -0.42398102       0.20157447       0.40838269 </v>
   <v>       0.02079445       0.17614819       0.13400333 </v>
   <v>      -0.37682557       0.21014110      -0.12400872 </v>
   <v>       0.01438569      -0.24313481       0.31821392 </v>
   <v>      -0.01220549      -0.21644890       0.08536101 </v>
   <v>       0.01220549       0.21644890      -0.08536101 </v>
   <v>       0.40997226      -0.19398140       0.34789500 </v>
   <v>       0.10637731       0.28356330       0.42013618 </v>
   <v>       0.43543482      -0.32792680      -0.15321973 </v>
   <v>      -0.02079445      -0.17614819      -0.13400333 </v>
   <v>      -0.10637731      -0.28356330      -0.42013618 </v>
   <v>       0.42398102      -0.20157447      -0.40838269 </v>
   <v>      -0.40997226       0.19398140      -0.34789500 </v>
   <v>      -0.01438569       0.24313481      -0.31821392 </v>
  </varray>
 </structure>
 <varray name="primitive_index" >
  <v type="int" >        1 </v>
  <v type="int" >       13 </v>
  <v type="int" >       12 </v>
  <v type="int" >       15 </v>
  <v type="int" >       11 </v>
  <v type="int" >        9 </v>
  <v type="int" >        7 </v>
  <v type="int" >        6 </v>
  <v type="int" >        5 </v>
  <v type="int" >        4 </v>
  <v type="int" >        3 </v>
  <v type="int" >       16 </v>
  <v type="int" >        2 </v>
  <v type="int" >       14 </v>
  <v type="int" >        8 </v>
  <v type="int" >       10 </v>
 </varray>
 <kpoints>
  <generation param="Monkhorst-Pack">
   <v type="int" name="divisions">       3        3        2 </v>
   <v name="usershift">      0.00000000       0.00000000       0.00000000 </v>
   <v name="genvec1">      0.33333333       0.00000000       0.00000000 </v>
   <v name="genvec2">     -0.00000000       0.33333333       0.00000000 </v>
   <v name="genvec3">      0.00000000      -0.00000000       0.50000000 </v>
   <v name="shift">      0.00000000       0.00000000       0.50000000 </v>
  </generation>
  <varray name="kpointlist" >
   <v>       0.00000000      -0.00000000       0.25000000 </v>
   <v>       0.33333333       0.00000000       0.25000000 </v>
   <v>      -0.33333333      -0.00000000       0.25000000 </v>
   <v>       0.00000000       0.33333333       0.25000000 </v>
   <v>       0.33333333       0.33333333       0.25000000 </v>
   <v>      -0.33333333       0.33333333       0.25000000 </v>
   <v>      -0.00000000      -0.33333333       0.25000000 </v>
   <v>       0.33333333      -0.33333333       0.25000000 </v>
   <v>      -0.33333333      -0.33333333       0.25000000 </v>
  </varray>
  <varray name="weights" >
   <v>       0.11111111 </v>
   <v>       0.11111111 </v>
   <v>       0.11111111 </v>
   <v>       0.11111111 </v>
   <v>       0.11111111 </v>
   <v>       0.11111111 </v>
   <v>       0.11111111 </v>
   <v>       0.11111111 </v>
   <v>       0.11111111 </v>
  </varray>
 </kpoints>
 <parameters>
  <separator name="general" >
   <i type="string" name="SYSTEM">CIS</i>
   <i type="logical" name="LCOMPAT"> F  </i>
  </separator>
  <separator name="electronic" >
   <i type="string" name="PREC">medium</i>
   <i name="ENMAX">    300.00000000</i>
   <i name="ENAUG">    446.84200000</i>
   <i name="EDIFF">      0.00010000</i>
   <i type="int" name="IALGO">    38</i>
   <i type="int" name="IWAVPR">    11</i>
   <i type="int" name="NBANDS">    70</i>
   <i name="NELECT">     96.00000000</i>
   <i type="int" name="TURBO">     0</i>
   <i type="int" name="IRESTART">     0</i>
   <i type="int" name="NREBOOT">     0</i>
   <i type="int" name="NMIN">     0</i>
   <i name="EREF">      0.00000000</i>
   <separator name="electronic smearing" >
    <i type="int" name="ISMEAR">     0</i>
    <i name="SIGMA">      0.05000000</i>
    <i name="KSPACING">      0.50000000</i>
    <i type="logical" name="KGAMMA"> T  </i>
   </separator>
   <separator name="electronic projectors" >
    <i type="logical" name="LREAL"> T  </i>
    <v name="ROPT">     -0.00200000     -0.00200000     -0.00200000</v>
    <i type="int" name="LMAXPAW">  -100</i>
    <i type="int" name="LMAXMIX">     4</i>
    <i type="logical" name="NLSPLINE"> F  </i>
   </separator>
   <separator name="electronic startup" >
    <i type="int" name="ISTART">     0</i>
    <i type="int" name="ICHARG">     2</i>
    <i type="int" name="INIWAV">     1</i>
   </separator>
   <separator name="electronic spin" >
    <i type="int" name="ISPIN">     1</i>
    <i type="logical" name="LNONCOLLINEAR"> F  </i>
    <v name="MAGMOM">      1.00000000      1.00000000      1.00000000      1.00000000      1.00000000      1.00000000      1.00000000      1.00000000      1.00000000      1.00000000      1.00000000      1.00000000      1.00000000      1.00000000      1.00000000      1.00000000</v>
    <i name="NUPDOWN">     -1.00000000</i>
    <i type="logical" name="LSORBIT"> F  </i>
    <v name="SAXIS">      0.00000000      0.00000000      1.00000000</v>
    <i type="logical" name="LSPIRAL"> F  </i>
    <v name="QSPIRAL">      0.00000000      0.00000000      0.00000000</v>
    <i type="logical" name="LZEROZ"> F  </i>
   </separator>
   <separator name="electronic exchange-correlation" >
    <i type="logical" name="LASPH"> T  </i>
    <i type="logical" name="LMETAGGA"> F  </i>
   </separator>
   <separator name="electronic convergence" >
    <i type="int" name="NELM">    60</i>
    <i type="int" name="NELMDL">    -5</i>
    <i type="int" name="NELMIN">     2</i>
    <i name="ENINI">    300.00000000</i>
    <separator name="electronic convergence detail" >
     <i type="logical" name="LDIAG"> T  </i>
     <i type="logical" name="LSUBROT"> F  </i>
     <i name="WEIMIN">      0.00100000</i>
     <i name="EBREAK">      0.00000036</i>
     <i name="DEPER">      0.30000000</i>
     <i type="int" name="NRMM">     4</i>
     <i name="TIME">      0.40000000</i>
    </separator>
   </separator>
   <separator name="electronic mixer" >
    <i name="AMIX">      0.40000000</i>
    <i name="BMIX">      1.00000000</i>
    <i name="AMIN">      0.10000000</i>
    <i name="AMIX_MAG">      1.60000000</i>
    <i name="BMIX_MAG">      1.00000000</i>
    <separator name="electronic mixer details" >
     <i type="int" name="IMIX">     4</i>
     <i type="logical" name="MIXFIRST"> F  </i>
     <i type="int" name="MAXMIX">   -45</i>
     <i name="WC">    100.00000000</i>
     <i type="int" name="INIMIX">     1</i>
     <i type="int" name="MIXPRE">     1</i>
     <i type="int" name="MREMOVE">     5</i>
    </separator>
   </separator>
   <separator name="electronic dipolcorrection" >
    <i type="logical" name="LDIPOL"> F  </i>
    <i type="logical" name="LMONO"> F  </i>
    <i type="int" name="IDIPOL">     0</i>
    <i name="EPSILON">      1.00000000</i>
    <v name="DIPOL">   -100.00000000   -100.00000000   -100.00000000</v>
    <i name="EFIELD">      0.00000000</i>
   </separator>
  </separator>
  <separator name="grids" >
   <i type="int" name="NGX">    30</i>
   <i type="int" name="NGY">    30</i>
   <i type="int" name="NGZ">    54</i>
   <i type="int" name="NGXF">    48</i>
   <i type="int" name="NGYF">    48</i>
   <i type="int" name="NGZF">    90</i>
   <i type="logical" name="ADDGRID"> F  </i>
  </separator>
  <separator name="ionic" >
   <i type="int" name="NSW">    99</i>
   <i type="int" name="IBRION">     2</i>
   <i type="int" name="MDALGO">     0</i>
   <i type="int" name="ISIF">     3</i>
   <i name="PSTRESS">      0.00000000</i>
   <i name="EDIFFG">     -0.05000000</i>
   <i type="int" name="NFREE">     1</i>
   <i name="POTIM">      0.10000000</i>
   <i name="SMASS">     -3.00000000</i>
   <i name="SCALEE">      1.00000000</i>
  </separator>
  <separator name="ionic md" >
   <i name="TEBEG">      0.00010000</i>
   <i name="TEEND">      0.00010000</i>
   <i type="int" name="NBLOCK">     1</i>
   <i type="int" name="KBLOCK">    99</i>
   <i type="int" name="NPACO">   256</i>
   <i name="APACO">     16.00000000</i>
  </separator>
  <separator name="symmetry" >
   <i type="int" name="ISYM">     2</i>
   <i name="SYMPREC">      0.00001000</i>
  </separator>
  <separator name="dos" >
   <i type="int" name="LORBIT">    10</i>
   <v name="RWIGS">     -1.00000000     -1.00000000     -1.00000000</v>
   <i type="int" name="NEDOS">   301</i>
   <i name="EMIN">     10.00000000</i>
   <i name="EMAX">    -10.00000000</i>
   <i name="EFERMI">      0.00000000</i>
  </separator>
  <separator name="writing" >
   <i type="int" name="NWRITE">     2</i>
   <i type="logical" name="LWAVE"> F  </i>
   <i type="logical" name="LDOWNSAMPLE"> F  </i>
   <i type="logical" name="LCHARG"> F  </i>
   <i type="logical" name="LPARD"> F  </i>
   <i type="logical" name="LVTOT"> F  </i>
   <i type="logical" name="LVHAR"> F  </i>
   <i type="logical" name="LELF"> F  </i>
   <i type="logical" name="LOPTICS"> F  </i>
   <v name="STM">      0.00000000      0.00000000      0.00000000      0.00000000      0.00000000      0.00000000      0.00000000</v>
  </separator>
  <separator name="performance" >
   <i type="int" name="NPAR">    14</i>
   <i type="int" name="NSIM">     4</i>
   <i type="int" name="NBLK">    -1</i>
   <i type="logical" name="LPLANE"> T  </i>
   <i type="logical" name="LSCALAPACK"> T  </i>
   <i type="logical" name="LSCAAWARE"> F  </i>
   <i type="logical" name="LSCALU"> F  </i>
   <i type="logical" name="LASYNC"> F  </i>
   <i type="logical" name="LORBITALREAL"> F  </i>
  </separator>
  <separator name="miscellaneous" >
   <i type="int" name="IDIOT">     3</i>
   <i type="int" name="ISPECIAL">     0</i>
   <i type="logical" name="LMUSIC"> F  </i>
   <v name="POMASS">     39.09800000    121.75000000     78.96000000</v>
   <v name="DARWINR">      0.00000000      0.00000000      0.00000000</v>
   <v name="DARWINV">      1.00000000      1.00000000      1.00000000</v>
   <i type="logical" name="LCORR"> T  </i>
  </separator>
  <i type="logical" name="GGA_COMPAT"> T  </i>
  <i type="logical" name="LBERRY"> F  </i>
  <i type="int" name="ICORELEVEL">     0</i>
  <i type="logical" name="LDAU"> F  </i>
  <i type="int" name="I_CONSTRAINED_M">     0</i>
  <separator name="electronic exchange-correlation" >
   <i type="string" name="GGA">--</i>
   <i type="int" name="VOSKOWN">     0</i>
   <i type="logical" name="LHFCALC"> F  </i>
   <i type="string" name="PRECFOCK"></i>
   <i type="logical" name="LSYMGRAD"> F  </i>
   <i type="logical" name="LHFONE"> F  </i>
   <i type="logical" name="LRHFCALC"> F  </i>
   <i type="logical" name="LTHOMAS"> F  </i>
   <i type="logical" name="LMODELHF"> F  </i>
   <i name="ENCUT4O">     -1.00000000</i>
   <i type="int" name="EXXOEP">     0</i>
   <i type="int" name="FOURORBIT">     0</i>
   <i name="AEXX">      0.00000000</i>
   <i name="HFALPHA">      0.00000000</i>
   <i name="MCALPHA">      0.00000000</i>
   <i name="ALDAX">      1.00000000</i>
   <i name="AGGAX">      1.00000000</i>
   <i name="ALDAC">      1.00000000</i>
   <i name="AGGAC">      1.00000000</i>
   <i type="int" name="NKREDX">     1</i>
   <i type="int" name="NKREDY">     1</i>
   <i type="int" name="NKREDZ">     1</i>
   <i type="logical" name="SHIFTRED"> F  </i>
   <i type="logical" name="ODDONLY"> F  </i>
   <i type="logical" name="EVENONLY"> F  </i>
   <i type="int" name="LMAXFOCK">     0</i>
   <i type="int" name="NMAXFOCKAE">     0</i>
   <i type="logical" name="LFOCKAEDFT"> F  </i>
   <i name="HFSCREEN">      0.00000000</i>
   <i name="HFSCREENC">      0.00000000</i>
   <i type="int" name="NBANDSGWLOW">     0</i>
  </separator>
  <separator name="vdW DFT" >
   <i type="logical" name="LUSE_VDW"> F  </i>
   <i name="Zab_VDW">     -0.84910000</i>
   <i name="PARAM1">      0.12340000</i>
   <i name="PARAM2">      1.00000000</i>
   <i name="PARAM3">      0.00000000</i>
  </separator>
  <separator name="model GW" >
   <i type="int" name="MODEL_GW">     0</i>
   <i name="MODEL_EPS0">     20.34658621</i>
   <i name="MODEL_ALPHA">      1.00000000</i>
  </separator>
  <separator name="linear response parameters" >
   <i type="logical" name="LEPSILON"> F  </i>
   <i type="logical" name="LRPA"> F  </i>
   <i type="logical" name="LNABLA"> F  </i>
   <i type="logical" name="LVEL"> F  </i>
   <i type="int" name="KINTER">     0</i>
   <i name="CSHIFT">      0.10000000</i>
   <i name="OMEGAMAX">     -1.00000000</i>
   <i name="DEG_THRESHOLD">      0.00200000</i>
   <i name="RTIME">     -0.10000000</i>
   <i name="WPLASMAI">      0.00000000</i>
   <v name="DFIELD">      0.00000000      0.00000000      0.00000000</v>
   <v name="WPLASMA">      0.00000000      0.00000000      0.00000000      0.00000000      0.00000000      0.00000000      0.00000000      0.00000000      0.00000000</v>
  </separator>
  <separator name="orbital magnetization" >
   <i type="logical" name="NUCIND"> F  </i>
   <v name="MAGPOS">      0.00000000      0.00000000      0.00000000</v>
   <i type="logical" name="LNICSALL"> T  </i>
   <i type="logical" name="ORBITALMAG"> F  </i>
   <i type="logical" name="LMAGBLOCH"> F  </i>
   <i type="logical" name="LCHIMAG"> F  </i>
   <i type="logical" name="LGAUGE"> T  </i>
   <i type="int" name="MAGATOM">     0</i>
   <v name="MAGDIPOL">      0.00000000      0.00000000      0.00000000</v>
   <v name="AVECCONST">      0.00000000      0.00000000      0.00000000</v>
  </separator>
  <separator name="response functions" >
   <i type="logical" name="LADDER"> F  </i>
   <i type="logical" name="LRPAFORCE"> F  </i>
   <i type="logical" name="LFXC"> F  </i>
   <i type="logical" name="LHARTREE"> T  </i>
   <i type="int" name="IBSE">     0</i>
   <v type="int" name="KPOINT">    -1     0     0     0</v>
   <i type="logical" name="LTCTE"> F  </i>
   <i type="logical" name="LTETE"> F  </i>
   <i type="logical" name="LTRIPLET"> F  </i>
   <i type="logical" name="LFXCEPS"> F  </i>
   <i type="logical" name="LFXHEG"> F  </i>
   <i type="int" name="NATURALO">     2</i>
   <i type="logical" name="L2ORDER"> F  </i>
   <i type="logical" name="LMP2LT"> F  </i>
   <i type="logical" name="LUSEW"> F  </i>
   <i name="ENCUTGW">     -2.00000000</i>
   <i name="ENCUTGWSOFT">     -2.00000000</i>
   <i name="ENCUTLF">     -1.00000000</i>
   <i type="int" name="LMAXMP2">    -1</i>
   <i name="SCISSOR">      0.00000000</i>
   <i type="int" name="NOMEGA">     0</i>
   <i type="int" name="NOMEGAR">     0</i>
   <i type="int" name="NBANDSGW">    -1</i>
   <i type="int" name="NBANDSO">    -1</i>
   <i type="int" name="NBANDSV">    -1</i>
   <i type="int" name="NELM">     1</i>
   <i type="int" name="NELMHF">     1</i>
   <i type="int" name="DIM">     3</i>
   <i type="int" name="ANTIRES">     0</i>
   <i name="OMEGAMAX">    -30.00000000</i>
   <i name="OMEGAMIN">    -30.00000000</i>
   <i name="OMEGATL">   -200.00000000</i>
   <i type="int" name="OMEGAGRID">   140</i>
   <i name="CSHIFT">     -0.10000000</i>
   <i type="logical" name="SELFENERGY"> F  </i>
   <i type="logical" name="LSPECTRAL"> F  </i>
   <i type="logical" name="LSPECTRALGW"> F  </i>
   <i type="logical" name="LSINGLES"> F  </i>
   <i type="logical" name="LFERMIGW"> F  </i>
   <i type="logical" name="ODDONLYGW"> F  </i>
   <i type="logical" name="EVENONLYGW"> F  </i>
   <i type="int" name="NKREDLFX">     1</i>
   <i type="int" name="NKREDLFY">     1</i>
   <i type="int" name="NKREDLFZ">     1</i>
   <i type="int" name="MAXMEM">  2800</i>
   <i type="int" name="TELESCOPE">     0</i>
   <i type="int" name="TAUPAR">     1</i>
   <i type="int" name="OMEGAPAR">    -1</i>
   <i name="LAMBDA">      1.00000000</i>
  </separator>
  <separator name="External order field" >
   <i name="OFIELD_KAPPA">      0.00000000</i>
   <v name="OFIELD_K">      0.00000000      0.00000000      0.00000000</v>
   <i name="OFIELD_Q6_NEAR">      0.00000000</i>
   <i name="OFIELD_Q6_FAR">      0.00000000</i>
   <i name="OFIELD_A">      0.00000000</i>
  </separator>
 </parameters>
 <atominfo>
  <atoms>      16 </atoms>
  <types>       3 </types>
  <array name="atoms" >
   <dimension dim="1">ion</dimension>
   <field type="string">element</field>
   <field type="int">atomtype</field>
   <set>
    <rc><c>K </c><c>   1</c></rc>
    <rc><c>K </c><c>   1</c></rc>
    <rc><c>K </c><c>   1</c></rc>
    <rc><c>K </c><c>   1</c></rc>
    <rc><c>Sb</c><c>   2</c></rc>
    <rc><c>Sb</c><c>   2</c></rc>
    <rc><c>Sb</c><c>   2</c></rc>
    <rc><c>Sb</c><c>   2</c></rc>
    <rc><c>Se</c><c>   3</c></rc>
    <rc><c>Se</c><c>   3</c></rc>
    <rc><c>Se</c><c>   3</c></rc>
    <rc><c>Se</c><c>   3</c></rc>
    <rc><c>Se</c><c>   3</c></rc>
    <rc><c>Se</c><c>   3</c></rc>
    <rc><c>Se</c><c>   3</c></rc>
    <rc><c>Se</c><c>   3</c></rc>
   </set>
  </array>
  <array name="atomtypes" >
   <dimension dim="1">type</dimension>
   <field type="int">atomspertype</field>
   <field type="string">element</field>
   <field>mass</field>
   <field>valence</field>
   <field type="string">pseudopotential</field>
   <set>
    <rc><c>   4</c><c>K </c><c>     39.09800000</c><c>      7.00000000</c><c>  PAW_PBE K_pv 17Jan2003                </c></rc>
    <rc><c>   4</c><c>Sb</c><c>    121.75000000</c><c>      5.00000000</c><c>  PAW_PBE Sb 06Sep2000                  </c></rc>
    <rc><c>   8</c><c>Se</c><c>     78.96000000</c><c>      6.00000000</c><c>  PAW_PBE Se 06Sep2000                  </c></rc>
   </set>
  </array>
 </atominfo>
 <structure name="initialpos" >
  <crystal>
   <varray name="basis" >
    <v>       6.80156258       0.01373919       0.00303440 </v>
    <v>      -1.70322763       6.53599324       0.00368926 </v>
    <v>      -2.45832499      -2.74517761      12.19567969 </v>
   </varray>
   <i name="volume">    542.57563216 </i>
   <varray name="rec_basis" >
    <v>       0.14693068       0.03826738       0.03823109 </v>
    <v>      -0.00032417       0.15289507       0.03435046 </v>
    <v>      -0.00003646      -0.00005577       0.08197635 </v>
   </varray>
  </crystal>
  <varray name="positions" >
   <v>       0.56456518       0.32792680       0.15321973 </v>
   <v>       0.89362269       0.71643670       0.57986382 </v>
   <v>       0.43543482       0.67207320       0.84678027 </v>
   <v>       0.10637731       0.28356330       0.42013618 </v>
   <v>       0.40997226       0.80601860       0.34789500 </v>
   <v>       0.01220549       0.21644890       0.91463899 </v>
   <v>       0.98779451       0.78355110       0.08536101 </v>
   <v>       0.59002774       0.19398140       0.65210500 </v>
   <v>       0.01438569       0.75686519       0.31821392 </v>
   <v>       0.98561431       0.24313481       0.68178608 </v>
   <v>       0.62317443       0.21014110       0.87599128 </v>
   <v>       0.57601898       0.20157447       0.40838269 </v>
   <v>       0.37682557       0.78985890       0.12400872 </v>
   <v>       0.42398102       0.79842553       0.59161731 </v>
   <v>       0.02079445       0.17614819       0.13400333 </v>
   <v>       0.97920555       0.82385181       0.86599667 </v>
  </varray>
 </structure>
 <calculation>
  <scstep>
   <time name="dav">    0.72    0.72</time>
   <time name="total">    0.98    1.01</time>
   <energy>
    <i name="alphaZ">    207.42412270 </i>
    <i name="ewald">  -3574.07745075 </i>
    <i name="hartreedc">   -759.80422509 </i>
    <i name="XCdc">   -146.26030361 </i>
    <i name="pawpsdc">   3690.88201897 </i>
    <i name="pawaedc">  -3351.74198289 </i>
    <i name="eentropy">     -0.01295950 </i>
    <i name="bandstr">    -71.95583831 </i>
    <i name="atom">   4458.71741050 </i>
    <i name="e_fr_energy">    453.17079203 </i>
    <i name="e_wo_entrp">    453.18375153 </i>
    <i name="e_0_energy">    453.17727178 </i>
   </energy>
  </scstep>
  <scstep>
   <time name="dav">    0.76    0.76</time>
   <time name="total">    0.76    0.76</time>
   <energy>
    <i name="e_fr_energy">    -22.50704403 </i>
    <i name="e_wo_entrp">    -22.50704403 </i>
    <i name="e_0_energy">    -22.50704403 </i>
   </energy>
  </scstep>
  <scstep>
   <time name="dav">    0.72    0.72</time>
   <time name="total">    0.72    0.72</time>
   <energy>
    <i name="e_fr_energy">    -61.80550825 </i>
    <i name="e_wo_entrp">    -61.80550825 </i>
    <i name="e_0_energy">    -61.80550825 </i>
   </energy>
  </scstep>
  <scstep>
   <time name="dav">    0.79    0.79</time>
   <time name="total">    0.79    0.79</time>
   <energy>
    <i name="e_fr_energy">    -62.38748588 </i>
    <i name="e_wo_entrp">    -62.38748588 </i>
    <i name="e_0_energy">    -62.38748588 </i>
   </energy>
  </scstep>
  <scstep>
   <time name="dav">    0.65    0.65</time>
   <time name="total">    0.67    0.67</time>
   <energy>
    <i name="e_fr_energy">    -62.39490735 </i>
    <i name="e_wo_entrp">    -62.39490735 </i>
    <i name="e_0_energy">    -62.39490735 </i>
   </energy>
  </scstep>
  <scstep>
   <time name="dav">    0.84    0.84</time>
   <time name="total">    1.11    1.11</time>
   <energy>
    <i name="e_fr_energy">    -59.78705536 </i>
    <i name="e_wo_entrp">    -59.78705536 </i>
    <i name="e_0_energy">    -59.78705536 </i>
   </energy>
  </scstep>
  <scstep>
   <time name="dav">    0.74    0.74</time>
   <time name="total">    1.02    1.02</time>
   <energy>
    <i name="e_fr_energy">    -59.73943774 </i>
    <i name="e_wo_entrp">    -59.73943774 </i>
    <i name="e_0_energy">    -59.73943774 </i>
   </energy>
  </scstep>
  <scstep>
   <time name="dav">    0.76    0.76</time>
   <time name="total">    1.03    1.04</time>
   <energy>
    <i name="e_fr_energy">    -59.73040320 </i>
    <i name="e_wo_entrp">    -59.73040320 </i>
    <i name="e_0_energy">    -59.73040320 </i>
   </energy>
  </scstep>
  <scstep>
   <time name="dav">    0.81    0.81</time>
   <time name="total">    1.08    1.08</time>
   <energy>
    <i name="e_fr_energy">    -59.73790341 </i>
    <i name="e_wo_entrp">    -59.73790341 </i>
    <i name="e_0_energy">    -59.73790341 </i>
   </energy>
  </scstep>
  <scstep>
   <time name="dav">    0.55    0.55</time>
   <time name="total">    0.82    0.82</time>
   <energy>
    <i name="e_fr_energy">    -59.73822268 </i>
    <i name="e_wo_entrp">    -59.73822268 </i>
    <i name="e_0_energy">    -59.73822268 </i>
   </energy>
  </scstep>
  <scstep>
   <time name="dav">    0.78    0.78</time>
   <time name="total">    1.06    1.06</time>
   <energy>
    <i name="e_fr_energy">    -59.73933313 </i>
    <i name="e_wo_entrp">    -59.73933313 </i>
    <i name="e_0_energy">    -59.73933313 </i>
   </energy>
  </scstep>
  <scstep>
   <time name="dav">    0.61    0.61</time>
   <time name="total">    0.89    0.89</time>
   <energy>
    <i name="e_fr_energy">    -59.73946228 </i>
    <i name="e_wo_entrp">    -59.73946228 </i>
    <i name="e_0_energy">    -59.73946228 </i>
   </energy>
  </scstep>
  <scstep>
   <time name="dav">    0.54    0.54</time>
   <time name="total">    0.79    0.79</time>
   <energy>
    <i name="alphaZ">    207.42412270 </i>
    <i name="ewald">  -3574.07745075 </i>
    <i name="hartreedc">   -789.27095423 </i>
    <i name="XCdc">   -142.36090111 </i>
    <i name="pawpsdc">   5230.80230884 </i>
    <i name="pawaedc">  -4891.04882561 </i>
    <i name="eentropy">     -0.00000000 </i>
    <i name="bandstr">   -559.92518991 </i>
    <i name="atom">   4458.71741050 </i>
    <i name="e_fr_energy">    -59.73947957 </i>
    <i name="e_wo_entrp">    -59.73947957 </i>
    <i name="e_0_energy">    -59.73947957 </i>
   </energy>
  </scstep>
  <structure>
   <crystal>
    <varray name="basis" >
     <v>       6.80156258       0.01373919       0.00303440 </v>
     <v>      -1.70322763       6.53599324       0.00368926 </v>
     <v>      -2.45832499      -2.74517761      12.19567969 </v>
    </varray>
    <i name="volume">    542.57563216 </i>
    <varray name="rec_basis" >
     <v>       0.14693068       0.03826738       0.03823109 </v>
     <v>      -0.00032417       0.15289507       0.03435046 </v>
     <v>      -0.00003646      -0.00005577       0.08197635 </v>
    </varray>
   </crystal>
   <varray name="positions" >
    <v>       0.56456518       0.32792680       0.15321973 </v>
    <v>       0.89362269       0.71643670       0.57986382 </v>
    <v>       0.43543482       0.67207320       0.84678027 </v>
    <v>       0.10637731       0.28356330       0.42013618 </v>
    <v>       0.40997226       0.80601860       0.34789500 </v>
    <v>       0.01220549       0.21644890       0.91463899 </v>
    <v>       0.98779451       0.78355110       0.08536101 </v>
    <v>       0.59002774       0.19398140       0.65210500 </v>
    <v>       0.01438569       0.75686519       0.31821392 </v>
    <v>       0.98561431       0.24313481       0.68178608 </v>
    <v>       0.62317443       0.21014110       0.87599128 </v>
    <v>       0.57601898       0.20157447       0.40838269 </v>
    <v>       0.37682557       0.78985890       0.12400872 </v>
    <v>       0.42398102       0.79842553       0.59161731 </v>
    <v>       0.02079445       0.17614819       0.13400333 </v>
    <v>       0.97920555       0.82385181       0.86599667 </v>
   </varray>
  </structure>
  <varray name="forces" >
   <v>      -0.00213075      -0.10875229       0.02595181 </v>
   <v>       0.00012285       0.10475768       0.08532386 </v>
   <v>       0.00213075       0.10875229      -0.02595181 </v>
   <v>      -0.00012285      -0.10475768      -0.08532386 </v>
   <v>       0.24403255      -0.18211141       0.06138380 </v>
   <v>       0.14012843       0.08492882       0.06832212 </v>
   <v>      -0.14012843      -0.08492882      -0.06832212 </v>
   <v>      -0.24403255       0.18211141      -0.06138380 </v>
   <v>      -0.26076688      -0.00361099       0.07445180 </v>
   <v>       0.26076688       0.00361099      -0.07445180 </v>
   <v>      -0.20853580      -0.07889678       0.11133966 </v>
   <v>       0.00710956       0.34392844       0.03836421 </v>
   <v>       0.20853580       0.07889678      -0.11133966 </v>
   <v>      -0.00710956      -0.34392844      -0.03836421 </v>
   <v>       0.00586797       0.21882767       0.17911624 </v>
   <v>      -0.00586797      -0.21882767      -0.17911624 </v>
  </varray>
  <varray name="stress" >
   <v>       1.22813726       0.13474580       1.36346355 </v>
   <v>       0.13474613       2.57291857       0.98791152 </v>
   <v>       1.36346094       0.98791118       2.79309746 </v>
  </varray>
  <energy>
   <i name="e_fr_energy">    -59.73947957 </i>
   <i name="e_wo_entrp">    -59.73947957 </i>
   <i name="e_0_energy">     -0.00000000 </i>
  </energy>
  <time name="totalsc">   12.83   12.95</time>
 </calculation>
 <calculation>
  <scstep>
   <time name="dav">    0.74    0.75</time>
   <time name="total">    1.03    1.13</time>
   <energy>
    <i name="alphaZ">    207.14507948 </i>
    <i name="ewald">  -3573.86125556 </i>
    <i name="hartreedc">   -787.83618010 </i>
    <i name="XCdc">   -142.47005585 </i>
    <i name="pawpsdc">   5230.93710297 </i>
    <i name="pawaedc">  -4891.18299107 </i>
    <i name="eentropy">     -0.00000000 </i>
    <i name="bandstr">   -561.19848387 </i>
    <i name="atom">   4458.71741050 </i>
    <i name="e_fr_energy">    -59.74937349 </i>
    <i name="e_wo_entrp">    -59.74937349 </i>
    <i name="e_0_energy">    -59.74937349 </i>
   </energy>
  </scstep>
  <scstep>
   <time name="dav">    0.66    0.67</time>
   <time name="total">    0.94    0.95</time>
   <energy>
    <i name="e_fr_energy">    -59.74939147 </i>
    <i name="e_wo_entrp">    -59.74939147 </i>
    <i name="e_0_energy">    -59.74939147 </i>
   </energy>
  </scstep>
  <scstep>
   <time name="dav">    0.68    0.68</time>
   <time name="total">    0.96    0.96</time>
   <energy>
    <i name="e_fr_energy">    -59.74927977 </i>
    <i name="e_wo_entrp">    -59.74927977 </i>
    <i name="e_0_energy">    -59.74927977 </i>
   </energy>
  </scstep>
  <scstep>
   <time name="dav">    0.40    0.40</time>
   <time name="total">    0.65    0.65</time>
   <energy>
    <i name="alphaZ">    207.14507948 </i>
    <i name="ewald">  -3573.86125556 </i>
    <i name="hartreedc">   -788.72619367 </i>
    <i name="XCdc">   -142.43395983 </i>
    <i name="pawpsdc">   5216.45983666 </i>
    <i name="pawaedc">  -4876.70319343 </i>
    <i name="eentropy">     -0.00000000 </i>
    <i name="bandstr">   -560.34696152 </i>
    <i name="atom">   4458.71741050 </i>
    <i name="e_fr_energy">    -59.74923737 </i>
    <i name="e_wo_entrp">    -59.74923737 </i>
    <i name="e_0_energy">    -59.74923737 </i>
   </energy>
  </scstep>
  <structure>
   <crystal>
    <varray name="basis" >
     <v>       6.80326968       0.01393418       0.00493274 </v>
     <v>      -1.70347393       6.53938134       0.00453574 </v>
     <v>      -2.45562131      -2.74422721      12.20139773 </v>
    </varray>
    <i name="volume">    543.30653076 </i>
    <varray name="rec_basis" >
     <v>       0.14688217       0.03823555       0.03816071 </v>
     <v>      -0.00033784       0.15280787       0.03430016 </v>
     <v>      -0.00005926      -0.00007226       0.08192965 </v>
    </varray>
   </crystal>
   <varray name="positions" >
    <v>       0.56453158       0.32777498       0.15324032 </v>
    <v>       0.89369302       0.71661952       0.57993125 </v>
    <v>       0.43546842       0.67222502       0.84675968 </v>
    <v>       0.10630698       0.28338048       0.42006875 </v>
    <v>       0.41027362       0.80576953       0.34794356 </v>
    <v>       0.01246071       0.21659639       0.91469293 </v>
    <v>       0.98753929       0.78340361       0.08530707 </v>
    <v>       0.58972638       0.19423047       0.65205644 </v>
    <v>       0.01404214       0.75688535       0.31827290 </v>
    <v>       0.98595786       0.24311465       0.68172710 </v>
    <v>       0.62289074       0.21006226       0.87607946 </v>
    <v>       0.57617020       0.20209453       0.40841285 </v>
    <v>       0.37710926       0.78993774       0.12392054 </v>
    <v>       0.42382980       0.79790547       0.59158715 </v>
    <v>       0.02094964       0.17653035       0.13414488 </v>
    <v>       0.97905036       0.82346965       0.86585512 </v>
   </varray>
  </structure>
  <varray name="forces" >
   <v>      -0.00120624      -0.10835231       0.02595821 </v>
   <v>       0.00089846       0.10446983       0.08459504 </v>
   <v>       0.00120624       0.10835231      -0.02595821 </v>
   <v>      -0.00089846      -0.10446983      -0.08459504 </v>
   <v>       0.14682033      -0.10072273       0.08533601 </v>
   <v>       0.11229688       0.05694662       0.04992381 </v>
   <v>      -0.11229688      -0.05694662      -0.04992381 </v>
   <v>      -0.14682033       0.10072273      -0.08533601 </v>
   <v>      -0.20794201      -0.00021285       0.08151878 </v>
   <v>       0.20794201       0.00021285      -0.08151878 </v>
   <v>      -0.17676695      -0.07080760       0.10922847 </v>
   <v>      -0.00774011       0.27803681       0.02183383 </v>
   <v>       0.17676695       0.07080760      -0.10922847 </v>
   <v>       0.00774011      -0.27803681      -0.02183383 </v>
   <v>       0.01265382       0.17548380       0.13929240 </v>
   <v>      -0.01265382      -0.17548380      -0.13929240 </v>
  </varray>
  <varray name="stress" >
   <v>       0.10697801       0.14644028       1.44619606 </v>
   <v>       0.14644038       1.64808481       0.72516708 </v>
   <v>       1.44619345       0.72516630       2.28707656 </v>
  </varray>
  <energy>
   <i name="e_fr_energy">    -59.74923737 </i>
   <i name="e_wo_entrp">    -59.74923737 </i>
   <i name="e_0_energy">     -0.00000000 </i>
  </energy>
  <time name="totalsc">    4.83    5.08</time>
 </calculation>
 <calculation>
  <scstep>
   <time name="dav">    0.46    0.46</time>
   <time name="total">    0.74    0.77</time>
   <energy>
    <i name="alphaZ">    206.31131428 </i>
    <i name="ewald">  -3573.14841961 </i>
    <i name="hartreedc">   -784.49765771 </i>
    <i name="XCdc">   -142.76203928 </i>
    <i name="pawpsdc">   5215.37374902 </i>
    <i name="pawaedc">  -4875.61004404 </i>
    <i name="eentropy">     -0.00000000 </i>
    <i name="bandstr">   -564.15050665 </i>
    <i name="atom">   4458.71741050 </i>
    <i name="e_fr_energy">    -59.76619350 </i>
    <i name="e_wo_entrp">    -59.76619350 </i>
    <i name="e_0_energy">    -59.76619350 </i>
   </energy>
  </scstep>
  <scstep>
   <time name="dav">    0.79    0.79</time>
   <time name="total">    1.06    1.06</time>
   <energy>
    <i name="e_fr_energy">    -59.76635334 </i>
    <i name="e_wo_entrp">    -59.76635334 </i>
    <i name="e_0_energy">    -59.76635334 </i>
   </energy>
  </scstep>
  <scstep>
   <time name="dav">    0.68    0.68</time>
   <time name="total">    0.95    0.95</time>
   <energy>
    <i name="e_fr_energy">    -59.76540336 </i>
    <i name="e_wo_entrp">    -59.76540336 </i>
    <i name="e_0_energy">    -59.76540336 </i>
   </energy>
  </scstep>
  <scstep>
   <time name="dav">    0.81    0.81</time>
   <time name="total">    1.09    1.09</time>
   <energy>
    <i name="e_fr_energy">    -59.76506488 </i>
    <i name="e_wo_entrp">    -59.76506488 </i>
    <i name="e_0_energy">    -59.76506488 </i>
   </energy>
  </scstep>
  <scstep>
   <time name="dav">    0.35    0.35</time>
   <time name="total">    0.59    0.59</time>
   <energy>
    <i name="alphaZ">    206.31131428 </i>
    <i name="ewald">  -3573.14841961 </i>
    <i name="hartreedc">   -787.36164687 </i>
    <i name="XCdc">   -142.65033973 </i>
    <i name="pawpsdc">   5169.45436171 </i>
    <i name="pawaedc">  -4829.65659570 </i>
    <i name="eentropy">     -0.00000000 </i>
    <i name="bandstr">   -561.43109780 </i>
    <i name="atom">   4458.71741050 </i>
    <i name="e_fr_energy">    -59.76501322 </i>
    <i name="e_wo_entrp">    -59.76501322 </i>
    <i name="e_0_energy">    -59.76501322 </i>
   </energy>
  </scstep>
  <structure>
   <crystal>
    <varray name="basis" >
     <v>       6.80839096       0.01451916       0.01062777 </v>
     <v>      -1.70421283       6.54954564       0.00707517 </v>
     <v>      -2.44751028      -2.74137601      12.21855185 </v>
    </varray>
    <i name="volume">    545.50219355 </i>
    <varray name="rec_basis" >
     <v>       0.14673701       0.03814044       0.03795029 </v>
     <v>      -0.00037862       0.15254694       0.03414986 </v>
     <v>      -0.00012741      -0.00012151       0.08178998 </v>
    </varray>
   </crystal>
   <varray name="positions" >
    <v>       0.56443082       0.32731974       0.15330209 </v>
    <v>       0.89390373       0.71716759       0.58013338 </v>
    <v>       0.43556918       0.67268026       0.84669791 </v>
    <v>       0.10609627       0.28283241       0.41986662 </v>
    <v>       0.41117740       0.80502259       0.34808910 </v>
    <v>       0.01322594       0.21703851       0.91485454 </v>
    <v>       0.98677406       0.78296149       0.08514546 </v>
    <v>       0.58882260       0.19497741       0.65191090 </v>
    <v>       0.01301171       0.75694585       0.31844992 </v>
    <v>       0.98698829       0.24305415       0.68155008 </v>
    <v>       0.62203979       0.20982588       0.87634402 </v>
    <v>       0.57662344       0.20365379       0.40850310 </v>
    <v>       0.37796021       0.79017412       0.12365598 </v>
    <v>       0.42337656       0.79634621       0.59149690 </v>
    <v>       0.02141462       0.17767603       0.13456919 </v>
    <v>       0.97858538       0.82232397       0.86543081 </v>
   </varray>
  </structure>
  <varray name="forces" >
   <v>       0.00036966      -0.10955857       0.02547343 </v>
   <v>       0.00619666       0.10334890       0.08272239 </v>
   <v>      -0.00036966       0.10955857      -0.02547343 </v>
   <v>      -0.00619666      -0.10334890      -0.08272239 </v>
   <v>      -0.07820063       0.14917667       0.03249145 </v>
   <v>       0.13412627      -0.03436728      -0.07234519 </v>
   <v>      -0.13412627       0.03436728       0.07234519 </v>
   <v>       0.07820063      -0.14917667      -0.03249145 </v>
   <v>      -0.04754684      -0.00595363       0.07839610 </v>
   <v>       0.04754684       0.00595363      -0.07839610 </v>
   <v>      -0.08491355      -0.06046850       0.07893391 </v>
   <v>      -0.03480177       0.14505284      -0.01038145 </v>
   <v>       0.08491355       0.06046850      -0.07893391 </v>
   <v>       0.03480177      -0.14505284       0.01038145 </v>
   <v>       0.03621585       0.07452857       0.04895693 </v>
   <v>      -0.03621585      -0.07452857      -0.04895693 </v>
  </varray>
  <varray name="stress" >
   <v>      -3.26218250      -0.10110663       1.19371677 </v>
   <v>      -0.10110639      -2.26320094      -0.24155445 </v>
   <v>       1.19371423      -0.24155522      -0.97948777 </v>
  </varray>
  <energy>
   <i name="e_fr_energy">    -59.76501322 </i>
   <i name="e_wo_entrp">    -59.76501322 </i>
   <i name="e_0_energy">     -0.00000000 </i>
  </energy>
  <time name="totalsc">    5.53    5.64</time>
 </calculation>
 <calculation>
  <scstep>
   <time name="dav">    0.54    0.54</time>
   <time name="total">    0.82    0.87</time>
   <energy>
    <i name="alphaZ">    206.11380340 </i>
    <i name="ewald">  -3572.96410433 </i>
    <i name="hartreedc">   -786.35262804 </i>
    <i name="XCdc">   -142.72929775 </i>
    <i name="pawpsdc">   5169.87622158 </i>
    <i name="pawaedc">  -4830.06864426 </i>
    <i name="eentropy">     -0.00000000 </i>
    <i name="bandstr">   -562.35860010 </i>
    <i name="atom">   4458.71741050 </i>
    <i name="e_fr_energy">    -59.76583898 </i>
    <i name="e_wo_entrp">    -59.76583898 </i>
    <i name="e_0_energy">    -59.76583898 </i>
   </energy>
  </scstep>
  <scstep>
   <time name="dav">    0.81    0.82</time>
   <time name="total">    1.09    1.09</time>
   <energy>
    <i name="e_fr_energy">    -59.76584305 </i>
    <i name="e_wo_entrp">    -59.76584305 </i>
    <i name="e_0_energy">    -59.76584305 </i>
   </energy>
  </scstep>
  <scstep>
   <time name="dav">    0.46    0.46</time>
   <time name="total">    0.72    0.72</time>
   <energy>
    <i name="alphaZ">    206.11380340 </i>
    <i name="ewald">  -3572.96410433 </i>
    <i name="hartreedc">   -786.88943262 </i>
    <i name="XCdc">   -142.70584007 </i>
    <i name="pawpsdc">   5162.04248652 </i>
    <i name="pawaedc">  -4822.23578334 </i>
    <i name="eentropy">     -0.00000000 </i>
    <i name="bandstr">   -561.84432196 </i>
    <i name="atom">   4458.71741050 </i>
    <i name="e_fr_energy">    -59.76578191 </i>
    <i name="e_wo_entrp">    -59.76578191 </i>
    <i name="e_0_energy">    -59.76578191 </i>
   </energy>
  </scstep>
  <structure>
   <crystal>
    <varray name="basis" >
     <v>       6.80960869       0.01465825       0.01198192 </v>
     <v>      -1.70438852       6.55196248       0.00767899 </v>
     <v>      -2.44558166      -2.74069806      12.22263071 </v>
    </varray>
    <i name="volume">    546.02492719 </i>
    <varray name="rec_basis" >
     <v>       0.14670258       0.03811792       0.03790042 </v>
     <v>      -0.00038826       0.15248504       0.03411425 </v>
     <v>      -0.00014357      -0.00013317       0.08175686 </v>
    </varray>
   </crystal>
   <varray name="positions" >
    <v>       0.56440690       0.32721166       0.15331679 </v>
    <v>       0.89395364       0.71729763       0.58018132 </v>
    <v>       0.43559310       0.67278834       0.84668321 </v>
    <v>       0.10604636       0.28270237       0.41981868 </v>
    <v>       0.41139208       0.80484518       0.34812359 </v>
    <v>       0.01340760       0.21714337       0.91489281 </v>
    <v>       0.98659240       0.78285663       0.08510719 </v>
    <v>       0.58860792       0.19515482       0.65187641 </v>
    <v>       0.01276685       0.75696024       0.31849206 </v>
    <v>       0.98723315       0.24303976       0.68150794 </v>
    <v>       0.62183756       0.20976975       0.87640695 </v>
    <v>       0.57673093       0.20402388       0.40852440 </v>
    <v>       0.37816244       0.79023025       0.12359305 </v>
    <v>       0.42326907       0.79597612       0.59147560 </v>
    <v>       0.02152478       0.17794787       0.13466983 </v>
    <v>       0.97847522       0.82205213       0.86533017 </v>
   </varray>
  </structure>
  <varray name="forces" >
   <v>       0.00111612      -0.10932143       0.02501665 </v>
   <v>       0.00764050       0.10346411       0.08209378 </v>
   <v>      -0.00111612       0.10932143      -0.02501665 </v>
   <v>      -0.00764050      -0.10346411      -0.08209378 </v>
   <v>      -0.05757530       0.17753241       0.01252973 </v>
   <v>       0.13877602      -0.04327439      -0.07137388 </v>
   <v>      -0.13877602       0.04327439       0.07137388 </v>
   <v>       0.05757530      -0.17753241      -0.01252973 </v>
   <v>      -0.01724015       0.00082038       0.06728034 </v>
   <v>       0.01724015      -0.00082038      -0.06728034 </v>
   <v>      -0.06959110      -0.05836463       0.07659730 </v>
   <v>      -0.05577510       0.10229968      -0.01707414 </v>
   <v>       0.06959110       0.05836463      -0.07659730 </v>
   <v>       0.05577510      -0.10229968       0.01707414 </v>
   <v>       0.04266663       0.06054612       0.03928133 </v>
   <v>      -0.04266663      -0.06054612      -0.03928133 </v>
  </varray>
  <varray name="stress" >
   <v>      -3.74578522      -0.23136346       1.29263981 </v>
   <v>      -0.23136340      -2.63727489      -0.18854986 </v>
   <v>       1.29263726      -0.18855025      -1.13922813 </v>
  </varray>
  <energy>
   <i name="e_fr_energy">    -59.76578191 </i>
   <i name="e_wo_entrp">    -59.76578191 </i>
   <i name="e_0_energy">     -0.00000000 </i>
  </energy>
  <time name="totalsc">    3.77    3.94</time>
 </calculation>
 <calculation>
  <scstep>
   <time name="dav">    0.57    0.58</time>
   <time name="total">    0.85    0.92</time>
   <energy>
    <i name="alphaZ">    205.85891177 </i>
    <i name="ewald">  -3572.71776040 </i>
    <i name="hartreedc">   -785.70661410 </i>
    <i name="XCdc">   -142.80409809 </i>
    <i name="pawpsdc">   5159.98506787 </i>
    <i name="pawaedc">  -4820.17167245 </i>
    <i name="eentropy">     -0.00000000 </i>
    <i name="bandstr">   -562.92694826 </i>
    <i name="atom">   4458.71741050 </i>
    <i name="e_fr_energy">    -59.76570317 </i>
    <i name="e_wo_entrp">    -59.76570317 </i>
    <i name="e_0_energy">    -59.76570317 </i>
   </energy>
  </scstep>
  <scstep>
   <time name="dav">    0.76    0.76</time>
   <time name="total">    1.03    1.04</time>
   <energy>
    <i name="e_fr_energy">    -59.76567184 </i>
    <i name="e_wo_entrp">    -59.76567184 </i>
    <i name="e_0_energy">    -59.76567184 </i>
   </energy>
  </scstep>
  <scstep>
   <time name="dav">    0.57    0.57</time>
   <time name="total">    0.85    0.85</time>
   <energy>
    <i name="e_fr_energy">    -59.76556399 </i>
    <i name="e_wo_entrp">    -59.76556399 </i>
    <i name="e_0_energy">    -59.76556399 </i>
   </energy>
  </scstep>
  <scstep>
   <time name="dav">    0.50    0.50</time>
   <time name="total">    0.75    0.75</time>
   <energy>
    <i name="alphaZ">    205.85891177 </i>
    <i name="ewald">  -3572.71776040 </i>
    <i name="hartreedc">   -786.57398794 </i>
    <i name="XCdc">   -142.77013607 </i>
    <i name="pawpsdc">   5146.44461343 </i>
    <i name="pawaedc">  -4806.62146391 </i>
    <i name="eentropy">     -0.00000000 </i>
    <i name="bandstr">   -562.10311130 </i>
    <i name="atom">   4458.71741050 </i>
    <i name="e_fr_energy">    -59.76552393 </i>
    <i name="e_wo_entrp">    -59.76552393 </i>
    <i name="e_0_energy">    -59.76552393 </i>
   </energy>
  </scstep>
  <structure>
   <crystal>
    <varray name="basis" >
     <v>       6.81118277       0.01483805       0.01373234 </v>
     <v>      -1.70461563       6.55508658       0.00845951 </v>
     <v>      -2.44308865      -2.73982172      12.22790322 </v>
    </varray>
    <i name="volume">    546.70100765 </i>
    <varray name="rec_basis" >
     <v>       0.14665812       0.03808884       0.03783604 </v>
     <v>      -0.00040070       0.15240512       0.03406830 </v>
     <v>      -0.00016442      -0.00014821       0.08171411 </v>
    </varray>
   </crystal>
   <varray name="positions" >
    <v>       0.56437599       0.32707201       0.15333580 </v>
    <v>       0.89401809       0.71746564       0.58024326 </v>
    <v>       0.43562401       0.67292799       0.84666420 </v>
    <v>       0.10598191       0.28253436       0.41975674 </v>
    <v>       0.41166953       0.80461591       0.34816814 </v>
    <v>       0.01364233       0.21727884       0.91494222 </v>
    <v>       0.98635767       0.78272116       0.08505778 </v>
    <v>       0.58833047       0.19538409       0.65183186 </v>
    <v>       0.01245038       0.75697884       0.31854655 </v>
    <v>       0.98754962       0.24302116       0.68145345 </v>
    <v>       0.62157617       0.20969723       0.87648829 </v>
    <v>       0.57686978       0.20450208       0.40855189 </v>
    <v>       0.37842383       0.79030277       0.12351171 </v>
    <v>       0.42313022       0.79549792       0.59144811 </v>
    <v>       0.02166704       0.17829907       0.13479985 </v>
    <v>       0.97833296       0.82170093       0.86520015 </v>
   </varray>
  </structure>
  <varray name="forces" >
   <v>       0.00151473      -0.10890089       0.02504723 </v>
   <v>       0.00821801       0.10290044       0.08110505 </v>
   <v>      -0.00151473       0.10890089      -0.02504723 </v>
   <v>      -0.00821801      -0.10290044      -0.08110505 </v>
   <v>      -0.07839021       0.19809416       0.03619404 </v>
   <v>       0.01256490      -0.04159300      -0.12670645 </v>
   <v>      -0.01256490       0.04159300       0.12670645 </v>
   <v>       0.07839021      -0.19809416      -0.03619404 </v>
   <v>       0.02170093       0.00487106       0.07025477 </v>
   <v>      -0.02170093      -0.00487106      -0.07025477 </v>
   <v>      -0.04124259      -0.05437403       0.06471067 </v>
   <v>      -0.07145801       0.07831883      -0.01840649 </v>
   <v>       0.04124259       0.05437403      -0.06471067 </v>
   <v>       0.07145801      -0.07831883       0.01840649 </v>
   <v>       0.04675090       0.00543523       0.02469572 </v>
   <v>      -0.04675090      -0.00543523      -0.02469572 </v>
  </varray>
  <varray name="stress" >
   <v>      -6.15618202       0.00807640       1.14955747 </v>
   <v>       0.00807661      -3.93838275      -0.51333734 </v>
   <v>       1.14955526      -0.51333803      -2.31859504 </v>
  </varray>
  <energy>
   <i name="e_fr_energy">    -59.76552393 </i>
   <i name="e_wo_entrp">    -59.76552393 </i>
   <i name="e_0_energy">     -0.00000000 </i>
  </energy>
  <time name="totalsc">    4.68    4.91</time>
 </calculation>
 <calculation>
  <scstep>
   <time name="dav">    0.65    0.66</time>
   <time name="total">    0.94    0.97</time>
   <energy>
    <i name="alphaZ">    206.49072762 </i>
    <i name="ewald">  -3577.87658816 </i>
    <i name="hartreedc">   -786.29490234 </i>
    <i name="XCdc">   -142.65768362 </i>
    <i name="pawpsdc">   5145.85402492 </i>
    <i name="pawaedc">  -4806.02379286 </i>
    <i name="eentropy">     -0.00000000 </i>
    <i name="bandstr">   -557.98899632 </i>
    <i name="atom">   4458.71741050 </i>
    <i name="e_fr_energy">    -59.77980024 </i>
    <i name="e_wo_entrp">    -59.77980024 </i>
    <i name="e_0_energy">    -59.77980024 </i>
   </energy>
  </scstep>
  <scstep>
   <time name="dav">    0.52    0.52</time>
   <time name="total">    0.80    0.80</time>
   <energy>
    <i name="e_fr_energy">    -59.77791036 </i>
    <i name="e_wo_entrp">    -59.77791036 </i>
    <i name="e_0_energy">    -59.77791036 </i>
   </energy>
  </scstep>
  <scstep>
   <time name="dav">    0.64    0.64</time>
   <time name="total">    0.90    0.90</time>
   <energy>
    <i name="e_fr_energy">    -59.77695624 </i>
    <i name="e_wo_entrp">    -59.77695624 </i>
    <i name="e_0_energy">    -59.77695624 </i>
   </energy>
  </scstep>
  <scstep>
   <time name="dav">    0.62    0.62</time>
   <time name="total">    0.89    0.89</time>
   <energy>
    <i name="e_fr_energy">    -59.77676495 </i>
    <i name="e_wo_entrp">    -59.77676495 </i>
    <i name="e_0_energy">    -59.77676495 </i>
   </energy>
  </scstep>
  <scstep>
   <time name="dav">    0.41    0.41</time>
   <time name="total">    0.66    0.66</time>
   <energy>
    <i name="alphaZ">    206.49072762 </i>
    <i name="ewald">  -3577.87658816 </i>
    <i name="hartreedc">   -783.82927069 </i>
    <i name="XCdc">   -142.74696189 </i>
    <i name="pawpsdc">   5148.29543066 </i>
    <i name="pawaedc">  -4808.46197385 </i>
    <i name="eentropy">     -0.00000000 </i>
    <i name="bandstr">   -560.36553004 </i>
    <i name="atom">   4458.71741050 </i>
    <i name="e_fr_energy">    -59.77675584 </i>
    <i name="e_wo_entrp">    -59.77675584 </i>
    <i name="e_0_energy">    -59.77675584 </i>
   </energy>
  </scstep>
  <structure>
   <crystal>
    <varray name="basis" >
     <v>       6.79692873       0.01510752       0.01945744 </v>
     <v>      -1.70076788       6.54953978       0.00751875 </v>
     <v>      -2.42780520      -2.73671291      12.22403998 </v>
    </varray>
    <i name="volume">    545.02822374 </i>
    <varray name="rec_basis" >
     <v>       0.14693260       0.03811179       0.03771460 </v>
     <v>      -0.00043654       0.15253002       0.03406166 </v>
     <v>      -0.00023361      -0.00015448       0.08172503 </v>
    </varray>
   </crystal>
   <varray name="positions" >
    <v>       0.56427431       0.32657006       0.15340265 </v>
    <v>       0.89426693       0.71806020       0.58045894 </v>
    <v>       0.43572569       0.67342994       0.84659735 </v>
    <v>       0.10573307       0.28193980       0.41954106 </v>
    <v>       0.41203722       0.80485726       0.34828954 </v>
    <v>       0.01390963       0.21728350       0.91482376 </v>
    <v>       0.98609037       0.78271650       0.08517624 </v>
    <v>       0.58796278       0.19514274       0.65171046 </v>
    <v>       0.01208821       0.75706486       0.31873492 </v>
    <v>       0.98791179       0.24293514       0.68126508 </v>
    <v>       0.62107901       0.20947581       0.87670882 </v>
    <v>       0.57692537       0.20542921       0.40856503 </v>
    <v>       0.37892099       0.79052419       0.12329118 </v>
    <v>       0.42307463       0.79457079       0.59143497 </v>
    <v>       0.02202873       0.17885581       0.13503193 </v>
    <v>       0.97797127       0.82114419       0.86496807 </v>
   </varray>
  </structure>
  <varray name="forces" >
   <v>       0.00199410      -0.10173843       0.02261610 </v>
   <v>       0.01367192       0.09569634       0.07898177 </v>
   <v>      -0.00199410       0.10173843      -0.02261610 </v>
   <v>      -0.01367192      -0.09569634      -0.07898177 </v>
   <v>      -0.03105754       0.20980913       0.03151124 </v>
   <v>       0.00755343      -0.04874264      -0.05890155 </v>
   <v>      -0.00755343       0.04874264       0.05890155 </v>
   <v>       0.03105754      -0.20980913      -0.03151124 </v>
   <v>       0.02349776       0.01506637       0.08296544 </v>
   <v>      -0.02349776      -0.01506637      -0.08296544 </v>
   <v>      -0.02350386      -0.03441405       0.05821011 </v>
   <v>      -0.05553598       0.04859350      -0.00184007 </v>
   <v>       0.02350386       0.03441405      -0.05821011 </v>
   <v>       0.05553598      -0.04859350       0.00184007 </v>
   <v>       0.04074808       0.01350679       0.02883396 </v>
   <v>      -0.04074808      -0.01350679      -0.02883396 </v>
  </varray>
  <varray name="stress" >
   <v>      -5.99277934      -0.03119272       0.99899711 </v>
   <v>      -0.03119243      -3.92835841      -0.58585130 </v>
   <v>       0.99899495      -0.58585193      -2.17361926 </v>
  </varray>
  <energy>
   <i name="e_fr_energy">    -59.77675584 </i>
   <i name="e_wo_entrp">    -59.77675584 </i>
   <i name="e_0_energy">     -0.00000000 </i>
  </energy>
  <time name="totalsc">    5.42    5.54</time>
 </calculation>
 <calculation>
  <scstep>
   <time name="dav">    0.47    0.48</time>
   <time name="total">    0.76    0.82</time>
   <energy>
    <i name="alphaZ">    208.40606063 </i>
    <i name="ewald">  -3593.29111971 </i>
    <i name="hartreedc">   -782.93993336 </i>
    <i name="XCdc">   -142.41010289 </i>
    <i name="pawpsdc">   5146.92822273 </i>
    <i name="pawaedc">  -4807.09924884 </i>
    <i name="eentropy">     -0.00000000 </i>
    <i name="bandstr">   -548.14530063 </i>
    <i name="atom">   4458.71741050 </i>
    <i name="e_fr_energy">    -59.83401157 </i>
    <i name="e_wo_entrp">    -59.83401157 </i>
    <i name="e_0_energy">    -59.83401157 </i>
   </energy>
  </scstep>
  <scstep>
   <time name="dav">    0.79    0.81</time>
   <time name="total">    1.07    1.08</time>
   <energy>
    <i name="e_fr_energy">    -59.81708927 </i>
    <i name="e_wo_entrp">    -59.81708927 </i>
    <i name="e_0_energy">    -59.81708927 </i>
   </energy>
  </scstep>
  <scstep>
   <time name="dav">    0.60    0.60</time>
   <time name="total">    0.87    0.87</time>
   <energy>
    <i name="e_fr_energy">    -59.80847426 </i>
    <i name="e_wo_entrp">    -59.80847426 </i>
    <i name="e_0_energy">    -59.80847426 </i>
   </energy>
  </scstep>
  <scstep>
   <time name="dav">    0.86    0.86</time>
   <time name="total">    1.14    1.14</time>
   <energy>
    <i name="e_fr_energy">    -59.80677396 </i>
    <i name="e_wo_entrp">    -59.80677396 </i>
    <i name="e_0_energy">    -59.80677396 </i>
   </energy>
  </scstep>
  <scstep>
   <time name="dav">    0.57    0.57</time>
   <time name="total">    0.84    0.84</time>
   <energy>
    <i name="e_fr_energy">    -59.80666378 </i>
    <i name="e_wo_entrp">    -59.80666378 </i>
    <i name="e_0_energy">    -59.80666378 </i>
   </energy>
  </scstep>
  <scstep>
   <time name="dav">    0.53    0.53</time>
   <time name="total">    0.77    0.77</time>
   <energy>
    <i name="alphaZ">    208.40606063 </i>
    <i name="ewald">  -3593.29111971 </i>
    <i name="hartreedc">   -775.52663403 </i>
    <i name="XCdc">   -142.67975729 </i>
    <i name="pawpsdc">   5145.59913477 </i>
    <i name="pawaedc">  -4805.79277903 </i>
    <i name="eentropy">     -0.00000000 </i>
    <i name="bandstr">   -555.23898576 </i>
    <i name="atom">   4458.71741050 </i>
    <i name="e_fr_energy">    -59.80666992 </i>
    <i name="e_wo_entrp">    -59.80666992 </i>
    <i name="e_0_energy">    -59.80666992 </i>
   </energy>
  </scstep>
  <structure>
   <crystal>
    <varray name="basis" >
     <v>       6.75416663       0.01591593       0.03663275 </v>
     <v>      -1.68922463       6.53289937       0.00469649 </v>
     <v>      -2.38195486      -2.72738650      12.21245025 </v>
    </varray>
    <i name="volume">    540.01920173 </i>
    <varray name="rec_basis" >
     <v>       0.14776422       0.03818084       0.03734726 </v>
     <v>      -0.00054495       0.15290601       0.03404196 </v>
     <v>      -0.00044303      -0.00017333       0.08175853 </v>
    </varray>
   </crystal>
   <varray name="positions" >
    <v>       0.56396873       0.32506290       0.15360328 </v>
    <v>       0.89501282       0.71984504       0.58110597 </v>
    <v>       0.43603127       0.67493710       0.84639672 </v>
    <v>       0.10498718       0.28015496       0.41889403 </v>
    <v>       0.41314132       0.80558157       0.34865337 </v>
    <v>       0.01471382       0.21729742       0.91446787 </v>
    <v>       0.98528618       0.78270258       0.08553213 </v>
    <v>       0.58685868       0.19441843       0.65134663 </v>
    <v>       0.01099833       0.75732322       0.31930072 </v>
    <v>       0.98900167       0.24267678       0.68069928 </v>
    <v>       0.61958351       0.20881109       0.87737125 </v>
    <v>       0.57709149       0.20821300       0.40860461 </v>
    <v>       0.38041649       0.79118891       0.12262875 </v>
    <v>       0.42290851       0.79178700       0.59139539 </v>
    <v>       0.02311375       0.18052699       0.13572802 </v>
    <v>       0.97688625       0.81947301       0.86427198 </v>
   </varray>
  </structure>
  <varray name="forces" >
   <v>       0.00298310      -0.08264301       0.01549294 </v>
   <v>       0.02810195       0.07531948       0.07183968 </v>
   <v>      -0.00298310       0.08264301      -0.01549294 </v>
   <v>      -0.02810195      -0.07531948      -0.07183968 </v>
   <v>      -0.01375774       0.25777416       0.00603007 </v>
   <v>       0.11893595      -0.07375317       0.05032799 </v>
   <v>      -0.11893595       0.07375317      -0.05032799 </v>
   <v>       0.01375774      -0.25777416      -0.00603007 </v>
   <v>       0.00709593      -0.01991349       0.10006930 </v>
   <v>      -0.00709593       0.01991349      -0.10006930 </v>
   <v>      -0.02739643       0.01204290       0.06030491 </v>
   <v>      -0.06215175       0.00745160       0.00203014 </v>
   <v>       0.02739643      -0.01204290      -0.06030491 </v>
   <v>       0.06215175      -0.00745160      -0.00203014 </v>
   <v>       0.03547530      -0.01157337       0.02036885 </v>
   <v>      -0.03547530       0.01157337      -0.02036885 </v>
  </varray>
  <varray name="stress" >
   <v>      -5.08317436      -0.26048866       1.23152745 </v>
   <v>      -0.26048799      -3.95131219      -0.81424078 </v>
   <v>       1.23152488      -0.81424157      -1.61724398 </v>
  </varray>
  <energy>
   <i name="e_fr_energy">    -59.80666992 </i>
   <i name="e_wo_entrp">    -59.80666992 </i>
   <i name="e_0_energy">     -0.00000000 </i>
  </energy>
  <time name="totalsc">    6.66    6.96</time>
 </calculation>
 <calculation>
  <scstep>
   <time name="dav">    0.70    0.72</time>
   <time name="total">    0.99    1.13</time>
   <energy>
    <i name="alphaZ">    212.32847288 </i>
    <i name="ewald">  -3623.85314215 </i>
    <i name="hartreedc">   -774.24556931 </i>
    <i name="XCdc">   -141.99280548 </i>
    <i name="pawpsdc">   5142.75552606 </i>
    <i name="pawaedc">  -4802.95430740 </i>
    <i name="eentropy">     -0.00000000 </i>
    <i name="bandstr">   -530.69517403 </i>
    <i name="atom">   4458.71741050 </i>
    <i name="e_fr_energy">    -59.93958891 </i>
    <i name="e_wo_entrp">    -59.93958891 </i>
    <i name="e_0_energy">    -59.93958891 </i>
   </energy>
  </scstep>
  <scstep>
   <time name="dav">    0.69    0.69</time>
   <time name="total">    0.96    0.97</time>
   <energy>
    <i name="e_fr_energy">    -59.87073278 </i>
    <i name="e_wo_entrp">    -59.87073278 </i>
    <i name="e_0_energy">    -59.87073278 </i>
   </energy>
  </scstep>
  <scstep>
   <time name="dav">    0.66    0.66</time>
   <time name="total">    0.93    0.93</time>
   <energy>
    <i name="e_fr_energy">    -59.83580146 </i>
    <i name="e_wo_entrp">    -59.83580146 </i>
    <i name="e_0_energy">    -59.83580146 </i>
   </energy>
  </scstep>
  <scstep>
   <time name="dav">    0.78    0.79</time>
   <time name="total">    1.06    1.06</time>
   <energy>
    <i name="e_fr_energy">    -59.82931730 </i>
    <i name="e_wo_entrp">    -59.82931730 </i>
    <i name="e_0_energy">    -59.82931730 </i>
   </energy>
  </scstep>
  <scstep>
   <time name="dav">    0.61    0.61</time>
   <time name="total">    0.88    0.88</time>
   <energy>
    <i name="e_fr_energy">    -59.82881456 </i>
    <i name="e_wo_entrp">    -59.82881456 </i>
    <i name="e_0_energy">    -59.82881456 </i>
   </energy>
  </scstep>
  <scstep>
   <time name="dav">    0.48    0.48</time>
   <time name="total">    0.73    0.73</time>
   <energy>
    <i name="alphaZ">    212.32847288 </i>
    <i name="ewald">  -3623.85314215 </i>
    <i name="hartreedc">   -759.51127021 </i>
    <i name="XCdc">   -142.52952137 </i>
    <i name="pawpsdc">   5148.19850380 </i>
    <i name="pawaedc">  -4808.44467592 </i>
    <i name="eentropy">     -0.00000000 </i>
    <i name="bandstr">   -544.73460742 </i>
    <i name="atom">   4458.71741050 </i>
    <i name="e_fr_energy">    -59.82882988 </i>
    <i name="e_wo_entrp">    -59.82882988 </i>
    <i name="e_0_energy">    -59.82882988 </i>
   </energy>
  </scstep>
  <structure>
   <crystal>
    <varray name="basis" >
     <v>       6.66864241       0.01753275       0.07098336 </v>
     <v>      -1.66613815       6.49961856      -0.00094805 </v>
     <v>      -2.29025418      -2.70873368      12.18927081 </v>
    </varray>
    <i name="volume">    530.04325312 </i>
    <varray name="rec_basis" >
     <v>       0.14946524       0.03831985       0.03659872 </v>
     <v>      -0.00076595       0.15366380       0.03400368 </v>
     <v>      -0.00087046      -0.00021120       0.08182888 </v>
    </varray>
   </crystal>
   <varray name="positions" >
    <v>       0.56335435       0.32204063       0.15400511 </v>
    <v>       0.89650092       0.72342178       0.58240000 </v>
    <v>       0.43664565       0.67795937       0.84599489 </v>
    <v>       0.10349908       0.27657822       0.41760000 </v>
    <v>       0.41535573       0.80703167       0.34937894 </v>
    <v>       0.01633603       0.21732488       0.91375311 </v>
    <v>       0.98366397       0.78267512       0.08624689 </v>
    <v>       0.58464427       0.19296833       0.65062106 </v>
    <v>       0.00879819       0.75784177       0.32043664 </v>
    <v>       0.99120181       0.24215823       0.67956336 </v>
    <v>       0.61656803       0.20747898       0.87870134 </v>
    <v>       0.57741970       0.21379500       0.40868466 </v>
    <v>       0.38343197       0.79252102       0.12129866 </v>
    <v>       0.42258030       0.78620500       0.59131534 </v>
    <v>       0.02528348       0.18387522       0.13711923 </v>
    <v>       0.97471652       0.81612478       0.86288077 </v>
   </varray>
  </structure>
  <varray name="forces" >
   <v>       0.00735649      -0.03152343       0.00205466 </v>
   <v>       0.06439359       0.03101127       0.04687442 </v>
   <v>      -0.00735649       0.03152343      -0.00205466 </v>
   <v>      -0.06439359      -0.03101127      -0.04687442 </v>
   <v>      -0.05308041       0.22718086      -0.03808866 </v>
   <v>      -0.07368714      -0.20042223       0.01857419 </v>
   <v>       0.07368714       0.20042223      -0.01857419 </v>
   <v>       0.05308041      -0.22718086       0.03808866 </v>
   <v>       0.00911636      -0.03311880       0.11451706 </v>
   <v>      -0.00911636       0.03311880      -0.11451706 </v>
   <v>      -0.03099886       0.10293113      -0.04651394 </v>
   <v>      -0.02585570      -0.17169311       0.06323258 </v>
   <v>       0.03099886      -0.10293113       0.04651394 </v>
   <v>       0.02585570       0.17169311      -0.06323258 </v>
   <v>       0.01923150      -0.03275854      -0.06774834 </v>
   <v>      -0.01923150       0.03275854       0.06774834 </v>
  </varray>
  <varray name="stress" >
   <v>      -1.41011039       0.49724633       0.38563185 </v>
   <v>       0.49724726      -2.12043049      -0.46476242 </v>
   <v>       0.38562884      -0.46476306      -2.38967729 </v>
  </varray>
  <energy>
   <i name="e_fr_energy">    -59.82882988 </i>
   <i name="e_wo_entrp">    -59.82882988 </i>
   <i name="e_0_energy">     -0.00000000 </i>
  </energy>
  <time name="totalsc">    6.74    7.05</time>
 </calculation>
 <calculation>
  <scstep>
   <time name="dav">    0.58    0.59</time>
   <time name="total">    0.87    0.91</time>
   <energy>
    <i name="alphaZ">    214.15668949 </i>
    <i name="ewald">  -3632.37485433 </i>
    <i name="hartreedc">   -763.19365033 </i>
    <i name="XCdc">   -142.02935973 </i>
    <i name="pawpsdc">   5142.91820249 </i>
    <i name="pawaedc">  -4803.17366708 </i>
    <i name="eentropy">     -0.00000000 </i>
    <i name="bandstr">   -534.88013450 </i>
    <i name="atom">   4458.71741050 </i>
    <i name="e_fr_energy">    -59.85936351 </i>
    <i name="e_wo_entrp">    -59.85936351 </i>
    <i name="e_0_energy">    -59.85936351 </i>
   </energy>
  </scstep>
  <scstep>
   <time name="dav">    0.85    0.86</time>
   <time name="total">    1.12    1.14</time>
   <energy>
    <i name="e_fr_energy">    -59.84453250 </i>
    <i name="e_wo_entrp">    -59.84453250 </i>
    <i name="e_0_energy">    -59.84453250 </i>
   </energy>
  </scstep>
  <scstep>
   <time name="dav">    0.56    0.56</time>
   <time name="total">    0.83    0.84</time>
   <energy>
    <i name="e_fr_energy">    -59.83981014 </i>
    <i name="e_wo_entrp">    -59.83981014 </i>
    <i name="e_0_energy">    -59.83981014 </i>
   </energy>
  </scstep>
  <scstep>
   <time name="dav">    0.65    0.65</time>
   <time name="total">    0.93    0.93</time>
   <energy>
    <i name="e_fr_energy">    -59.83934863 </i>
    <i name="e_wo_entrp">    -59.83934863 </i>
    <i name="e_0_energy">    -59.83934863 </i>
   </energy>
  </scstep>
  <scstep>
   <time name="dav">    0.57    0.57</time>
   <time name="total">    0.82    0.82</time>
   <energy>
    <i name="alphaZ">    214.15668949 </i>
    <i name="ewald">  -3632.37485433 </i>
    <i name="hartreedc">   -756.85658973 </i>
    <i name="XCdc">   -142.27039183 </i>
    <i name="pawpsdc">   5193.33274195 </i>
    <i name="pawaedc">  -4853.62203799 </i>
    <i name="eentropy">     -0.00000000 </i>
    <i name="bandstr">   -540.92224579 </i>
    <i name="atom">   4458.71741050 </i>
    <i name="e_fr_energy">    -59.83927771 </i>
    <i name="e_wo_entrp">    -59.83927771 </i>
    <i name="e_0_energy">    -59.83927771 </i>
   </energy>
  </scstep>
  <structure>
   <crystal>
    <varray name="basis" >
     <v>       6.64862424       0.02121650       0.07755911 </v>
     <v>      -1.65744667       6.47996281      -0.00554003 </v>
     <v>      -2.27250108      -2.70767041      12.15565691 </v>
    </varray>
    <i name="volume">    525.51837052 </i>
    <varray name="rec_basis" >
     <v>       0.14985814       0.03836201       0.03656112 </v>
     <v>      -0.00089037       0.15412334       0.03416449 </v>
     <v>      -0.00095657      -0.00017453       0.08204852 </v>
    </varray>
   </crystal>
   <varray name="positions" >
    <v>       0.56327870       0.32143006       0.15406185 </v>
    <v>       0.89732945       0.72417782       0.58275049 </v>
    <v>       0.43672130       0.67856994       0.84593815 </v>
    <v>       0.10267055       0.27582218       0.41724951 </v>
    <v>       0.41558849       0.80895681       0.34930246 </v>
    <v>       0.01559468       0.21576048       0.91375196 </v>
    <v>       0.98440532       0.78423952       0.08624804 </v>
    <v>       0.58441151       0.19104319       0.65069754 </v>
    <v>       0.00875436       0.75784137       0.32106075 </v>
    <v>       0.99124564       0.24215863       0.67893925 </v>
    <v>       0.61607857       0.20806210       0.87866309 </v>
    <v>       0.57703455       0.21320245       0.40896685 </v>
    <v>       0.38392143       0.79193790       0.12133691 </v>
    <v>       0.42296545       0.78679755       0.59103315 </v>
    <v>       0.02549694       0.18389248       0.13699551 </v>
    <v>       0.97450306       0.81610752       0.86300449 </v>
   </varray>
  </structure>
  <varray name="forces" >
   <v>       0.01073642      -0.01479093       0.00685558 </v>
   <v>       0.06356972       0.01739631       0.03699632 </v>
   <v>      -0.01073642       0.01479093      -0.00685558 </v>
   <v>      -0.06356972      -0.01739631      -0.03699632 </v>
   <v>      -0.02266369       0.05511962      -0.10338469 </v>
   <v>      -0.14291298      -0.04916163       0.09913000 </v>
   <v>       0.14291298       0.04916163      -0.09913000 </v>
   <v>       0.02266369      -0.05511962       0.10338469 </v>
   <v>      -0.01703284      -0.05261303       0.09610496 </v>
   <v>       0.01703284       0.05261303      -0.09610496 </v>
   <v>      -0.04997934       0.04055854       0.01054400 </v>
   <v>      -0.00201294       0.00439303       0.05526526 </v>
   <v>       0.04997934      -0.04055854      -0.01054400 </v>
   <v>       0.00201294      -0.00439303      -0.05526526 </v>
   <v>      -0.01655528       0.07958789       0.01337190 </v>
   <v>       0.01655528      -0.07958789      -0.01337190 </v>
  </varray>
  <varray name="stress" >
   <v>       1.65487727      -0.10232489      -0.41659148 </v>
   <v>      -0.10232424       4.79276420       0.60864436 </v>
   <v>      -0.41659469       0.60864347       1.87151701 </v>
  </varray>
  <energy>
   <i name="e_fr_energy">    -59.83927771 </i>
   <i name="e_wo_entrp">    -59.83927771 </i>
   <i name="e_0_energy">     -0.00000000 </i>
  </energy>
  <time name="totalsc">    5.80    5.93</time>
 </calculation>
 <calculation>
  <scstep>
   <time name="dav">    0.50    0.51</time>
   <time name="total">    0.79    0.82</time>
   <energy>
    <i name="alphaZ">    214.05289031 </i>
    <i name="ewald">  -3631.89441465 </i>
    <i name="hartreedc">   -756.61117985 </i>
    <i name="XCdc">   -142.30034342 </i>
    <i name="pawpsdc">   5190.95039644 </i>
    <i name="pawaedc">  -4851.25467790 </i>
    <i name="eentropy">     -0.00000000 </i>
    <i name="bandstr">   -541.49948346 </i>
    <i name="atom">   4458.71741050 </i>
    <i name="e_fr_energy">    -59.83940202 </i>
    <i name="e_wo_entrp">    -59.83940202 </i>
    <i name="e_0_energy">    -59.83940202 </i>
   </energy>
  </scstep>
  <scstep>
   <time name="dav">    0.53    0.53</time>
   <time name="total">    0.77    0.77</time>
   <energy>
    <i name="alphaZ">    214.05289031 </i>
    <i name="ewald">  -3631.89441465 </i>
    <i name="hartreedc">   -756.79354782 </i>
    <i name="XCdc">   -142.29267980 </i>
    <i name="pawpsdc">   5188.31884035 </i>
    <i name="pawaedc">  -4848.62792218 </i>
    <i name="eentropy">     -0.00000000 </i>
    <i name="bandstr">   -541.31993379 </i>
    <i name="atom">   4458.71741050 </i>
    <i name="e_fr_energy">    -59.83935708 </i>
    <i name="e_wo_entrp">    -59.83935708 </i>
    <i name="e_0_energy">    -59.83935708 </i>
   </energy>
  </scstep>
  <structure>
   <crystal>
    <varray name="basis" >
     <v>       6.64975449       0.02100851       0.07718784 </v>
     <v>      -1.65793740       6.48107260      -0.00528076 </v>
     <v>      -2.27350344      -2.70773044      12.15755479 </v>
    </varray>
    <i name="volume">    525.77320648 </i>
    <varray name="rec_basis" >
     <v>       0.14983589       0.03835964       0.03656327 </v>
     <v>      -0.00088330       0.15409732       0.03415537 </v>
     <v>      -0.00095169      -0.00017661       0.08203608 </v>
    </varray>
   </crystal>
   <varray name="positions" >
    <v>       0.56328297       0.32146464       0.15405865 </v>
    <v>       0.89728259       0.72413501       0.58273065 </v>
    <v>       0.43671703       0.67853536       0.84594135 </v>
    <v>       0.10271741       0.27586499       0.41726935 </v>
    <v>       0.41557534       0.80884778       0.34930675 </v>
    <v>       0.01563662       0.21584906       0.91375204 </v>
    <v>       0.98436338       0.78415094       0.08624796 </v>
    <v>       0.58442466       0.19115222       0.65069325 </v>
    <v>       0.00875689       0.75784136       0.32102541 </v>
    <v>       0.99124311       0.24215864       0.67897459 </v>
    <v>       0.61610629       0.20802905       0.87866523 </v>
    <v>       0.57705636       0.21323598       0.40895088 </v>
    <v>       0.38389371       0.79197095       0.12133477 </v>
    <v>       0.42294364       0.78676402       0.59104912 </v>
    <v>       0.02548485       0.18389152       0.13700252 </v>
    <v>       0.97451515       0.81610848       0.86299748 </v>
   </varray>
  </structure>
  <varray name="forces" >
   <v>       0.01059850      -0.01726208       0.00714782 </v>
   <v>       0.06416921       0.01829506       0.03857785 </v>
   <v>      -0.01059850       0.01726208      -0.00714782 </v>
   <v>      -0.06416921      -0.01829506      -0.03857785 </v>
   <v>      -0.02473677       0.04673403      -0.10221415 </v>
   <v>      -0.12058465      -0.09996179       0.09456526 </v>
   <v>       0.12058465       0.09996179      -0.09456526 </v>
   <v>       0.02473677      -0.04673403       0.10221415 </v>
   <v>      -0.01159043      -0.05182625       0.09402595 </v>
   <v>       0.01159043       0.05182625      -0.09402595 </v>
   <v>      -0.06328550       0.03742172       0.00622671 </v>
   <v>      -0.00259076      -0.00379027       0.05355884 </v>
   <v>       0.06328550      -0.03742172      -0.00622671 </v>
   <v>       0.00259076       0.00379027      -0.05355884 </v>
   <v>      -0.01497505       0.07181820       0.00838138 </v>
   <v>       0.01497505      -0.07181820      -0.00838138 </v>
  </varray>
  <varray name="stress" >
   <v>       2.31231397       0.03458740      -0.44963711 </v>
   <v>       0.03458821       4.86790708       0.58571734 </v>
   <v>      -0.44964032       0.58571659       2.35299408 </v>
  </varray>
  <energy>
   <i name="e_fr_energy">    -59.83935708 </i>
   <i name="e_wo_entrp">    -59.83935708 </i>
   <i name="e_0_energy">     -0.00000000 </i>
  </energy>
  <time name="totalsc">    2.83    3.04</time>
 </calculation>
 <calculation>
  <scstep>
   <time name="dav">    0.68    0.69</time>
   <time name="total">    0.96    1.01</time>
   <energy>
    <i name="alphaZ">    213.64405151 </i>
    <i name="ewald">  -3628.20118251 </i>
    <i name="hartreedc">   -757.51896229 </i>
    <i name="XCdc">   -142.34431381 </i>
    <i name="pawpsdc">   5185.94927488 </i>
    <i name="pawaedc">  -4846.25965569 </i>
    <i name="eentropy">     -0.00000000 </i>
    <i name="bandstr">   -543.83391808 </i>
    <i name="atom">   4458.71741050 </i>
    <i name="e_fr_energy">    -59.84729548 </i>
    <i name="e_wo_entrp">    -59.84729548 </i>
    <i name="e_0_energy">    -59.84729548 </i>
   </energy>
  </scstep>
  <scstep>
   <time name="dav">    0.63    0.64</time>
   <time name="total">    0.90    0.91</time>
   <energy>
    <i name="e_fr_energy">    -59.84752062 </i>
    <i name="e_wo_entrp">    -59.84752062 </i>
    <i name="e_0_energy">    -59.84752062 </i>
   </energy>
  </scstep>
  <scstep>
   <time name="dav">    0.69    0.70</time>
   <time name="total">    0.96    0.97</time>
   <energy>
    <i name="e_fr_energy">    -59.84700138 </i>
    <i name="e_wo_entrp">    -59.84700138 </i>
    <i name="e_0_energy">    -59.84700138 </i>
   </energy>
  </scstep>
  <scstep>
   <time name="dav">    0.66    0.66</time>
   <time name="total">    0.93    0.93</time>
   <energy>
    <i name="e_fr_energy">    -59.84679552 </i>
    <i name="e_wo_entrp">    -59.84679552 </i>
    <i name="e_0_energy">    -59.84679552 </i>
   </energy>
  </scstep>
  <scstep>
   <time name="dav">    0.56    0.57</time>
   <time name="total">    0.81    0.81</time>
   <energy>
    <i name="alphaZ">    213.64405151 </i>
    <i name="ewald">  -3628.20118251 </i>
    <i name="hartreedc">   -759.08904456 </i>
    <i name="XCdc">   -142.29311844 </i>
    <i name="pawpsdc">   5186.11714577 </i>
    <i name="pawaedc">  -4846.42970120 </i>
    <i name="eentropy">     -0.00000000 </i>
    <i name="bandstr">   -542.31231568 </i>
    <i name="atom">   4458.71741050 </i>
    <i name="e_fr_energy">    -59.84675460 </i>
    <i name="e_wo_entrp">    -59.84675460 </i>
    <i name="e_0_energy">    -59.84675460 </i>
   </energy>
  </scstep>
  <structure>
   <crystal>
    <varray name="basis" >
     <v>       6.64913247       0.02348094       0.07904041 </v>
     <v>      -1.65541755       6.49259415      -0.00466952 </v>
     <v>      -2.27090571      -2.71161631      12.15819026 </v>
    </varray>
    <i name="volume">    526.77934958 </i>
    <varray name="rec_basis" >
     <v>       0.14982655       0.03822755       0.03651040 </v>
     <v>      -0.00094881       0.15380427       0.03412543 </v>
     <v>      -0.00097439      -0.00018945       0.08202484 </v>
    </varray>
   </crystal>
   <varray name="positions" >
    <v>       0.56328037       0.32101034       0.15411350 </v>
    <v>       0.89820233       0.72473625       0.58305283 </v>
    <v>       0.43671963       0.67898966       0.84588650 </v>
    <v>       0.10179767       0.27526375       0.41694717 </v>
    <v>       0.41551126       0.81013925       0.34895963 </v>
    <v>       0.01452715       0.21447437       0.91403547 </v>
    <v>       0.98547285       0.78552563       0.08596453 </v>
    <v>       0.58448874       0.18986075       0.65104037 </v>
    <v>       0.00871971       0.75766985       0.32167900 </v>
    <v>       0.99128029       0.24233015       0.67832100 </v>
    <v>       0.61553047       0.20859716       0.87866285 </v>
    <v>       0.57687619       0.21292508       0.40927881 </v>
    <v>       0.38446953       0.79140284       0.12133715 </v>
    <v>       0.42312381       0.78707492       0.59072119 </v>
    <v>       0.02564263       0.18431118       0.13695294 </v>
    <v>       0.97435737       0.81568882       0.86304706 </v>
   </varray>
  </structure>
  <varray name="forces" >
   <v>       0.01249030      -0.01370209       0.01427439 </v>
   <v>       0.05861470       0.01500374       0.03265153 </v>
   <v>      -0.01249030       0.01370209      -0.01427439 </v>
   <v>      -0.05861470      -0.01500374      -0.03265153 </v>
   <v>       0.10105879      -0.06180891      -0.12476709 </v>
   <v>       0.03963842       0.18388082       0.01061125 </v>
   <v>      -0.03963842      -0.18388082      -0.01061125 </v>
   <v>      -0.10105879       0.06180891       0.12476709 </v>
   <v>      -0.00265571      -0.02972248       0.06831310 </v>
   <v>       0.00265571       0.02972248      -0.06831310 </v>
   <v>      -0.02388181       0.02502313       0.00548416 </v>
   <v>      -0.04633986       0.05485842      -0.00054741 </v>
   <v>       0.02388181      -0.02502313      -0.00548416 </v>
   <v>       0.04633986      -0.05485842       0.00054741 </v>
   <v>      -0.00716921       0.09256056       0.01667313 </v>
[...]
        <r>  0.0001  0.0979  0.0001 </r>
       </set>
       <set comment="band 45">
        <r>  0.0001  0.0018  0.0019 </r>
        <r>  0.0004  0.0013  0.0030 </r>
        <r>  0.0001  0.0018  0.0019 </r>
        <r>  0.0004  0.0013  0.0030 </r>
        <r>  0.0134  0.0217  0.0009 </r>
        <r>  0.0069  0.0083  0.0015 </r>
        <r>  0.0069  0.0083  0.0015 </r>
        <r>  0.0134  0.0217  0.0009 </r>
        <r>  0.0009  0.0932  0.0001 </r>
        <r>  0.0009  0.0932  0.0001 </r>
        <r>  0.0007  0.0412  0.0002 </r>
        <r>  0.0005  0.0294  0.0002 </r>
        <r>  0.0007  0.0412  0.0002 </r>
        <r>  0.0005  0.0294  0.0002 </r>
        <r>  0.0001  0.0388  0.0001 </r>
        <r>  0.0001  0.0388  0.0001 </r>
       </set>
       <set comment="band 46">
        <r>  0.0007  0.0026  0.0018 </r>
        <r>  0.0009  0.0021  0.0020 </r>
        <r>  0.0007  0.0026  0.0018 </r>
        <r>  0.0009  0.0021  0.0020 </r>
        <r>  0.0146  0.0089  0.0021 </r>
        <r>  0.0116  0.0028  0.0018 </r>
        <r>  0.0116  0.0028  0.0018 </r>
        <r>  0.0146  0.0089  0.0021 </r>
        <r>  0.0002  0.0516  0.0001 </r>
        <r>  0.0002  0.0516  0.0001 </r>
        <r>  0.0003  0.0545  0.0002 </r>
        <r>  0.0004  0.0810  0.0001 </r>
        <r>  0.0003  0.0545  0.0002 </r>
        <r>  0.0004  0.0810  0.0001 </r>
        <r>  0.0005  0.0393  0.0001 </r>
        <r>  0.0005  0.0393  0.0001 </r>
       </set>
       <set comment="band 47">
        <r>  0.0004  0.0033  0.0014 </r>
        <r>  0.0010  0.0015  0.0026 </r>
        <r>  0.0004  0.0033  0.0014 </r>
        <r>  0.0010  0.0015  0.0026 </r>
        <r>  0.0274  0.0142  0.0010 </r>
        <r>  0.0031  0.0007  0.0008 </r>
        <r>  0.0031  0.0007  0.0008 </r>
        <r>  0.0274  0.0142  0.0010 </r>
        <r>  0.0001  0.0347  0.0001 </r>
        <r>  0.0001  0.0347  0.0001 </r>
        <r>  0.0000  0.0578  0.0002 </r>
        <r>  0.0001  0.1014  0.0003 </r>
        <r>  0.0000  0.0578  0.0002 </r>
        <r>  0.0001  0.1014  0.0003 </r>
        <r>  0.0001  0.0293  0.0001 </r>
        <r>  0.0001  0.0293  0.0001 </r>
       </set>
       <set comment="band 48">
        <r>  0.0007  0.0006  0.0016 </r>
        <r>  0.0004  0.0042  0.0025 </r>
        <r>  0.0007  0.0006  0.0016 </r>
        <r>  0.0004  0.0042  0.0025 </r>
        <r>  0.0016  0.0050  0.0008 </r>
        <r>  0.0251  0.0163  0.0011 </r>
        <r>  0.0251  0.0163  0.0011 </r>
        <r>  0.0016  0.0050  0.0008 </r>
        <r>  0.0001  0.0712  0.0001 </r>
        <r>  0.0001  0.0712  0.0001 </r>
        <r>  0.0001  0.0316  0.0002 </r>
        <r>  0.0002  0.0251  0.0001 </r>
        <r>  0.0001  0.0316  0.0002 </r>
        <r>  0.0002  0.0251  0.0001 </r>
        <r>  0.0003  0.0911  0.0003 </r>
        <r>  0.0003  0.0911  0.0003 </r>
       </set>
       <set comment="band 49">
        <r>  0.0029  0.0047  0.0009 </r>
        <r>  0.0038  0.0081  0.0006 </r>
        <r>  0.0029  0.0047  0.0009 </r>
        <r>  0.0038  0.0081  0.0006 </r>
        <r>  0.0123  0.0389  0.0009 </r>
        <r>  0.0099  0.0445  0.0019 </r>
        <r>  0.0099  0.0445  0.0019 </r>
        <r>  0.0123  0.0389  0.0009 </r>
        <r>  0.0044  0.0219  0.0019 </r>
        <r>  0.0044  0.0219  0.0019 </r>
        <r>  0.0004  0.0152  0.0032 </r>
        <r>  0.0068  0.0141  0.0015 </r>
        <r>  0.0004  0.0152  0.0032 </r>
        <r>  0.0068  0.0141  0.0015 </r>
        <r>  0.0058  0.0291  0.0014 </r>
        <r>  0.0058  0.0291  0.0014 </r>
       </set>
       <set comment="band 50">
        <r>  0.0041  0.0064  0.0021 </r>
        <r>  0.0005  0.0018  0.0015 </r>
        <r>  0.0041  0.0064  0.0021 </r>
        <r>  0.0005  0.0018  0.0015 </r>
        <r>  0.0084  0.0338  0.0011 </r>
        <r>  0.0119  0.0489  0.0027 </r>
        <r>  0.0119  0.0489  0.0027 </r>
        <r>  0.0084  0.0338  0.0011 </r>
        <r>  0.0038  0.0182  0.0024 </r>
        <r>  0.0038  0.0182  0.0024 </r>
        <r>  0.0094  0.0372  0.0023 </r>
        <r>  0.0007  0.0094  0.0010 </r>
        <r>  0.0094  0.0372  0.0023 </r>
        <r>  0.0007  0.0094  0.0010 </r>
        <r>  0.0012  0.0124  0.0023 </r>
        <r>  0.0012  0.0124  0.0023 </r>
       </set>
       <set comment="band 51">
        <r>  0.0050  0.0056  0.0026 </r>
        <r>  0.0004  0.0005  0.0032 </r>
        <r>  0.0050  0.0056  0.0026 </r>
        <r>  0.0004  0.0005  0.0032 </r>
        <r>  0.0071  0.0483  0.0013 </r>
        <r>  0.0025  0.0445  0.0013 </r>
        <r>  0.0025  0.0445  0.0013 </r>
        <r>  0.0071  0.0483  0.0013 </r>
        <r>  0.0078  0.0205  0.0020 </r>
        <r>  0.0078  0.0205  0.0020 </r>
        <r>  0.0079  0.0150  0.0022 </r>
        <r>  0.0014  0.0255  0.0017 </r>
        <r>  0.0079  0.0150  0.0022 </r>
        <r>  0.0014  0.0255  0.0017 </r>
        <r>  0.0015  0.0268  0.0011 </r>
        <r>  0.0015  0.0268  0.0011 </r>
       </set>
       <set comment="band 52">
        <r>  0.0015  0.0035  0.0041 </r>
        <r>  0.0015  0.0073  0.0019 </r>
        <r>  0.0015  0.0035  0.0041 </r>
        <r>  0.0015  0.0073  0.0019 </r>
        <r>  0.0031  0.0283  0.0010 </r>
        <r>  0.0119  0.0671  0.0023 </r>
        <r>  0.0119  0.0671  0.0023 </r>
        <r>  0.0031  0.0283  0.0010 </r>
        <r>  0.0012  0.0090  0.0012 </r>
        <r>  0.0012  0.0090  0.0012 </r>
        <r>  0.0009  0.0298  0.0019 </r>
        <r>  0.0050  0.0123  0.0013 </r>
        <r>  0.0009  0.0298  0.0019 </r>
        <r>  0.0050  0.0123  0.0013 </r>
        <r>  0.0017  0.0331  0.0048 </r>
        <r>  0.0017  0.0331  0.0048 </r>
       </set>
       <set comment="band 53">
        <r>  0.0003  0.0016  0.0015 </r>
        <r>  0.0014  0.0042  0.0015 </r>
        <r>  0.0003  0.0016  0.0015 </r>
        <r>  0.0014  0.0042  0.0015 </r>
        <r>  0.0033  0.0651  0.0028 </r>
        <r>  0.0013  0.0561  0.0020 </r>
        <r>  0.0013  0.0561  0.0020 </r>
        <r>  0.0033  0.0651  0.0028 </r>
        <r>  0.0004  0.0245  0.0028 </r>
        <r>  0.0004  0.0245  0.0028 </r>
        <r>  0.0004  0.0201  0.0032 </r>
        <r>  0.0014  0.0196  0.0031 </r>
        <r>  0.0004  0.0201  0.0032 </r>
        <r>  0.0014  0.0196  0.0031 </r>
        <r>  0.0004  0.0154  0.0018 </r>
        <r>  0.0004  0.0154  0.0018 </r>
       </set>
       <set comment="band 54">
        <r>  0.0011  0.0066  0.0057 </r>
        <r>  0.0024  0.0038  0.0059 </r>
        <r>  0.0011  0.0066  0.0057 </r>
        <r>  0.0024  0.0038  0.0059 </r>
        <r>  0.0133  0.0415  0.0022 </r>
        <r>  0.0088  0.0319  0.0017 </r>
        <r>  0.0088  0.0319  0.0017 </r>
        <r>  0.0133  0.0415  0.0022 </r>
        <r>  0.0048  0.0261  0.0016 </r>
        <r>  0.0048  0.0261  0.0016 </r>
        <r>  0.0066  0.0280  0.0018 </r>
        <r>  0.0037  0.0314  0.0025 </r>
        <r>  0.0066  0.0280  0.0018 </r>
        <r>  0.0037  0.0314  0.0025 </r>
        <r>  0.0006  0.0071  0.0011 </r>
        <r>  0.0006  0.0071  0.0011 </r>
       </set>
       <set comment="band 55">
        <r>  0.0004  0.0019  0.0063 </r>
        <r>  0.0002  0.0059  0.0055 </r>
        <r>  0.0004  0.0019  0.0063 </r>
        <r>  0.0002  0.0059  0.0055 </r>
        <r>  0.0016  0.0559  0.0058 </r>
        <r>  0.0058  0.0302  0.0023 </r>
        <r>  0.0058  0.0302  0.0023 </r>
        <r>  0.0016  0.0559  0.0058 </r>
        <r>  0.0076  0.0366  0.0021 </r>
        <r>  0.0076  0.0366  0.0021 </r>
        <r>  0.0035  0.0308  0.0016 </r>
        <r>  0.0017  0.0145  0.0018 </r>
        <r>  0.0035  0.0308  0.0016 </r>
        <r>  0.0017  0.0145  0.0018 </r>
        <r>  0.0004  0.0055  0.0018 </r>
        <r>  0.0004  0.0055  0.0018 </r>
       </set>
       <set comment="band 56">
        <r>  0.0023  0.0041  0.0044 </r>
        <r>  0.0037  0.0034  0.0045 </r>
        <r>  0.0023  0.0041  0.0044 </r>
        <r>  0.0037  0.0034  0.0045 </r>
        <r>  0.0016  0.0761  0.0009 </r>
        <r>  0.0005  0.0473  0.0007 </r>
        <r>  0.0005  0.0473  0.0007 </r>
        <r>  0.0016  0.0761  0.0009 </r>
        <r>  0.0012  0.0322  0.0028 </r>
        <r>  0.0012  0.0322  0.0028 </r>
        <r>  0.0035  0.0455  0.0029 </r>
        <r>  0.0015  0.0081  0.0022 </r>
        <r>  0.0035  0.0455  0.0029 </r>
        <r>  0.0015  0.0081  0.0022 </r>
        <r>  0.0046  0.0111  0.0021 </r>
        <r>  0.0046  0.0111  0.0021 </r>
       </set>
       <set comment="band 57">
        <r>  0.0041  0.0135  0.0029 </r>
        <r>  0.0007  0.0073  0.0036 </r>
        <r>  0.0041  0.0135  0.0029 </r>
        <r>  0.0007  0.0073  0.0036 </r>
        <r>  0.0020  0.0572  0.0004 </r>
        <r>  0.0013  0.0485  0.0020 </r>
        <r>  0.0013  0.0485  0.0020 </r>
        <r>  0.0020  0.0572  0.0004 </r>
        <r>  0.0020  0.0119  0.0017 </r>
        <r>  0.0020  0.0119  0.0017 </r>
        <r>  0.0014  0.0141  0.0036 </r>
        <r>  0.0049  0.0384  0.0018 </r>
        <r>  0.0014  0.0141  0.0036 </r>
        <r>  0.0049  0.0384  0.0018 </r>
        <r>  0.0093  0.0370  0.0009 </r>
        <r>  0.0093  0.0370  0.0009 </r>
       </set>
       <set comment="band 58">
        <r>  0.0006  0.0030  0.0081 </r>
        <r>  0.0005  0.0030  0.0082 </r>
        <r>  0.0006  0.0030  0.0081 </r>
        <r>  0.0005  0.0030  0.0082 </r>
        <r>  0.0011  0.0522  0.0048 </r>
        <r>  0.0007  0.0416  0.0029 </r>
        <r>  0.0007  0.0416  0.0029 </r>
        <r>  0.0011  0.0522  0.0048 </r>
        <r>  0.0025  0.0238  0.0019 </r>
        <r>  0.0025  0.0238  0.0019 </r>
        <r>  0.0034  0.0156  0.0013 </r>
        <r>  0.0056  0.0300  0.0015 </r>
        <r>  0.0034  0.0156  0.0013 </r>
        <r>  0.0056  0.0300  0.0015 </r>
        <r>  0.0050  0.0177  0.0022 </r>
        <r>  0.0050  0.0177  0.0022 </r>
       </set>
       <set comment="band 59">
        <r>  0.0034  0.0046  0.0020 </r>
        <r>  0.0010  0.0018  0.0023 </r>
        <r>  0.0034  0.0046  0.0020 </r>
        <r>  0.0010  0.0018  0.0023 </r>
        <r>  0.0029  0.0477  0.0026 </r>
        <r>  0.0033  0.0615  0.0034 </r>
        <r>  0.0033  0.0615  0.0034 </r>
        <r>  0.0029  0.0477  0.0026 </r>
        <r>  0.0011  0.0088  0.0024 </r>
        <r>  0.0011  0.0088  0.0024 </r>
        <r>  0.0005  0.0105  0.0024 </r>
        <r>  0.0006  0.0375  0.0020 </r>
        <r>  0.0005  0.0105  0.0024 </r>
        <r>  0.0006  0.0375  0.0020 </r>
        <r>  0.0020  0.0494  0.0031 </r>
        <r>  0.0020  0.0494  0.0031 </r>
       </set>
       <set comment="band 60">
        <r>  0.0017  0.0029  0.0093 </r>
        <r>  0.0039  0.0096  0.0111 </r>
        <r>  0.0017  0.0029  0.0093 </r>
        <r>  0.0039  0.0096  0.0111 </r>
        <r>  0.0001  0.0441  0.0007 </r>
        <r>  0.0006  0.0784  0.0003 </r>
        <r>  0.0006  0.0784  0.0003 </r>
        <r>  0.0001  0.0441  0.0007 </r>
        <r>  0.0011  0.0219  0.0036 </r>
        <r>  0.0011  0.0219  0.0036 </r>
        <r>  0.0003  0.0255  0.0031 </r>
        <r>  0.0004  0.0155  0.0024 </r>
        <r>  0.0003  0.0255  0.0031 </r>
        <r>  0.0004  0.0155  0.0024 </r>
        <r>  0.0033  0.0327  0.0040 </r>
        <r>  0.0033  0.0327  0.0040 </r>
       </set>
       <set comment="band 61">
        <r>  0.0117  0.0036  0.0217 </r>
        <r>  0.0144  0.0054  0.0509 </r>
        <r>  0.0117  0.0036  0.0217 </r>
        <r>  0.0144  0.0054  0.0509 </r>
        <r>  0.0002  0.0035  0.0105 </r>
        <r>  0.0001  0.0008  0.0062 </r>
        <r>  0.0001  0.0008  0.0062 </r>
        <r>  0.0002  0.0035  0.0105 </r>
        <r>  0.0006  0.0090  0.0073 </r>
        <r>  0.0006  0.0090  0.0073 </r>
        <r>  0.0014  0.0016  0.0044 </r>
        <r>  0.0008  0.0071  0.0062 </r>
        <r>  0.0014  0.0016  0.0044 </r>
        <r>  0.0008  0.0071  0.0062 </r>
        <r>  0.0001  0.0062  0.0034 </r>
        <r>  0.0001  0.0062  0.0034 </r>
       </set>
       <set comment="band 62">
        <r>  0.0012  0.0048  0.0288 </r>
        <r>  0.0435  0.0055  0.0351 </r>
        <r>  0.0012  0.0048  0.0288 </r>
        <r>  0.0435  0.0055  0.0351 </r>
        <r>  0.0006  0.0084  0.0056 </r>
        <r>  0.0000  0.0033  0.0091 </r>
        <r>  0.0000  0.0033  0.0091 </r>
        <r>  0.0006  0.0084  0.0056 </r>
        <r>  0.0026  0.0078  0.0067 </r>
        <r>  0.0026  0.0078  0.0067 </r>
        <r>  0.0002  0.0039  0.0043 </r>
        <r>  0.0002  0.0073  0.0047 </r>
        <r>  0.0002  0.0039  0.0043 </r>
        <r>  0.0002  0.0073  0.0047 </r>
        <r>  0.0006  0.0039  0.0064 </r>
        <r>  0.0006  0.0039  0.0064 </r>
       </set>
       <set comment="band 63">
        <r>  0.0500  0.0146  0.0292 </r>
        <r>  0.0043  0.0078  0.0167 </r>
        <r>  0.0500  0.0146  0.0292 </r>
        <r>  0.0043  0.0078  0.0167 </r>
        <r>  0.0011  0.0068  0.0045 </r>
        <r>  0.0005  0.0153  0.0064 </r>
        <r>  0.0005  0.0153  0.0064 </r>
        <r>  0.0011  0.0068  0.0045 </r>
        <r>  0.0002  0.0100  0.0024 </r>
        <r>  0.0002  0.0100  0.0024 </r>
        <r>  0.0037  0.0125  0.0060 </r>
        <r>  0.0017  0.0034  0.0042 </r>
        <r>  0.0037  0.0125  0.0060 </r>
        <r>  0.0017  0.0034  0.0042 </r>
        <r>  0.0005  0.0024  0.0078 </r>
        <r>  0.0005  0.0024  0.0078 </r>
       </set>
       <set comment="band 64">
        <r>  0.0160  0.0068  0.0336 </r>
        <r>  0.0149  0.0151  0.0641 </r>
        <r>  0.0160  0.0068  0.0336 </r>
        <r>  0.0149  0.0151  0.0641 </r>
        <r>  0.0002  0.0021  0.0060 </r>
        <r>  0.0004  0.0028  0.0038 </r>
        <r>  0.0004  0.0028  0.0038 </r>
        <r>  0.0002  0.0021  0.0060 </r>
        <r>  0.0012  0.0062  0.0044 </r>
        <r>  0.0012  0.0062  0.0044 </r>
        <r>  0.0025  0.0019  0.0026 </r>
        <r>  0.0006  0.0099  0.0072 </r>
        <r>  0.0025  0.0019  0.0026 </r>
        <r>  0.0006  0.0099  0.0072 </r>
        <r>  0.0007  0.0053  0.0052 </r>
        <r>  0.0007  0.0053  0.0052 </r>
       </set>
       <set comment="band 65">
        <r>  0.0258  0.0293  0.0344 </r>
        <r>  0.0160  0.0125  0.0318 </r>
        <r>  0.0258  0.0293  0.0344 </r>
        <r>  0.0160  0.0125  0.0318 </r>
        <r>  0.0010  0.0036  0.0038 </r>
        <r>  0.0006  0.0039  0.0037 </r>
        <r>  0.0006  0.0039  0.0037 </r>
        <r>  0.0010  0.0036  0.0038 </r>
        <r>  0.0027  0.0107  0.0051 </r>
        <r>  0.0027  0.0107  0.0051 </r>
        <r>  0.0008  0.0035  0.0055 </r>
        <r>  0.0024  0.0123  0.0041 </r>
        <r>  0.0008  0.0035  0.0055 </r>
        <r>  0.0024  0.0123  0.0041 </r>
        <r>  0.0052  0.0068  0.0048 </r>
        <r>  0.0052  0.0068  0.0048 </r>
       </set>
       <set comment="band 66">
        <r>  0.0138  0.0052  0.0638 </r>
        <r>  0.0007  0.0145  0.0524 </r>
        <r>  0.0138  0.0052  0.0638 </r>
        <r>  0.0007  0.0145  0.0524 </r>
        <r>  0.0001  0.0033  0.0071 </r>
        <r>  0.0002  0.0035  0.0030 </r>
        <r>  0.0002  0.0035  0.0030 </r>
        <r>  0.0001  0.0033  0.0071 </r>
        <r>  0.0010  0.0054  0.0031 </r>
        <r>  0.0010  0.0054  0.0031 </r>
        <r>  0.0006  0.0149  0.0055 </r>
        <r>  0.0044  0.0071  0.0042 </r>
        <r>  0.0006  0.0149  0.0055 </r>
        <r>  0.0044  0.0071  0.0042 </r>
        <r>  0.0009  0.0041  0.0059 </r>
        <r>  0.0009  0.0041  0.0059 </r>
       </set>
       <set comment="band 67">
        <r>  0.0141  0.0027  0.0386 </r>
        <r>  0.0037  0.0821  0.0264 </r>
        <r>  0.0141  0.0027  0.0386 </r>
        <r>  0.0037  0.0821  0.0264 </r>
        <r>  0.0017  0.0110  0.0059 </r>
        <r>  0.0007  0.0063  0.0030 </r>
        <r>  0.0007  0.0063  0.0030 </r>
        <r>  0.0017  0.0110  0.0059 </r>
        <r>  0.0052  0.0157  0.0060 </r>
        <r>  0.0052  0.0157  0.0060 </r>
        <r>  0.0001  0.0033  0.0037 </r>
        <r>  0.0021  0.0048  0.0072 </r>
        <r>  0.0001  0.0033  0.0037 </r>
        <r>  0.0021  0.0048  0.0072 </r>
        <r>  0.0005  0.0044  0.0031 </r>
        <r>  0.0005  0.0044  0.0031 </r>
       </set>
       <set comment="band 68">
        <r>  0.0003  0.0080  0.0282 </r>
        <r>  0.0307  0.0440  0.0575 </r>
        <r>  0.0003  0.0080  0.0282 </r>
        <r>  0.0307  0.0440  0.0575 </r>
        <r>  0.0016  0.0184  0.0081 </r>
        <r>  0.0005  0.0024  0.0027 </r>
        <r>  0.0005  0.0024  0.0027 </r>
        <r>  0.0016  0.0184  0.0081 </r>
        <r>  0.0005  0.0075  0.0073 </r>
        <r>  0.0005  0.0075  0.0073 </r>
        <r>  0.0003  0.0014  0.0016 </r>
        <r>  0.0024  0.0092  0.0108 </r>
        <r>  0.0003  0.0014  0.0016 </r>
        <r>  0.0024  0.0092  0.0108 </r>
        <r>  0.0008  0.0049  0.0024 </r>
        <r>  0.0008  0.0049  0.0024 </r>
       </set>
       <set comment="band 69">
        <r>  0.0049  0.0132  0.0647 </r>
        <r>  0.0003  0.0264  0.0426 </r>
        <r>  0.0049  0.0132  0.0647 </r>
        <r>  0.0003  0.0264  0.0426 </r>
        <r>  0.0000  0.0022  0.0092 </r>
        <r>  0.0013  0.0086  0.0038 </r>
        <r>  0.0013  0.0086  0.0038 </r>
        <r>  0.0000  0.0022  0.0092 </r>
        <r>  0.0031  0.0071  0.0033 </r>
        <r>  0.0031  0.0071  0.0033 </r>
        <r>  0.0003  0.0131  0.0080 </r>
        <r>  0.0002  0.0076  0.0072 </r>
        <r>  0.0003  0.0131  0.0080 </r>
        <r>  0.0002  0.0076  0.0072 </r>
        <r>  0.0009  0.0057  0.0026 </r>
        <r>  0.0009  0.0057  0.0026 </r>
       </set>
       <set comment="band 70">
        <r>  0.0092  0.0116  0.0827 </r>
        <r>  0.0019  0.0091  0.0530 </r>
        <r>  0.0092  0.0116  0.0827 </r>
        <r>  0.0019  0.0091  0.0530 </r>
        <r>  0.0021  0.0025  0.0044 </r>
        <r>  0.0003  0.0045  0.0114 </r>
        <r>  0.0003  0.0045  0.0114 </r>
        <r>  0.0021  0.0025  0.0044 </r>
        <r>  0.0007  0.0077  0.0078 </r>
        <r>  0.0007  0.0077  0.0078 </r>
        <r>  0.0012  0.0103  0.0054 </r>
        <r>  0.0011  0.0010  0.0014 </r>
        <r>  0.0012  0.0103  0.0054 </r>
        <r>  0.0011  0.0010  0.0014 </r>
        <r>  0.0001  0.0085  0.0079 </r>
        <r>  0.0001  0.0085  0.0079 </r>
       </set>
      </set>
     </set>
    </set>
   </array>
  </projected>
 </calculation>
 <structure name="finalpos" >
  <crystal>
   <varray name="basis" >
    <v>       6.62197959       0.05901152       0.10324469 </v>
    <v>      -1.61403604       6.56756328       0.01911998 </v>
    <v>      -2.23283497      -2.70302513      12.20412403 </v>
   </varray>
   <i name="volume">    534.22721157 </i>
   <varray name="rec_basis" >
    <v>       0.15012908       0.03679184       0.03561605 </v>
    <v>      -0.00187047       0.15170696       0.03325853 </v>
    <v>      -0.00126713      -0.00054893       0.08158610 </v>
   </varray>
  </crystal>
  <varray name="positions" >
   <v>       0.56611238       0.31350899       0.15518112 </v>
   <v>       0.91548789       0.73252191       0.58844075 </v>
   <v>       0.43388762       0.68649101       0.84481888 </v>
   <v>       0.08451211       0.26747809       0.41155925 </v>
   <v>       0.41810874       0.81271106       0.34922196 </v>
   <v>       0.01236793       0.21156655       0.91067787 </v>
   <v>       0.98763207       0.78843345       0.08932213 </v>
   <v>       0.58189126       0.18728894       0.65077804 </v>
   <v>       0.00940445       0.75465063       0.32373402 </v>
   <v>       0.99059555       0.24534937       0.67626598 </v>
   <v>       0.61297020       0.21489589       0.87867487 </v>
   <v>       0.56449104       0.21191879       0.40844834 </v>
   <v>       0.38702980       0.78510411       0.12132513 </v>
   <v>       0.43550896       0.78808121       0.59155166 </v>
   <v>       0.03197884       0.18573298       0.13519696 </v>
   <v>       0.96802116       0.81426702       0.86480304 </v>
  </varray>
 </structure>
</modeling>
