CIS                                     
           1
     6.801563    0.013739    0.003034
    -1.703228    6.535993    0.003689
    -2.458325   -2.745178   12.195680
   K    Sb   Se
   4   4   8
Direct configuration=     1
   0.56456518  0.32792680  0.15321973
   0.89362269  0.71643670  0.57986382
   0.43543482  0.67207320  0.84678027
   0.10637731  0.28356330  0.42013618
   0.40997226  0.80601860  0.34789500
   0.01220549  0.21644890  0.91463899
   0.98779451  0.78355110  0.08536101
   0.59002774  0.19398140  0.65210500
   0.01438569  0.75686519  0.31821392
   0.98561431  0.24313481  0.68178608
   0.62317443  0.21014110  0.87599128
   0.57601898  0.20157447  0.40838269
   0.37682557  0.78985890  0.12400872
   0.42398102  0.79842553  0.59161731
   0.02079445  0.17614819  0.13400333
   0.97920555  0.82385181  0.86599667
CIS                                     
           1
     6.803270    0.013934    0.004933
    -1.703474    6.539381    0.004536
    -2.455621   -2.744227   12.201398
   K    Sb   Se
   4   4   8
Direct configuration=     2
   0.56453158  0.32777498  0.15324032
   0.89369302  0.71661952  0.57993125
   0.43546842  0.67222502  0.84675968
   0.10630698  0.28338048  0.42006875
   0.41027362  0.80576953  0.34794356
   0.01246071  0.21659639  0.91469293
   0.98753929  0.78340361  0.08530707
   0.58972638  0.19423047  0.65205644
   0.01404214  0.75688535  0.31827290
   0.98595786  0.24311465  0.68172710
   0.62289074  0.21006226  0.87607946
   0.57617020  0.20209453  0.40841285
   0.37710926  0.78993774  0.12392054
   0.42382980  0.79790547  0.59158715
   0.02094964  0.17653035  0.13414488
   0.97905036  0.82346965  0.86585512
CIS                                     
           1
     6.808391    0.014519    0.010628
    -1.704213    6.549546    0.007075
    -2.447510   -2.741376   12.218552
   K    Sb   Se
   4   4   8
Direct configuration=     3
   0.56443082  0.32731974  0.15330209
   0.89390373  0.71716759  0.58013338
   0.43556918  0.67268026  0.84669791
   0.10609627  0.28283241  0.41986662
   0.41117740  0.80502259  0.34808910
   0.01322594  0.21703851  0.91485454
   0.98677406  0.78296149  0.08514546
   0.58882260  0.19497741  0.65191090
   0.01301171  0.75694585  0.31844992
   0.98698829  0.24305415  0.68155008
   0.62203979  0.20982588  0.87634402
   0.57662344  0.20365379  0.40850310
   0.37796021  0.79017412  0.12365598
   0.42337656  0.79634621  0.59149690
   0.02141462  0.17767603  0.13456919
   0.97858538  0.82232397  0.86543081
CIS                                     
           1
     6.809609    0.014658    0.011982
    -1.704389    6.551962    0.007679
    -2.445582   -2.740698   12.222631
   K    Sb   Se
   4   4   8
Direct configuration=     4
   0.56440690  0.32721166  0.15331679
   0.89395364  0.71729763  0.58018132
   0.43559310  0.67278834  0.84668321
   0.10604636  0.28270237  0.41981868
   0.41139208  0.80484518  0.34812359
   0.01340760  0.21714337  0.91489281
   0.98659240  0.78285663  0.08510719
   0.58860792  0.19515482  0.65187641
   0.01276685  0.75696024  0.31849206
   0.98723315  0.24303976  0.68150794
   0.62183756  0.20976975  0.87640695
   0.57673093  0.20402388  0.40852440
   0.37816244  0.79023025  0.12359305
   0.42326907  0.79597612  0.59147560
   0.02152478  0.17794787  0.13466983
   0.97847522  0.82205213  0.86533017
CIS                                     
           1
     6.811183    0.014838    0.013732
    -1.704616    6.555087    0.008460
    -2.443089   -2.739822   12.227903
   K    Sb   Se
   4   4   8
Direct configuration=     5
   0.56437599  0.32707201  0.15333580
   0.89401809  0.71746564  0.58024326
   0.43562401  0.67292799  0.84666420
   0.10598191  0.28253436  0.41975674
   0.41166953  0.80461591  0.34816814
   0.01364233  0.21727884  0.91494222
   0.98635767  0.78272116  0.08505778
   0.58833047  0.19538409  0.65183186
   0.01245038  0.75697884  0.31854655
   0.98754962  0.24302116  0.68145345
   0.62157617  0.20969723  0.87648829
   0.57686978  0.20450208  0.40855189
   0.37842383  0.79030277  0.12351171
   0.42313022  0.79549792  0.59144811
   0.02166704  0.17829907  0.13479985
   0.97833296  0.82170093  0.86520015
CIS                                     
           1
     6.796929    0.015108    0.019457
    -1.700768    6.549540    0.007519
    -2.427805   -2.736713   12.224040
   K    Sb   Se
   4   4   8
Direct configuration=     6
   0.56427431  0.32657006  0.15340265
   0.89426693  0.71806020  0.58045894
   0.43572569  0.67342994  0.84659735
   0.10573307  0.28193980  0.41954106
   0.41203722  0.80485726  0.34828954
   0.01390963  0.21728350  0.91482376
   0.98609037  0.78271650  0.08517624
   0.58796278  0.19514274  0.65171046
   0.01208821  0.75706486  0.31873492
   0.98791179  0.24293514  0.68126508
   0.62107901  0.20947581  0.87670882
   0.57692537  0.20542921  0.40856503
   0.37892099  0.79052419  0.12329118
   0.42307463  0.79457079  0.59143497
   0.02202873  0.17885581  0.13503193
   0.97797127  0.82114419  0.86496807
CIS                                     
           1
     6.754167    0.015916    0.036633
    -1.689225    6.532899    0.004696
    -2.381955   -2.727387   12.212450
   K    Sb   Se
   4   4   8
Direct configuration=     7
   0.56396873  0.32506290  0.15360328
   0.89501282  0.71984504  0.58110597
   0.43603127  0.67493710  0.84639672
   0.10498718  0.28015496  0.41889403
   0.41314132  0.80558157  0.34865337
   0.01471382  0.21729742  0.91446787
   0.98528618  0.78270258  0.08553213
   0.58685868  0.19441843  0.65134663
   0.01099833  0.75732322  0.31930072
   0.98900167  0.24267678  0.68069928
   0.61958351  0.20881109  0.87737125
   0.57709149  0.20821300  0.40860461
   0.38041649  0.79118891  0.12262875
   0.42290851  0.79178700  0.59139539
   0.02311375  0.18052699  0.13572802
   0.97688625  0.81947301  0.86427198
CIS                                     
           1
     6.668642    0.017533    0.070983
    -1.666138    6.499619   -0.000948
    -2.290254   -2.708734   12.189271
   K    Sb   Se
   4   4   8
Direct configuration=     8
   0.56335435  0.32204063  0.15400511
   0.89650092  0.72342178  0.58240000
   0.43664565  0.67795937  0.84599489
   0.10349908  0.27657822  0.41760000
   0.41535573  0.80703167  0.34937894
   0.01633603  0.21732488  0.91375311
   0.98366397  0.78267512  0.08624689
   0.58464427  0.19296833  0.65062106
   0.00879819  0.75784177  0.32043664
   0.99120181  0.24215823  0.67956336
   0.61656803  0.20747898  0.87870134
   0.57741970  0.21379500  0.40868466
   0.38343197  0.79252102  0.12129866
   0.42258030  0.78620500  0.59131534
   0.02528348  0.18387522  0.13711923
   0.97471652  0.81612478  0.86288077
CIS                                     
           1
     6.648624    0.021216    0.077559
    -1.657447    6.479963   -0.005540
    -2.272501   -2.707670   12.155657
   K    Sb   Se
   4   4   8
Direct configuration=     9
   0.56327870  0.32143006  0.15406185
   0.89732945  0.72417782  0.58275049
   0.43672130  0.67856994  0.84593815
   0.10267055  0.27582218  0.41724951
   0.41558849  0.80895681  0.34930246
   0.01559468  0.21576048  0.91375196
   0.98440532  0.78423952  0.08624804
   0.58441151  0.19104319  0.65069754
   0.00875436  0.75784137  0.32106075
   0.99124564  0.24215863  0.67893925
   0.61607857  0.20806210  0.87866309
   0.57703455  0.21320245  0.40896685
   0.38392143  0.79193790  0.12133691
   0.42296545  0.78679755  0.59103315
   0.02549694  0.18389248  0.13699551
   0.97450306  0.81610752  0.86300449
CIS                                     
           1
     6.649754    0.021009    0.077188
    -1.657937    6.481073   -0.005281
    -2.273503   -2.707730   12.157555
   K    Sb   Se
   4   4   8
Direct configuration=    10
   0.56328297  0.32146464  0.15405865
   0.89728259  0.72413501  0.58273065
   0.43671703  0.67853536  0.84594135
   0.10271741  0.27586499  0.41726935
   0.41557534  0.80884778  0.34930675
   0.01563662  0.21584906  0.91375204
   0.98436338  0.78415094  0.08624796
   0.58442466  0.19115222  0.65069325
   0.00875689  0.75784136  0.32102541
   0.99124311  0.24215864  0.67897459
   0.61610629  0.20802905  0.87866523
   0.57705636  0.21323598  0.40895088
   0.38389371  0.79197095  0.12133477
   0.42294364  0.78676402  0.59104912
   0.02548485  0.18389152  0.13700252
   0.97451515  0.81610848  0.86299748
CIS                                     
           1
     6.649132    0.023481    0.079040
    -1.655418    6.492594   -0.004670
    -2.270906   -2.711616   12.158190
   K    Sb   Se
   4   4   8
Direct configuration=    11
   0.56328037  0.32101034  0.15411350
   0.89820233  0.72473625  0.58305283
   0.43671963  0.67898966  0.84588650
   0.10179767  0.27526375  0.41694717
   0.41551126  0.81013925  0.34895963
   0.01452715  0.21447437  0.91403547
   0.98547285  0.78552563  0.08596453
   0.58448874  0.18986075  0.65104037
   0.00871971  0.75766985  0.32167900
   0.99128029  0.24233015  0.67832100
   0.61553047  0.20859716  0.87866285
   0.57687619  0.21292508  0.40927881
   0.38446953  0.79140284  0.12133715
   0.42312381  0.78707492  0.59072119
   0.02564263  0.18431118  0.13695294
   0.97435737  0.81568882  0.86304706
CIS                                     
           1
     6.649033    0.023877    0.079337
    -1.655014    6.494442   -0.004572
    -2.270489   -2.712239   12.158292
   K    Sb   Se
   4   4   8
Direct configuration=    12
   0.56328001  0.32093763  0.15412230
   0.89834970  0.72483245  0.58310447
   0.43671999  0.67906237  0.84587770
   0.10165030  0.27516755  0.41689553
   0.41550083  0.81034593  0.34890397
   0.01434943  0.21425444  0.91408095
   0.98565057  0.78574556  0.08591905
   0.58449917  0.18965407  0.65109603
   0.00871374  0.75764247  0.32178380
   0.99128626  0.24235753  0.67821620
   0.61543807  0.20868813  0.87866248
   0.57684733  0.21287537  0.40933140
   0.38456193  0.79131187  0.12133752
   0.42315267  0.78712463  0.59066860
   0.02566788  0.18437834  0.13694498
   0.97433212  0.81562166  0.86305502
CIS                                     
           1
     6.653654    0.024454    0.080606
    -1.655721    6.520632   -0.002432
    -2.270122   -2.718822   12.171897
   K    Sb   Se
   4   4   8
Direct configuration=    13
   0.56332275  0.32066936  0.15417749
   0.89906101  0.72522126  0.58332801
   0.43667725  0.67933064  0.84582251
   0.10093899  0.27477874  0.41667199
   0.41563648  0.81080320  0.34847184
   0.01420129  0.21442323  0.91423163
   0.98579871  0.78557677  0.08576837
   0.58436352  0.18919680  0.65152816
   0.00871586  0.75749746  0.32225509
   0.99128414  0.24250254  0.67774491
   0.61506854  0.20908158  0.87867623
   0.57666541  0.21293015  0.40947517
   0.38493146  0.79091842  0.12132377
   0.42333459  0.78706985  0.59052483
   0.02582859  0.18494198  0.13695075
   0.97417141  0.81505802  0.86304925
CIS                                     
           1
     6.655098    0.024635    0.081002
    -1.655942    6.528814   -0.001764
    -2.270007   -2.720878   12.176147
   K    Sb   Se
   4   4   8
Direct configuration=    14
   0.56333616  0.32058590  0.15419472
   0.89928291  0.72534224  0.58339773
   0.43666384  0.67941410  0.84580528
   0.10071709  0.27465776  0.41660227
   0.41567872  0.81094539  0.34833697
   0.01415498  0.21447578  0.91427864
   0.98584502  0.78552422  0.08572136
   0.58432128  0.18905461  0.65166303
   0.00871653  0.75745242  0.32240216
   0.99128347  0.24254758  0.67759784
   0.61495307  0.20920401  0.87868051
   0.57660860  0.21294722  0.40952004
   0.38504693  0.79079599  0.12131949
   0.42339140  0.78705278  0.59047996
   0.02587859  0.18511733  0.13695252
   0.97412141  0.81488267  0.86304748
CIS                                     
           1
     6.654311    0.024062    0.082275
    -1.656354    6.537055   -0.000481
    -2.267277   -2.721082   12.184457
   K    Sb   Se
   4   4   8
Direct configuration=    15
   0.56338265  0.32043949  0.15425408
   0.89970417  0.72555217  0.58351988
   0.43661735  0.67956051  0.84574592
   0.10029583  0.27444783  0.41648012
   0.41543354  0.81126645  0.34825259
   0.01414181  0.21409459  0.91417643
   0.98585819  0.78590541  0.08582357
   0.58456646  0.18873355  0.65174741
   0.00881796  0.75750535  0.32250615
   0.99118204  0.24249465  0.67749385
   0.61499064  0.20941974  0.87873859
   0.57634579  0.21279339  0.40948217
   0.38500936  0.79058026  0.12126141
   0.42365421  0.78720661  0.59051783
   0.02595954  0.18507915  0.13688569
   0.97404046  0.81492085  0.86311431
CIS                                     
           1
     6.653501    0.023472    0.083585
    -1.656779    6.545540    0.000840
    -2.264466   -2.721292   12.193014
   K    Sb   Se
   4   4   8
Direct configuration=    16
   0.56343052  0.32028891  0.15431517
   0.90013779  0.72576802  0.58364549
   0.43656948  0.67971109  0.84568483
   0.09986221  0.27423198  0.41635451
   0.41518103  0.81159661  0.34816576
   0.01412844  0.21370265  0.91407131
   0.98587156  0.78629735  0.08592869
   0.58481897  0.18840339  0.65183424
   0.00892231  0.75755976  0.32261314
   0.99107769  0.24244024  0.67738686
   0.61502922  0.20964155  0.87879832
   0.57607524  0.21263521  0.40944324
   0.38497078  0.79035845  0.12120168
   0.42392476  0.78736479  0.59055676
   0.02604296  0.18503990  0.13681692
   0.97395704  0.81496010  0.86318308
CIS                                     
           1
     6.649230    0.022057    0.087719
    -1.657110    6.546100    0.000885
    -2.254834   -2.718888   12.190462
   K    Sb   Se
   4   4   8
Direct configuration=    17
   0.56349343  0.32010938  0.15439993
   0.90061290  0.72599826  0.58378235
   0.43650657  0.67989062  0.84560007
   0.09938710  0.27400174  0.41621765
   0.41502286  0.81172856  0.34829455
   0.01419457  0.21350393  0.91403784
   0.98580543  0.78649607  0.08596216
   0.58497714  0.18827144  0.65170545
   0.00885607  0.75751829  0.32258261
   0.99114393  0.24248171  0.67741739
   0.61531945  0.20985761  0.87890239
   0.57572528  0.21224433  0.40934900
   0.38468055  0.79014239  0.12109761
   0.42427472  0.78775567  0.59065100
   0.02617133  0.18479107  0.13664900
   0.97382867  0.81520893  0.86335100
CIS                                     
           1
     6.643743    0.020239    0.093029
    -1.657534    6.546819    0.000943
    -2.242462   -2.715800   12.187183
   K    Sb   Se
   4   4   8
Direct configuration=    18
   0.56357412  0.31987875  0.15450882
   0.90122328  0.72629397  0.58395798
   0.43642588  0.68012125  0.84549118
   0.09877672  0.27370603  0.41604202
   0.41481934  0.81189799  0.34846009
   0.01427961  0.21324870  0.91399480
   0.98572039  0.78675130  0.08600520
   0.58518066  0.18810201  0.65153991
   0.00877099  0.75746504  0.32254342
   0.99122901  0.24253496  0.67745658
   0.61569228  0.21013510  0.87903597
   0.57527565  0.21174228  0.40922806
   0.38430772  0.78986490  0.12096403
   0.42472435  0.78825772  0.59077194
   0.02633662  0.18447153  0.13643321
   0.97366338  0.81552847  0.86356679
CIS                                     
           1
     6.641061    0.020179    0.096281
    -1.656920    6.547077    0.000582
    -2.235544   -2.715037   12.185391
   K    Sb   Se
   4   4   8
Direct configuration=    19
   0.56363159  0.31973569  0.15457401
   0.90159716  0.72647505  0.58406739
   0.43636841  0.68026431  0.84542599
   0.09840284  0.27352495  0.41593261
   0.41498075  0.81180226  0.34846784
   0.01429032  0.21327590  0.91396826
   0.98570968  0.78672410  0.08603174
   0.58501925  0.18819774  0.65153216
   0.00865330  0.75743290  0.32252903
   0.99134670  0.24256710  0.67747097
   0.61587757  0.21030343  0.87912483
   0.57500197  0.21150230  0.40916777
   0.38412243  0.78969657  0.12087517
   0.42499803  0.78849770  0.59083223
   0.02647007  0.18435967  0.13632540
   0.97352993  0.81564033  0.86367460
CIS                                     
           1
     6.637465    0.020097    0.100642
    -1.656097    6.547422    0.000098
    -2.226266   -2.714014   12.182987
   K    Sb   Se
   4   4   8
Direct configuration=    20
   0.56370863  0.31954382  0.15466144
   0.90209859  0.72671785  0.58421405
   0.43629137  0.68045618  0.84533856
   0.09790141  0.27328215  0.41578595
   0.41519729  0.81167383  0.34847816
   0.01430473  0.21331238  0.91393265
   0.98569527  0.78668762  0.08606735
   0.58480271  0.18832617  0.65152184
   0.00849544  0.75738982  0.32250978
   0.99150456  0.24261018  0.67749022
   0.61612601  0.21052916  0.87924398
   0.57463490  0.21118048  0.40908699
   0.38387399  0.78947084  0.12075602
   0.42536510  0.78881952  0.59091301
   0.02664927  0.18420963  0.13618073
   0.97335073  0.81579037  0.86381927
CIS                                     
           1
     6.630272    0.019934    0.109365
    -1.654450    6.548114   -0.000869
    -2.207709   -2.711967   12.178179
   K    Sb   Se
   4   4   8
Direct configuration=    21
   0.56386257  0.31916004  0.15483625
   0.90310139  0.72720329  0.58450706
   0.43613743  0.68083996  0.84516375
   0.09689861  0.27279671  0.41549294
   0.41563055  0.81141692  0.34849865
   0.01433364  0.21338534  0.91386140
   0.98566636  0.78661466  0.08613860
   0.58436945  0.18858308  0.65150135
   0.00817965  0.75730370  0.32247137
   0.99182035  0.24269630  0.67752863
   0.61662271  0.21098053  0.87948216
   0.57390076  0.21053698  0.40892562
   0.38337729  0.78901947  0.12051784
   0.42609924  0.78946302  0.59107438
   0.02700823  0.18390952  0.13589119
   0.97299177  0.81609048  0.86410881
CIS                                     
           1
     6.634903    0.020039    0.103749
    -1.655510    6.547669   -0.000246
    -2.219656   -2.713285   12.181274
   K    Sb   Se
   4   4   8
Direct configuration=    22
   0.56376363  0.31940714  0.15472375
   0.90245588  0.72689100  0.58431878
   0.43623637  0.68059286  0.84527625
   0.09754412  0.27310900  0.41568122
   0.41535140  0.81158238  0.34848567
   0.01431490  0.21333837  0.91390730
   0.98568510  0.78666163  0.08609270
   0.58464860  0.18841762  0.65151433
   0.00838303  0.75735908  0.32249597
   0.99161697  0.24264092  0.67750403
   0.61630317  0.21069007  0.87932897
   0.57437338  0.21095109  0.40902924
   0.38369683  0.78930993  0.12067103
   0.42562662  0.78904891  0.59097076
   0.02677641  0.18410275  0.13607785
   0.97322359  0.81589725  0.86392215
CIS                                     
           1
     6.635602    0.019596    0.106497
    -1.656131    6.551174   -0.000358
    -2.214665   -2.713472   12.181363
   K    Sb   Se
   4   4   8
Direct configuration=    23
   0.56385509  0.31921165  0.15481054
   0.90297563  0.72714028  0.58447371
   0.43614491  0.68078835  0.84518946
   0.09702437  0.27285972  0.41552629
   0.41554695  0.81147537  0.34843270
   0.01461940  0.21350492  0.91383159
   0.98538060  0.78649508  0.08616841
   0.58445305  0.18852463  0.65156730
   0.00824900  0.75733293  0.32251865
   0.99175100  0.24266707  0.67748135
   0.61639517  0.21091876  0.87944721
   0.57403367  0.21082412  0.40897476
   0.38360483  0.78908124  0.12055279
   0.42596633  0.78917588  0.59102524
   0.02697362  0.18406708  0.13599695
   0.97302638  0.81593292  0.86400305
CIS                                     
           1
     6.637697    0.018266    0.114740
    -1.657993    6.561689   -0.000692
    -2.199692   -2.714033   12.181631
   K    Sb   Se
   4   4   8
Direct configuration=    24
   0.56412925  0.31862549  0.15507082
   0.90453422  0.72788769  0.58493814
   0.43587075  0.68137451  0.84492918
   0.09546578  0.27211231  0.41506186
   0.41613362  0.81115448  0.34827366
   0.01553291  0.21400426  0.91360427
   0.98446709  0.78599574  0.08639573
   0.58386638  0.18884552  0.65172634
   0.00784696  0.75725452  0.32258679
   0.99215304  0.24274548  0.67741321
   0.61667080  0.21160447  0.87980188
   0.57301488  0.21044343  0.40881152
   0.38332920  0.78839553  0.12019812
   0.42698512  0.78955657  0.59118848
   0.02756533  0.18396008  0.13575412
   0.97243467  0.81603992  0.86424588
CIS                                     
           1
     6.637041    0.018683    0.112160
    -1.657410    6.558398   -0.000587
    -2.204379   -2.713858   12.181547
   K    Sb   Se
   4   4   8
Direct configuration=    25
   0.56404364  0.31880867  0.15498941
   0.90404697  0.72765414  0.58479308
   0.43595636  0.68119133  0.84501059
   0.09595303  0.27234586  0.41520692
   0.41594997  0.81125478  0.34832357
   0.01524698  0.21384823  0.91367561
   0.98475302  0.78615177  0.08632439
   0.58405003  0.18874522  0.65167643
   0.00797278  0.75727901  0.32256537
   0.99202722  0.24272099  0.67743463
   0.61658484  0.21139017  0.87969091
   0.57333347  0.21056238  0.40886241
   0.38341516  0.78860983  0.12030909
   0.42666653  0.78943762  0.59113759
   0.02738004  0.18399354  0.13583026
   0.97261996  0.81600646  0.86416974
CIS                                     
           1
     6.636917    0.019370    0.111534
    -1.656693    6.558259   -0.000934
    -2.205784   -2.715040   12.182812
   K    Sb   Se
   4   4   8
Direct configuration=    26
   0.56411328  0.31867809  0.15503129
   0.90436179  0.72781354  0.58489417
   0.43588672  0.68132191  0.84496871
   0.09563821  0.27218646  0.41510583
   0.41603353  0.81151746  0.34825621
   0.01541916  0.21379267  0.91365340
   0.98458084  0.78620733  0.08634660
   0.58396647  0.18848254  0.65174379
   0.00803771  0.75729608  0.32264091
   0.99196229  0.24270392  0.67735909
   0.61658784  0.21153796  0.87975346
   0.57319345  0.21067794  0.40887002
   0.38341216  0.78846204  0.12024654
   0.42680655  0.78932206  0.59112998
   0.02751264  0.18396349  0.13585753
   0.97248736  0.81603651  0.86414247
CIS                                     
           1
     6.636607    0.021080    0.109980
    -1.654911    6.557915   -0.001796
    -2.209278   -2.717982   12.185958
   K    Sb   Se
   4   4   8
Direct configuration=    27
   0.56428652  0.31835332  0.15513543
   0.90514480  0.72820998  0.58514561
   0.43571348  0.68164668  0.84486457
   0.09485520  0.27179002  0.41485439
   0.41624128  0.81217076  0.34808873
   0.01584741  0.21365442  0.91359819
   0.98415259  0.78634558  0.08640181
   0.58375872  0.18782924  0.65191127
   0.00819926  0.75733853  0.32282878
   0.99180074  0.24266147  0.67717122
   0.61659531  0.21190557  0.87990901
   0.57284516  0.21096539  0.40888894
   0.38340469  0.78809443  0.12009099
   0.42715484  0.78903461  0.59111106
   0.02784245  0.18388874  0.13592536
   0.97215755  0.81611126  0.86407464
CIS                                     
           1
     6.635029    0.022003    0.109502
    -1.653608    6.559110   -0.001859
    -2.210016   -2.719218   12.186664
   K    Sb   Se
   4   4   8
Direct configuration=    28
   0.56435433  0.31823317  0.15517070
   0.90541952  0.72834878  0.58523792
   0.43564567  0.68176683  0.84482930
   0.09458048  0.27165122  0.41476208
   0.41621869  0.81235301  0.34806221
   0.01571333  0.21357099  0.91353816
   0.98428667  0.78642901  0.08646184
   0.58378131  0.18764699  0.65193779
   0.00831592  0.75737277  0.32290486
   0.99168408  0.24262723  0.67709514
   0.61661513  0.21203260  0.87994545
   0.57274976  0.21116149  0.40890166
   0.38338487  0.78796740  0.12005455
   0.42725024  0.78883851  0.59109834
   0.02797501  0.18388324  0.13596315
   0.97202499  0.81611676  0.86403685
CIS                                     
           1
     6.633269    0.023032    0.108969
    -1.652154    6.560444   -0.001928
    -2.210839   -2.720597   12.187451
   K    Sb   Se
   4   4   8
Direct configuration=    29
   0.56443001  0.31809916  0.15521004
   0.90572599  0.72850355  0.58534090
   0.43556999  0.68190084  0.84478996
   0.09427401  0.27149645  0.41465910
   0.41619343  0.81255625  0.34803263
   0.01556375  0.21347795  0.91347120
   0.98443625  0.78652205  0.08652880
   0.58380657  0.18744375  0.65196737
   0.00844608  0.75741096  0.32298972
   0.99155392  0.24258904  0.67701028
   0.61663722  0.21217426  0.87998609
   0.57264327  0.21138019  0.40891584
   0.38336278  0.78782574  0.12001391
   0.42735673  0.78861981  0.59108416
   0.02812291  0.18387709  0.13600531
   0.97187709  0.81612291  0.86399469
CIS                                     
           1
     6.629748    0.025091    0.107904
    -1.649248    6.563110   -0.002068
    -2.212484   -2.723355   12.189025
   K    Sb   Se
   4   4   8
Direct configuration=    30
   0.56458150  0.31783120  0.15528872
   0.90633904  0.72881298  0.58554686
   0.43541850  0.68216880  0.84471128
   0.09366096  0.27118702  0.41445314
   0.41614278  0.81296265  0.34797348
   0.01526456  0.21329193  0.91333727
   0.98473544  0.78670807  0.08666273
   0.58385722  0.18703735  0.65202652
   0.00870646  0.75748731  0.32315945
   0.99129354  0.24251269  0.67684055
   0.61668134  0.21245754  0.88006738
   0.57243013  0.21181755  0.40894419
   0.38331866  0.78754246  0.11993262
   0.42756987  0.78818245  0.59105581
   0.02841881  0.18386476  0.13608962
   0.97158119  0.81613524  0.86391038
CIS                                     
           1
     6.628423    0.028068    0.108020
    -1.646007    6.567635   -0.000964
    -2.213016   -2.724410   12.187193
   K    Sb   Se
   4   4   8
Direct configuration=    31
   0.56468679  0.31765709  0.15533581
   0.90671906  0.72899640  0.58567949
   0.43531321  0.68234291  0.84466419
   0.09328094  0.27100360  0.41432051
   0.41613150  0.81302584  0.34800749
   0.01525937  0.21320246  0.91326247
   0.98474063  0.78679754  0.08673753
   0.58386850  0.18697416  0.65199251
   0.00876581  0.75747964  0.32317906
   0.99123419  0.24252036  0.67682094
   0.61661291  0.21264376  0.88009399
   0.57224708  0.21216396  0.40894885
   0.38338709  0.78735624  0.11990601
   0.42775292  0.78783604  0.59105115
   0.02860422  0.18391748  0.13613229
   0.97139578  0.81608252  0.86386771
CIS                                     
           1
     6.626606    0.032149    0.108181
    -1.641563    6.573839    0.000549
    -2.213745   -2.725857   12.184682
   K    Sb   Se
   4   4   8
Direct configuration=    32
   0.56483133  0.31741850  0.15540040
   0.90723999  0.72924751  0.58586134
   0.43516867  0.68258150  0.84459960
   0.09276001  0.27075249  0.41413866
   0.41611599  0.81311244  0.34805413
   0.01525232  0.21307987  0.91315992
   0.98474768  0.78692013  0.08684008
   0.58388401  0.18688756  0.65194587
   0.00884720  0.75746909  0.32320595
   0.99115280  0.24253091  0.67679405
   0.61651892  0.21289896  0.88013045
   0.57199576  0.21263868  0.40895520
   0.38348108  0.78710104  0.11986955
   0.42800424  0.78736132  0.59104480
   0.02885841  0.18398960  0.13619080
   0.97114159  0.81601040  0.86380920
CIS                                     
           1
     6.626461    0.034980    0.109520
    -1.638751    6.574996    0.002219
    -2.212327   -2.723833   12.179685
   K    Sb   Se
   4   4   8
Direct configuration=    33
   0.56493176  0.31723143  0.15543775
   0.90760748  0.72941447  0.58598960
   0.43506824  0.68276857  0.84456225
   0.09239252  0.27058553  0.41401040
   0.41635023  0.81315820  0.34823258
   0.01507502  0.21288758  0.91314008
   0.98492498  0.78711242  0.08685992
   0.58364977  0.18684180  0.65176742
   0.00879647  0.75737212  0.32315155
   0.99120353  0.24262788  0.67684845
   0.61640784  0.21302479  0.88009847
   0.57175108  0.21274817  0.40895561
   0.38359216  0.78697521  0.11990153
   0.42824892  0.78725183  0.59104439
   0.02899367  0.18408535  0.13619620
   0.97100633  0.81591465  0.86380380
CIS                                     
           1
     6.626059    0.042788    0.113212
    -1.630996    6.578186    0.006825
    -2.208418   -2.718252   12.165904
   K    Sb   Se
   4   4   8
Direct configuration=    34
   0.56520893  0.31671552  0.15554084
   0.90862052  0.72987428  0.58634330
   0.43479107  0.68328448  0.84445916
   0.09137948  0.27012572  0.41365670
   0.41699603  0.81328399  0.34872481
   0.01458642  0.21235764  0.91308548
   0.98541358  0.78764236  0.08691452
   0.58300397  0.18671601  0.65127519
   0.00865675  0.75710483  0.32300149
   0.99134325  0.24289517  0.67699851
   0.61610140  0.21337189  0.88001020
   0.57107625  0.21305036  0.40895676
   0.38389860  0.78662811  0.11998980
   0.42892375  0.78694964  0.59104324
   0.02936649  0.18434918  0.13621103
   0.97063351  0.81565082  0.86378897
CIS                                     
           1
     6.625255    0.058405    0.120597
    -1.615485    6.584565    0.016038
    -2.200599   -2.707090   12.138342
   K    Sb   Se
   4   4   8
Direct configuration=    35
   0.56576451  0.31568353  0.15574747
   0.91064433  0.73079041  0.58705056
   0.43423549  0.68431647  0.84425253
   0.08935567  0.26920959  0.41294944
   0.41828649  0.81353335  0.34970992
   0.01361113  0.21129974  0.91297682
   0.98638887  0.78870026  0.08702318
   0.58171351  0.18646665  0.65029008
   0.00837825  0.75657108  0.32270133
   0.99162175  0.24342892  0.67729867
   0.61548778  0.21406651  0.87983341
   0.56972620  0.21365612  0.40895926
   0.38451222  0.78593349  0.12016659
   0.43027380  0.78634388  0.59104074
   0.03011109  0.18487552  0.13624032
   0.96988891  0.81512448  0.86375968
CIS                                     
           1
     6.625879    0.046289    0.114867
    -1.627519    6.579616    0.008890
    -2.206665   -2.715750   12.159726
   K    Sb   Se
   4   4   8
Direct configuration=    36
   0.56533156  0.31648444  0.15558647
   0.90907767  0.73008503  0.58650204
   0.43466844  0.68351556  0.84441353
   0.09092233  0.26991497  0.41349796
   0.41728703  0.81334331  0.34894463
   0.01436485  0.21211745  0.91306026
   0.98563515  0.78788255  0.08693974
   0.58271297  0.18665669  0.65105537
   0.00859283  0.75698394  0.32293431
   0.99140717  0.24301606  0.67706569
   0.61596499  0.21352691  0.87997099
   0.57077424  0.21318399  0.40895703
   0.38403501  0.78647309  0.12002901
   0.42922576  0.78681601  0.59104297
   0.02953500  0.18446919  0.13621819
   0.97046500  0.81553081  0.86378181