  26  26   1   0
  0.2768002E+02  0.7114382E-09  0.9287037E-09  0.1128537E-08  0.1000000E-15
  1.000000000000000E-004
  CAR 
 CIS                                     
      8.12295321    -11.25407233  301      3.60568413      1.00000000
    -11.254  0.0000E+00  0.0000E+00
    -11.189  0.0000E+00  0.0000E+00
    -11.125  0.0000E+00  0.0000E+00
    -11.060  0.0000E+00  0.0000E+00
    -10.996  0.0000E+00  0.0000E+00
    -10.931  0.0000E+00  0.0000E+00
    -10.867  0.0000E+00  0.0000E+00
    -10.802  0.0000E+00  0.0000E+00
    -10.737  0.0000E+00  0.0000E+00
    -10.673  0.0000E+00  0.0000E+00
    -10.608  0.8008E-12  0.5173E-13
    -10.544  0.3833E-07  0.2476E-08
    -10.479  0.7500E-04  0.4847E-05
    -10.414  0.7230E-02  0.4718E-03
    -10.350  0.5198E-01  0.3829E-02
    -10.285  0.4394E-01  0.6667E-02
    -10.221  0.5314E-01  0.1010E-01
    -10.156  0.1228E+00  0.1803E-01
    -10.091  0.1062E+00  0.2489E-01
    -10.027  0.9288E-01  0.3089E-01
     -9.962  0.9288E-01  0.3689E-01
     -9.898  0.4980E-01  0.4010E-01
     -9.833  0.1036E-01  0.4077E-01
     -9.769  0.5589E-01  0.4438E-01
     -9.704  0.5603E-01  0.4800E-01
     -9.639  0.1321E+00  0.5653E-01
     -9.575  0.1464E+00  0.6599E-01
     -9.510  0.1197E+00  0.7372E-01
     -9.446  0.1766E+00  0.8512E-01
     -9.381  0.1471E+00  0.9462E-01
     -9.316  0.9240E-01  0.1006E+00
     -9.252  0.1497E+00  0.1103E+00
     -9.187  0.1377E+00  0.1192E+00
     -9.123  0.1809E+00  0.1308E+00
     -9.058  0.2384E+00  0.1462E+00
     -8.993  0.2422E+00  0.1619E+00
     -8.929  0.2741E+00  0.1796E+00
     -8.864  0.4189E+00  0.2066E+00
     -8.800  0.4891E+00  0.2382E+00
     -8.735  0.4129E+00  0.2649E+00
     -8.670  0.2200E+00  0.2791E+00
     -8.606  0.5456E-01  0.2826E+00
     -8.541  0.2918E-02  0.2828E+00
     -8.477  0.1092E-04  0.2828E+00
     -8.412  0.1910E-08  0.2828E+00
     -8.348  0.1368E-13  0.2828E+00
     -8.283  0.0000E+00  0.2828E+00
     -8.218  0.0000E+00  0.2828E+00
     -8.154  0.0000E+00  0.2828E+00
     -8.089  0.0000E+00  0.2828E+00
     -8.025  0.0000E+00  0.2828E+00
     -7.960  0.0000E+00  0.2828E+00
     -7.895  0.0000E+00  0.2828E+00
     -7.831  0.0000E+00  0.2828E+00
     -7.766  0.0000E+00  0.2828E+00
     -7.702  0.0000E+00  0.2828E+00
     -7.637  0.0000E+00  0.2828E+00
     -7.572  0.0000E+00  0.2828E+00
     -7.508  0.0000E+00  0.2828E+00
     -7.443  0.0000E+00  0.2828E+00
     -7.379  0.0000E+00  0.2828E+00
     -7.314  0.0000E+00  0.2828E+00
     -7.249  0.0000E+00  0.2828E+00
     -7.185  0.0000E+00  0.2828E+00
     -7.120  0.0000E+00  0.2828E+00
     -7.056  0.0000E+00  0.2828E+00
     -6.991  0.0000E+00  0.2828E+00
     -6.927  0.0000E+00  0.2828E+00
     -6.862  0.0000E+00  0.2828E+00
     -6.797  0.0000E+00  0.2828E+00
     -6.733  0.0000E+00  0.2828E+00
     -6.668  0.0000E+00  0.2828E+00
     -6.604  0.0000E+00  0.2828E+00
     -6.539  0.0000E+00  0.2828E+00
     -6.474  0.0000E+00  0.2828E+00
     -6.410  0.0000E+00  0.2828E+00
     -6.345  0.0000E+00  0.2828E+00
     -6.281  0.0000E+00  0.2828E+00
     -6.216  0.0000E+00  0.2828E+00
     -6.151  0.1418E-15  0.2828E+00
     -6.087  0.5533E-10  0.2828E+00
     -6.022  0.8311E-06  0.2828E+00
     -5.958  0.5328E-03  0.2829E+00
     -5.893  0.1922E-01  0.2841E+00
     -5.829  0.8303E-01  0.2895E+00
     -5.764  0.1573E+00  0.2996E+00
     -5.699  0.1120E+00  0.3069E+00
     -5.635  0.1026E+00  0.3135E+00
     -5.570  0.1645E+00  0.3241E+00
     -5.506  0.1422E+00  0.3333E+00
     -5.441  0.2051E+00  0.3465E+00
     -5.376  0.2007E+00  0.3595E+00
     -5.312  0.1517E+00  0.3693E+00
     -5.247  0.9405E-01  0.3754E+00
     -5.183  0.7380E-01  0.3801E+00
     -5.118  0.9297E-01  0.3861E+00
     -5.053  0.7532E-01  0.3910E+00
     -4.989  0.7357E-01  0.3958E+00
     -4.924  0.4125E-01  0.3984E+00
     -4.860  0.6599E-01  0.4027E+00
     -4.795  0.5316E-01  0.4061E+00
     -4.730  0.9769E-01  0.4124E+00
     -4.666  0.7302E-01  0.4171E+00
     -4.601  0.8205E-01  0.4224E+00
     -4.537  0.7029E-01  0.4270E+00
     -4.472  0.5351E-01  0.4304E+00
     -4.408  0.4807E-01  0.4336E+00
     -4.343  0.5411E-01  0.4370E+00
     -4.278  0.1284E-01  0.4379E+00
     -4.214  0.3621E-01  0.4402E+00
     -4.149  0.5461E-01  0.4437E+00
     -4.085  0.1071E-01  0.4444E+00
     -4.020  0.1738E-03  0.4444E+00
     -3.955  0.1428E-06  0.4444E+00
     -3.891  0.4832E-11  0.4444E+00
     -3.826  0.5787E-17  0.4444E+00
     -3.762  0.0000E+00  0.4444E+00
     -3.697  0.0000E+00  0.4444E+00
     -3.632  0.0000E+00  0.4444E+00
     -3.568  0.0000E+00  0.4444E+00
     -3.503  0.0000E+00  0.4444E+00
     -3.439  0.0000E+00  0.4444E+00
     -3.374  0.0000E+00  0.4444E+00
     -3.309  0.0000E+00  0.4444E+00
     -3.245  0.0000E+00  0.4444E+00
     -3.180  0.0000E+00  0.4444E+00
     -3.116  0.0000E+00  0.4444E+00
     -3.051  0.0000E+00  0.4444E+00
     -2.987  0.0000E+00  0.4444E+00
     -2.922  0.0000E+00  0.4444E+00
     -2.857  0.0000E+00  0.4444E+00
     -2.793  0.0000E+00  0.4444E+00
     -2.728  0.0000E+00  0.4444E+00
     -2.664  0.0000E+00  0.4444E+00
     -2.599  0.0000E+00  0.4444E+00
     -2.534  0.0000E+00  0.4444E+00
     -2.470  0.0000E+00  0.4444E+00
     -2.405  0.0000E+00  0.4444E+00
     -2.341  0.0000E+00  0.4444E+00
     -2.276  0.0000E+00  0.4444E+00
     -2.211  0.0000E+00  0.4444E+00
     -2.147  0.0000E+00  0.4444E+00
     -2.082  0.0000E+00  0.4444E+00
     -2.018  0.0000E+00  0.4444E+00
     -1.953  0.0000E+00  0.4444E+00
     -1.889  0.4919E-16  0.4444E+00
     -1.824  0.2876E-10  0.4444E+00
     -1.759  0.6502E-06  0.4444E+00
     -1.695  0.6358E-03  0.4445E+00
     -1.630  0.3320E-01  0.4466E+00
     -1.566  0.1361E+00  0.4554E+00
     -1.501  0.9876E-01  0.4618E+00
     -1.436  0.9997E-01  0.4683E+00
     -1.372  0.8537E-01  0.4738E+00
     -1.307  0.5157E-01  0.4771E+00
     -1.243  0.8703E-01  0.4827E+00
     -1.178  0.9420E-01  0.4888E+00
     -1.113  0.1859E+00  0.5008E+00
     -1.049  0.2272E+00  0.5155E+00
     -0.984  0.2055E+00  0.5288E+00
     -0.920  0.1087E+00  0.5358E+00
     -0.855  0.5009E-01  0.5390E+00
     -0.790  0.5172E-01  0.5424E+00
     -0.726  0.1499E+00  0.5521E+00
     -0.661  0.2144E+00  0.5659E+00
     -0.597  0.9002E-01  0.5717E+00
     -0.532  0.7997E-01  0.5769E+00
     -0.468  0.8127E-01  0.5821E+00
     -0.403  0.1905E+00  0.5944E+00
     -0.338  0.1576E+00  0.6046E+00
     -0.274  0.1199E+00  0.6124E+00
     -0.209  0.1664E+00  0.6231E+00
     -0.145  0.1804E+00  0.6348E+00
     -0.080  0.1840E+00  0.6466E+00
     -0.015  0.1831E+00  0.6585E+00
      0.049  0.2053E+00  0.6717E+00
      0.114  0.2018E+00  0.6848E+00
      0.178  0.2103E+00  0.6984E+00
      0.243  0.1540E+00  0.7083E+00
      0.308  0.1556E+00  0.7183E+00
      0.372  0.1559E+00  0.7284E+00
      0.437  0.2666E+00  0.7456E+00
      0.501  0.2208E+00  0.7599E+00
      0.566  0.1969E+00  0.7726E+00
      0.631  0.2474E+00  0.7886E+00
      0.695  0.2026E+00  0.8017E+00
      0.760  0.1528E+00  0.8116E+00
      0.824  0.2502E+00  0.8277E+00
      0.889  0.3146E+00  0.8480E+00
      0.953  0.2039E+00  0.8612E+00
      1.018  0.1365E+00  0.8700E+00
      1.083  0.2527E+00  0.8863E+00
      1.147  0.2422E+00  0.9020E+00
      1.212  0.1160E+00  0.9095E+00
      1.276  0.1846E+00  0.9214E+00
      1.341  0.1975E+00  0.9342E+00
      1.406  0.1899E+00  0.9464E+00
      1.470  0.1917E+00  0.9588E+00
      1.535  0.1132E+00  0.9661E+00
      1.599  0.1074E+00  0.9731E+00
      1.664  0.1501E+00  0.9828E+00
      1.729  0.1560E+00  0.9928E+00
      1.793  0.2007E+00  0.1006E+01
      1.858  0.2039E+00  0.1019E+01
      1.922  0.3395E+00  0.1041E+01
      1.987  0.3520E+00  0.1064E+01
      2.051  0.2676E+00  0.1081E+01
      2.116  0.2943E+00  0.1100E+01
      2.181  0.1777E+00  0.1111E+01
      2.245  0.2267E+00  0.1126E+01
      2.310  0.3477E+00  0.1148E+01
      2.374  0.2491E+00  0.1165E+01
      2.439  0.2162E+00  0.1179E+01
      2.504  0.9417E-01  0.1185E+01
      2.568  0.7965E-01  0.1190E+01
      2.633  0.1827E+00  0.1202E+01
      2.697  0.8012E-01  0.1207E+01
      2.762  0.1453E+00  0.1216E+01
      2.827  0.1744E+00  0.1227E+01
      2.891  0.1653E+00  0.1238E+01
      2.956  0.1965E+00  0.1251E+01
      3.020  0.1226E+00  0.1259E+01
      3.085  0.1958E+00  0.1271E+01
      3.150  0.1682E+00  0.1282E+01
      3.214  0.9201E-01  0.1288E+01
      3.279  0.2203E-01  0.1290E+01
      3.343  0.1764E-01  0.1291E+01
      3.408  0.3034E-01  0.1293E+01
      3.472  0.4088E-02  0.1293E+01
      3.537  0.3130E-04  0.1293E+01
      3.602  0.1062E-07  0.1293E+01
      3.666  0.1431E-12  0.1293E+01
      3.731  0.0000E+00  0.1293E+01
      3.795  0.0000E+00  0.1293E+01
      3.860  0.0000E+00  0.1293E+01
      3.925  0.0000E+00  0.1293E+01
      3.989  0.0000E+00  0.1293E+01
      4.054  0.7563E-12  0.1293E+01
      4.118  0.3657E-07  0.1293E+01
      4.183  0.7108E-04  0.1293E+01
      4.248  0.6453E-02  0.1293E+01
      4.312  0.4345E-01  0.1296E+01
      4.377  0.5455E-01  0.1300E+01
      4.441  0.4141E-01  0.1302E+01
      4.506  0.1026E-01  0.1303E+01
      4.570  0.2178E-02  0.1303E+01
      4.635  0.5213E-01  0.1307E+01
      4.700  0.1319E+00  0.1315E+01
      4.764  0.1698E+00  0.1326E+01
      4.829  0.1192E+00  0.1334E+01
      4.893  0.1124E+00  0.1341E+01
      4.958  0.1083E+00  0.1348E+01
      5.023  0.1568E+00  0.1358E+01
      5.087  0.1350E+00  0.1367E+01
      5.152  0.1744E+00  0.1378E+01
      5.216  0.1841E+00  0.1390E+01
      5.281  0.1823E+00  0.1402E+01
      5.346  0.1444E+00  0.1411E+01
      5.410  0.1890E+00  0.1423E+01
      5.475  0.2241E+00  0.1438E+01
      5.539  0.2043E+00  0.1451E+01
      5.604  0.1713E+00  0.1462E+01
      5.669  0.1121E+00  0.1469E+01
      5.733  0.1800E+00  0.1481E+01
      5.798  0.1593E+00  0.1491E+01
      5.862  0.1565E+00  0.1501E+01
      5.927  0.1976E+00  0.1514E+01
      5.991  0.2198E+00  0.1528E+01
      6.056  0.1975E+00  0.1541E+01
      6.121  0.1968E+00  0.1554E+01
      6.185  0.1778E+00  0.1565E+01
      6.250  0.1123E+00  0.1572E+01
      6.314  0.1952E+00  0.1585E+01
      6.379  0.1544E+00  0.1595E+01
      6.444  0.2005E+00  0.1608E+01
      6.508  0.1953E+00  0.1621E+01
      6.573  0.1130E+00  0.1628E+01
      6.637  0.9043E-01  0.1634E+01
      6.702  0.1133E+00  0.1641E+01
      6.767  0.9044E-01  0.1647E+01
      6.831  0.9179E-01  0.1653E+01
      6.896  0.8077E-01  0.1658E+01
      6.960  0.7596E-01  0.1663E+01
      7.025  0.1201E+00  0.1671E+01
      7.090  0.1404E+00  0.1680E+01
      7.154  0.1182E+00  0.1687E+01
      7.219  0.8563E-01  0.1693E+01
      7.283  0.5515E-01  0.1696E+01
      7.348  0.7277E-02  0.1697E+01
      7.412  0.7514E-04  0.1697E+01
      7.477  0.3835E-07  0.1697E+01
      7.542  0.8009E-12  0.1697E+01
      7.606  0.0000E+00  0.1697E+01
      7.671  0.0000E+00  0.1697E+01
      7.735  0.0000E+00  0.1697E+01
      7.800  0.0000E+00  0.1697E+01
      7.865  0.0000E+00  0.1697E+01
      7.929  0.0000E+00  0.1697E+01
      7.994  0.0000E+00  0.1697E+01
      8.058  0.0000E+00  0.1697E+01
      8.123  0.0000E+00  0.1697E+01
      8.12295321    -11.25407233  301      3.60568413      1.00000000
    -11.254  0.0000E+00  0.0000E+00  0.0000E+00
    -11.189  0.0000E+00  0.0000E+00  0.0000E+00
    -11.125  0.0000E+00  0.0000E+00  0.0000E+00
    -11.060  0.0000E+00  0.0000E+00  0.0000E+00
    -10.996  0.0000E+00  0.0000E+00  0.0000E+00
    -10.931  0.0000E+00  0.0000E+00  0.0000E+00
    -10.867  0.0000E+00  0.0000E+00  0.0000E+00
    -10.802  0.0000E+00  0.0000E+00  0.0000E+00
    -10.737  0.0000E+00  0.0000E+00  0.0000E+00
    -10.673  0.0000E+00  0.0000E+00  0.0000E+00
    -10.608  0.1921E-13  0.2155E-14  0.0000E+00
    -10.544  0.9194E-09  0.1034E-09  0.0000E+00
    -10.479  0.1799E-05  0.2045E-06  0.0000E+00
    -10.414  0.1733E-03  0.2060E-04  0.0000E+00
    -10.350  0.1245E-02  0.1644E-03  0.0000E+00
    -10.285  0.1038E-02  0.1633E-03  0.0000E+00
    -10.221  0.9374E-03  0.3335E-03  0.0000E+00
    -10.156  0.1686E-02  0.8181E-03  0.0000E+00
    -10.091  0.8852E-03  0.8368E-03  0.0000E+00
    -10.027  0.6661E-03  0.6984E-03  0.0000E+00
     -9.962  0.4726E-03  0.7099E-03  0.0000E+00
     -9.898  0.1387E-03  0.4082E-03  0.0000E+00
     -9.833  0.4158E-04  0.1667E-03  0.0000E+00
     -9.769  0.3354E-03  0.1263E-02  0.0000E+00
     -9.704  0.6119E-03  0.1068E-02  0.0000E+00
     -9.639  0.2889E-02  0.1269E-02  0.0000E+00
     -9.575  0.2959E-02  0.1699E-02  0.0000E+00
     -9.510  0.1764E-02  0.2624E-02  0.0000E+00
     -9.446  0.2452E-02  0.2164E-02  0.0000E+00
     -9.381  0.1686E-02  0.1242E-02  0.0000E+00
     -9.316  0.1120E-02  0.1356E-02  0.0000E+00
     -9.252  0.1614E-02  0.2496E-02  0.0000E+00
     -9.187  0.4027E-03  0.1769E-02  0.0000E+00
     -9.123  0.2955E-03  0.1919E-02  0.0000E+00
     -9.058  0.1080E-02  0.3326E-02  0.0000E+00
     -8.993  0.1378E-02  0.4514E-02  0.0000E+00
     -8.929  0.1980E-02  0.6199E-02  0.0000E+00
     -8.864  0.5309E-02  0.7043E-02  0.0000E+00
     -8.800  0.4855E-02  0.9262E-02  0.0000E+00
     -8.735  0.4797E-02  0.9637E-02  0.0000E+00
     -8.670  0.2551E-02  0.4647E-02  0.0000E+00
     -8.606  0.2792E-03  0.7410E-03  0.0000E+00
     -8.541  0.8807E-05  0.3471E-04  0.0000E+00
     -8.477  0.3145E-07  0.1348E-06  0.0000E+00
     -8.412  0.5541E-11  0.2433E-10  0.0000E+00
     -8.348  0.3990E-16  0.1772E-15  0.0000E+00
     -8.283  0.0000E+00  0.0000E+00  0.0000E+00
     -8.218  0.0000E+00  0.0000E+00  0.0000E+00
     -8.154  0.0000E+00  0.0000E+00  0.0000E+00
     -8.089  0.0000E+00  0.0000E+00  0.0000E+00
     -8.025  0.0000E+00  0.0000E+00  0.0000E+00
     -7.960  0.0000E+00  0.0000E+00  0.0000E+00
     -7.895  0.0000E+00  0.0000E+00  0.0000E+00
     -7.831  0.0000E+00  0.0000E+00  0.0000E+00
     -7.766  0.0000E+00  0.0000E+00  0.0000E+00
     -7.702  0.0000E+00  0.0000E+00  0.0000E+00
     -7.637  0.0000E+00  0.0000E+00  0.0000E+00
     -7.572  0.0000E+00  0.0000E+00  0.0000E+00
     -7.508  0.0000E+00  0.0000E+00  0.0000E+00
     -7.443  0.0000E+00  0.0000E+00  0.0000E+00
     -7.379  0.0000E+00  0.0000E+00  0.0000E+00
     -7.314  0.0000E+00  0.0000E+00  0.0000E+00
     -7.249  0.0000E+00  0.0000E+00  0.0000E+00
     -7.185  0.0000E+00  0.0000E+00  0.0000E+00
     -7.120  0.0000E+00  0.0000E+00  0.0000E+00
     -7.056  0.0000E+00  0.0000E+00  0.0000E+00
     -6.991  0.0000E+00  0.0000E+00  0.0000E+00
     -6.927  0.0000E+00  0.0000E+00  0.0000E+00
     -6.862  0.0000E+00  0.0000E+00  0.0000E+00
     -6.797  0.0000E+00  0.0000E+00  0.0000E+00
     -6.733  0.0000E+00  0.0000E+00  0.0000E+00
     -6.668  0.0000E+00  0.0000E+00  0.0000E+00
     -6.604  0.0000E+00  0.0000E+00  0.0000E+00
     -6.539  0.0000E+00  0.0000E+00  0.0000E+00
     -6.474  0.0000E+00  0.0000E+00  0.0000E+00
     -6.410  0.0000E+00  0.0000E+00  0.0000E+00
     -6.345  0.0000E+00  0.0000E+00  0.0000E+00
     -6.281  0.0000E+00  0.0000E+00  0.0000E+00
     -6.216  0.0000E+00  0.0000E+00  0.0000E+00
     -6.151  0.2609E-18  0.7100E-18  0.0000E+00
     -6.087  0.1018E-12  0.2770E-12  0.0000E+00
     -6.022  0.1525E-08  0.4156E-08  0.0000E+00
     -5.958  0.9660E-06  0.2651E-05  0.0000E+00
     -5.893  0.3348E-04  0.9361E-04  0.0000E+00
     -5.829  0.1614E-03  0.3800E-03  0.0000E+00
     -5.764  0.4402E-03  0.6653E-03  0.0000E+00
     -5.699  0.3746E-03  0.4641E-03  0.0000E+00
     -5.635  0.3932E-03  0.3788E-03  0.0000E+00
     -5.570  0.3370E-03  0.6458E-03  0.0000E+00
     -5.506  0.3409E-03  0.7695E-03  0.0000E+00
     -5.441  0.5344E-03  0.1097E-02  0.0000E+00
     -5.376  0.6896E-03  0.1198E-02  0.0000E+00
     -5.312  0.7087E-03  0.1012E-02  0.0000E+00
     -5.247  0.5316E-03  0.5342E-03  0.0000E+00
     -5.183  0.1888E-03  0.6076E-03  0.0000E+00
     -5.118  0.2847E-03  0.6888E-03  0.0000E+00
     -5.053  0.4892E-03  0.5712E-03  0.0000E+00
     -4.989  0.5534E-03  0.7840E-03  0.0000E+00
     -4.924  0.1799E-03  0.4565E-03  0.0000E+00
     -4.860  0.2437E-04  0.7094E-03  0.0000E+00
     -4.795  0.3837E-04  0.4276E-03  0.0000E+00
     -4.730  0.1401E-03  0.6537E-03  0.0000E+00
     -4.666  0.3410E-03  0.5737E-03  0.0000E+00
     -4.601  0.1108E-02  0.7293E-03  0.0000E+00
     -4.537  0.6290E-03  0.4784E-03  0.0000E+00
     -4.472  0.9266E-03  0.4082E-03  0.0000E+00
     -4.408  0.1367E-02  0.5202E-03  0.0000E+00
     -4.343  0.1663E-02  0.5907E-03  0.0000E+00
     -4.278  0.4599E-03  0.1322E-03  0.0000E+00
     -4.214  0.1913E-02  0.3318E-03  0.0000E+00
     -4.149  0.2932E-02  0.4832E-03  0.0000E+00
     -4.085  0.5818E-03  0.9224E-04  0.0000E+00
     -4.020  0.9470E-05  0.1483E-05  0.0000E+00
     -3.955  0.7788E-08  0.1216E-08  0.0000E+00
     -3.891  0.2635E-12  0.4115E-13  0.0000E+00
     -3.826  0.3157E-18  0.4929E-19  0.0000E+00
     -3.762  0.0000E+00  0.0000E+00  0.0000E+00
     -3.697  0.0000E+00  0.0000E+00  0.0000E+00
     -3.632  0.0000E+00  0.0000E+00  0.0000E+00
     -3.568  0.0000E+00  0.0000E+00  0.0000E+00
     -3.503  0.0000E+00  0.0000E+00  0.0000E+00
     -3.439  0.0000E+00  0.0000E+00  0.0000E+00
     -3.374  0.0000E+00  0.0000E+00  0.0000E+00
     -3.309  0.0000E+00  0.0000E+00  0.0000E+00
     -3.245  0.0000E+00  0.0000E+00  0.0000E+00
     -3.180  0.0000E+00  0.0000E+00  0.0000E+00
     -3.116  0.0000E+00  0.0000E+00  0.0000E+00
     -3.051  0.0000E+00  0.0000E+00  0.0000E+00
     -2.987  0.0000E+00  0.0000E+00  0.0000E+00
     -2.922  0.0000E+00  0.0000E+00  0.0000E+00
     -2.857  0.0000E+00  0.0000E+00  0.0000E+00
     -2.793  0.0000E+00  0.0000E+00  0.0000E+00
     -2.728  0.0000E+00  0.0000E+00  0.0000E+00
     -2.664  0.0000E+00  0.0000E+00  0.0000E+00
     -2.599  0.0000E+00  0.0000E+00  0.0000E+00
     -2.534  0.0000E+00  0.0000E+00  0.0000E+00
     -2.470  0.0000E+00  0.0000E+00  0.0000E+00
     -2.405  0.0000E+00  0.0000E+00  0.0000E+00
     -2.341  0.0000E+00  0.0000E+00  0.0000E+00
     -2.276  0.0000E+00  0.0000E+00  0.0000E+00
     -2.211  0.0000E+00  0.0000E+00  0.0000E+00
     -2.147  0.0000E+00  0.0000E+00  0.0000E+00
     -2.082  0.0000E+00  0.0000E+00  0.0000E+00
     -2.018  0.0000E+00  0.0000E+00  0.0000E+00
     -1.953  0.0000E+00  0.0000E+00  0.0000E+00
     -1.889  0.5762E-18  0.3281E-17  0.0000E+00
     -1.824  0.3203E-12  0.1924E-11  0.0000E+00
     -1.759  0.6983E-08  0.4348E-07  0.0000E+00
     -1.695  0.6429E-05  0.4233E-04  0.0000E+00
     -1.630  0.3050E-03  0.2186E-02  0.0000E+00
     -1.566  0.1226E-02  0.8838E-02  0.0000E+00
     -1.501  0.1456E-02  0.7188E-02  0.0000E+00
     -1.436  0.1399E-02  0.1024E-01  0.0000E+00
     -1.372  0.1195E-02  0.9124E-02  0.0000E+00
     -1.307  0.4872E-03  0.3369E-02  0.0000E+00
     -1.243  0.9638E-03  0.4617E-02  0.0000E+00
     -1.178  0.3063E-02  0.5202E-02  0.0000E+00
     -1.113  0.7816E-02  0.9888E-02  0.0000E+00
     -1.049  0.7864E-02  0.8503E-02  0.0000E+00
     -0.984  0.5831E-02  0.5560E-02  0.0000E+00
     -0.920  0.3769E-02  0.2939E-02  0.0000E+00
     -0.855  0.1133E-02  0.1291E-02  0.0000E+00
     -0.790  0.9753E-03  0.1727E-02  0.0000E+00
     -0.726  0.4733E-02  0.7306E-02  0.0000E+00
     -0.661  0.7193E-02  0.8938E-02  0.0000E+00
     -0.597  0.2999E-02  0.3766E-02  0.0000E+00
     -0.532  0.5544E-02  0.2652E-02  0.0000E+00
     -0.468  0.5683E-02  0.3081E-02  0.0000E+00
     -0.403  0.1486E-01  0.8900E-02  0.0000E+00
     -0.338  0.1362E-01  0.6219E-02  0.0000E+00
     -0.274  0.1084E-01  0.4871E-02  0.0000E+00
     -0.209  0.1522E-01  0.8327E-02  0.0000E+00
     -0.145  0.1467E-01  0.1097E-01  0.0000E+00
     -0.080  0.1623E-01  0.9363E-02  0.0000E+00
     -0.015  0.2003E-01  0.9896E-02  0.0000E+00
      0.049  0.1834E-01  0.1440E-01  0.0000E+00
      0.114  0.2059E-01  0.1343E-01  0.0000E+00
      0.178  0.1068E-01  0.1317E-01  0.0000E+00
      0.243  0.5199E-02  0.8816E-02  0.0000E+00
      0.308  0.6210E-02  0.7438E-02  0.0000E+00
      0.372  0.7676E-02  0.5591E-02  0.0000E+00
      0.437  0.1513E-01  0.1344E-01  0.0000E+00
      0.501  0.1076E-01  0.1671E-01  0.0000E+00
      0.566  0.1886E-01  0.1441E-01  0.0000E+00
      0.631  0.1936E-01  0.1614E-01  0.0000E+00
      0.695  0.1673E-01  0.1313E-01  0.0000E+00
      0.760  0.1906E-01  0.1111E-01  0.0000E+00
      0.824  0.2682E-01  0.2360E-01  0.0000E+00
      0.889  0.4270E-01  0.2785E-01  0.0000E+00
      0.953  0.2607E-01  0.1975E-01  0.0000E+00
      1.018  0.1506E-01  0.1225E-01  0.0000E+00
      1.083  0.3643E-01  0.2217E-01  0.0000E+00
      1.147  0.3425E-01  0.2710E-01  0.0000E+00
      1.212  0.1879E-01  0.1370E-01  0.0000E+00
      1.276  0.3124E-01  0.2699E-01  0.0000E+00
      1.341  0.3074E-01  0.2766E-01  0.0000E+00
      1.406  0.2938E-01  0.2992E-01  0.0000E+00
      1.470  0.2433E-01  0.3116E-01  0.0000E+00
      1.535  0.2099E-01  0.2274E-01  0.0000E+00
      1.599  0.2792E-01  0.1567E-01  0.0000E+00
      1.664  0.1973E-01  0.2419E-01  0.0000E+00
      1.729  0.1392E-01  0.2875E-01  0.0000E+00
      1.793  0.1268E-01  0.5272E-01  0.0000E+00
      1.858  0.1487E-01  0.4778E-01  0.0000E+00
      1.922  0.1837E-01  0.6855E-01  0.0000E+00
      1.987  0.1918E-01  0.7866E-01  0.0000E+00
      2.051  0.1347E-01  0.5776E-01  0.0000E+00
      2.116  0.1221E-01  0.6914E-01  0.0000E+00
      2.181  0.7080E-02  0.5008E-01  0.0000E+00
      2.245  0.5614E-02  0.5422E-01  0.0000E+00
      2.310  0.1427E-01  0.7000E-01  0.0000E+00
      2.374  0.1504E-01  0.4848E-01  0.0000E+00
      2.439  0.1510E-01  0.4023E-01  0.0000E+00
      2.504  0.6265E-02  0.2102E-01  0.0000E+00
      2.568  0.2093E-02  0.1482E-01  0.0000E+00
      2.633  0.4224E-02  0.3020E-01  0.0000E+00
      2.697  0.1870E-02  0.1162E-01  0.0000E+00
      2.762  0.4414E-02  0.1343E-01  0.0000E+00
      2.827  0.3558E-02  0.1548E-01  0.0000E+00
      2.891  0.3593E-02  0.2089E-01  0.0000E+00
      2.956  0.3128E-02  0.2176E-01  0.0000E+00
      3.020  0.1429E-02  0.9538E-02  0.0000E+00
      3.085  0.1825E-02  0.9498E-02  0.0000E+00
      3.150  0.1267E-02  0.9490E-02  0.0000E+00
      3.214  0.1063E-02  0.5477E-02  0.0000E+00
      3.279  0.4889E-03  0.1125E-02  0.0000E+00
      3.343  0.1919E-03  0.4456E-03  0.0000E+00
      3.408  0.3116E-03  0.7401E-03  0.0000E+00
      3.472  0.4199E-04  0.9972E-04  0.0000E+00
      3.537  0.3215E-06  0.7636E-06  0.0000E+00
      3.602  0.1091E-09  0.2591E-09  0.0000E+00
      3.666  0.1469E-14  0.3490E-14  0.0000E+00
      3.731  0.0000E+00  0.0000E+00  0.0000E+00
      3.795  0.0000E+00  0.0000E+00  0.0000E+00
      3.860  0.0000E+00  0.0000E+00  0.0000E+00
      3.925  0.0000E+00  0.0000E+00  0.0000E+00
      3.989  0.0000E+00  0.0000E+00  0.0000E+00
      4.054  0.3915E-14  0.1098E-12  0.0000E+00
      4.118  0.1895E-09  0.5309E-08  0.0000E+00
      4.183  0.3737E-06  0.1032E-04  0.0000E+00
      4.248  0.3930E-04  0.9411E-03  0.0000E+00
      4.312  0.5088E-03  0.6515E-02  0.0000E+00
      4.377  0.1119E-02  0.8099E-02  0.0000E+00
      4.441  0.2855E-03  0.4266E-02  0.0000E+00
      4.506  0.1518E-04  0.9116E-03  0.0000E+00
      4.570  0.3807E-04  0.1470E-03  0.0000E+00
      4.635  0.9035E-03  0.3615E-02  0.0000E+00
      4.700  0.2103E-02  0.1040E-01  0.0000E+00
      4.764  0.5187E-02  0.1686E-01  0.0000E+00
      4.829  0.6452E-02  0.1345E-01  0.0000E+00
      4.893  0.9102E-02  0.1462E-01  0.0000E+00
      4.958  0.7479E-02  0.1708E-01  0.0000E+00
      5.023  0.1125E-01  0.2337E-01  0.0000E+00
      5.087  0.7051E-02  0.1355E-01  0.0000E+00
      5.152  0.9460E-02  0.1602E-01  0.0000E+00
      5.216  0.1722E-01  0.1508E-01  0.0000E+00
      5.281  0.1899E-01  0.1666E-01  0.0000E+00
      5.346  0.1190E-01  0.1820E-01  0.0000E+00
      5.410  0.1511E-01  0.3511E-01  0.0000E+00
      5.475  0.1823E-01  0.3757E-01  0.0000E+00
      5.539  0.1463E-01  0.3779E-01  0.0000E+00
      5.604  0.6544E-02  0.2991E-01  0.0000E+00
      5.669  0.1127E-01  0.1562E-01  0.0000E+00
      5.733  0.2435E-01  0.2296E-01  0.0000E+00
      5.798  0.2841E-01  0.1843E-01  0.0000E+00
      5.862  0.2519E-01  0.2409E-01  0.0000E+00
      5.927  0.2425E-01  0.3158E-01  0.0000E+00
      5.991  0.1757E-01  0.3883E-01  0.0000E+00
      6.056  0.1737E-01  0.3404E-01  0.0000E+00
      6.121  0.1944E-01  0.4007E-01  0.0000E+00
      6.185  0.1974E-01  0.3564E-01  0.0000E+00
      6.250  0.1085E-01  0.1700E-01  0.0000E+00
      6.314  0.9729E-02  0.3105E-01  0.0000E+00
      6.379  0.1325E-01  0.2417E-01  0.0000E+00
      6.444  0.1956E-01  0.2287E-01  0.0000E+00
      6.508  0.1711E-01  0.2062E-01  0.0000E+00
      6.573  0.9308E-02  0.1309E-01  0.0000E+00
      6.637  0.8880E-02  0.1554E-01  0.0000E+00
      6.702  0.8201E-02  0.2288E-01  0.0000E+00
      6.767  0.7062E-02  0.1757E-01  0.0000E+00
      6.831  0.4132E-02  0.1545E-01  0.0000E+00
      6.896  0.2524E-02  0.1563E-01  0.0000E+00
      6.960  0.3174E-02  0.1204E-01  0.0000E+00
      7.025  0.5938E-02  0.1313E-01  0.0000E+00
      7.090  0.9068E-02  0.1936E-01  0.0000E+00
      7.154  0.1038E-01  0.3092E-01  0.0000E+00
      7.219  0.6576E-02  0.2520E-01  0.0000E+00
      7.283  0.1470E-02  0.2078E-01  0.0000E+00
      7.348  0.1675E-03  0.3137E-02  0.0000E+00
      7.412  0.1830E-05  0.3377E-04  0.0000E+00
      7.477  0.9490E-09  0.1740E-07  0.0000E+00
      7.542  0.1988E-13  0.3642E-12  0.0000E+00
      7.606  0.0000E+00  0.0000E+00  0.0000E+00
      7.671  0.0000E+00  0.0000E+00  0.0000E+00
      7.735  0.0000E+00  0.0000E+00  0.0000E+00
      7.800  0.0000E+00  0.0000E+00  0.0000E+00
      7.865  0.0000E+00  0.0000E+00  0.0000E+00
      7.929  0.0000E+00  0.0000E+00  0.0000E+00
      7.994  0.0000E+00  0.0000E+00  0.0000E+00
      8.058  0.0000E+00  0.0000E+00  0.0000E+00
      8.123  0.0000E+00  0.0000E+00  0.0000E+00
      8.12295321    -11.25407233  301      3.60568413      1.00000000
    -11.254  0.0000E+00  0.0000E+00  0.0000E+00
    -11.189  0.0000E+00  0.0000E+00  0.0000E+00
    -11.125  0.0000E+00  0.0000E+00  0.0000E+00
    -11.060  0.0000E+00  0.0000E+00  0.0000E+00
    -10.996  0.0000E+00  0.0000E+00  0.0000E+00
    -10.931  0.0000E+00  0.0000E+00  0.0000E+00
    -10.867  0.0000E+00  0.0000E+00  0.0000E+00
    -10.802  0.0000E+00  0.0000E+00  0.0000E+00
    -10.737  0.0000E+00  0.0000E+00  0.0000E+00
    -10.673  0.0000E+00  0.0000E+00  0.0000E+00
    -10.608  0.1526E-13  0.5136E-14  0.0000E+00
    -10.544  0.7307E-09  0.2455E-09  0.0000E+00
    -10.479  0.1431E-05  0.4774E-06  0.0000E+00
    -10.414  0.1385E-03  0.4479E-04  0.0000E+00
    -10.350  0.1005E-02  0.2998E-03  0.0000E+00
    -10.285  0.8554E-03  0.2343E-03  0.0000E+00
    -10.221  0.9189E-03  0.3807E-03  0.0000E+00
    -10.156  0.1814E-02  0.9396E-03  0.0000E+00
    -10.091  0.1239E-02  0.6997E-03  0.0000E+00
    -10.027  0.7436E-03  0.6640E-03  0.0000E+00
     -9.962  0.7675E-03  0.6360E-03  0.0000E+00
     -9.898  0.2993E-03  0.2189E-03  0.0000E+00
     -9.833  0.1556E-03  0.1082E-03  0.0000E+00
     -9.769  0.1356E-02  0.9249E-03  0.0000E+00
     -9.704  0.1324E-02  0.9971E-03  0.0000E+00
     -9.639  0.2917E-02  0.2485E-02  0.0000E+00
     -9.575  0.2977E-02  0.2420E-02  0.0000E+00
     -9.510  0.1771E-02  0.1596E-02  0.0000E+00
     -9.446  0.2926E-02  0.2094E-02  0.0000E+00
     -9.381  0.2880E-02  0.2157E-02  0.0000E+00
     -9.316  0.1652E-02  0.2048E-02  0.0000E+00
     -9.252  0.2360E-02  0.2447E-02  0.0000E+00
     -9.187  0.2068E-02  0.2210E-02  0.0000E+00
     -9.123  0.1823E-02  0.3780E-02  0.0000E+00
     -9.058  0.2567E-02  0.3304E-02  0.0000E+00
     -8.993  0.2170E-02  0.4758E-02  0.0000E+00
     -8.929  0.3497E-02  0.6705E-02  0.0000E+00
     -8.864  0.6146E-02  0.1118E-01  0.0000E+00
     -8.800  0.6250E-02  0.1365E-01  0.0000E+00
     -8.735  0.2949E-02  0.1256E-01  0.0000E+00
     -8.670  0.1718E-02  0.7870E-02  0.0000E+00
     -8.606  0.7730E-03  0.1912E-02  0.0000E+00
     -8.541  0.4634E-04  0.1003E-03  0.0000E+00
     -8.477  0.1698E-06  0.3757E-06  0.0000E+00
     -8.412  0.2910E-10  0.6586E-10  0.0000E+00
     -8.348  0.2061E-15  0.4723E-15  0.0000E+00
     -8.283  0.0000E+00  0.0000E+00  0.0000E+00
     -8.218  0.0000E+00  0.0000E+00  0.0000E+00
     -8.154  0.0000E+00  0.0000E+00  0.0000E+00
     -8.089  0.0000E+00  0.0000E+00  0.0000E+00
     -8.025  0.0000E+00  0.0000E+00  0.0000E+00
     -7.960  0.0000E+00  0.0000E+00  0.0000E+00
     -7.895  0.0000E+00  0.0000E+00  0.0000E+00
     -7.831  0.0000E+00  0.0000E+00  0.0000E+00
     -7.766  0.0000E+00  0.0000E+00  0.0000E+00
     -7.702  0.0000E+00  0.0000E+00  0.0000E+00
     -7.637  0.0000E+00  0.0000E+00  0.0000E+00
     -7.572  0.0000E+00  0.0000E+00  0.0000E+00
     -7.508  0.0000E+00  0.0000E+00  0.0000E+00
     -7.443  0.0000E+00  0.0000E+00  0.0000E+00
     -7.379  0.0000E+00  0.0000E+00  0.0000E+00
     -7.314  0.0000E+00  0.0000E+00  0.0000E+00
     -7.249  0.0000E+00  0.0000E+00  0.0000E+00
     -7.185  0.0000E+00  0.0000E+00  0.0000E+00
     -7.120  0.0000E+00  0.0000E+00  0.0000E+00
     -7.056  0.0000E+00  0.0000E+00  0.0000E+00
     -6.991  0.0000E+00  0.0000E+00  0.0000E+00
     -6.927  0.0000E+00  0.0000E+00  0.0000E+00
     -6.862  0.0000E+00  0.0000E+00  0.0000E+00
     -6.797  0.0000E+00  0.0000E+00  0.0000E+00
     -6.733  0.0000E+00  0.0000E+00  0.0000E+00
     -6.668  0.0000E+00  0.0000E+00  0.0000E+00
     -6.604  0.0000E+00  0.0000E+00  0.0000E+00
     -6.539  0.0000E+00  0.0000E+00  0.0000E+00
     -6.474  0.0000E+00  0.0000E+00  0.0000E+00
     -6.410  0.0000E+00  0.0000E+00  0.0000E+00
     -6.345  0.0000E+00  0.0000E+00  0.0000E+00
     -6.281  0.0000E+00  0.0000E+00  0.0000E+00
     -6.216  0.0000E+00  0.0000E+00  0.0000E+00
     -6.151  0.2013E-18  0.3126E-18  0.0000E+00
     -6.087  0.7849E-13  0.1222E-12  0.0000E+00
     -6.022  0.1173E-08  0.1848E-08  0.0000E+00
     -5.958  0.7328E-06  0.1228E-05  0.0000E+00
     -5.893  0.2435E-04  0.5080E-04  0.0000E+00
     -5.829  0.1383E-03  0.2975E-03  0.0000E+00
     -5.764  0.4280E-03  0.6808E-03  0.0000E+00
     -5.699  0.2159E-03  0.4589E-03  0.0000E+00
     -5.635  0.1745E-03  0.3813E-03  0.0000E+00
     -5.570  0.3865E-03  0.5164E-03  0.0000E+00
     -5.506  0.4075E-03  0.4526E-03  0.0000E+00