 vasp.5.4.4.18Apr17-6-g9f103f2a35 (build Oct 27 2022 13:04:57) complex          
  
 executed on             LinuxIFC date 2024.07.04  12:18:47
 running on   14 total cores
 distrk:  each k-point on   14 cores,    1 groups
 distr:  one band on NCORES_PER_BAND=   1 cores,   14 groups


--------------------------------------------------------------------------------------------------------


 INCAR:
 POTCAR:    PAW_PBE Li 17Jan2003                  
 POTCAR:    PAW_PBE Sb 06Sep2000                  
 POTCAR:    PAW_PBE Se 06Sep2000                  

 ----------------------------------------------------------------------------- 
|                                                                             |
|           W    W    AA    RRRRR   N    N  II  N    N   GGGG   !!!           |
|           W    W   A  A   R    R  NN   N  II  NN   N  G    G  !!!           |
|           W    W  A    A  R    R  N N  N  II  N N  N  G       !!!           |
|           W WW W  AAAAAA  RRRRR   N  N N  II  N  N N  G  GGG   !            |
|           WW  WW  A    A  R   R   N   NN  II  N   NN  G    G                |
|           W    W  A    A  R    R  N    N  II  N    N   GGGG   !!!           |
|                                                                             |
|      For optimal performance we recommend to set                            |
|        NCORE= 4 - approx SQRT( number of cores)                             |
|      NCORE specifies how many cores store one orbital (NPAR=cpu/NCORE).     |
|      This setting can  greatly improve the performance of VASP for DFT.     |
|      The default,   NCORE=1            might be grossly inefficient         |
|      on modern multi-core architectures or massively parallel machines.     |
|      Do your own testing !!!!                                               |
|      Unfortunately you need to use the default for GW and RPA calculations. |
|      (for HF NCORE is supported but not extensively tested yet)             |
|                                                                             |
 ----------------------------------------------------------------------------- 

 POTCAR:    PAW_PBE Li 17Jan2003                  
   VRHFIN =Li: s1p0                                                             
   LEXCH  = PE                                                                  
   EATOM  =     5.3001 eV,    0.3895 Ry                                         
                                                                                
   TITEL  = PAW_PBE Li 17Jan2003                                                
   LULTRA =        F    use ultrasoft PP ?                                      
   IUNSCR =        1    unscreen: 0-lin 1-nonlin 2-no                           
   RPACOR =    1.500    partial core radius                                     
   POMASS =    7.010; ZVAL   =    1.000    mass and valenz                      
   RCORE  =    2.050    outmost cutoff radius                                   
   RWIGS  =    2.600; RWIGS  =    1.376    wigner-seitz radius (au A)           
   ENMAX  =  140.000; ENMIN  =  100.000 eV                                      
   ICORE  =        2    local potential                                         
   LCOR   =        T    correct aug charges                                     
   LPAW   =        T    paw PP                                                  
   EAUG   =  331.638                                                            
   DEXC   =    0.000                                                            
   RMAX   =    2.098    core radius for proj-oper                               
   RAUG   =    1.300    factor for augmentation sphere                          
   RDEP   =    2.094    radius for radial grids                                 
   RDEPT  =    1.810    core radius for aug-charge                              
                                                                                
   Atomic configuration                                                         
    4 entries                                                                   
     n  l   j            E        occ.                                          
     1  0  0.50       -51.8549   2.0000                                         
     2  0  0.50        -2.8742   1.0000                                         
     2  1  0.50        -1.3606   0.0000                                         
     3  2  1.50        -1.3606   0.0000                                         
   Description                                                                  
     l       E           TYP  RCUT    TYP  RCUT                                 
     0     -2.8742052     23  2.050                                             
     0     27.2116520     23  2.050                                             
     1     -1.3605826     23  2.050                                             
     2     -1.3605826     23  2.050                                             
  local pseudopotential read in
  partial core-charges read in
  partial kinetic energy density read in
  atomic valenz-charges read in
  non local Contribution for L=           0  read in
    real space projection operators read in
  non local Contribution for L=           0  read in
    real space projection operators read in
  non local Contribution for L=           1  read in
    real space projection operators read in
    PAW grid and wavefunctions read in
 
   number of l-projection  operators is LMAX  =           3
   number of lm-projection operators is LMMAX =           5
 
 POTCAR:    PAW_PBE Sb 06Sep2000                  
   VRHFIN =Sb: s2p3                                                             
   LEXCH  = PE                                                                  
   EATOM  =   149.9515 eV,   11.0211 Ry                                         
                                                                                
   TITEL  = PAW_PBE Sb 06Sep2000                                                
   LULTRA =        F    use ultrasoft PP ?                                      
   IUNSCR =        1    unscreen: 0-lin 1-nonlin 2-no                           
   RPACOR =    2.200    partial core radius                                     
   POMASS =  121.750; ZVAL   =    5.000    mass and valenz                      
   RCORE  =    2.300    outmost cutoff radius                                   
   RWIGS  =    2.980; RWIGS  =    1.577    wigner-seitz radius (au A)           
   ENMAX  =  172.069; ENMIN  =  129.052 eV                                      
   ICORE  =        3    local potential                                         
   LCOR   =        T    correct aug charges                                     
   LPAW   =        T    paw PP                                                  
   EAUG   =  380.513                                                            
   DEXC   =    0.000                                                            
   RMAX   =    2.346    core radius for proj-oper                               
   RAUG   =    1.300    factor for augmentation sphere                          
   RDEP   =    2.360    radius for radial grids                                 
   RDEPT  =    2.192    core radius for aug-charge                              
                                                                                
   Atomic configuration                                                         
   13 entries                                                                   
     n  l   j            E        occ.                                          
     1  0  0.50    -30298.2797   2.0000                                         
     2  0  0.50     -4610.2252   2.0000                                         
     2  1  1.50     -4138.3407   6.0000                                         
     3  0  0.50      -903.8815   2.0000                                         
     3  1  1.50      -750.1337   6.0000                                         
     3  2  2.50      -515.7092  10.0000                                         
     4  0  0.50      -148.8034   2.0000                                         
     4  1  1.50      -101.7581   6.0000                                         
     4  2  2.50       -33.5048  10.0000                                         
     5  0  0.50       -12.8298   2.0000                                         
     5  1  0.50        -4.8276   3.0000                                         
     5  2  1.50        -4.0817   0.0000                                         
     4  3  2.50        -4.0817   0.0000                                         
   Description                                                                  
     l       E           TYP  RCUT    TYP  RCUT                                 
     0    -12.8297861     23  2.300                                             
     0     13.6058260     23  2.300                                             
     1     -4.8275512     23  2.300                                             
     1     -0.7245443     23  2.300                                             
     2     -4.0817478     23  2.300                                             
     3     -1.3605826     23  2.300                                             
  local pseudopotential read in
  partial core-charges read in
  partial kinetic energy density read in
  atomic valenz-charges read in
  non local Contribution for L=           0  read in
    real space projection operators read in
  non local Contribution for L=           0  read in
    real space projection operators read in
  non local Contribution for L=           1  read in
    real space projection operators read in
  non local Contribution for L=           1  read in
    real space projection operators read in
  non local Contribution for L=           2  read in
    real space projection operators read in
    PAW grid and wavefunctions read in
 
   number of l-projection  operators is LMAX  =           5
   number of lm-projection operators is LMMAX =          13
 
 POTCAR:    PAW_PBE Se 06Sep2000                  
   VRHFIN =Se: s2p4                                                             
   LEXCH  = PE                                                                  
   EATOM  =   257.1286 eV,   18.8984 Ry                                         
                                                                                
   TITEL  = PAW_PBE Se 06Sep2000                                                
   LULTRA =        F    use ultrasoft PP ?                                      
   IUNSCR =        1    unscreen: 0-lin 1-nonlin 2-no                           
   RPACOR =    1.900    partial core radius                                     
   POMASS =   78.960; ZVAL   =    6.000    mass and valenz                      
   RCORE  =    2.100    outmost cutoff radius                                   
   RWIGS  =    2.200; RWIGS  =    1.164    wigner-seitz radius (au A)           
   ENMAX  =  211.555; ENMIN  =  158.666 eV                                      
   ICORE  =        3    local potential                                         
   LCOR   =        T    correct aug charges                                     
   LPAW   =        T    paw PP                                                  
   EAUG   =  446.842                                                            
   DEXC   =    0.000                                                            
   RMAX   =    2.147    core radius for proj-oper                               
   RAUG   =    1.300    factor for augmentation sphere                          
   RDEP   =    2.177    radius for radial grids                                 
   RDEPT  =    1.928    core radius for aug-charge                              
                                                                                
   Atomic configuration                                                         
   10 entries                                                                   
     n  l   j            E        occ.                                          
     1  0  0.50    -12503.4787   2.0000                                         
     2  0  0.50     -1606.9547   2.0000                                         
     2  1  1.50     -1413.3140   6.0000                                         
     3  0  0.50      -213.4885   2.0000                                         
     3  1  1.50      -152.9538   6.0000                                         
     3  2  2.50       -53.1221  10.0000                                         
     4  0  0.50       -17.2865   2.0000                                         
     4  1  0.50        -6.5110   4.0000                                         
     4  2  2.50        -6.8029   0.0000                                         
     4  3  2.50        -6.8029   0.0000                                         
   Description                                                                  
     l       E           TYP  RCUT    TYP  RCUT                                 
     0    -17.2865377     23  2.100                                             
     0    -15.3094411     23  2.100                                             
     1     -6.5110275     23  2.100                                             
     1     -0.0695192     23  2.100                                             
     2     -6.8029130     23  2.100                                             
     3     -1.3605826      7  2.100                                             
  local pseudopotential read in
  partial core-charges read in
  partial kinetic energy density read in
  atomic valenz-charges read in
  non local Contribution for L=           0  read in
    real space projection operators read in
  non local Contribution for L=           0  read in
    real space projection operators read in
  non local Contribution for L=           1  read in
    real space projection operators read in
  non local Contribution for L=           1  read in
    real space projection operators read in
  non local Contribution for L=           2  read in
    real space projection operators read in
    PAW grid and wavefunctions read in
 
   number of l-projection  operators is LMAX  =           5
   number of lm-projection operators is LMMAX =          13
 
 Optimization of the real space projectors (new method)

 maximal supplied QI-value         = 18.33
 optimisation between [QCUT,QGAM] = [  8.80, 17.60] = [ 21.68, 86.71] Ry 
 Optimized for a Real-space Cutoff    1.15 Angstroem

   l    n(q)    QCUT    max X(q) W(low)/X(q) W(high)/X(q)  e(spline) 
   0      6     8.799    33.825    0.11E-02    0.11E-02    0.82E-07
   0      6     8.799     8.944    0.75E-03    0.85E-03    0.59E-07
   1      5     8.799     4.214    0.92E-03    0.27E-03    0.41E-07
 Optimization of the real space projectors (new method)

 maximal supplied QI-value         = 16.25
 optimisation between [QCUT,QGAM] = [  8.78, 17.71] = [ 21.57, 87.87] Ry 
 Optimized for a Real-space Cutoff    1.26 Angstroem

   l    n(q)    QCUT    max X(q) W(low)/X(q) W(high)/X(q)  e(spline) 
   0      7     8.776    19.000    0.12E-02    0.42E-03    0.95E-07
   0      7     8.776     9.057    0.14E-02    0.54E-03    0.11E-06
   1      6     8.776   125.345    0.45E-03    0.22E-02    0.77E-07
   1      6     8.776    79.963    0.45E-03    0.21E-02    0.76E-07
   2      6     8.776     6.963    0.11E-02    0.51E-03    0.39E-07
 Optimization of the real space projectors (new method)

 maximal supplied QI-value         = 17.95
 optimisation between [QCUT,QGAM] = [  8.80, 17.59] = [ 21.67, 86.68] Ry 
 Optimized for a Real-space Cutoff    1.19 Angstroem

   l    n(q)    QCUT    max X(q) W(low)/X(q) W(high)/X(q)  e(spline) 
   0      6     8.797   133.320    0.14E-02    0.11E-02    0.95E-07
   0      6     8.797   111.601    0.15E-02    0.12E-02    0.10E-06
   1      6     8.797    47.222    0.19E-02    0.96E-03    0.11E-06
   1      6     8.797    33.775    0.19E-02    0.99E-03    0.11E-06
   2      5     8.797     3.720    0.16E-02    0.14E-02    0.40E-07
  PAW_PBE Li 17Jan2003                  :
 energy of atom  1       EATOM=   -5.3001
 kinetic energy error for atom=    0.0000 (will be added to EATOM!!)
  PAW_PBE Sb 06Sep2000                  :
 energy of atom  2       EATOM= -149.9515
 kinetic energy error for atom=    0.0018 (will be added to EATOM!!)
  PAW_PBE Se 06Sep2000                  :
 energy of atom  3       EATOM= -257.1286
 kinetic energy error for atom=    0.0040 (will be added to EATOM!!)
 
 
 POSCAR: Li4 Sb8 Se14                            
  positions in direct lattice
  velocities in cartesian coordinates
 exchange correlation table for  LEXCH =        8
   RHO(1)=    0.500       N(1)  =     2000
   RHO(2)=  100.500       N(2)  =     4000
 


--------------------------------------------------------------------------------------------------------


 ion  position               nearest neighbor table
   1  0.340  0.331  0.134-  25 2.66  19 2.72  22 2.80  18 2.97
   2  0.368  0.838  0.640-  21 2.63  16 2.63  23 2.67  24 3.04
   3  0.632  0.162  0.360-  19 2.63  24 2.63  22 2.67  16 3.04
   4  0.660  0.669  0.866-  15 2.66  21 2.72  23 2.80  14 2.97
   5  0.032  0.958  0.332-  24 2.64  17 2.71  13 2.83  16 3.00  19 3.23
   6  0.119  0.457  0.810-  15 2.67  20 2.71  23 2.77  26 2.99  18 3.14
   7  0.768  0.133  0.048-  19 2.68  22 2.72  14 2.79  13 3.07  21 3.17  26 3.27
   8  0.528  0.246  0.754-  15 2.72  14 2.73  26 2.84  20 2.99  21 3.18  16 3.20
   9  0.232  0.867  0.952-  21 2.68  23 2.72  18 2.79  26 3.07  19 3.17  13 3.27
  10  0.968  0.042  0.668-  16 2.64  20 2.71  26 2.83  24 3.00  21 3.23
  11  0.881  0.543  0.190-  25 2.67  17 2.71  22 2.77  13 2.99  14 3.14
  12  0.472  0.754  0.246-  25 2.72  18 2.73  13 2.84  17 2.99  19 3.18  24 3.20
  13  0.839  0.839  0.122-   5 2.83  12 2.84  11 2.99   7 3.07   9 3.27
  14  0.691  0.384  0.957-   8 2.73   7 2.79   4 2.97  11 3.14
  15  0.462  0.507  0.690-   4 2.66   6 2.67   8 2.72
  16  0.292  0.062  0.537-   2 2.63  10 2.64   5 3.00   3 3.04   8 3.20
  17  0.084  0.688  0.376-   5 2.71  11 2.71  12 2.99
  18  0.309  0.616  0.043-  12 2.73   9 2.79   1 2.97   6 3.14
  19  0.427  0.068  0.171-   3 2.63   7 2.68   1 2.72   9 3.17  12 3.18   5 3.23
  20  0.916  0.312  0.624-  10 2.71   6 2.71   8 2.99
  21  0.573  0.932  0.829-   2 2.63   9 2.68   4 2.72   7 3.17   8 3.18  10 3.23
  22  0.964  0.277  0.238-   3 2.67   7 2.72  11 2.77   1 2.80
  23  0.036  0.723  0.762-   2 2.67   9 2.72   6 2.77   4 2.80
  24  0.708  0.938  0.463-   3 2.63   5 2.64  10 3.00   2 3.04  12 3.20
  25  0.538  0.493  0.310-   1 2.66  11 2.67  12 2.72
  26  0.161  0.161  0.878-  10 2.83   8 2.84   6 2.99   9 3.07   7 3.27
 
  LATTYP: Found a triclinic cell.
 ALAT       =     9.2870370408
 B/A-ratio  =     1.0960433374
 C/A-ratio  =     1.2151746828
 COS(alpha) =     0.0150933183
 COS(beta)  =     0.0599912637
 COS(gamma) =     0.7364994056
  
  Lattice vectors:
  
 A1 = (   2.2020923632,   9.0042204616,  -0.5690870770)
 A2 = (  -4.9109739642,   8.8923822108,  -0.6479305807)
 A3 = (   0.4958317705,   1.2849561361,  11.2010118430)


Analysis of symmetry for initial positions (statically):
=====================================================================
 Subroutine PRICEL returns:
 Original cell was already a primitive cell.
 

 Routine SETGRP: Setting up the symmetry group for a 
 triclinic supercell.


 Subroutine GETGRP returns: Found  2 space group operations
 (whereof  2 operations were pure point group operations)
 out of a pool of  2 trial point group operations.


The static configuration has the point symmetry S_2 .


Analysis of symmetry for dynamics (positions and initial velocities):
=====================================================================
 Subroutine PRICEL returns:
 Original cell was already a primitive cell.
 

 Routine SETGRP: Setting up the symmetry group for a 
 triclinic supercell.


 Subroutine GETGRP returns: Found  2 space group operations
 (whereof  2 operations were pure point group operations)
 out of a pool of  2 trial point group operations.


The dynamic configuration has the point symmetry S_2 .


 Subroutine INISYM returns: Found  2 space group operations
 (whereof  2 operations are pure point group operations),
 and found     1 'primitive' translations

 
 
 KPOINTS: pymatgen with grid density = 807 / numbe

Automatic generation of k-mesh.
Space group operators:
 irot       det(A)        alpha          n_x          n_y          n_z        tau_x        tau_y        tau_z
    1     1.000000     0.000002     1.000000     0.000000     0.000000     0.000000     0.000000     0.000000
    2    -1.000000     0.000002     1.000000     0.000000     0.000000     0.000000     0.000000     0.000000
 
 Subroutine IBZKPT returns following result:
 ===========================================
 
 Found      6 irreducible k-points:
 
 Following reciprocal coordinates:
            Coordinates               Weight
 -0.000000  0.250000  0.250000      2.000000
  0.333333  0.250000  0.250000      2.000000
 -0.333333  0.250000  0.250000      2.000000
  0.000000 -0.250000  0.250000      2.000000
  0.333333 -0.250000  0.250000      2.000000
 -0.333333 -0.250000  0.250000      2.000000
 
 Following cartesian coordinates:
            Coordinates               Weight
 -0.000131  0.026197 -0.025319      2.000000
 -0.047183  0.037752 -0.024562      2.000000
  0.046921  0.014642 -0.026076      2.000000
  0.000669 -0.029130 -0.019007      2.000000
 -0.046384 -0.017575 -0.018250      2.000000
  0.047721 -0.040685 -0.019765      2.000000
 


--------------------------------------------------------------------------------------------------------




 Dimension of arrays:
   k-points           NKPTS =      6   k-points in BZ     NKDIM =      6   number of bands    NBANDS=     84
   number of dos      NEDOS =    301   number of ions     NIONS =     26
   non local maximal  LDIM  =      5   non local SUM 2l+1 LMDIM =     13
   total plane-waves  NPLWV =  57600
   max r-space proj   IRMAX =    718   max aug-charges    IRDMAX=   2667
   dimension x,y,z NGX =    30 NGY =   40 NGZ =   48
   dimension x,y,z NGXF=    50 NGYF=   64 NGZF=   80
   support grid    NGXF=    50 NGYF=   64 NGZF=   80
   ions per type =               4   8  14
   NGX,Y,Z   is equivalent  to a cutoff of   7.01,  7.16,  7.07 a.u.
   NGXF,Y,Z  is equivalent  to a cutoff of  11.68, 11.46, 11.78 a.u.

 SYSTEM =  CIS                                     
 POSCAR =  Li4 Sb8 Se14                            

 Startparameter for this run:
   NWRITE =      2    write-flag & timer
   PREC   = medium    normal or accurate (medium, high low for compatibility)
   ISTART =      0    job   : 0-new  1-cont  2-samecut
   ICHARG =      2    charge: 1-file 2-atom 10-const
   ISPIN  =      1    spin polarized calculation?
   LNONCOLLINEAR =      F non collinear calculations
   LSORBIT =      F    spin-orbit coupling
   INIWAV =      1    electr: 0-lowe 1-rand  2-diag
   LASPH  =      T    aspherical Exc in radial PAW
   METAGGA=      F    non-selfconsistent MetaGGA calc.

 Electronic Relaxation 1
   ENCUT  =  300.0 eV  22.05 Ry    4.70 a.u.  10.05 13.12 15.94*2*pi/ulx,y,z
   ENINI  =  300.0     initial cutoff
   ENAUG  =  446.8 eV  augmentation charge cutoff
   NELM   =     60;   NELMIN=  2; NELMDL= -5     # of ELM steps 
   EDIFF  = 0.1E-03   stopping-criterion for ELM
   LREAL  =      T    real-space projection
   NLSPLINE    = F    spline interpolate recip. space projectors
   LCOMPAT=      F    compatible to vasp.4.4
   GGA_COMPAT  = T    GGA compatible to vasp.4.4-vasp.4.6
   LMAXPAW     = -100 max onsite density
   LMAXMIX     =    4 max onsite mixed and CHGCAR
   VOSKOWN=      0    Vosko Wilk Nusair interpolation
   ROPT   =   -0.00200  -0.00200  -0.00200
 Ionic relaxation
   EDIFFG = -.5E-01   stopping-criterion for IOM
   NSW    =     99    number of steps for IOM
   NBLOCK =      1;   KBLOCK =     99    inner block; outer block 
   IBRION =      2    ionic relax: 0-MD 1-quasi-New 2-CG
   NFREE  =      1    steps in history (QN), initial steepest desc. (CG)
   ISIF   =      3    stress and relaxation
   IWAVPR =     11    prediction:  0-non 1-charg 2-wave 3-comb
   ISYM   =      2    0-nonsym 1-usesym 2-fastsym
   LCORR  =      T    Harris-Foulkes like correction to forces

   POTIM  = 0.1000    time-step for ionic-motion
   TEIN   =    0.0    initial temperature
   TEBEG  =    0.0;   TEEND  =   0.0 temperature during run
   SMASS  =  -3.00    Nose mass-parameter (am)
   estimated Nose-frequenzy (Omega)   =  0.10E-29 period in steps =****** mass=  -0.116E-26a.u.
   SCALEE = 1.0000    scale energy and forces
   NPACO  =    256;   APACO  = 16.0  distance and # of slots for P.C.
   PSTRESS=    0.0 pullay stress

  Mass of Ions in am
   POMASS =   7.01121.75 78.96
  Ionic Valenz
   ZVAL   =   1.00  5.00  6.00
  Atomic Wigner-Seitz radii
   RWIGS  =  -1.00 -1.00 -1.00
  virtual crystal weights 
   VCA    =   1.00  1.00  1.00
   NELECT =     128.0000    total number of electrons
   NUPDOWN=      -1.0000    fix difference up-down

 DOS related values:
   EMIN   =  10.00;   EMAX   =-10.00  energy-range for DOS
   EFERMI =   0.00
   ISMEAR =     0;   SIGMA  =   0.05  broadening in eV -4-tet -1-fermi 0-gaus

 Electronic relaxation 2 (details)
   IALGO  =     38    algorithm
   LDIAG  =      T    sub-space diagonalisation (order eigenvalues)
   LSUBROT=      F    optimize rotation matrix (better conditioning)
   TURBO    =      0    0=normal 1=particle mesh
   IRESTART =      0    0=no restart 2=restart with 2 vectors
   NREBOOT  =      0    no. of reboots
   NMIN     =      0    reboot dimension
   EREF     =   0.00    reference energy to select bands
   IMIX   =      4    mixing-type and parameters
     AMIX     =   0.40;   BMIX     =  1.00
     AMIX_MAG =   1.60;   BMIX_MAG =  1.00
     AMIN     =   0.10
     WC   =   100.;   INIMIX=   1;  MIXPRE=   1;  MAXMIX= -45

 Intra band minimization:
   WEIMIN = 0.0010     energy-eigenvalue tresh-hold
   EBREAK =  0.30E-06  absolut break condition
   DEPER  =   0.30     relativ break condition  

   TIME   =   0.40     timestep for ELM

  volume/ion in A,a.u.               =      27.68       186.79
  Fermi-wavevector in a.u.,A,eV,Ry     =   0.920658  1.739791 11.532445  0.847611
  Thomas-Fermi vector in A             =   2.045988
 
 Write flags
   LWAVE        =      F    write WAVECAR
   LDOWNSAMPLE  =      F    k-point downsampling of WAVECAR
   LCHARG       =      F    write CHGCAR
   LVTOT        =      F    write LOCPOT, total local potential
   LVHAR        =      F    write LOCPOT, Hartree potential only
   LELF         =      F    write electronic localiz. function (ELF)
   LORBIT       =     10    0 simple, 1 ext, 2 COOP (PROOUT), +10 PAW based schemes


 Dipole corrections
   LMONO  =      F    monopole corrections only (constant potential shift)
   LDIPOL =      F    correct potential (dipole corrections)
   IDIPOL =      0    1-x, 2-y, 3-z, 4-all directions 
   EPSILON=  1.0000000 bulk dielectric constant

 Exchange correlation treatment:
   GGA     =    --    GGA type
   LEXCH   =     8    internal setting for exchange type
   VOSKOWN=      0    Vosko Wilk Nusair interpolation
   LHFCALC =     F    Hartree Fock is set to
   LHFONE  =     F    Hartree Fock one center treatment
   AEXX    =    0.0000 exact exchange contribution

 Linear response parameters
   LEPSILON=     F    determine dielectric tensor
   LRPA    =     F    only Hartree local field effects (RPA)
   LNABLA  =     F    use nabla operator in PAW spheres
   LVEL    =     F    velocity operator in full k-point grid
   LINTERFAST=   F  fast interpolation
   KINTER  =     0    interpolate to denser k-point grid
   CSHIFT  =0.1000    complex shift for real part using Kramers Kronig
   OMEGAMAX=  -1.0    maximum frequency
   DEG_THRESHOLD= 0.2000000E-02 threshold for treating states as degnerate
   RTIME   =   -0.100 relaxation time in fs
  (WPLASMAI=    0.000 imaginary part of plasma frequency in eV, 0.658/RTIME)
   DFIELD  = 0.0000000 0.0000000 0.0000000 field for delta impulse in time
 
 Orbital magnetization related:
   ORBITALMAG=     F  switch on orbital magnetization
   LCHIMAG   =     F  perturbation theory with respect to B field
   DQ        =  0.001000  dq finite difference perturbation B field
   LLRAUG    =     F  two centre corrections for induced B field



--------------------------------------------------------------------------------------------------------


 conjugate gradient relaxation of ions
 charge density and potential will be updated during run
 non-spin polarized calculation
 Variant of blocked Davidson
 Davidson routine will perform the subspace rotation
 perform sub-space diagonalisation
    after iterative eigenvector-optimisation
 modified Broyden-mixing scheme, WC =      100.0
 initial mixing is a Kerker type mixing with AMIX =  0.4000 and BMIX =      1.0000
 Hartree-type preconditioning will be used
 using additional bands           20
 real space projection scheme for non local part
 use partial core corrections
 calculate Harris-corrections to forces 
   (improved forces if not selfconsistent)
 use gradient corrections 
 use of overlap-Matrix (Vanderbilt PP)
 Gauss-broadening in eV      SIGMA  =   0.05


--------------------------------------------------------------------------------------------------------


  energy-cutoff  :      300.00
  volume of cell :      719.68
      direct lattice vectors                 reciprocal lattice vectors
    -7.113066327 -0.111838251 -0.078843504    -0.141156565  0.034665151  0.002271823
     2.202092363  9.004220462 -0.569087077    -0.001599864  0.110652496 -0.012622997
    -0.495831771 -1.284956136-11.201011843     0.001074880 -0.005865901 -0.088652306

  length of vectors
     7.114382382  9.287037041 11.285372290     0.145368530  0.111381661  0.088852662


 
 k-points in units of 2pi/SCALE and weight: pymatgen with grid density = 807 / numbe
  -0.00013125  0.02619665 -0.02531883       0.167
  -0.04718343  0.03775170 -0.02456155       0.167
   0.04692094  0.01464160 -0.02607610       0.167
   0.00066869 -0.02912960 -0.01900733       0.167
  -0.04638350 -0.01757455 -0.01825005       0.167
   0.04772087 -0.04068465 -0.01976460       0.167
 
 k-points in reciprocal lattice and weights: pymatgen with grid density = 807 / numbe
  -0.00000000  0.25000000  0.25000000       0.167
   0.33333333  0.25000000  0.25000000       0.167
  -0.33333333  0.25000000  0.25000000       0.167
   0.00000000 -0.25000000  0.25000000       0.167
   0.33333333 -0.25000000  0.25000000       0.167
  -0.33333333 -0.25000000  0.25000000       0.167
 
 position of ions in fractional coordinates (direct lattice) 
   0.34046353  0.33059309  0.13426573
   0.36812720  0.83815339  0.64049196
   0.63187280  0.16184661  0.35950804
   0.65953647  0.66940691  0.86573427
   0.03232923  0.95825674  0.33207822
   0.11857385  0.45655069  0.81000225
   0.76760060  0.13326104  0.04801381
   0.52813197  0.24577365  0.75376240
   0.23239940  0.86673896  0.95198619
   0.96767077  0.04174326  0.66792178
   0.88142615  0.54344931  0.18999775
   0.47186803  0.75422635  0.24623760
   0.83900345  0.83926364  0.12196727
   0.69142804  0.38411559  0.95715885
   0.46195480  0.50650548  0.69041668
   0.29221584  0.06246297  0.53715124
   0.08367752  0.68793724  0.37635480
   0.30857196  0.61588441  0.04284115
   0.42668921  0.06767203  0.17121890
   0.91632248  0.31206276  0.62364520
   0.57331079  0.93232797  0.82878110
   0.96397852  0.27705810  0.23796961
   0.03602148  0.72294190  0.76203039
   0.70778416  0.93753703  0.46284876
   0.53804520  0.49349452  0.30958332
   0.16099655  0.16073636  0.87803273
 
 position of ions in cartesian coordinates  (Angst):
  -1.76031640  2.76613065 -1.71889160
  -1.09039828  6.68274313 -7.68016477
  -4.31640745  0.92468295 -4.16877765
  -3.64648933  4.84129543-10.13005082
   1.71555494  8.19803334 -4.26749255
  -0.23968171  3.05680460 -9.34201068
  -5.19034764  1.05236903 -0.67416070
  -3.58916078  1.18538312 -8.62440798
  -0.21645809  6.55505705-11.17478172
  -7.12236067 -0.59060727 -7.58144987
  -5.16712402  4.55062147 -2.50693175
  -1.81764496  6.42204295 -3.22453444
  -4.18022637  7.30635957 -1.90992086
  -4.54690525  2.15142618-10.99425748
  -2.51287379  3.62186765 -8.05803330
  -2.20733811 -0.16046636 -6.07522363
   0.73308895  5.70138084 -4.61364816
  -0.85990049  5.45599989 -0.85468494
  -2.97094438  0.34160489 -1.98997783
  -6.13989468  1.90604523 -7.23529427
  -2.43586136  7.26582118 -9.85896459
  -6.36472849  2.08110203 -2.89917399
   0.95792276  5.52632404 -8.94976843
  -3.19946762  7.76789243 -5.77371879
  -2.89393194  3.98555842 -3.79090912
  -1.22657936  0.30106650 -9.93902156
 


--------------------------------------------------------------------------------------------------------


 k-point  1 :  -0.0000 0.2500 0.2500  plane waves:    8477
 k-point  2 :   0.3333 0.2500 0.2500  plane waves:    8502
 k-point  3 :  -0.3333 0.2500 0.2500  plane waves:    8507
 k-point  4 :   0.0000-0.2500 0.2500  plane waves:    8468
 k-point  5 :   0.3333-0.2500 0.2500  plane waves:    8490
 k-point  6 :  -0.3333-0.2500 0.2500  plane waves:    8486

 maximum and minimum number of plane-waves per node :      8507     8468

 maximum number of plane-waves:      8507
 maximum index in each direction: 
   IXMAX=   10   IYMAX=   13   IZMAX=   15
   IXMIN=  -10   IYMIN=  -13   IZMIN=  -16


 serial   3D FFT for wavefunctions
 parallel 3D FFT for charge:
    minimum data exchange during FFTs selected (reduces bandwidth)


 total amount of memory used by VASP MPI-rank0    41752. kBytes
=======================================================================

   base      :      30000. kBytes
   nonlr-proj:       1845. kBytes
   fftplans  :        959. kBytes
   grid      :       3658. kBytes
   one-center:        210. kBytes
   wavefun   :       5080. kBytes
 
     INWAV:  cpu time    0.0001: real time    0.0004
 Broyden mixing: mesh for mixing (old mesh)
   NGX = 21   NGY = 27   NGZ = 31
  (NGX  = 50   NGY  = 64   NGZ  = 80)
  gives a total of  17577 points

 initial charge density was supplied:
 charge density of overlapping atoms calculated
 number of electron     128.0000000 magnetization 
 keeping initial charge density in first step


--------------------------------------------------------------------------------------------------------


 Maximum index for non-local projection operator          654
 Maximum index for augmentation-charges          305 (set IRDMAX)


--------------------------------------------------------------------------------------------------------


 First call to EWALD:  gamma=   0.198
 Maximum number of real-space cells 3x 3x 2
 Maximum number of reciprocal cells 2x 3x 3

    FEWALD:  cpu time    0.0022: real time    0.0022


--------------------------------------- Iteration      1(   1)  ---------------------------------------


    POTLOK:  cpu time    0.0244: real time    0.0512
    SETDIJ:  cpu time    0.2370: real time    0.2383
     EDDAV:  cpu time    0.6677: real time    0.6682
       DOS:  cpu time    0.0005: real time    0.0005
    --------------------------------------------
      LOOP:  cpu time    0.9296: real time    0.9582

 eigenvalue-minimisations  :  1008
 total energy-change (2. order) : 0.5343342E+03  (-0.3467594E+04)
 number of electron     128.0000000 magnetization 
 augmentation part      128.0000000 magnetization 

 Free energy of the ion-electron system (eV)
  ---------------------------------------------------
  alpha Z        PSCENC =       129.62105662
  Ewald energy   TEWEN  =     -4302.51570889
  -Hartree energ DENC   =      -711.42394853
  -exchange      EXHF   =         0.00000000
  -V(xc)+E(xc)   XCENC  =      -394.94529374
  PAW double counting   =      4284.29267966    -3637.57793506
  entropy T*S    EENTRO =        -0.01139600
  eigenvalues    EBANDS =       346.35265460
  atomic energy  EATOM  =      4820.54206163
  Solvation  Ediel_sol  =         0.00000000
  ---------------------------------------------------
  free energy    TOTEN  =       534.33417028 eV

  energy without entropy =      534.34556628  energy(sigma->0) =      534.33986828


--------------------------------------------------------------------------------------------------------




--------------------------------------- Iteration      1(   2)  ---------------------------------------


     EDDAV:  cpu time    0.9672: real time    0.9750
       DOS:  cpu time    0.0002: real time    0.0002
    --------------------------------------------
      LOOP:  cpu time    0.9674: real time    0.9752

 eigenvalue-minimisations  :  1260
 total energy-change (2. order) :-0.5815743E+03  (-0.5656962E+03)
 number of electron     128.0000000 magnetization 
 augmentation part      128.0000000 magnetization 

 Free energy of the ion-electron system (eV)
  ---------------------------------------------------
  alpha Z        PSCENC =       129.62105662
  Ewald energy   TEWEN  =     -4302.51570889
  -Hartree energ DENC   =      -711.42394853
  -exchange      EXHF   =         0.00000000
  -V(xc)+E(xc)   XCENC  =      -394.94529374
  PAW double counting   =      4284.29267966    -3637.57793506
  entropy T*S    EENTRO =        -0.00000000
  eigenvalues    EBANDS =      -235.23301176
  atomic energy  EATOM  =      4820.54206163
  Solvation  Ediel_sol  =         0.00000000
  ---------------------------------------------------
  free energy    TOTEN  =       -47.24010007 eV

  energy without entropy =      -47.24010007  energy(sigma->0) =      -47.24010007


--------------------------------------------------------------------------------------------------------




--------------------------------------- Iteration      1(   3)  ---------------------------------------


     EDDAV:  cpu time    0.6377: real time    0.6403
       DOS:  cpu time    0.0003: real time    0.0002
    --------------------------------------------
      LOOP:  cpu time    0.6379: real time    0.6405

 eigenvalue-minimisations  :  1232
 total energy-change (2. order) :-0.5778665E+02  (-0.5687892E+02)
 number of electron     128.0000000 magnetization 
 augmentation part      128.0000000 magnetization 

 Free energy of the ion-electron system (eV)
  ---------------------------------------------------
  alpha Z        PSCENC =       129.62105662
  Ewald energy   TEWEN  =     -4302.51570889
  -Hartree energ DENC   =      -711.42394853
  -exchange      EXHF   =         0.00000000
  -V(xc)+E(xc)   XCENC  =      -394.94529374
  PAW double counting   =      4284.29267966    -3637.57793506
  entropy T*S    EENTRO =        -0.00000000
  eigenvalues    EBANDS =      -293.01966588
  atomic energy  EATOM  =      4820.54206163
  Solvation  Ediel_sol  =         0.00000000
  ---------------------------------------------------
  free energy    TOTEN  =      -105.02675420 eV

  energy without entropy =     -105.02675420  energy(sigma->0) =     -105.02675420


--------------------------------------------------------------------------------------------------------




--------------------------------------- Iteration      1(   4)  ---------------------------------------


     EDDAV:  cpu time    0.7712: real time    0.7749
       DOS:  cpu time    0.0002: real time    0.0002
    --------------------------------------------
      LOOP:  cpu time    0.7714: real time    0.7751

 eigenvalue-minimisations  :  1260
 total energy-change (2. order) :-0.1418891E+01  (-0.1408366E+01)
 number of electron     128.0000000 magnetization 
 augmentation part      128.0000000 magnetization 

 Free energy of the ion-electron system (eV)
  ---------------------------------------------------
  alpha Z        PSCENC =       129.62105662
  Ewald energy   TEWEN  =     -4302.51570889
  -Hartree energ DENC   =      -711.42394853
  -exchange      EXHF   =         0.00000000
  -V(xc)+E(xc)   XCENC  =      -394.94529374
  PAW double counting   =      4284.29267966    -3637.57793506
  entropy T*S    EENTRO =        -0.00000000
  eigenvalues    EBANDS =      -294.43855723
  atomic energy  EATOM  =      4820.54206163
  Solvation  Ediel_sol  =         0.00000000
  ---------------------------------------------------
  free energy    TOTEN  =      -106.44564555 eV

  energy without entropy =     -106.44564555  energy(sigma->0) =     -106.44564555


--------------------------------------------------------------------------------------------------------




--------------------------------------- Iteration      1(   5)  ---------------------------------------


     EDDAV:  cpu time    0.7866: real time    0.7921
       DOS:  cpu time    0.0002: real time    0.0002
    CHARGE:  cpu time    0.0247: real time    0.0248
    MIXING:  cpu time    0.0005: real time    0.0006
    --------------------------------------------
      LOOP:  cpu time    0.8120: real time    0.8177

 eigenvalue-minimisations  :  1288
 total energy-change (2. order) :-0.3207621E-01  (-0.3205094E-01)
 number of electron     128.0000085 magnetization 
 augmentation part      -22.5465367 magnetization 

 Broyden mixing:
  rms(total) = 0.12560E+01    rms(broyden)= 0.12560E+01
  rms(prec ) = 0.16177E+01
  weight for this iteration     100.00

 Free energy of the ion-electron system (eV)
  ---------------------------------------------------
  alpha Z        PSCENC =       129.62105662
  Ewald energy   TEWEN  =     -4302.51570889
  -Hartree energ DENC   =      -711.42394853
  -exchange      EXHF   =         0.00000000
  -V(xc)+E(xc)   XCENC  =      -394.94529374
  PAW double counting   =      4284.29267966    -3637.57793506
  entropy T*S    EENTRO =        -0.00000000
  eigenvalues    EBANDS =      -294.47063344
  atomic energy  EATOM  =      4820.54206163
  Solvation  Ediel_sol  =         0.00000000
  ---------------------------------------------------
  free energy    TOTEN  =      -106.47772176 eV

  energy without entropy =     -106.47772176  energy(sigma->0) =     -106.47772176


--------------------------------------------------------------------------------------------------------




--------------------------------------- Iteration      1(   6)  ---------------------------------------


    POTLOK:  cpu time    0.0112: real time    0.0113
    SETDIJ:  cpu time    0.2329: real time    0.2343
     EDDAV:  cpu time    0.6286: real time    0.6291
       DOS:  cpu time    0.0003: real time    0.0003
    CHARGE:  cpu time    0.0235: real time    0.0235
    MIXING:  cpu time    0.0006: real time    0.0006
    --------------------------------------------
      LOOP:  cpu time    0.8971: real time    0.8992

 eigenvalue-minimisations  :  1176
 total energy-change (2. order) : 0.3988914E+01  (-0.7252582E+00)
 number of electron     128.0000086 magnetization 
 augmentation part      -22.3031135 magnetization 

 Broyden mixing:
  rms(total) = 0.85173E+00    rms(broyden)= 0.85173E+00
  rms(prec ) = 0.90831E+00
  weight for this iteration     100.00

 eigenvalues of (default mixing * dielectric matrix)
  average eigenvalue GAMMA=   1.6551
  1.6551

 Free energy of the ion-electron system (eV)
  ---------------------------------------------------
  alpha Z        PSCENC =       129.62105662
  Ewald energy   TEWEN  =     -4302.51570889
  -Hartree energ DENC   =      -733.38092760
  -exchange      EXHF   =         0.00000000
  -V(xc)+E(xc)   XCENC  =      -392.43713761
  PAW double counting   =      5226.38132900    -4580.44739368
  entropy T*S    EENTRO =        -0.00000000
  eigenvalues    EBANDS =      -270.25208729
  atomic energy  EATOM  =      4820.54206163
  Solvation  Ediel_sol  =         0.00000000
  ---------------------------------------------------
  free energy    TOTEN  =      -102.48880783 eV

  energy without entropy =     -102.48880783  energy(sigma->0) =     -102.48880783


--------------------------------------------------------------------------------------------------------




--------------------------------------- Iteration      1(   7)  ---------------------------------------


    POTLOK:  cpu time    0.0117: real time    0.0117
    SETDIJ:  cpu time    0.2336: real time    0.2337
     EDDAV:  cpu time    0.8311: real time    0.8315
       DOS:  cpu time    0.0002: real time    0.0002
    CHARGE:  cpu time    0.0235: real time    0.0235
    MIXING:  cpu time    0.0004: real time    0.0004
    --------------------------------------------
      LOOP:  cpu time    1.1005: real time    1.1011

 eigenvalue-minimisations  :  1246
 total energy-change (2. order) : 0.1446438E-01  (-0.3090127E+00)
 number of electron     128.0000087 magnetization 
 augmentation part      -22.2550496 magnetization 

 Broyden mixing:
  rms(total) = 0.33326E+00    rms(broyden)= 0.33326E+00
  rms(prec ) = 0.36096E+00
  weight for this iteration     100.00

 eigenvalues of (default mixing * dielectric matrix)
  average eigenvalue GAMMA=   1.3503
  0.9698  1.7308

 Free energy of the ion-electron system (eV)
  ---------------------------------------------------
  alpha Z        PSCENC =       129.62105662
  Ewald energy   TEWEN  =     -4302.51570889
  -Hartree energ DENC   =      -741.74979335
  -exchange      EXHF   =         0.00000000
  -V(xc)+E(xc)   XCENC  =      -391.19595553
  PAW double counting   =      6288.99796353    -5643.50545621
  entropy T*S    EENTRO =        -0.00000000
  eigenvalues    EBANDS =      -262.66851124
  atomic energy  EATOM  =      4820.54206163
  Solvation  Ediel_sol  =         0.00000000
  ---------------------------------------------------
  free energy    TOTEN  =      -102.47434344 eV

  energy without entropy =     -102.47434344  energy(sigma->0) =     -102.47434344


--------------------------------------------------------------------------------------------------------




--------------------------------------- Iteration      1(   8)  ---------------------------------------


    POTLOK:  cpu time    0.0094: real time    0.0094
    SETDIJ:  cpu time    0.2388: real time    0.2436
     EDDAV:  cpu time    0.8688: real time    0.8695
       DOS:  cpu time    0.0002: real time    0.0002
    CHARGE:  cpu time    0.0244: real time    0.0244
    MIXING:  cpu time    0.0007: real time    0.0007
    --------------------------------------------
      LOOP:  cpu time    1.1423: real time    1.1478

 eigenvalue-minimisations  :  1260
 total energy-change (2. order) : 0.1468910E-01  (-0.2398895E-01)
 number of electron     128.0000088 magnetization 
 augmentation part      -22.2851198 magnetization 

 Broyden mixing:
  rms(total) = 0.16794E+00    rms(broyden)= 0.16794E+00
  rms(prec ) = 0.18268E+00
  weight for this iteration     100.00

 eigenvalues of (default mixing * dielectric matrix)
  average eigenvalue GAMMA=   1.5827
  2.5132  1.1175  1.1175

 Free energy of the ion-electron system (eV)
  ---------------------------------------------------
  alpha Z        PSCENC =       129.62105662
  Ewald energy   TEWEN  =     -4302.51570889
  -Hartree energ DENC   =      -740.54836536
  -exchange      EXHF   =         0.00000000
  -V(xc)+E(xc)   XCENC  =      -391.02266130
  PAW double counting   =      6604.84109601    -5959.54537088
  entropy T*S    EENTRO =        -0.00000000
  eigenvalues    EBANDS =      -263.83176217
  atomic energy  EATOM  =      4820.54206163
  Solvation  Ediel_sol  =         0.00000000
  ---------------------------------------------------
  free energy    TOTEN  =      -102.45965434 eV

  energy without entropy =     -102.45965434  energy(sigma->0) =     -102.45965434


--------------------------------------------------------------------------------------------------------




--------------------------------------- Iteration      1(   9)  ---------------------------------------


    POTLOK:  cpu time    0.0110: real time    0.0122
    SETDIJ:  cpu time    0.2404: real time    0.2406
     EDDAV:  cpu time    0.4135: real time    0.4136
       DOS:  cpu time    0.0001: real time    0.0001
    CHARGE:  cpu time    0.0201: real time    0.0201
    MIXING:  cpu time    0.0005: real time    0.0005
    --------------------------------------------
      LOOP:  cpu time    0.6856: real time    0.6870

 eigenvalue-minimisations  :  1246
 total energy-change (2. order) :-0.4493265E-02  (-0.7140822E-02)
 number of electron     128.0000087 magnetization 
 augmentation part      -22.2933514 magnetization 

 Broyden mixing:
  rms(total) = 0.29484E-01    rms(broyden)= 0.29484E-01
  rms(prec ) = 0.35102E-01
  weight for this iteration     100.00

 eigenvalues of (default mixing * dielectric matrix)
  average eigenvalue GAMMA=   1.4226
  2.2971  1.0815  1.0815  1.2301

 Free energy of the ion-electron system (eV)
  ---------------------------------------------------
  alpha Z        PSCENC =       129.62105662
  Ewald energy   TEWEN  =     -4302.51570889
  -Hartree energ DENC   =      -742.42171460
  -exchange      EXHF   =         0.00000000
  -V(xc)+E(xc)   XCENC  =      -390.56499612
  PAW double counting   =      6901.81426753    -6256.74841119
  entropy T*S    EENTRO =        -0.00000000
  eigenvalues    EBANDS =      -262.19070259
  atomic energy  EATOM  =      4820.54206163
  Solvation  Ediel_sol  =         0.00000000
  ---------------------------------------------------
  free energy    TOTEN  =      -102.46414761 eV

  energy without entropy =     -102.46414761  energy(sigma->0) =     -102.46414761


--------------------------------------------------------------------------------------------------------




--------------------------------------- Iteration      1(  10)  ---------------------------------------


    POTLOK:  cpu time    0.0084: real time    0.0085
    SETDIJ:  cpu time    0.2308: real time    0.2309
     EDDAV:  cpu time    0.9490: real time    0.9495
       DOS:  cpu time    0.0002: real time    0.0002
    CHARGE:  cpu time    0.0231: real time    0.0231
    MIXING:  cpu time    0.0008: real time    0.0008
    --------------------------------------------
      LOOP:  cpu time    1.2123: real time    1.2130

 eigenvalue-minimisations  :  1190
 total energy-change (2. order) :-0.4885788E-03  (-0.6232895E-03)
 number of electron     128.0000087 magnetization 
 augmentation part      -22.2960256 magnetization 

 Broyden mixing:
  rms(total) = 0.17608E-01    rms(broyden)= 0.17608E-01
  rms(prec ) = 0.20953E-01
  weight for this iteration     100.00

 eigenvalues of (default mixing * dielectric matrix)
  average eigenvalue GAMMA=   1.4020
  2.3703  1.3149  1.3149  1.0049  1.0049

 Free energy of the ion-electron system (eV)
  ---------------------------------------------------
  alpha Z        PSCENC =       129.62105662
  Ewald energy   TEWEN  =     -4302.51570889
  -Hartree energ DENC   =      -742.56581586
  -exchange      EXHF   =         0.00000000
  -V(xc)+E(xc)   XCENC  =      -390.57462691
  PAW double counting   =      6859.16973889    -6214.09496917
  entropy T*S    EENTRO =        -0.00000000
  eigenvalues    EBANDS =      -262.04637249
  atomic energy  EATOM  =      4820.54206163
  Solvation  Ediel_sol  =         0.00000000
  ---------------------------------------------------
  free energy    TOTEN  =      -102.46463619 eV

  energy without entropy =     -102.46463619  energy(sigma->0) =     -102.46463619


--------------------------------------------------------------------------------------------------------




--------------------------------------- Iteration      1(  11)  ---------------------------------------


    POTLOK:  cpu time    0.0100: real time    0.0101
    SETDIJ:  cpu time    0.2343: real time    0.2345
     EDDAV:  cpu time    0.9586: real time    0.9591
       DOS:  cpu time    0.0003: real time    0.0003
    CHARGE:  cpu time    0.0257: real time    0.0257
    MIXING:  cpu time    0.0011: real time    0.0011
    --------------------------------------------
      LOOP:  cpu time    1.2300: real time    1.2308

 eigenvalue-minimisations  :  1288
 total energy-change (2. order) :-0.8915153E-03  (-0.1249768E-03)
 number of electron     128.0000087 magnetization 
 augmentation part      -22.2944214 magnetization 

 Broyden mixing:
  rms(total) = 0.79577E-02    rms(broyden)= 0.79576E-02
  rms(prec ) = 0.94639E-02
  weight for this iteration     100.00

 eigenvalues of (default mixing * dielectric matrix)
  average eigenvalue GAMMA=   1.4897
  2.4051  1.9548  1.0651  1.0651  0.9999  1.4483

 Free energy of the ion-electron system (eV)
  ---------------------------------------------------
  alpha Z        PSCENC =       129.62105662
  Ewald energy   TEWEN  =     -4302.51570889
  -Hartree energ DENC   =      -743.01548203
  -exchange      EXHF   =         0.00000000
  -V(xc)+E(xc)   XCENC  =      -390.53100512
  PAW double counting   =      6851.94219492    -6206.87902897
  entropy T*S    EENTRO =        -0.00000000
  eigenvalues    EBANDS =      -261.62961586
  atomic energy  EATOM  =      4820.54206163
  Solvation  Ediel_sol  =         0.00000000
  ---------------------------------------------------
  free energy    TOTEN  =      -102.46552770 eV

  energy without entropy =     -102.46552770  energy(sigma->0) =     -102.46552770


--------------------------------------------------------------------------------------------------------




--------------------------------------- Iteration      1(  12)  ---------------------------------------


    POTLOK:  cpu time    0.0122: real time    0.0124
    SETDIJ:  cpu time    0.2386: real time    0.2388
     EDDAV:  cpu time    0.6459: real time    0.6462
       DOS:  cpu time    0.0002: real time    0.0002
    CHARGE:  cpu time    0.0233: real time    0.0233
    MIXING:  cpu time    0.0007: real time    0.0007
    --------------------------------------------
      LOOP:  cpu time    0.9209: real time    0.9216

 eigenvalue-minimisations  :  1092
 total energy-change (2. order) :-0.3283518E-03  (-0.3021205E-04)
 number of electron     128.0000087 magnetization 
 augmentation part      -22.2936399 magnetization 

 Broyden mixing:
  rms(total) = 0.30428E-02    rms(broyden)= 0.30428E-02
  rms(prec ) = 0.39730E-02
  weight for this iteration     100.00

 eigenvalues of (default mixing * dielectric matrix)
  average eigenvalue GAMMA=   1.5610
  2.6087  2.6087  1.3222  1.3222  0.9856  1.0398  1.0398

 Free energy of the ion-electron system (eV)
  ---------------------------------------------------
  alpha Z        PSCENC =       129.62105662
  Ewald energy   TEWEN  =     -4302.51570889
  -Hartree energ DENC   =      -743.26697288
  -exchange      EXHF   =         0.00000000
  -V(xc)+E(xc)   XCENC  =      -390.51023739
  PAW double counting   =      6844.33734968    -6199.27431538
  entropy T*S    EENTRO =        -0.00000000
  eigenvalues    EBANDS =      -261.39908943
  atomic energy  EATOM  =      4820.54206163
  Solvation  Ediel_sol  =         0.00000000
  ---------------------------------------------------
  free energy    TOTEN  =      -102.46585605 eV

  energy without entropy =     -102.46585605  energy(sigma->0) =     -102.46585605


--------------------------------------------------------------------------------------------------------




--------------------------------------- Iteration      1(  13)  ---------------------------------------


    POTLOK:  cpu time    0.0154: real time    0.0156
    SETDIJ:  cpu time    0.2239: real time    0.2355
     EDDAV:  cpu time    0.6074: real time    0.6078
       DOS:  cpu time    0.0002: real time    0.0002
    --------------------------------------------
      LOOP:  cpu time    0.8470: real time    0.8590

 eigenvalue-minimisations  :   854
 total energy-change (2. order) :-0.9927940E-04  (-0.1259571E-04)
 number of electron     128.0000087 magnetization 
 augmentation part      -22.2936399 magnetization 

 Free energy of the ion-electron system (eV)
  ---------------------------------------------------
  alpha Z        PSCENC =       129.62105662
  Ewald energy   TEWEN  =     -4302.51570889
  -Hartree energ DENC   =      -743.41055690
  -exchange      EXHF   =         0.00000000
  -V(xc)+E(xc)   XCENC  =      -390.49903974
  PAW double counting   =      6839.49879097    -6194.43464113
  entropy T*S    EENTRO =        -0.00000000
  eigenvalues    EBANDS =      -261.26791789
  atomic energy  EATOM  =      4820.54206163
  Solvation  Ediel_sol  =         0.00000000
  ---------------------------------------------------
  free energy    TOTEN  =      -102.46595533 eV

  energy without entropy =     -102.46595533  energy(sigma->0) =     -102.46595533


--------------------------------------------------------------------------------------------------------




 average (electrostatic) potential at core
  the test charge radii are     0.9748  1.1712  1.0808
  (the norm of the test charge is              1.0000)
       1 -26.9552       2 -27.0072       3 -27.0072       4 -26.9552       5 -89.8835
       6 -89.8258       7 -89.8058       8 -89.8698       9 -89.8058      10 -89.8835
      11 -89.8258      12 -89.8698      13 -54.6573      14 -54.5345      15 -54.3365
      16 -54.3529      17 -54.7965      18 -54.5345      19 -54.2720      20 -54.7965
      21 -54.2720      22 -54.5034      23 -54.5034      24 -54.3529      25 -54.3365
      26 -54.6573
 
 
 
 E-fermi :   3.5961     XC(G=0):  -8.6226     alpha+bet : -8.9727


 k-point     1 :      -0.0000    0.2500    0.2500
  band No.  band energies     occupation 
      1     -10.3421      2.00000
      2     -10.1846      2.00000
      3      -9.6959      2.00000
      4      -9.4847      2.00000
      5      -9.3888      2.00000
      6      -9.2184      2.00000
      7      -9.1032      2.00000
      8      -8.9868      2.00000
      9      -8.9374      2.00000
     10      -8.9156      2.00000
     11      -8.8276      2.00000
     12      -8.7773      2.00000
     13      -8.7353      2.00000
     14      -8.6456      2.00000
     15      -5.8681      2.00000
     16      -5.7928      2.00000
     17      -5.6070      2.00000
     18      -5.4453      2.00000
     19      -5.4039      2.00000
     20      -5.0161      2.00000
     21      -4.6055      2.00000
     22      -4.2172      2.00000
     23      -1.6003      2.00000
     24      -1.3071      2.00000
     25      -1.1610      2.00000
     26      -1.1038      2.00000
     27      -1.0579      2.00000
     28      -0.8999      2.00000
     29      -0.6101      2.00000
     30      -0.4384      2.00000
     31      -0.3184      2.00000
     32      -0.2349      2.00000
     33      -0.0582      2.00000
     34       0.0586      2.00000
     35       0.1570      2.00000
     36       0.2772      2.00000
     37       0.4313      2.00000
     38       0.6013      2.00000
     39       0.6361      2.00000
     40       0.7118      2.00000
     41       0.7717      2.00000
     42       0.8622      2.00000
     43       0.9628      2.00000
     44       1.1133      2.00000
     45       1.2516      2.00000
     46       1.2968      2.00000
     47       1.3920      2.00000
     48       1.6279      2.00000
     49       1.6455      2.00000
     50       1.7822      2.00000
     51       1.8701      2.00000
     52       1.9209      2.00000
     53       1.9658      2.00000
     54       2.0560      2.00000
     55       2.0832      2.00000
     56       2.2606      2.00000
     57       2.3225      2.00000
     58       2.4013      2.00000
     59       2.5604      2.00000
     60       2.7047      2.00000
     61       2.8350      2.00000
     62       2.8956      2.00000
     63       2.9360      2.00000
     64       3.0966      2.00000
     65       4.6539      0.00000
     66       4.8515      0.00000
     67       5.0298      0.00000
     68       5.1621      0.00000
     69       5.2149      0.00000
     70       5.2593      0.00000
     71       5.4145      0.00000
     72       5.4492      0.00000
     73       5.5704      0.00000
     74       5.7093      0.00000
     75       5.7656      0.00000
     76       5.8523      0.00000
     77       5.9824      0.00000
     78       6.1062      0.00000
     79       6.3800      0.00000
     80       6.4768      0.00000
     81       6.5496      0.00000
     82       6.7516      0.00000
     83       6.8678      0.00000
     84       7.1071      0.00000

 k-point     2 :       0.3333    0.2500    0.2500
  band No.  band energies     occupation 
      1     -10.1123      2.00000
      2     -10.0566      2.00000
      3      -9.8097      2.00000
      4      -9.4995      2.00000
      5      -9.4757      2.00000
      6      -9.3258      2.00000
      7      -9.1432      2.00000
      8      -9.0611      2.00000
      9      -8.9459      2.00000
     10      -8.9039      2.00000
     11      -8.8515      2.00000
     12      -8.8288      2.00000
     13      -8.7710      2.00000
     14      -8.7239      2.00000
     15      -5.8155      2.00000
     16      -5.6071      2.00000
     17      -5.4979      2.00000
     18      -5.3740      2.00000
     19      -5.2855      2.00000
     20      -4.9072      2.00000
     21      -4.6298      2.00000
     22      -4.5515      2.00000
     23      -1.4727      2.00000
     24      -1.2751      2.00000
     25      -1.1279      2.00000
     26      -1.0548      2.00000
     27      -0.9621      2.00000
     28      -0.7339      2.00000
     29      -0.5964      2.00000
     30      -0.3960      2.00000
     31      -0.2759      2.00000
     32      -0.0397      2.00000
     33      -0.0138      2.00000
     34       0.1338      2.00000
     35       0.1739      2.00000
     36       0.3625      2.00000
     37       0.4525      2.00000
     38       0.4891      2.00000
     39       0.4993      2.00000
     40       0.6420      2.00000
     41       0.7739      2.00000
     42       0.8181      2.00000
     43       0.9174      2.00000
     44       1.0168      2.00000
     45       1.1577      2.00000
     46       1.2316      2.00000
     47       1.3685      2.00000
     48       1.4392      2.00000
     49       1.5314      2.00000
     50       1.8040      2.00000
     51       1.8629      2.00000
     52       1.9304      2.00000
     53       1.9754      2.00000
     54       2.0054      2.00000
     55       2.0940      2.00000
     56       2.2436      2.00000
     57       2.2998      2.00000
     58       2.3583      2.00000
     59       2.3993      2.00000
     60       2.6166      2.00000
     61       2.7724      2.00000
     62       2.8576      2.00000
     63       3.0629      2.00000
     64       3.0735      2.00000
     65       4.2794      0.00000
     66       4.6065      0.00000
     67       4.9728      0.00000
     68       5.1231      0.00000
     69       5.1900      0.00000
     70       5.3846      0.00000
     71       5.4210      0.00000
     72       5.5602      0.00000
     73       5.7012      0.00000
     74       5.8770      0.00000
     75       5.9155      0.00000
     76       5.9662      0.00000
     77       6.1248      0.00000
     78       6.1989      0.00000
     79       6.2656      0.00000
     80       6.4093      0.00000
     81       6.4514      0.00000
     82       6.6869      0.00000
     83       7.0165      0.00000
     84       7.1632      0.00000

 k-point     3 :      -0.3333    0.2500    0.2500
  band No.  band energies     occupation 
      1     -10.2115      2.00000
      2     -10.0251      2.00000
      3      -9.6300      2.00000
      4      -9.5647      2.00000
      5      -9.4563      2.00000
      6      -9.2752      2.00000
      7      -9.1816      2.00000
      8      -9.0405      2.00000
      9      -8.9992      2.00000
     10      -8.8993      2.00000
     11      -8.8564      2.00000
     12      -8.8356      2.00000
     13      -8.8108      2.00000
     14      -8.7572      2.00000
     15      -5.6435      2.00000
     16      -5.6269      2.00000
     17      -5.4990      2.00000
     18      -5.3575      2.00000
     19      -5.2019      2.00000
     20      -5.1475      2.00000
     21      -4.7777      2.00000
     22      -4.3732      2.00000
     23      -1.5282      2.00000
     24      -1.4274      2.00000
     25      -1.1635      2.00000
     26      -0.9875      2.00000
     27      -0.7457      2.00000
     28      -0.7079      2.00000
     29      -0.4604      2.00000
     30      -0.2790      2.00000
     31      -0.2244      2.00000
     32      -0.1065      2.00000
     33       0.0206      2.00000
     34       0.0393      2.00000
     35       0.1391      2.00000
     36       0.2766      2.00000
     37       0.3825      2.00000
     38       0.4313      2.00000
     39       0.5442      2.00000
     40       0.5561      2.00000
     41       0.7169      2.00000
     42       0.8014      2.00000
     43       0.8521      2.00000
     44       1.0534      2.00000
     45       1.0945      2.00000
     46       1.2657      2.00000
     47       1.4080      2.00000
     48       1.4459      2.00000
     49       1.4979      2.00000
     50       1.7631      2.00000
     51       1.8751      2.00000
     52       1.8954      2.00000
     53       2.0338      2.00000
     54       2.0913      2.00000
     55       2.1370      2.00000
     56       2.2274      2.00000
     57       2.2480      2.00000
     58       2.3171      2.00000
     59       2.3933      2.00000
     60       2.5976      2.00000
     61       2.7517      2.00000
     62       2.8828      2.00000
     63       3.0640      2.00000
     64       3.3471      2.00000
     65       4.3722      0.00000
     66       4.7537      0.00000
     67       4.8527      0.00000
     68       4.9400      0.00000
     69       5.0826      0.00000
     70       5.2433      0.00000
     71       5.3753      0.00000
     72       5.4987      0.00000
     73       5.6983      0.00000
     74       5.8136      0.00000
     75       5.9638      0.00000
     76       6.0366      0.00000
     77       6.0943      0.00000
     78       6.2864      0.00000
     79       6.3085      0.00000
     80       6.4477      0.00000
     81       6.5657      0.00000
     82       6.8022      0.00000
     83       6.9996      0.00000
     84       7.1614      0.00000

 k-point     4 :       0.0000   -0.2500    0.2500
  band No.  band energies     occupation 
      1     -10.3783      2.00000
      2     -10.0984      2.00000
      3      -9.6862      2.00000
      4      -9.6795      2.00000
      5      -9.2664      2.00000
      6      -9.1501      2.00000
      7      -9.0806      2.00000
      8      -9.0584      2.00000
      9      -8.9421      2.00000
     10      -8.8903      2.00000
     11      -8.8536      2.00000
     12      -8.7711      2.00000
     13      -8.7307      2.00000
     14      -8.6559      2.00000
     15      -5.8873      2.00000
     16      -5.7641      2.00000
     17      -5.6533      2.00000
     18      -5.4685      2.00000
     19      -5.3165      2.00000
     20      -5.0135      2.00000
     21      -4.6872      2.00000
     22      -4.1719      2.00000
     23      -1.5806      2.00000
     24      -1.1905      2.00000
     25      -1.1068      2.00000
     26      -1.0428      2.00000
     27      -1.0106      2.00000
     28      -0.8281      2.00000
     29      -0.7097      2.00000
     30      -0.6963      2.00000
     31      -0.4087      2.00000
     32      -0.1887      2.00000
     33      -0.1214      2.00000
     34       0.0175      2.00000
     35       0.0424      2.00000
     36       0.2263      2.00000
     37       0.4278      2.00000
     38       0.5398      2.00000
     39       0.5807      2.00000
     40       0.8252      2.00000
     41       0.8739      2.00000
     42       0.9406      2.00000
     43       1.0066      2.00000
     44       1.0655      2.00000
     45       1.2109      2.00000
     46       1.3207      2.00000
     47       1.5394      2.00000
     48       1.5796      2.00000
     49       1.6752      2.00000
     50       1.7639      2.00000
     51       1.9163      2.00000
     52       1.9349      2.00000
     53       2.0013      2.00000
     54       2.0540      2.00000
     55       2.1073      2.00000
     56       2.2132      2.00000
     57       2.3861      2.00000
     58       2.4627      2.00000
     59       2.5853      2.00000
     60       2.7016      2.00000
     61       2.8133      2.00000
     62       2.9301      2.00000
     63       3.0376      2.00000
     64       3.1603      2.00000
     65       4.3167      0.00000
     66       4.7192      0.00000
     67       4.8049      0.00000
     68       4.9992      0.00000
     69       5.1408      0.00000
     70       5.2088      0.00000
     71       5.3824      0.00000
     72       5.4917      0.00000
     73       5.5685      0.00000
     74       5.6517      0.00000
     75       5.8476      0.00000
     76       5.9861      0.00000
     77       6.1288      0.00000
     78       6.2971      0.00000
     79       6.3128      0.00000
     80       6.4746      0.00000
     81       6.6442      0.00000
     82       6.9337      0.00000
     83       6.9471      0.00000
     84       7.0757      0.00000

 k-point     5 :       0.3333   -0.2500    0.2500
  band No.  band energies     occupation 
      1     -10.2311      2.00000
      2      -9.9832      2.00000
      3      -9.6576      2.00000
      4      -9.5659      2.00000
      5      -9.4339      2.00000
      6      -9.3173      2.00000
      7      -9.1417      2.00000
      8      -9.0846      2.00000
      9      -8.9475      2.00000
     10      -8.9329      2.00000
     11      -8.8766      2.00000
     12      -8.8303      2.00000
     13      -8.8141      2.00000
     14      -8.7246      2.00000
     15      -5.7706      2.00000
     16      -5.5022      2.00000
     17      -5.4537      2.00000
     18      -5.3517      2.00000
     19      -5.2565      2.00000
     20      -5.1414      2.00000
     21      -4.7447      2.00000
     22      -4.4099      2.00000
     23      -1.6054      2.00000
     24      -1.3820      2.00000
     25      -1.2424      2.00000
     26      -1.0370      2.00000
     27      -0.6953      2.00000
     28      -0.5356      2.00000
     29      -0.4508      2.00000
     30      -0.3785      2.00000
     31      -0.1422      2.00000
     32      -0.0804      2.00000
     33       0.0018      2.00000
     34       0.0860      2.00000
     35       0.1636      2.00000
     36       0.2554      2.00000
     37       0.3501      2.00000
     38       0.4216      2.00000
     39       0.4925      2.00000
     40       0.6096      2.00000
     41       0.7760      2.00000
     42       0.9042      2.00000
     43       0.9223      2.00000
     44       1.0296      2.00000
     45       1.0628      2.00000
     46       1.1181      2.00000
     47       1.2813      2.00000
     48       1.3920      2.00000
     49       1.6195      2.00000
     50       1.7639      2.00000
     51       1.8646      2.00000
     52       1.9100      2.00000
     53       1.9735      2.00000
     54       2.0117      2.00000
     55       2.1274      2.00000
     56       2.2248      2.00000
     57       2.2810      2.00000
     58       2.3039      2.00000
     59       2.4215      2.00000
     60       2.5841      2.00000
     61       2.7986      2.00000
     62       2.9132      2.00000
     63       3.0346      2.00000
     64       3.1576      2.00000
     65       4.6202      0.00000
     66       4.7426      0.00000
     67       4.8380      0.00000
     68       4.9454      0.00000
     69       5.2615      0.00000
     70       5.3127      0.00000
     71       5.4253      0.00000
     72       5.5222      0.00000
     73       5.7074      0.00000
     74       5.7518      0.00000
     75       5.8662      0.00000
     76       5.9906      0.00000
     77       6.0998      0.00000
     78       6.1352      0.00000
     79       6.3718      0.00000
     80       6.4643      0.00000
     81       6.5935      0.00000
     82       6.7108      0.00000
     83       6.9693      0.00000
     84       7.0858      0.00000

 k-point     6 :      -0.3333   -0.2500    0.2500
  band No.  band energies     occupation 
      1     -10.1715      2.00000
      2      -9.9428      2.00000
      3      -9.8018      2.00000
      4      -9.6221      2.00000
      5      -9.5029      2.00000
      6      -9.2956      2.00000
      7      -9.0699      2.00000
      8      -9.0108      2.00000
      9      -8.9682      2.00000
     10      -8.9201      2.00000
     11      -8.8729      2.00000
     12      -8.8264      2.00000
     13      -8.7603      2.00000
     14      -8.7391      2.00000
     15      -5.8165      2.00000
     16      -5.6957      2.00000
     17      -5.5177      2.00000
     18      -5.3984      2.00000
     19      -5.0808      2.00000
     20      -4.8885      2.00000
     21      -4.7608      2.00000
     22      -4.5037      2.00000
     23      -1.5830      2.00000
     24      -1.4056      2.00000
     25      -1.1028      2.00000
     26      -1.0135      2.00000
     27      -0.7662      2.00000
     28      -0.7092      2.00000
     29      -0.4555      2.00000
     30      -0.3888      2.00000
     31      -0.2730      2.00000
     32      -0.1350      2.00000
     33      -0.1008      2.00000
     34       0.1066      2.00000
     35       0.2412      2.00000
     36       0.3164      2.00000
     37       0.3703      2.00000
     38       0.5671      2.00000
     39       0.6209      2.00000
     40       0.6858      2.00000
     41       0.7328      2.00000
     42       0.8083      2.00000
     43       0.8233      2.00000
     44       1.0412      2.00000
     45       1.0999      2.00000
     46       1.2449      2.00000
     47       1.3044      2.00000
     48       1.4364      2.00000
     49       1.6674      2.00000
     50       1.7283      2.00000
     51       1.7557      2.00000
     52       1.9102      2.00000
     53       1.9735      2.00000
     54       2.0823      2.00000
     55       2.0979      2.00000
     56       2.2184      2.00000
     57       2.2784      2.00000
     58       2.2912      2.00000
     59       2.3833      2.00000
     60       2.5917      2.00000
     61       2.7477      2.00000
     62       2.9245      2.00000
     63       3.0447      2.00000
     64       3.1286      2.00000
     65       4.7378      0.00000
     66       4.7474      0.00000
     67       4.9993      0.00000
     68       5.0867      0.00000
     69       5.1359      0.00000
     70       5.2707      0.00000
     71       5.3736      0.00000
     72       5.4637      0.00000
     73       5.5642      0.00000
     74       5.7784      0.00000
     75       5.8906      0.00000
     76       5.9668      0.00000
     77       6.0612      0.00000
     78       6.1633      0.00000
     79       6.2811      0.00000
     80       6.3887      0.00000
     81       6.6573      0.00000
     82       6.8012      0.00000
     83       7.0479      0.00000
     84       7.2313      0.00000


--------------------------------------------------------------------------------------------------------


 soft charge-density along one line, spin component           1
         0         1         2         3         4         5         6         7         8         9
 total charge-density along one line
 
 pseudopotential strength for first ion, spin component:           1
  1.165   5.243   0.000   0.002   0.001
  5.243  22.527   0.001   0.007   0.004
  0.000   0.001  -0.394  -0.002  -0.000
  0.002   0.007  -0.002  -0.396   0.001
  0.001   0.004  -0.000   0.001  -0.395
 total augmentation occupancy for first ion, spin component:           1
  0.620  -0.011  -0.002  -0.057  -0.023
 -0.011   0.000   0.000   0.001   0.001
 -0.002   0.000   0.051  -0.007  -0.000
 -0.057   0.001  -0.007   0.041   0.003
 -0.023   0.001  -0.000   0.003   0.047


------------------------ aborting loop because EDIFF is reached ----------------------------------------


 


 total charge     
 
# of ion       s       p       d       tot
------------------------------------------
    1        0.063   0.100   0.000   0.163
    2        0.069   0.110   0.000   0.179
    3        0.069   0.110   0.000   0.179
    4        0.063   0.100   0.000   0.163
    5        1.289   0.937   0.057   2.283
    6        1.293   0.936   0.059   2.288
    7        1.306   0.920   0.057   2.282
    8        1.314   0.897   0.057   2.267
    9        1.306   0.920   0.057   2.282
   10        1.289   0.937   0.057   2.283
   11        1.293   0.936   0.059   2.288
   12        1.314   0.897   0.057   2.267
   13        1.479   2.286   0.026   3.791
   14        1.473   2.308   0.023   3.804
   15        1.474   2.311   0.021   3.806
   16        1.472   2.314   0.021   3.807
   17        1.485   2.270   0.025   3.780
   18        1.473   2.308   0.023   3.804
   19        1.466   2.336   0.020   3.823
   20        1.485   2.270   0.025   3.780
   21        1.466   2.336   0.020   3.823
   22        1.470   2.321   0.021   3.812
   23        1.470   2.321   0.021   3.812
   24        1.472   2.314   0.021   3.807
   25        1.474   2.311   0.021   3.806
   26        1.479   2.286   0.026   3.791
--------------------------------------------------
tot         31.306  40.090   0.773  72.169
 
    CHARGE:  cpu time    0.0240: real time    0.0240
    FORLOC:  cpu time    0.0021: real time    0.0021
    FORNL :  cpu time    0.1376: real time    0.1376
    STRESS:  cpu time    0.3300: real time    0.3300
    FORCOR:  cpu time    0.0103: real time    0.0103
    FORHAR:  cpu time    0.0035: real time    0.0035
    MIXING:  cpu time    0.0007: real time    0.0007
    OFIELD:  cpu time    0.0000: real time    0.0000

  FORCE on cell =-STRESS in cart. coord.  units (eV):
  Direction    XX          YY          ZZ          XY          YZ          ZX
  --------------------------------------------------------------------------------------
  Alpha Z   129.62106   129.62106   129.62106
  Ewald   -1248.50783 -1426.45062 -1627.57106    20.13959  -114.70043    41.57092
  Hartree   370.72070   257.63154   115.13807     8.94058   -78.17789    24.92892
  E(xc)    -477.06337  -477.00545  -477.41650     0.19905    -0.16289     0.37609
  Local   -1083.43774  -795.43328  -456.57259   -25.22961   191.19799   -63.59833
  n-local  1252.59754  1251.04515  1252.40840    -1.01496     0.56775    -3.15682
  augment  -198.66530  -198.93797  -199.50005     0.49807    -0.16036     0.80271
  Kinetic  1254.55304  1259.71377  1264.38224    -3.69727     1.22430    -0.98000
  Fock        0.00000     0.00000     0.00000     0.00000     0.00000     0.00000
  -------------------------------------------------------------------------------------
  Total      -0.18191     0.18420     0.48958    -0.16455    -0.21154    -0.05650
  in kB      -0.40496     0.41008     1.08992    -0.36633    -0.47093    -0.12577
  external pressure =        0.37 kB  Pullay stress =        0.00 kB


 VOLUME and BASIS-vectors are now :
 -----------------------------------------------------------------------------
  energy-cutoff  :      300.00
  volume of cell :      719.68
      direct lattice vectors                 reciprocal lattice vectors
    -7.113066327 -0.111838251 -0.078843504    -0.141156565  0.034665151  0.002271823
     2.202092363  9.004220462 -0.569087077    -0.001599864  0.110652496 -0.012622997
    -0.495831771 -1.284956136-11.201011843     0.001074880 -0.005865901 -0.088652306

  length of vectors
     7.114382382  9.287037041 11.285372290     0.145368530  0.111381661  0.088852662


 FORCES acting on ions
    electron-ion (+dipol)            ewald-force                    non-local-force                 convergence-correction
[...]
     18      -5.3516      2.00000
     19      -5.2480      2.00000
     20      -5.1420      2.00000
     21      -4.7435      2.00000
     22      -4.4151      2.00000
     23      -1.6051      2.00000
     24      -1.3953      2.00000
     25      -1.2430      2.00000
     26      -1.0348      2.00000
     27      -0.6987      2.00000
     28      -0.5289      2.00000
     29      -0.4368      2.00000
     30      -0.3546      2.00000
     31      -0.1454      2.00000
     32      -0.0558      2.00000
     33       0.0164      2.00000
     34       0.0908      2.00000
     35       0.1652      2.00000
     36       0.2588      2.00000
     37       0.3940      2.00000
     38       0.4256      2.00000
     39       0.4935      2.00000
     40       0.6285      2.00000
     41       0.8018      2.00000
     42       0.8833      2.00000
     43       0.9112      2.00000
     44       1.0220      2.00000
     45       1.0841      2.00000
     46       1.1279      2.00000
     47       1.2872      2.00000
     48       1.4009      2.00000
     49       1.6307      2.00000
     50       1.7750      2.00000
     51       1.8600      2.00000
     52       1.9151      2.00000
     53       1.9745      2.00000
     54       2.0058      2.00000
     55       2.1245      2.00000
     56       2.2437      2.00000
     57       2.2814      2.00000
     58       2.3080      2.00000
     59       2.4404      2.00000
     60       2.5732      2.00000
     61       2.8102      2.00000
     62       2.9120      2.00000
     63       3.0543      2.00000
     64       3.1637      2.00000
     65       4.6491      0.00000
     66       4.7554      0.00000
     67       4.8560      0.00000
     68       4.9718      0.00000
     69       5.2628      0.00000
     70       5.3192      0.00000
     71       5.4329      0.00000
     72       5.5324      0.00000
     73       5.7061      0.00000
     74       5.7395      0.00000
     75       5.8772      0.00000
     76       6.0126      0.00000
     77       6.0699      0.00000
     78       6.1370      0.00000
     79       6.3950      0.00000
     80       6.4477      0.00000
     81       6.5621      0.00000
     82       6.7042      0.00000
     83       6.9979      0.00000
     84       7.0914      0.00000

 k-point     6 :      -0.3333   -0.2500    0.2500
  band No.  band energies     occupation 
      1     -10.1649      2.00000
      2      -9.9472      2.00000
      3      -9.7748      2.00000
      4      -9.5813      2.00000
      5      -9.4771      2.00000
      6      -9.2874      2.00000
      7      -9.0702      2.00000
      8      -9.0199      2.00000
      9      -8.9733      2.00000
     10      -8.8931      2.00000
     11      -8.8556      2.00000
     12      -8.8361      2.00000
     13      -8.7670      2.00000
     14      -8.7313      2.00000
     15      -5.7889      2.00000
     16      -5.6760      2.00000
     17      -5.5166      2.00000
     18      -5.4052      2.00000
     19      -5.0936      2.00000
     20      -4.8790      2.00000
     21      -4.7617      2.00000
     22      -4.5015      2.00000
     23      -1.5830      2.00000
     24      -1.4305      2.00000
     25      -1.0955      2.00000
     26      -1.0130      2.00000
     27      -0.7528      2.00000
     28      -0.7076      2.00000
     29      -0.4359      2.00000
     30      -0.3899      2.00000
     31      -0.2265      2.00000
     32      -0.1510      2.00000
     33      -0.1052      2.00000
     34       0.1249      2.00000
     35       0.2595      2.00000
     36       0.3274      2.00000
     37       0.3924      2.00000
     38       0.5734      2.00000
     39       0.6316      2.00000
     40       0.6719      2.00000
     41       0.7369      2.00000
     42       0.8224      2.00000
     43       0.8543      2.00000
     44       1.0661      2.00000
     45       1.1022      2.00000
     46       1.2491      2.00000
     47       1.3184      2.00000
     48       1.4342      2.00000
     49       1.6726      2.00000
     50       1.7334      2.00000
     51       1.7545      2.00000
     52       1.8972      2.00000
     53       1.9723      2.00000
     54       2.0762      2.00000
     55       2.0977      2.00000
     56       2.2111      2.00000
     57       2.2609      2.00000
     58       2.3040      2.00000
     59       2.3937      2.00000
     60       2.6090      2.00000
     61       2.7731      2.00000
     62       2.9432      2.00000
     63       3.0405      2.00000
     64       3.1408      2.00000
     65       4.7328      0.00000
     66       4.7564      0.00000
     67       4.9871      0.00000
     68       5.1029      0.00000
     69       5.1399      0.00000
     70       5.3151      0.00000
     71       5.3934      0.00000
     72       5.4678      0.00000
     73       5.5925      0.00000
     74       5.8023      0.00000
     75       5.8820      0.00000
     76       5.9667      0.00000
     77       6.0450      0.00000
     78       6.1652      0.00000
     79       6.2871      0.00000
     80       6.3583      0.00000
     81       6.6339      0.00000
     82       6.8125      0.00000
     83       7.0593      0.00000
     84       7.2422      0.00000


--------------------------------------------------------------------------------------------------------


 soft charge-density along one line, spin component           1
         0         1         2         3         4         5         6         7         8         9
 total charge-density along one line
 
 pseudopotential strength for first ion, spin component:           1
  1.165   5.243   0.000   0.002   0.001
  5.243  22.524   0.001   0.006   0.003
  0.000   0.001  -0.393  -0.002  -0.000
  0.002   0.006  -0.002  -0.394   0.001
  0.001   0.003  -0.000   0.001  -0.394
 total augmentation occupancy for first ion, spin component:           1
  0.626  -0.011  -0.004  -0.054  -0.029
 -0.011   0.000   0.000   0.001   0.001
 -0.004   0.000   0.051  -0.006  -0.001
 -0.054   0.001  -0.006   0.043   0.003
 -0.029   0.001  -0.001   0.003   0.046


------------------------ aborting loop because EDIFF is reached ----------------------------------------


 


 total charge     
 
# of ion       s       p       d       tot
------------------------------------------
    1        0.064   0.102   0.000   0.165
    2        0.068   0.109   0.000   0.177
    3        0.068   0.109   0.000   0.177
    4        0.064   0.102   0.000   0.165
    5        1.290   0.936   0.056   2.282
    6        1.293   0.935   0.059   2.287
    7        1.308   0.915   0.057   2.280
    8        1.316   0.892   0.057   2.265
    9        1.308   0.915   0.057   2.280
   10        1.290   0.936   0.056   2.282
   11        1.293   0.935   0.059   2.287
   12        1.316   0.892   0.057   2.265
   13        1.479   2.286   0.027   3.792
   14        1.473   2.310   0.023   3.806
   15        1.473   2.312   0.021   3.806
   16        1.472   2.312   0.021   3.805
   17        1.484   2.270   0.025   3.778
   18        1.473   2.310   0.023   3.806
   19        1.467   2.334   0.020   3.821
   20        1.484   2.270   0.025   3.778
   21        1.467   2.334   0.020   3.821
   22        1.470   2.316   0.020   3.806
   23        1.470   2.316   0.020   3.806
   24        1.472   2.312   0.021   3.805
   25        1.473   2.312   0.021   3.806
   26        1.479   2.286   0.027   3.792
--------------------------------------------------
tot         31.315  40.056   0.773  72.144
 
    CHARGE:  cpu time    0.0223: real time    0.0223
    FORLOC:  cpu time    0.0022: real time    0.0022
    FORNL :  cpu time    0.1728: real time    0.1739
    STRESS:  cpu time    0.4420: real time    0.4450
    FORCOR:  cpu time    0.0114: real time    0.0115
    FORHAR:  cpu time    0.0038: real time    0.0038
    MIXING:  cpu time    0.0004: real time    0.0004
    OFIELD:  cpu time    0.0000: real time    0.0000

  FORCE on cell =-STRESS in cart. coord.  units (eV):
  Direction    XX          YY          ZZ          XY          YZ          ZX
  --------------------------------------------------------------------------------------
  Alpha Z   129.78179   129.78179   129.78179
  Ewald   -1243.58799 -1416.11329 -1640.25735    23.61533  -115.19973    39.24843
  Hartree   377.17615   264.33077   105.60368    10.96519   -79.07282    23.07611
  E(xc)    -477.08766  -476.96416  -477.34188     0.21492    -0.20793     0.40153
  Local   -1094.93394  -812.64540  -434.29218   -30.77733   192.53912   -59.80145
  n-local  1253.27491  1250.84081  1251.76424    -1.55930     1.24951    -3.24602
  augment  -198.86011  -199.06984  -199.51249     0.50941    -0.19596     0.76840
  Kinetic  1254.38275  1259.84167  1264.21768    -3.18905     0.85685    -0.39484
  Fock        0.00000     0.00000     0.00000     0.00000     0.00000     0.00000
  -------------------------------------------------------------------------------------
  Total       0.14590     0.00235    -0.03650    -0.22084    -0.03097     0.05216
  in kB       0.32521     0.00525    -0.08135    -0.49224    -0.06903     0.11627
  external pressure =        0.08 kB  Pullay stress =        0.00 kB


 VOLUME and BASIS-vectors are now :
 -----------------------------------------------------------------------------
  energy-cutoff  :      300.00
  volume of cell :      718.79
      direct lattice vectors                 reciprocal lattice vectors
    -7.105943575 -0.084857037 -0.037878850    -0.141143206  0.034189696  0.001436766
     2.169526932  8.980590229 -0.577453776    -0.001256048  0.110839675 -0.012675177
    -0.425962499 -1.287221864-11.214062464     0.000541432 -0.005823033 -0.088525911

  length of vectors
     7.106551176  9.256959590 11.295732872     0.145232243  0.111569132  0.088718869


 FORCES acting on ions
    electron-ion (+dipol)            ewald-force                    non-local-force                 convergence-correction
 -----------------------------------------------------------------------------------------------
   -.327E+01 0.492E+00 0.289E+01   0.291E+01 -.540E+00 -.353E+01   0.345E+00 0.457E-01 0.643E+00   0.286E-03 -.194E-03 -.366E-04
   0.422E+01 0.863E+01 -.107E+02   -.374E+01 -.791E+01 0.101E+02   -.465E+00 -.720E+00 0.603E+00   0.106E-04 0.265E-03 0.224E-03
   -.422E+01 -.863E+01 0.107E+02   0.374E+01 0.791E+01 -.101E+02   0.465E+00 0.720E+00 -.603E+00   -.106E-04 -.265E-03 -.224E-03
   0.327E+01 -.492E+00 -.289E+01   -.291E+01 0.540E+00 0.353E+01   -.345E+00 -.457E-01 -.643E+00   -.286E-03 0.194E-03 0.366E-04
   0.117E+02 -.230E+02 0.229E+02   -.157E+02 0.301E+02 -.209E+02   0.399E+01 -.705E+01 -.197E+01   -.253E-03 -.303E-03 -.119E-02
   -.517E+01 -.145E+02 -.145E+02   0.656E+01 0.129E+02 0.692E+01   -.140E+01 0.156E+01 0.761E+01   0.156E-02 -.738E-03 0.120E-02
   0.130E+02 -.210E+01 0.183E+01   -.169E+02 -.949E+00 0.336E+01   0.396E+01 0.309E+01 -.522E+01   -.137E-02 -.315E-03 0.220E-03
   0.794E+01 -.955E+01 -.408E+02   -.880E+01 0.476E+01 0.438E+02   0.895E+00 0.476E+01 -.301E+01   -.347E-03 -.122E-02 0.582E-03
   -.130E+02 0.210E+01 -.183E+01   0.169E+02 0.949E+00 -.336E+01   -.396E+01 -.309E+01 0.522E+01   0.137E-02 0.315E-03 -.220E-03
   -.117E+02 0.230E+02 -.229E+02   0.157E+02 -.301E+02 0.209E+02   -.399E+01 0.705E+01 0.197E+01   0.253E-03 0.303E-03 0.119E-02
   0.517E+01 0.145E+02 0.145E+02   -.656E+01 -.129E+02 -.692E+01   0.140E+01 -.156E+01 -.761E+01   -.156E-02 0.738E-03 -.120E-02
   -.794E+01 0.955E+01 0.408E+02   0.880E+01 -.476E+01 -.438E+02   -.895E+00 -.476E+01 0.301E+01   0.347E-03 0.122E-02 -.582E-03
   0.373E+01 0.579E+00 -.219E+02   -.385E+01 -.385E+00 0.236E+02   0.129E+00 -.208E+00 -.167E+01   -.113E-02 -.457E-03 -.404E-03
   -.102E+02 -.334E+02 0.638E+01   0.107E+02 0.351E+02 -.706E+01   -.550E+00 -.170E+01 0.652E+00   -.148E-02 -.161E-02 0.336E-02
   0.225E+02 -.507E+02 -.797E+02   -.233E+02 0.524E+02 0.814E+02   0.728E+00 -.173E+01 -.174E+01   0.202E-02 0.149E-03 -.508E-03
   0.295E+02 -.224E+02 -.327E+02   -.312E+02 0.226E+02 0.336E+02   0.165E+01 -.265E+00 -.848E+00   -.171E-02 -.115E-02 0.277E-02
   0.156E+02 0.506E+02 0.794E+02   -.161E+02 -.519E+02 -.819E+02   0.450E+00 0.124E+01 0.251E+01   0.297E-02 0.678E-03 0.922E-03
   0.102E+02 0.334E+02 -.638E+01   -.107E+02 -.351E+02 0.706E+01   0.550E+00 0.170E+01 -.652E+00   0.148E-02 0.161E-02 -.336E-02
   -.249E+02 -.243E+02 0.483E+02   0.262E+02 0.248E+02 -.492E+02   -.125E+01 -.461E+00 0.885E+00   0.357E-03 -.216E-03 0.556E-03
   -.156E+02 -.506E+02 -.794E+02   0.161E+02 0.519E+02 0.819E+02   -.450E+00 -.124E+01 -.251E+01   -.297E-02 -.678E-03 -.922E-03
   0.249E+02 0.243E+02 -.483E+02   -.262E+02 -.248E+02 0.492E+02   0.125E+01 0.461E+00 -.885E+00   -.357E-03 0.216E-03 -.556E-03
   0.319E+02 -.654E+01 0.638E+02   -.332E+02 0.613E+01 -.652E+02   0.128E+01 0.388E+00 0.136E+01   -.273E-02 0.863E-03 0.856E-03
   -.319E+02 0.654E+01 -.638E+02   0.332E+02 -.613E+01 0.652E+02   -.128E+01 -.388E+00 -.136E+01   0.273E-02 -.863E-03 -.856E-03
   -.295E+02 0.224E+02 0.327E+02   0.312E+02 -.226E+02 -.336E+02   -.165E+01 0.265E+00 0.848E+00   0.171E-02 0.115E-02 -.277E-02
   -.225E+02 0.507E+02 0.797E+02   0.233E+02 -.524E+02 -.814E+02   -.728E+00 0.173E+01 0.174E+01   -.202E-02 -.149E-03 0.508E-03
   -.373E+01 -.579E+00 0.219E+02   0.385E+01 0.385E+00 -.236E+02   -.129E+00 0.208E+00 0.167E+01   0.113E-02 0.457E-03 0.404E-03
 -----------------------------------------------------------------------------------------------
   0.467E-11 0.529E-11 0.473E-10   -.258E-13 0.258E-13 -.853E-13   -.999E-15 0.136E-14 -.222E-15   -.326E-12 -.330E-12 -.282E-12
 
 
 POSITION                                       TOTAL-FORCE (eV/Angst)
 -----------------------------------------------------------------------------------
     -1.81316      2.75446     -1.67764        -0.009786     -0.002662      0.002367
     -1.00122      6.64099     -7.68095         0.011686      0.001631     -0.000802
     -4.36116      0.96752     -4.14844        -0.011686     -0.001631      0.000802
     -3.54922      4.85405    -10.15175         0.009786      0.002662     -0.002367
      1.71439      8.16045     -4.27421         0.016961      0.006164     -0.027986
     -0.14812      3.04275     -9.35164        -0.009151     -0.002909      0.033846
     -5.15774      1.03356     -0.62599         0.016409      0.038083     -0.024760
     -3.48507      1.21106     -8.62632         0.035799     -0.027176     -0.005108
     -0.20464      6.57495    -11.20340        -0.016409     -0.038083      0.024760
     -7.07677     -0.55194     -7.55518        -0.016961     -0.006164      0.027986
     -5.21426      4.56576     -2.47776         0.009151      0.002909     -0.033846
     -1.87731      6.39745     -3.20307        -0.035799      0.027176      0.005108
     -4.22908      7.29713     -1.85997         0.010320     -0.014751     -0.012443
     -4.45486      2.14818    -11.00862        -0.005107      0.029390     -0.020924
     -2.40911      3.65500     -8.07604        -0.011466     -0.002747     -0.005871
     -2.16804     -0.13657     -6.10084        -0.014519      0.025131      0.013957
      0.65596      5.68102     -4.61947        -0.044102     -0.003792      0.009537
     -0.90752      5.46033     -0.82078         0.005107     -0.029390      0.020924
     -2.96366      0.32334     -1.98964         0.002870      0.014060     -0.009642
     -6.01833      1.92749     -7.20992         0.044102      0.003792     -0.009537
     -2.39872      7.28517     -9.83975        -0.002870     -0.014060      0.009642
     -6.40110      2.07928     -2.84660         0.008298     -0.018215     -0.006028
      1.03872      5.52923     -8.98280        -0.008298      0.018215      0.006028
     -3.19434      7.74508     -5.72855         0.014519     -0.025131     -0.013957
     -2.95327      3.95351     -3.75336         0.011466      0.002747      0.005871
     -1.13330      0.31138     -9.96943        -0.010320      0.014751      0.012443
 -----------------------------------------------------------------------------------
    total drift:                                0.000000      0.000000      0.000000


--------------------------------------------------------------------------------------------------------



  FREE ENERGIE OF THE ION-ELECTRON SYSTEM (eV)
  ---------------------------------------------------
  free  energy   TOTEN  =      -102.53859742 eV

  energy  without entropy=     -102.53859742  energy(sigma->0) =     -102.53859742
 
 d Force = 0.1900602E-03[ 0.761E-04, 0.304E-03]  d Energy = 0.1630324E-03 0.270E-04
 d Force = 0.2284143E-01[ 0.227E-01, 0.229E-01]  d Ewald  =-0.4373953E-02 0.272E-01


--------------------------------------------------------------------------------------------------------


    POTLOK:  cpu time    0.2517: real time    0.2520


--------------------------------------------------------------------------------------------------------


 Conjugate gradient step on ions:
 trial-energy change:   -0.000163  1 .order   -0.000215   -0.000327   -0.000103
  (g-gl).g = 0.341E-03      g.g   = 0.434E-03  gl.gl    = 0.103E-02
 g(Force)  = 0.402E-03   g(Stress)= 0.315E-04 ortho     =-0.464E-05
 gamma     =   0.32958
 trial     =   0.75580
 opt step  =   1.10268  (harmonic =   1.10268) maximal distance =0.00093732
 next E    =  -102.538673   (d E  =  -0.00024)


--------------------------------------------------------------------------------------------------------


  
 reached required accuracy - stopping structural energy minimisation
     LOOP+:  cpu time    2.7302: real time    2.9206
    4ORBIT:  cpu time    0.0000: real time    0.0000
 


 total charge     
 
# of ion       s       p       d       tot
------------------------------------------
    1        0.064   0.102   0.000   0.165
    2        0.068   0.109   0.000   0.177
    3        0.068   0.109   0.000   0.177
    4        0.064   0.102   0.000   0.165
    5        1.290   0.936   0.056   2.282
    6        1.293   0.935   0.059   2.287
    7        1.308   0.915   0.057   2.280
    8        1.316   0.892   0.057   2.265
    9        1.308   0.915   0.057   2.280
   10        1.290   0.936   0.056   2.282
   11        1.293   0.935   0.059   2.287
   12        1.316   0.892   0.057   2.265
   13        1.479   2.286   0.027   3.792
   14        1.473   2.310   0.023   3.806
   15        1.473   2.312   0.021   3.806
   16        1.472   2.312   0.021   3.805
   17        1.484   2.270   0.025   3.778
   18        1.473   2.310   0.023   3.806
   19        1.467   2.334   0.020   3.821
   20        1.484   2.270   0.025   3.778
   21        1.467   2.334   0.020   3.821
   22        1.470   2.316   0.020   3.806
   23        1.470   2.316   0.020   3.806
   24        1.472   2.312   0.021   3.805
   25        1.473   2.312   0.021   3.806
   26        1.479   2.286   0.027   3.792
--------------------------------------------------
tot         31.315  40.056   0.773  72.144
 

 total amount of memory used by VASP MPI-rank0    41752. kBytes
=======================================================================

   base      :      30000. kBytes
   nonlr-proj:       1845. kBytes
   fftplans  :        959. kBytes
   grid      :       3658. kBytes
   one-center:        210. kBytes
   wavefun   :       5080. kBytes
 
  
  
 General timing and accounting informations for this job:
 ========================================================
  
                  Total CPU time used (sec):      316.394
                            User time (sec):      310.565
                          System time (sec):        5.829
                         Elapsed time (sec):      333.403
  
                   Maximum memory used (kb):       96808.
                   Average memory used (kb):           0.
  
                          Minor page faults:        74986
                          Major page faults:            0
                 Voluntary context switches:         3434
