PROCAR new format
# of k-points:    6         # of bands:   84         # of ions:   26

 k-point     1 :   -0.00000000 0.25000000 0.25000000     weight = 0.16666667

band     1 # energy  -10.33996377 # occ.  2.00000000
 
ion      s      p      d    tot
    1  0.000  0.000  0.000  0.000
    2  0.000  0.000  0.000  0.000
    3  0.000  0.000  0.000  0.000
    4  0.000  0.000  0.000  0.000
    5  0.014  0.001  0.000  0.015
    6  0.017  0.001  0.000  0.017
    7  0.015  0.000  0.000  0.015
    8  0.017  0.000  0.000  0.017
    9  0.015  0.000  0.000  0.015
   10  0.014  0.001  0.000  0.015
   11  0.017  0.001  0.000  0.017
   12  0.017  0.000  0.000  0.017
   13  0.068  0.000  0.000  0.068
   14  0.040  0.000  0.000  0.041
   15  0.025  0.001  0.000  0.026
   16  0.016  0.000  0.000  0.017
   17  0.052  0.001  0.000  0.053
   18  0.040  0.000  0.000  0.041
   19  0.026  0.000  0.000  0.026
   20  0.052  0.001  0.000  0.053
   21  0.026  0.000  0.000  0.026
   22  0.020  0.000  0.000  0.020
   23  0.020  0.000  0.000  0.020
   24  0.016  0.000  0.000  0.017
   25  0.025  0.001  0.000  0.026
   26  0.068  0.000  0.000  0.068
tot    0.620  0.009  0.000  0.630
 
band     2 # energy  -10.17708200 # occ.  2.00000000
 
ion      s      p      d    tot
    1  0.000  0.000  0.000  0.000
    2  0.000  0.000  0.000  0.000
    3  0.000  0.000  0.000  0.000
    4  0.000  0.000  0.000  0.000
    5  0.022  0.001  0.000  0.023
    6  0.019  0.001  0.000  0.020
    7  0.000  0.001  0.000  0.001
    8  0.018  0.000  0.000  0.018
    9  0.000  0.001  0.000  0.001
   10  0.022  0.001  0.000  0.023
   11  0.019  0.001  0.000  0.020
   12  0.018  0.000  0.000  0.018
   13  0.060  0.001  0.000  0.061
   14  0.021  0.000  0.000  0.021
   15  0.034  0.001  0.000  0.034
   16  0.036  0.001  0.000  0.037
   17  0.092  0.001  0.000  0.093
   18  0.021  0.000  0.000  0.021
   19  0.004  0.000  0.000  0.004
   20  0.092  0.001  0.000  0.093
   21  0.004  0.000  0.000  0.004
   22  0.008  0.000  0.000  0.008
   23  0.008  0.000  0.000  0.008
   24  0.036  0.001  0.000  0.037
   25  0.034  0.001  0.000  0.034
   26  0.060  0.001  0.000  0.061
tot    0.629  0.014  0.000  0.643
 
band     3 # energy   -9.66486636 # occ.  2.00000000
 
ion      s      p      d    tot
    1  0.000  0.000  0.000  0.000
    2  0.000  0.000  0.000  0.000
    3  0.000  0.000  0.000  0.000
    4  0.000  0.000  0.000  0.000
    5  0.000  0.001  0.000  0.001
    6  0.013  0.001  0.000  0.015
    7  0.028  0.001  0.000  0.029
    8  0.002  0.001  0.000  0.003
    9  0.028  0.001  0.000  0.029
   10  0.000  0.001  0.000  0.001
   11  0.013  0.001  0.000  0.015
   12  0.002  0.001  0.000  0.003
   13  0.018  0.000  0.000  0.018
   14  0.044  0.001  0.000  0.045
   15  0.027  0.000  0.000  0.028
   16  0.000  0.000  0.000  0.000
   17  0.048  0.000  0.000  0.049
   18  0.044  0.001  0.000  0.045
   19  0.064  0.001  0.000  0.065
   20  0.048  0.000  0.000  0.049
   21  0.064  0.001  0.000  0.065
   22  0.079  0.001  0.000  0.080
   23  0.079  0.001  0.000  0.080
   24  0.000  0.000  0.000  0.000
   25  0.027  0.000  0.000  0.028
   26  0.018  0.000  0.000  0.018
tot    0.648  0.016  0.001  0.665
 
band     4 # energy   -9.44815425 # occ.  2.00000000
 
ion      s      p      d    tot
    1  0.000  0.000  0.000  0.000
    2  0.000  0.000  0.000  0.000
    3  0.000  0.000  0.000  0.000
    4  0.000  0.000  0.000  0.000
    5  0.011  0.001  0.000  0.012
    6  0.002  0.002  0.000  0.004
    7  0.018  0.002  0.000  0.020
    8  0.001  0.001  0.000  0.002
    9  0.018  0.002  0.000  0.020
   10  0.011  0.001  0.000  0.012
   11  0.002  0.002  0.000  0.004
   12  0.001  0.001  0.000  0.002
   13  0.032  0.001  0.000  0.032
   14  0.069  0.000  0.000  0.069
   15  0.009  0.000  0.000  0.009
   16  0.011  0.000  0.000  0.011
   17  0.068  0.001  0.000  0.068
   18  0.069  0.000  0.000  0.069
   19  0.041  0.000  0.000  0.042
   20  0.068  0.001  0.000  0.068
   21  0.041  0.000  0.000  0.042
   22  0.070  0.001  0.000  0.071
   23  0.070  0.001  0.000  0.071
   24  0.011  0.000  0.000  0.011
   25  0.009  0.000  0.000  0.009
   26  0.032  0.001  0.000  0.032
tot    0.663  0.018  0.001  0.682
 
band     5 # energy   -9.36809436 # occ.  2.00000000
 
ion      s      p      d    tot
    1  0.000  0.000  0.000  0.000
    2  0.000  0.000  0.000  0.001
    3  0.000  0.000  0.000  0.001
    4  0.000  0.000  0.000  0.000
    5  0.019  0.003  0.000  0.022
    6  0.009  0.001  0.000  0.010
    7  0.001  0.000  0.000  0.002
    8  0.005  0.002  0.000  0.007
    9  0.001  0.000  0.000  0.002
   10  0.019  0.003  0.000  0.022
   11  0.009  0.001  0.000  0.010
   12  0.005  0.002  0.000  0.007
   13  0.012  0.000  0.000  0.012
   14  0.033  0.000  0.000  0.033
   15  0.064  0.001  0.000  0.065
   16  0.158  0.001  0.000  0.159
   17  0.005  0.001  0.000  0.005
   18  0.033  0.000  0.000  0.033
   19  0.002  0.000  0.000  0.002
   20  0.005  0.001  0.000  0.005
   21  0.002  0.000  0.000  0.002
   22  0.022  0.000  0.000  0.022
   23  0.022  0.000  0.000  0.022
   24  0.158  0.001  0.000  0.159
   25  0.064  0.001  0.000  0.065
   26  0.012  0.000  0.000  0.012
tot    0.663  0.018  0.001  0.682
 
band     6 # energy   -9.20980351 # occ.  2.00000000
 
ion      s      p      d    tot
    1  0.000  0.000  0.000  0.000
    2  0.000  0.000  0.000  0.000
    3  0.000  0.000  0.000  0.000
    4  0.000  0.000  0.000  0.000
    5  0.000  0.002  0.000  0.002
    6  0.003  0.002  0.000  0.006
    7  0.000  0.001  0.000  0.001
    8  0.004  0.002  0.000  0.006
    9  0.000  0.001  0.000  0.001
   10  0.000  0.002  0.000  0.002
   11  0.003  0.002  0.000  0.006
   12  0.004  0.002  0.000  0.006
   13  0.106  0.000  0.000  0.107
   14  0.048  0.000  0.000  0.049
   15  0.001  0.000  0.000  0.001
   16  0.004  0.000  0.000  0.004
   17  0.146  0.001  0.000  0.146
   18  0.048  0.000  0.000  0.049
   19  0.006  0.000  0.000  0.006
   20  0.146  0.001  0.000  0.146
   21  0.006  0.000  0.000  0.006
   22  0.026  0.000  0.000  0.026
   23  0.026  0.000  0.000  0.026
   24  0.004  0.000  0.000  0.004
   25  0.001  0.000  0.000  0.001
   26  0.106  0.000  0.000  0.107
tot    0.691  0.018  0.001  0.710
 
band     7 # energy   -9.11232009 # occ.  2.00000000
 
ion      s      p      d    tot
    1  0.000  0.000  0.000  0.000
    2  0.000  0.000  0.000  0.000
    3  0.000  0.000  0.000  0.000
    4  0.000  0.000  0.000  0.000
    5  0.002  0.002  0.000  0.003
    6  0.001  0.001  0.000  0.002
    7  0.003  0.002  0.000  0.005
    8  0.001  0.002  0.000  0.003
    9  0.003  0.002  0.000  0.005
   10  0.002  0.002  0.000  0.003
   11  0.001  0.001  0.000  0.002
   12  0.001  0.002  0.000  0.003
   13  0.163  0.000  0.000  0.164
   14  0.102  0.000  0.000  0.102
   15  0.010  0.000  0.000  0.010
   16  0.007  0.000  0.000  0.008
   17  0.047  0.000  0.000  0.047
   18  0.102  0.000  0.000  0.102
   19  0.009  0.000  0.000  0.009
   20  0.047  0.000  0.000  0.047
   21  0.009  0.000  0.000  0.009
   22  0.002  0.000  0.000  0.003
   23  0.002  0.000  0.000  0.003
   24  0.007  0.000  0.000  0.008
   25  0.010  0.000  0.000  0.010
   26  0.163  0.000  0.000  0.164
tot    0.694  0.017  0.001  0.711
 
band     8 # energy   -8.98049258 # occ.  2.00000000
 
ion      s      p      d    tot
    1  0.000  0.000  0.000  0.000
    2  0.000  0.000  0.000  0.000
    3  0.000  0.000  0.000  0.000
    4  0.000  0.000  0.000  0.000
    5  0.002  0.001  0.000  0.003
    6  0.002  0.002  0.000  0.004
    7  0.006  0.001  0.000  0.007
    8  0.005  0.002  0.000  0.007
    9  0.006  0.001  0.000  0.007
   10  0.002  0.001  0.000  0.003
   11  0.002  0.002  0.000  0.004
   12  0.005  0.002  0.000  0.007
   13  0.025  0.000  0.000  0.025
   14  0.027  0.000  0.000  0.028
   15  0.101  0.001  0.000  0.102
   16  0.016  0.000  0.000  0.016
   17  0.047  0.000  0.000  0.047
   18  0.027  0.000  0.000  0.028
   19  0.084  0.000  0.000  0.084
   20  0.047  0.000  0.000  0.047
   21  0.084  0.000  0.000  0.084
   22  0.033  0.000  0.000  0.034
   23  0.033  0.000  0.000  0.034
   24  0.016  0.000  0.000  0.016
   25  0.101  0.001  0.000  0.102
   26  0.025  0.000  0.000  0.025
tot    0.695  0.017  0.002  0.714
 
band     9 # energy   -8.91033336 # occ.  2.00000000
 
ion      s      p      d    tot
    1  0.000  0.000  0.000  0.000
    2  0.000  0.000  0.000  0.000
    3  0.000  0.000  0.000  0.000
    4  0.000  0.000  0.000  0.000
    5  0.000  0.001  0.000  0.001
    6  0.002  0.001  0.000  0.003
    7  0.000  0.002  0.000  0.002
    8  0.001  0.002  0.000  0.003
    9  0.000  0.002  0.000  0.002
   10  0.000  0.001  0.000  0.001
   11  0.002  0.001  0.000  0.003
   12  0.001  0.002  0.000  0.003
   13  0.053  0.000  0.000  0.053
   14  0.110  0.000  0.000  0.110
   15  0.026  0.000  0.000  0.026
   16  0.015  0.000  0.000  0.015
   17  0.027  0.000  0.000  0.028
   18  0.110  0.000  0.000  0.110
   19  0.028  0.000  0.000  0.028
   20  0.027  0.000  0.000  0.028
   21  0.028  0.000  0.000  0.028
   22  0.090  0.000  0.000  0.090
   23  0.090  0.000  0.000  0.090
   24  0.015  0.000  0.000  0.015
   25  0.026  0.000  0.000  0.026
   26  0.053  0.000  0.000  0.053
tot    0.705  0.014  0.002  0.721
 
band    10 # energy   -8.90283928 # occ.  2.00000000
 
ion      s      p      d    tot
    1  0.000  0.000  0.000  0.000
    2  0.000  0.000  0.000  0.000
    3  0.000  0.000  0.000  0.000
    4  0.000  0.000  0.000  0.000
    5  0.000  0.002  0.000  0.003
    6  0.001  0.002  0.000  0.003
    7  0.000  0.001  0.000  0.001
    8  0.003  0.000  0.000  0.003
    9  0.000  0.001  0.000  0.001
   10  0.000  0.002  0.000  0.003
   11  0.001  0.002  0.000  0.003
   12  0.003  0.000  0.000  0.003
   13  0.036  0.000  0.000  0.036
   14  0.032  0.000  0.000  0.033
   15  0.041  0.000  0.000  0.042
   16  0.067  0.000  0.000  0.068
   17  0.097  0.000  0.000  0.097
   18  0.032  0.000  0.000  0.033
   19  0.019  0.000  0.000  0.019
   20  0.097  0.000  0.000  0.097
   21  0.019  0.000  0.000  0.019
   22  0.058  0.000  0.000  0.058
   23  0.058  0.000  0.000  0.058
   24  0.067  0.000  0.000  0.068
   25  0.041  0.000  0.000  0.042
   26  0.036  0.000  0.000  0.036
tot    0.709  0.014  0.002  0.725
 
band    11 # energy   -8.81334063 # occ.  2.00000000
 
ion      s      p      d    tot
    1  0.000  0.000  0.000  0.000
    2  0.000  0.000  0.000  0.000
    3  0.000  0.000  0.000  0.000
    4  0.000  0.000  0.000  0.000
    5  0.000  0.000  0.000  0.001
    6  0.001  0.003  0.000  0.004
    7  0.000  0.002  0.000  0.002
    8  0.001  0.002  0.000  0.003
    9  0.000  0.002  0.000  0.002
   10  0.000  0.000  0.000  0.001
   11  0.001  0.003  0.000  0.004
   12  0.001  0.002  0.000  0.003
   13  0.017  0.000  0.000  0.017
   14  0.023  0.000  0.000  0.023
   15  0.154  0.001  0.000  0.155
   16  0.003  0.000  0.000  0.003
   17  0.003  0.000  0.000  0.003
   18  0.023  0.000  0.000  0.023
   19  0.040  0.000  0.000  0.040
   20  0.003  0.000  0.000  0.003
   21  0.040  0.000  0.000  0.040
   22  0.111  0.000  0.000  0.111
   23  0.111  0.000  0.000  0.111
   24  0.003  0.000  0.000  0.003
   25  0.154  0.001  0.000  0.155
   26  0.017  0.000  0.000  0.017
tot    0.704  0.018  0.001  0.723
 
band    12 # energy   -8.78531069 # occ.  2.00000000
 
ion      s      p      d    tot
    1  0.000  0.000  0.000  0.000
    2  0.000  0.000  0.000  0.000
    3  0.000  0.000  0.000  0.000
    4  0.000  0.000  0.000  0.000
    5  0.000  0.000  0.000  0.001
    6  0.001  0.002  0.000  0.003
    7  0.001  0.002  0.000  0.003
    8  0.001  0.001  0.000  0.003
    9  0.001  0.002  0.000  0.003
   10  0.000  0.000  0.000  0.001
   11  0.001  0.002  0.000  0.003
   12  0.001  0.001  0.000  0.003
   13  0.017  0.000  0.000  0.017
   14  0.078  0.000  0.000  0.079
   15  0.120  0.000  0.000  0.120
   16  0.001  0.000  0.000  0.001
   17  0.005  0.000  0.000  0.005
   18  0.078  0.000  0.000  0.079
   19  0.118  0.000  0.000  0.118
   20  0.005  0.000  0.000  0.005
   21  0.118  0.000  0.000  0.118
   22  0.013  0.000  0.000  0.013
   23  0.013  0.000  0.000  0.013
   24  0.001  0.000  0.000  0.001
   25  0.120  0.000  0.000  0.120
   26  0.017  0.000  0.000  0.017
tot    0.710  0.014  0.002  0.725
 
band    13 # energy   -8.74005109 # occ.  2.00000000
 
ion      s      p      d    tot
    1  0.000  0.000  0.000  0.000
    2  0.000  0.001  0.000  0.001
    3  0.000  0.001  0.000  0.001
    4  0.000  0.000  0.000  0.000
    5  0.002  0.002  0.000  0.004
    6  0.001  0.000  0.000  0.002
    7  0.001  0.002  0.000  0.003
    8  0.001  0.000  0.000  0.001
    9  0.001  0.002  0.000  0.003
   10  0.002  0.002  0.000  0.004
   11  0.001  0.000  0.000  0.002
   12  0.001  0.000  0.000  0.001
   13  0.019  0.000  0.000  0.019
   14  0.011  0.000  0.000  0.011
   15  0.010  0.000  0.000  0.010
   16  0.098  0.001  0.000  0.099
   17  0.004  0.000  0.000  0.004
   18  0.011  0.000  0.000  0.011
   19  0.139  0.000  0.000  0.140
   20  0.004  0.000  0.000  0.004
   21  0.139  0.000  0.000  0.140
   22  0.071  0.000  0.000  0.071
   23  0.071  0.000  0.000  0.071
   24  0.098  0.001  0.000  0.099
   25  0.010  0.000  0.000  0.010
   26  0.019  0.000  0.000  0.019
tot    0.714  0.012  0.002  0.728
 
band    14 # energy   -8.66749793 # occ.  2.00000000
 
ion      s      p      d    tot
    1  0.000  0.000  0.000  0.000
    2  0.000  0.000  0.000  0.000
    3  0.000  0.000  0.000  0.000
    4  0.000  0.000  0.000  0.000
    5  0.002  0.002  0.001  0.005
    6  0.000  0.001  0.000  0.001
    7  0.000  0.001  0.000  0.001
    8  0.001  0.000  0.000  0.001
    9  0.000  0.001  0.000  0.001
   10  0.002  0.002  0.001  0.005
   11  0.000  0.001  0.000  0.001
   12  0.001  0.000  0.000  0.001
   13  0.029  0.000  0.000  0.029
   14  0.003  0.000  0.000  0.003
   15  0.008  0.000  0.000  0.008
   16  0.206  0.001  0.000  0.207
   17  0.003  0.000  0.000  0.003
   18  0.003  0.000  0.000  0.003
   19  0.065  0.000  0.000  0.065
   20  0.003  0.000  0.000  0.003
   21  0.065  0.000  0.000  0.065
   22  0.042  0.000  0.000  0.042
   23  0.042  0.000  0.000  0.042
   24  0.206  0.001  0.000  0.207
   25  0.008  0.000  0.000  0.008
   26  0.029  0.000  0.000  0.029
tot    0.720  0.011  0.002  0.734
 
band    15 # energy   -5.84032332 # occ.  2.00000000
 
ion      s      p      d    tot
    1  0.000  0.000  0.000  0.000
    2  0.000  0.000  0.000  0.000
    3  0.000  0.000  0.000  0.000
    4  0.000  0.000  0.000  0.000
    5  0.006  0.000  0.000  0.006
    6  0.111  0.000  0.000  0.111
    7  0.008  0.000  0.000  0.008
    8  0.130  0.000  0.000  0.131
    9  0.008  0.000  0.000  0.008
   10  0.006  0.000  0.000  0.006
   11  0.111  0.000  0.000  0.111
   12  0.130  0.000  0.000  0.131
   13  0.000  0.003  0.000  0.004
   14  0.001  0.008  0.000  0.009
   15  0.000  0.008  0.001  0.008
   16  0.006  0.001  0.000  0.007
   17  0.000  0.006  0.000  0.006
   18  0.001  0.008  0.000  0.009
   19  0.001  0.001  0.000  0.002
   20  0.000  0.006  0.000  0.006
   21  0.001  0.001  0.000  0.002
   22  0.012  0.003  0.000  0.015
   23  0.012  0.003  0.000  0.015
   24  0.006  0.001  0.000  0.007
   25  0.000  0.008  0.001  0.008
   26  0.000  0.003  0.000  0.004
tot    0.549  0.061  0.004  0.614
 
band    16 # energy   -5.79229800 # occ.  2.00000000
 
ion      s      p      d    tot
    1  0.000  0.000  0.000  0.000
    2  0.000  0.000  0.000  0.000
    3  0.000  0.000  0.000  0.000
    4  0.000  0.000  0.000  0.000
    5  0.046  0.000  0.000  0.046
    6  0.025  0.000  0.000  0.025
    7  0.091  0.000  0.000  0.091
    8  0.096  0.000  0.000  0.097
    9  0.091  0.000  0.000  0.091
   10  0.046  0.000  0.000  0.046
   11  0.025  0.000  0.000  0.025
   12  0.096  0.000  0.000  0.097
   13  0.000  0.006  0.000  0.007
   14  0.001  0.004  0.001  0.006
   15  0.003  0.004  0.000  0.007
   16  0.001  0.003  0.000  0.004
   17  0.004  0.003  0.000  0.008
   18  0.001  0.004  0.001  0.006
   19  0.006  0.005  0.000  0.011
   20  0.004  0.003  0.000  0.008
   21  0.006  0.005  0.000  0.011
   22  0.002  0.003  0.000  0.005
   23  0.002  0.003  0.000  0.005
   24  0.001  0.003  0.000  0.004
   25  0.003  0.004  0.000  0.007
   26  0.000  0.006  0.000  0.007
tot    0.549  0.058  0.004  0.612
 
band    17 # energy   -5.59255061 # occ.  2.00000000
 
ion      s      p      d    tot
    1  0.000  0.000  0.000  0.000
    2  0.000  0.000  0.000  0.000
    3  0.000  0.000  0.000  0.000
    4  0.000  0.000  0.000  0.000
    5  0.128  0.000  0.000  0.128
    6  0.048  0.001  0.000  0.049
    7  0.019  0.000  0.000  0.019
    8  0.062  0.000  0.000  0.062
    9  0.019  0.000  0.000  0.019
   10  0.128  0.000  0.000  0.128
   11  0.048  0.001  0.000  0.049
   12  0.062  0.000  0.000  0.062
   13  0.003  0.004  0.000  0.007
   14  0.008  0.001  0.000  0.010
   15  0.008  0.003  0.000  0.011
   16  0.005  0.005  0.001  0.010
   17  0.003  0.007  0.001  0.011
   18  0.008  0.001  0.000  0.010
   19  0.001  0.002  0.000  0.004
   20  0.003  0.007  0.001  0.011
   21  0.001  0.002  0.000  0.004
   22  0.001  0.003  0.000  0.005
   23  0.001  0.003  0.000  0.005
   24  0.005  0.005  0.001  0.010
   25  0.008  0.003  0.000  0.011
   26  0.003  0.004  0.000  0.007
tot    0.571  0.055  0.005  0.631
 
band    18 # energy   -5.43293288 # occ.  2.00000000
 
ion      s      p      d    tot
    1  0.000  0.000  0.000  0.000
    2  0.000  0.000  0.000  0.000
    3  0.000  0.000  0.000  0.000
    4  0.000  0.000  0.000  0.000
    5  0.108  0.000  0.000  0.109
    6  0.027  0.000  0.000  0.027
    7  0.099  0.000  0.000  0.099
    8  0.001  0.000  0.000  0.001
    9  0.099  0.000  0.000  0.099
   10  0.108  0.000  0.000  0.109
   11  0.027  0.000  0.000  0.027
   12  0.001  0.000  0.000  0.001
   13  0.000  0.004  0.000  0.005
   14  0.004  0.002  0.000  0.007
   15  0.004  0.001  0.000  0.005
   16  0.024  0.005  0.000  0.029
   17  0.009  0.004  0.000  0.014
   18  0.004  0.002  0.000  0.007
   19  0.013  0.007  0.000  0.020
   20  0.009  0.004  0.000  0.014
   21  0.013  0.007  0.000  0.020
   22  0.001  0.003  0.000  0.005
   23  0.001  0.003  0.000  0.005
   24  0.024  0.005  0.000  0.029
   25  0.004  0.001  0.000  0.005
   26  0.000  0.004  0.000  0.005
tot    0.581  0.056  0.004  0.640
 
band    19 # energy   -5.40665680 # occ.  2.00000000
 
ion      s      p      d    tot
    1  0.000  0.000  0.000  0.000
    2  0.000  0.000  0.000  0.000
    3  0.000  0.000  0.000  0.000
    4  0.000  0.000  0.000  0.000
    5  0.049  0.000  0.000  0.050
    6  0.085  0.000  0.000  0.085
    7  0.068  0.000  0.000  0.068
    8  0.027  0.000  0.000  0.027
    9  0.068  0.000  0.000  0.068
   10  0.049  0.000  0.000  0.050
   11  0.085  0.000  0.000  0.085
   12  0.027  0.000  0.000  0.027
   13  0.001  0.006  0.000  0.007
   14  0.004  0.005  0.000  0.008
   15  0.025  0.003  0.000  0.028
   16  0.009  0.004  0.000  0.013
   17  0.006  0.005  0.000  0.011
   18  0.004  0.005  0.000  0.008
   19  0.006  0.002  0.000  0.009
   20  0.006  0.005  0.000  0.011
   21  0.006  0.002  0.000  0.009
   22  0.010  0.005  0.000  0.014
   23  0.010  0.005  0.000  0.014
   24  0.009  0.004  0.000  0.013
   25  0.025  0.003  0.000  0.028
   26  0.001  0.006  0.000  0.007
tot    0.579  0.058  0.003  0.641
 
band    20 # energy   -5.01544199 # occ.  2.00000000
 
ion      s      p      d    tot
    1  0.000  0.000  0.000  0.000
    2  0.000  0.000  0.000  0.000
    3  0.000  0.000  0.000  0.000
    4  0.000  0.000  0.000  0.000
    5  0.028  0.000  0.000  0.028
    6  0.061  0.000  0.000  0.062
    7  0.109  0.000  0.000  0.110
    8  0.036  0.001  0.000  0.036
    9  0.109  0.000  0.000  0.110
   10  0.028  0.000  0.000  0.028
   11  0.061  0.000  0.000  0.062
   12  0.036  0.001  0.000  0.036
   13  0.000  0.004  0.000  0.005
   14  0.024  0.003  0.000  0.027
   15  0.008  0.003  0.000  0.012
   16  0.000  0.001  0.000  0.002
   17  0.002  0.005  0.000  0.007
   18  0.024  0.003  0.000  0.027
   19  0.009  0.004  0.000  0.014
   20  0.002  0.005  0.000  0.007
   21  0.009  0.004  0.000  0.014
   22  0.027  0.003  0.000  0.030
   23  0.027  0.003  0.000  0.030
   24  0.000  0.001  0.000  0.002
   25  0.008  0.003  0.000  0.012
   26  0.000  0.004  0.000  0.005
tot    0.611  0.051  0.004  0.667
 
band    21 # energy   -4.61073241 # occ.  2.00000000
 
ion      s      p      d    tot
    1  0.000  0.000  0.000  0.000
    2  0.000  0.000  0.000  0.000
    3  0.000  0.000  0.000  0.000
    4  0.000  0.000  0.000  0.000
    5  0.066  0.000  0.000  0.066
    6  0.063  0.000  0.000  0.064
    7  0.003  0.001  0.000  0.004
    8  0.073  0.000  0.000  0.074
    9  0.003  0.001  0.000  0.004
   10  0.066  0.000  0.000  0.066
   11  0.063  0.000  0.000  0.064
   12  0.073  0.000  0.000  0.074
   13  0.025  0.005  0.000  0.030
   14  0.005  0.005  0.000  0.011
   15  0.024  0.004  0.000  0.028
   16  0.017  0.005  0.000  0.022
   17  0.030  0.004  0.000  0.034
   18  0.005  0.005  0.000  0.011
   19  0.005  0.001  0.000  0.005
   20  0.030  0.004  0.000  0.034
   21  0.005  0.001  0.000  0.005
   22  0.003  0.003  0.000  0.006
   23  0.003  0.003  0.000  0.006
   24  0.017  0.005  0.000  0.022
   25  0.024  0.004  0.000  0.028
   26  0.025  0.005  0.000  0.030
tot    0.629  0.058  0.002  0.689
 
band    22 # energy   -4.21986441 # occ.  2.00000000
 
ion      s      p      d    tot
    1  0.001  0.000  0.000  0.001
    2  0.000  0.000  0.000  0.000
    3  0.000  0.000  0.000  0.000
    4  0.001  0.000  0.000  0.001
    5  0.035  0.000  0.000  0.036
    6  0.046  0.000  0.000  0.046
    7  0.072  0.000  0.000  0.072
    8  0.058  0.000  0.000  0.058
    9  0.072  0.000  0.000  0.072
   10  0.035  0.000  0.000  0.036
   11  0.046  0.000  0.000  0.046
   12  0.058  0.000  0.000  0.058
   13  0.027  0.002  0.000  0.029
   14  0.020  0.004  0.000  0.025
   15  0.012  0.004  0.000  0.016
   16  0.008  0.004  0.000  0.012
   17  0.016  0.004  0.000  0.020
   18  0.020  0.004  0.000  0.025
   19  0.022  0.004  0.000  0.026
   20  0.016  0.004  0.000  0.020
   21  0.022  0.004  0.000  0.026
   22  0.010  0.003  0.000  0.014
   23  0.010  0.003  0.000  0.014
   24  0.008  0.004  0.000  0.012
   25  0.012  0.004  0.000  0.016
   26  0.027  0.002  0.000  0.029
tot    0.657  0.051  0.002  0.710
 
band    23 # energy   -1.60383758 # occ.  2.00000000
 
ion      s      p      d    tot
    1  0.000  0.001  0.000  0.001
    2  0.000  0.001  0.000  0.001
    3  0.000  0.001  0.000  0.001
    4  0.000  0.001  0.000  0.001
    5  0.000  0.016  0.000  0.016
    6  0.000  0.010  0.000  0.011
    7  0.001  0.022  0.000  0.023
    8  0.000  0.021  0.000  0.021
    9  0.001  0.022  0.000  0.023
   10  0.000  0.016  0.000  0.016
   11  0.000  0.010  0.000  0.011
   12  0.000  0.021  0.000  0.021
   13  0.000  0.038  0.000  0.038
   14  0.000  0.013  0.000  0.014
   15  0.001  0.007  0.000  0.008
   16  0.001  0.014  0.000  0.015
   17  0.001  0.016  0.000  0.017
   18  0.000  0.013  0.000  0.014
   19  0.000  0.029  0.000  0.029
   20  0.001  0.016  0.000  0.017
   21  0.000  0.029  0.000  0.029
   22  0.000  0.007  0.000  0.007
   23  0.000  0.007  0.000  0.007
   24  0.001  0.014  0.000  0.015
   25  0.001  0.007  0.000  0.008
   26  0.000  0.038  0.000  0.038
tot    0.010  0.389  0.003  0.402
 
band    24 # energy   -1.30238523 # occ.  2.00000000
 
ion      s      p      d    tot
    1  0.000  0.000  0.000  0.000
    2  0.000  0.001  0.000  0.001
    3  0.000  0.001  0.000  0.001
    4  0.000  0.000  0.000  0.000
    5  0.000  0.026  0.000  0.026
    6  0.000  0.017  0.000  0.018
    7  0.000  0.015  0.000  0.015
    8  0.000  0.014  0.000  0.014
    9  0.000  0.015  0.000  0.015
   10  0.000  0.026  0.000  0.026
   11  0.000  0.017  0.000  0.018
   12  0.000  0.014  0.000  0.014
   13  0.001  0.032  0.000  0.034
   14  0.000  0.023  0.000  0.024
   15  0.000  0.004  0.000  0.004
   16  0.000  0.027  0.000  0.028
   17  0.002  0.018  0.000  0.020
   18  0.000  0.023  0.000  0.024
   19  0.000  0.010  0.000  0.010
   20  0.002  0.018  0.000  0.020
   21  0.000  0.010  0.000  0.010
   22  0.000  0.016  0.000  0.017
   23  0.000  0.016  0.000  0.017
   24  0.000  0.027  0.000  0.028
   25  0.000  0.004  0.000  0.004
   26  0.001  0.032  0.000  0.034
tot    0.011  0.407  0.004  0.422
 
band    25 # energy   -1.15464421 # occ.  2.00000000
 
ion      s      p      d    tot
    1  0.001  0.001  0.000  0.002
    2  0.000  0.000  0.000  0.001
    3  0.000  0.000  0.000  0.001
    4  0.001  0.001  0.000  0.002
    5  0.001  0.006  0.000  0.007
    6  0.000  0.021  0.000  0.021
    7  0.000  0.015  0.000  0.016
    8  0.001  0.025  0.000  0.026
    9  0.000  0.015  0.000  0.016
   10  0.001  0.006  0.000  0.007
   11  0.000  0.021  0.000  0.021
   12  0.001  0.025  0.000  0.026
   13  0.001  0.031  0.000  0.032
   14  0.000  0.034  0.000  0.035
   15  0.000  0.019  0.000  0.019
   16  0.000  0.011  0.000  0.011
   17  0.002  0.017  0.000  0.019
   18  0.000  0.034  0.000  0.035
   19  0.000  0.014  0.000  0.014
   20  0.002  0.017  0.000  0.019
   21  0.000  0.014  0.000  0.014
   22  0.001  0.008  0.000  0.009
   23  0.001  0.008  0.000  0.009
   24  0.000  0.011  0.000  0.011
   25  0.000  0.019  0.000  0.019
   26  0.001  0.031  0.000  0.032
tot    0.014  0.403  0.005  0.422
 
band    26 # energy   -1.09735192 # occ.  2.00000000
 
ion      s      p      d    tot
    1  0.000  0.000  0.000  0.001
    2  0.001  0.000  0.000  0.001
    3  0.001  0.000  0.000  0.001
    4  0.000  0.000  0.000  0.001
    5  0.001  0.022  0.000  0.023
    6  0.001  0.027  0.000  0.028
    7  0.000  0.015  0.000  0.015
    8  0.000  0.006  0.000  0.006
    9  0.000  0.015  0.000  0.015
   10  0.001  0.022  0.000  0.023
   11  0.001  0.027  0.000  0.028
   12  0.000  0.006  0.000  0.006
   13  0.000  0.042  0.000  0.043
   14  0.001  0.019  0.000  0.020
   15  0.000  0.005  0.000  0.006
   16  0.000  0.013  0.000  0.013
   17  0.000  0.023  0.000  0.024
   18  0.001  0.019  0.000  0.020
   19  0.000  0.002  0.000  0.002
   20  0.000  0.023  0.000  0.024
   21  0.000  0.002  0.000  0.002
   22  0.001  0.031  0.000  0.032
   23  0.001  0.031  0.000  0.032
   24  0.000  0.013  0.000  0.013
   25  0.000  0.005  0.000  0.006
   26  0.000  0.042  0.000  0.043
tot    0.012  0.411  0.005  0.428
 
band    27 # energy   -1.06775435 # occ.  2.00000000
 
ion      s      p      d    tot
    1  0.000  0.001  0.000  0.001
    2  0.000  0.000  0.000  0.001
    3  0.000  0.000  0.000  0.001
    4  0.000  0.001  0.000  0.001
    5  0.000  0.014  0.000  0.015
    6  0.001  0.023  0.000  0.024
    7  0.000  0.011  0.000  0.012
    8  0.000  0.021  0.000  0.022
    9  0.000  0.011  0.000  0.012
   10  0.000  0.014  0.000  0.015
   11  0.001  0.023  0.000  0.024
   12  0.000  0.021  0.000  0.022
   13  0.001  0.034  0.000  0.035
   14  0.001  0.020  0.000  0.022
   15  0.002  0.017  0.000  0.019
   16  0.000  0.013  0.000  0.013
   17  0.000  0.020  0.000  0.021
   18  0.001  0.020  0.000  0.022
   19  0.001  0.009  0.000  0.010
   20  0.000  0.020  0.000  0.021
   21  0.001  0.009  0.000  0.010
   22  0.002  0.018  0.000  0.020
   23  0.002  0.018  0.000  0.020
   24  0.000  0.013  0.000  0.013
   25  0.002  0.017  0.000  0.019
   26  0.001  0.034  0.000  0.035
tot    0.019  0.402  0.005  0.426
 
band    28 # energy   -0.90029086 # occ.  2.00000000
 
ion      s      p      d    tot
    1  0.000  0.000  0.000  0.000
    2  0.000  0.001  0.000  0.001
    3  0.000  0.001  0.000  0.001
    4  0.000  0.000  0.000  0.000
    5  0.000  0.011  0.000  0.011
    6  0.001  0.028  0.000  0.029
    7  0.001  0.012  0.000  0.013
    8  0.001  0.021  0.000  0.022
    9  0.001  0.012  0.000  0.013
   10  0.000  0.011  0.000  0.011
   11  0.001  0.028  0.000  0.029
   12  0.001  0.021  0.000  0.022
   13  0.000  0.018  0.000  0.019
   14  0.000  0.042  0.000  0.043
   15  0.000  0.006  0.000  0.007
   16  0.000  0.017  0.000  0.017
   17  0.001  0.032  0.000  0.033
   18  0.000  0.042  0.000  0.043
   19  0.000  0.008  0.000  0.009
   20  0.001  0.032  0.000  0.033
   21  0.000  0.008  0.000  0.009
   22  0.001  0.011  0.000  0.013
   23  0.001  0.011  0.000  0.013
   24  0.000  0.017  0.000  0.017
   25  0.000  0.006  0.000  0.007
   26  0.000  0.018  0.000  0.019
tot    0.013  0.414  0.005  0.432
 
band    29 # energy   -0.60140282 # occ.  2.00000000
 
ion      s      p      d    tot
    1  0.000  0.000  0.000  0.001
    2  0.000  0.001  0.000  0.001
    3  0.000  0.001  0.000  0.001
    4  0.000  0.000  0.000  0.001
    5  0.001  0.023  0.000  0.024
    6  0.000  0.017  0.000  0.017
    7  0.000  0.009  0.000  0.010
    8  0.000  0.020  0.000  0.020
    9  0.000  0.009  0.000  0.010
   10  0.001  0.023  0.000  0.024
   11  0.000  0.017  0.000  0.017
   12  0.000  0.020  0.000  0.020
   13  0.001  0.018  0.000  0.019
   14  0.001  0.005  0.000  0.006
   15  0.000  0.031  0.000  0.031
   16  0.000  0.027  0.000  0.027
   17  0.001  0.026  0.000  0.027
   18  0.001  0.005  0.000  0.006
   19  0.002  0.016  0.000  0.018
   20  0.001  0.026  0.000  0.027
   21  0.002  0.016  0.000  0.018
   22  0.001  0.021  0.000  0.022
   23  0.001  0.021  0.000  0.022
   24  0.000  0.027  0.000  0.027
   25  0.000  0.031  0.000  0.031
   26  0.001  0.018  0.000  0.019
tot    0.014  0.429  0.007  0.449
 
band    30 # energy   -0.43663424 # occ.  2.00000000
 
ion      s      p      d    tot
    1  0.000  0.001  0.000  0.001
    2  0.002  0.001  0.000  0.003
    3  0.002  0.001  0.000  0.003
    4  0.000  0.001  0.000  0.001
    5  0.001  0.028  0.000  0.029
    6  0.001  0.006  0.000  0.008
    7  0.002  0.026  0.000  0.028
    8  0.000  0.004  0.000  0.005
    9  0.002  0.026  0.000  0.028
   10  0.001  0.028  0.000  0.029
   11  0.001  0.006  0.000  0.008
   12  0.000  0.004  0.000  0.005
   13  0.001  0.014  0.000  0.015
   14  0.000  0.006  0.000  0.006
   15  0.000  0.011  0.000  0.011
   16  0.002  0.033  0.000  0.036