/etc/profile: 第 79 行:ulimit: stack size: 无法修改 limit 值: 不允许的操作
/home/customer/.bashrc: 第 12 行:ulimit: stack size: 无法修改 limit 值: 不允许的操作
Intel(R) Parallel Studio XE 2018 Update 3 for Linux*
Copyright (C) 2009-2018 Intel Corporation. All rights reserved.
 running on   14 total cores
 distrk:  each k-point on   14 cores,    1 groups
 distr:  one band on    1 cores,   14 groups
 using from now: INCAR     
 vasp.5.4.4.18Apr17-6-g9f103f2a35 (build Oct 27 2022 13:04:57) complex          
  
 POSCAR found type information on POSCAR  Li Sb Se
 POSCAR found :  3 types and      26 ions
 scaLAPACK will be used

 ----------------------------------------------------------------------------- 
|                                                                             |
|           W    W    AA    RRRRR   N    N  II  N    N   GGGG   !!!           |
|           W    W   A  A   R    R  NN   N  II  NN   N  G    G  !!!           |
|           W    W  A    A  R    R  N N  N  II  N N  N  G       !!!           |
|           W WW W  AAAAAA  RRRRR   N  N N  II  N  N N  G  GGG   !            |
|           WW  WW  A    A  R   R   N   NN  II  N   NN  G    G                |
|           W    W  A    A  R    R  N    N  II  N    N   GGGG   !!!           |
|                                                                             |
|      For optimal performance we recommend to set                            |
|        NCORE= 4 - approx SQRT( number of cores)                             |
|      NCORE specifies how many cores store one orbital (NPAR=cpu/NCORE).     |
|      This setting can  greatly improve the performance of VASP for DFT.     |
|      The default,   NCORE=1            might be grossly inefficient         |
|      on modern multi-core architectures or massively parallel machines.     |
|      Do your own testing !!!!                                               |
|      Unfortunately you need to use the default for GW and RPA calculations. |
|      (for HF NCORE is supported but not extensively tested yet)             |
|                                                                             |
 ----------------------------------------------------------------------------- 

 LDA part: xc-table for Pade appr. of Perdew
 POSCAR, INCAR and KPOINTS ok, starting setup
 FFT: planning ...
 WAVECAR not read
 entering main loop
       N       E                     dE             d eps       ncg     rms          rms(c)
DAV:   1     0.587356831287E+03    0.58736E+03   -0.34101E+04  1008   0.786E+02
DAV:   2    -0.300128399089E+02   -0.61737E+03   -0.59816E+03  1260   0.172E+02
DAV:   3    -0.974433508635E+02   -0.67431E+02   -0.66732E+02  1218   0.620E+01
DAV:   4    -0.991977695397E+02   -0.17544E+01   -0.17446E+01  1288   0.107E+01
DAV:   5    -0.992379215164E+02   -0.40152E-01   -0.40131E-01  1274   0.161E+00    0.159E+01
DAV:   6    -0.962702541648E+02    0.29677E+01   -0.56328E+00  1176   0.539E+00    0.108E+01
DAV:   7    -0.960543269549E+02    0.21593E+00   -0.29784E+00  1260   0.357E+00    0.269E+00
DAV:   8    -0.960195674387E+02    0.34760E-01   -0.26451E-01  1260   0.140E+00    0.127E+00
DAV:   9    -0.960350139783E+02   -0.15447E-01   -0.62734E-02  1176   0.700E-01    0.308E-01
DAV:  10    -0.960361498454E+02   -0.11359E-02   -0.17581E-03  1330   0.128E-01    0.145E-01
DAV:  11    -0.960392622801E+02   -0.31124E-02   -0.43812E-03  1176   0.172E-01    0.544E-02
DAV:  12    -0.960395265974E+02   -0.26432E-03   -0.42809E-04  1190   0.576E-02    0.462E-02
DAV:  13    -0.960396039179E+02   -0.77321E-04   -0.95156E-05   840   0.288E-02
   1 F= -.96039604E+02 E0= -.96039604E+02  d E =-.960396E+02
 curvature:   0.00 expect dE= 0.000E+00 dE for cont linesearch  0.000E+00
 trial: gam= 0.00000 g(F)=  0.124E+01 g(S)=  0.120E+01 ort = 0.000E+00 (trialstep = 0.100E+01)
 search vector abs. value=  0.243E+01
 bond charge predicted
       N       E                     dE             d eps       ncg     rms          rms(c)
DAV:   1    -0.982735908925E+02   -0.22341E+01   -0.16127E+01  1190   0.103E+01    0.426E+00
DAV:   2    -0.980060247662E+02    0.26757E+00   -0.13051E+00  1190   0.290E+00    0.174E+00
DAV:   3    -0.979226204904E+02    0.83404E-01   -0.27725E-01  1260   0.110E+00    0.539E-01
DAV:   4    -0.979108518602E+02    0.11769E-01   -0.11290E-02  1330   0.309E-01    0.305E-01
DAV:   5    -0.979082434214E+02    0.26084E-02   -0.85785E-03  1260   0.210E-01    0.150E-01
DAV:   6    -0.979083688674E+02   -0.12545E-03   -0.63199E-04  1260   0.670E-02    0.738E-02
DAV:   7    -0.979083485127E+02    0.20355E-04   -0.25292E-04   840   0.426E-02
   2 F= -.97908349E+02 E0= -.97908349E+02  d E =-.186874E+01
 trial-energy change:   -1.868745  1 .order   -1.886944   -2.434665   -1.339224
 step:   2.6648(harm=  2.2225)  dis= 0.06629  next Energy=   -98.939125 (dE=-0.290E+01)
 bond charge predicted
       N       E                     dE             d eps       ncg     rms          rms(c)
DAV:   1    -0.998634932038E+02   -0.19551E+01   -0.44030E+01  1176   0.166E+01    0.644E+00
DAV:   2    -0.991343512610E+02    0.72914E+00   -0.35508E+00  1246   0.476E+00    0.272E+00
DAV:   3    -0.989183414688E+02    0.21601E+00   -0.70771E-01  1204   0.176E+00    0.925E-01
DAV:   4    -0.988819207987E+02    0.36421E-01   -0.37116E-02  1316   0.535E-01    0.475E-01
DAV:   5    -0.988753339506E+02    0.65868E-02   -0.22527E-02  1260   0.332E-01    0.243E-01
DAV:   6    -0.988756558080E+02   -0.32186E-03   -0.13337E-03  1260   0.964E-02    0.126E-01
DAV:   7    -0.988756615466E+02   -0.57385E-05   -0.78696E-04  1176   0.722E-02
   3 F= -.98875662E+02 E0= -.98875662E+02  d E =-.283606E+01
 curvature:  -0.97 expect dE=-0.853E-01 dE for cont linesearch -0.342E-02
 ZBRENT: interpolating
 opt :   2.5569  next Energy=   -98.880670 (dE=-0.284E+01)
 bond charge predicted
       N       E                     dE             d eps       ncg     rms          rms(c)
DAV:   1    -0.988856448061E+02   -0.99890E-02   -0.19040E-01  1176   0.110E+00    0.449E-01
DAV:   2    -0.988825525514E+02    0.30923E-02   -0.14379E-02  1190   0.305E-01    0.169E-01
DAV:   3    -0.988817076785E+02    0.84487E-03   -0.29893E-03  1260   0.113E-01    0.600E-02
DAV:   4    -0.988815781630E+02    0.12952E-03   -0.12271E-04   854   0.340E-02    0.330E-02
DAV:   5    -0.988815598097E+02    0.18353E-04   -0.14082E-04   756   0.270E-02
   4 F= -.98881560E+02 E0= -.98881560E+02  d E =-.284196E+01
 curvature:  -1.42 expect dE=-0.117E+00 dE for cont linesearch -0.321E-03
 ZBRENT: interpolating
 opt :   2.5209  next Energy=   -98.881989 (dE=-0.284E+01)
 bond charge predicted
       N       E                     dE             d eps       ncg     rms          rms(c)
DAV:   1    -0.988821795197E+02   -0.60136E-03   -0.21447E-02  1176   0.370E-01    0.143E-01
DAV:   2    -0.988818289049E+02    0.35061E-03   -0.15866E-03  1190   0.101E-01    0.530E-02
DAV:   3    -0.988817341444E+02    0.94761E-04   -0.31098E-04   938   0.377E-02
   5 F= -.98881734E+02 E0= -.98881734E+02  d E =-.284213E+01
 curvature:  -1.89 expect dE=-0.155E+00 dE for cont linesearch -0.237E-05
 trial: gam= 0.03439 g(F)=  0.384E-01 g(S)=  0.436E-01 ort =-0.174E-02 (trialstep = 0.130E+01)
 search vector abs. value=  0.847E-01
 bond charge predicted
       N       E                     dE             d eps       ncg     rms          rms(c)
DAV:   1    -0.989991195437E+02   -0.11729E+00   -0.12711E+00  1022   0.274E+00    0.662E-01
DAV:   2    -0.989907148551E+02    0.84047E-02   -0.69048E-02  1176   0.676E-01    0.305E-01
DAV:   3    -0.989864032168E+02    0.43116E-02   -0.85909E-03  1260   0.210E-01    0.164E-01
DAV:   4    -0.989853771204E+02    0.10261E-02   -0.21582E-03  1274   0.114E-01    0.733E-02
DAV:   5    -0.989853109475E+02    0.66173E-04   -0.32649E-04   924   0.466E-02
   6 F= -.98985311E+02 E0= -.98985311E+02  d E =-.103577E+00
 ZBRENT: can't locate minimum, use default step
 trial-energy change:   -0.103577  1 .order   -0.104216   -0.106842   -0.101590
 step:   5.2167(harm= 26.5349)  dis= 0.03063  next Energy=   -99.968632 (dE=-0.109E+01)
 bond charge predicted
       N       E                     dE             d eps       ncg     rms          rms(c)
DAV:   1    -0.993754946811E+02   -0.39012E+00   -0.11576E+01  1008   0.829E+00    0.201E+00
DAV:   2    -0.993007829658E+02    0.74712E-01   -0.63304E-01  1176   0.204E+00    0.915E-01
DAV:   3    -0.992625816060E+02    0.38201E-01   -0.77996E-02  1260   0.638E-01    0.494E-01
DAV:   4    -0.992537029900E+02    0.88786E-02   -0.18829E-02  1260   0.341E-01    0.225E-01
DAV:   5    -0.992530967676E+02    0.60622E-03   -0.31160E-03  1288   0.138E-01    0.111E-01
DAV:   6    -0.992531440970E+02   -0.47329E-04   -0.28743E-04  1036   0.459E-02
   7 F= -.99253144E+02 E0= -.99253144E+02  d E =-.371410E+00
 curvature:  -3.93 expect dE=-0.246E+00 dE for cont linesearch -0.186E+00
 ZBRENT: increasing intervall
 opt :  13.0419  next Energy=   -99.635198 (dE=-0.753E+00)
 bond charge predicted
       N       E                     dE             d eps       ncg     rms          rms(c)
DAV:   1    -0.100129762128E+03   -0.87667E+00   -0.47189E+01  1008   0.168E+01    0.420E+00
DAV:   2    -0.998239714663E+02    0.30579E+00   -0.26374E+00  1190   0.413E+00    0.185E+00
DAV:   3    -0.996711789858E+02    0.15279E+00   -0.31998E-01  1260   0.130E+00    0.103E+00
DAV:   4    -0.996364557315E+02    0.34723E-01   -0.74037E-02  1260   0.684E-01    0.484E-01
DAV:   5    -0.996338466646E+02    0.26091E-02   -0.11998E-02  1274   0.274E-01    0.232E-01
DAV:   6    -0.996339415025E+02   -0.94838E-04   -0.13107E-03  1316   0.944E-02    0.116E-01
DAV:   7    -0.996340658984E+02   -0.12440E-03   -0.28382E-04   896   0.520E-02    0.191E-02
DAV:   8    -0.996340825086E+02   -0.16610E-04   -0.55153E-05   756   0.207E-02
   8 F= -.99634083E+02 E0= -.99634083E+02  d E =-.752348E+00
 curvature:  -8.06 expect dE=-0.761E+00 dE for cont linesearch -0.122E+00
 ZBRENT: increasing intervall
 opt :  28.6921  next Energy=   -99.765429 (dE=-0.884E+00)
 bond charge predicted
       N       E                     dE             d eps       ncg     rms          rms(c)
DAV:   1    -0.101637967768E+03   -0.20039E+01   -0.19558E+02  1036   0.346E+01    0.981E+00
DAV:   2    -0.100414015972E+03    0.12240E+01   -0.11699E+01  1218   0.855E+00    0.383E+00
DAV:   3    -0.998221998726E+02    0.59182E+00   -0.12537E+00  1260   0.264E+00    0.238E+00
DAV:   4    -0.996712394010E+02    0.15096E+00   -0.31627E-01  1260   0.143E+00    0.113E+00
DAV:   5    -0.996590297758E+02    0.12210E-01   -0.51192E-02  1330   0.576E-01    0.523E-01
DAV:   6    -0.996588646366E+02    0.16514E-03   -0.58387E-03  1288   0.195E-01    0.250E-01
DAV:   7    -0.996591871286E+02   -0.32249E-03   -0.10948E-03  1232   0.996E-02    0.405E-02
DAV:   8    -0.996592420231E+02   -0.54894E-04   -0.15678E-04   784   0.339E-02
   9 F= -.99659242E+02 E0= -.99659242E+02  d E =-.777508E+00
 curvature:  -8.65 expect dE=-0.438E+01 dE for cont linesearch -0.736E-01
 ZBRENT: bracketing found
 ZBRENT: interpolating
 opt :  21.9931  next Energy=   -99.749172 (dE=-0.867E+00)
 bond charge predicted
       N       E                     dE             d eps       ncg     rms          rms(c)
DAV:   1    -0.100157748403E+03   -0.49856E+00   -0.35245E+01  1008   0.143E+01    0.349E+00
DAV:   2    -0.999233446756E+02    0.23440E+00   -0.18487E+00  1176   0.358E+00    0.176E+00
DAV:   3    -0.998033577306E+02    0.11999E+00   -0.22819E-01  1260   0.109E+00    0.933E-01
DAV:   4    -0.997696685210E+02    0.33689E-01   -0.64449E-02  1260   0.629E-01    0.345E-01
DAV:   5    -0.997678881621E+02    0.17804E-02   -0.10807E-02  1288   0.257E-01    0.186E-01
DAV:   6    -0.997680327910E+02   -0.14463E-03   -0.86486E-04  1246   0.770E-02    0.112E-01
DAV:   7    -0.997681501100E+02   -0.11732E-03   -0.22832E-04   840   0.464E-02    0.220E-02
DAV:   8    -0.997681738134E+02   -0.23703E-04   -0.53031E-05   756   0.194E-02
  10 F= -.99768174E+02 E0= -.99768174E+02  d E =-.886440E+00
 curvature: -10.57 expect dE=-0.286E+01 dE for cont linesearch -0.259E-03
 trial: gam= 3.37195 g(F)=  0.205E+00 g(S)=  0.652E-01 ort = 0.144E-02 (trialstep = 0.371E+00)
 search vector abs. value=  0.124E+01
 bond charge predicted
       N       E                     dE             d eps       ncg     rms          rms(c)
DAV:   1    -0.998722260470E+02   -0.10408E+00   -0.14218E+00  1008   0.289E+00    0.641E-01
DAV:   2    -0.998692875513E+02    0.29385E-02   -0.83904E-02  1190   0.717E-01    0.270E-01
DAV:   3    -0.998665102962E+02    0.27773E-02   -0.59112E-03  1260   0.181E-01    0.154E-01
DAV:   4    -0.998657041414E+02    0.80615E-03   -0.17908E-03  1260   0.997E-02    0.678E-02
DAV:   5    -0.998656432509E+02    0.60891E-04   -0.23349E-04   812   0.404E-02
  11 F= -.99865643E+02 E0= -.99865643E+02  d E =-.974694E-01
 ZBRENT: can't locate minimum, use default step
 trial-energy change:   -0.097469  1 .order   -0.098801   -0.102023   -0.095579
 step:   1.4835(harm=  5.8713)  dis= 0.04164  next Energy=  -100.575758 (dE=-0.808E+00)
 bond charge predicted
       N       E                     dE             d eps       ncg     rms          rms(c)
DAV:   1    -0.100185011757E+03   -0.31931E+00   -0.12831E+01  1008   0.870E+00    0.191E+00
DAV:   2    -0.100156925806E+03    0.28086E-01   -0.76799E-01  1204   0.216E+00    0.795E-01
DAV:   3    -0.100131766174E+03    0.25160E-01   -0.55411E-02  1260   0.556E-01    0.454E-01
DAV:   4    -0.100125080918E+03    0.66853E-02   -0.15362E-02  1260   0.295E-01    0.215E-01
DAV:   5    -0.100124581556E+03    0.49936E-03   -0.21451E-03  1274   0.117E-01    0.117E-01
DAV:   6    -0.100124575467E+03    0.60887E-05   -0.35861E-04  1092   0.463E-02
  12 F= -.10012458E+03 E0= -.10012458E+03  d E =-.356402E+00
 curvature:  -4.83 expect dE=-0.866E+00 dE for cont linesearch -0.175E+00
 ZBRENT: increasing intervall
 opt :   3.7087  next Energy=  -100.494849 (dE=-0.727E+00)
 bond charge predicted
       N       E                     dE             d eps       ncg     rms          rms(c)
DAV:   1    -0.100729592539E+03   -0.60501E+00   -0.51648E+01  1008   0.175E+01    0.396E+00
DAV:   2    -0.100611535419E+03    0.11806E+00   -0.31866E+00  1218   0.438E+00    0.159E+00
DAV:   3    -0.100511368108E+03    0.10017E+00   -0.23087E-01  1260   0.115E+00    0.929E-01
DAV:   4    -0.100486605652E+03    0.24762E-01   -0.58739E-02  1260   0.586E-01    0.472E-01
DAV:   5    -0.100484597513E+03    0.20081E-02   -0.78291E-03  1274   0.225E-01    0.247E-01
DAV:   6    -0.100484465713E+03    0.13180E-03   -0.15231E-03  1274   0.942E-02    0.120E-01
DAV:   7    -0.100484520148E+03   -0.54435E-04   -0.19016E-04   840   0.459E-02
  13 F= -.10048452E+03 E0= -.10048452E+03  d E =-.716346E+00
 curvature: -10.24 expect dE=-0.105E+01 dE for cont linesearch -0.105E+00
 ZBRENT: increasing intervall
 opt :   8.1591  next Energy=  -100.547894 (dE=-0.780E+00)
 bond charge predicted
       N       E                     dE             d eps       ncg     rms          rms(c)
DAV:   1    -0.101546790381E+03   -0.10623E+01   -0.20734E+02  1008   0.353E+01    0.948E+00
DAV:   2    -0.101089742556E+03    0.45705E+00   -0.13902E+01  1176   0.907E+00    0.334E+00
DAV:   3    -0.100716587141E+03    0.37316E+00   -0.90807E-01  1246   0.235E+00    0.220E+00
DAV:   4    -0.100615270222E+03    0.10132E+00   -0.23712E-01  1260   0.121E+00    0.121E+00
DAV:   5    -0.100605582202E+03    0.96880E-02   -0.36177E-02  1260   0.483E-01    0.559E-01
DAV:   6    -0.100604583322E+03    0.99888E-03   -0.60231E-03  1274   0.193E-01    0.243E-01
DAV:   7    -0.100604732363E+03   -0.14904E-03   -0.79074E-04  1190   0.860E-02    0.394E-02
DAV:   8    -0.100604754171E+03   -0.21808E-04   -0.14258E-04   770   0.330E-02
  14 F= -.10060475E+03 E0= -.10060475E+03  d E =-.836580E+00
 curvature:  -6.16 expect dE=-0.571E+00 dE for cont linesearch -0.187E-01
 ZBRENT: bracketing found
 ZBRENT: interpolating
 opt :   6.5915  next Energy=  -100.652975 (dE=-0.885E+00)
 bond charge predicted
       N       E                     dE             d eps       ncg     rms          rms(c)
DAV:   1    -0.100760104905E+03   -0.15537E+00   -0.24786E+01  1008   0.122E+01    0.276E+00
DAV:   2    -0.100718689117E+03    0.41416E-01   -0.14691E+00  1190   0.307E+00    0.135E+00
DAV:   3    -0.100671416901E+03    0.47272E-01   -0.94896E-02  1246   0.733E-01    0.780E-01
DAV:   4    -0.100652047156E+03    0.19370E-01   -0.37973E-02  1260   0.461E-01    0.258E-01
DAV:   5    -0.100650850859E+03    0.11963E-02   -0.58883E-03  1260   0.193E-01    0.148E-01
DAV:   6    -0.100650866912E+03   -0.16053E-04   -0.69486E-04  1176   0.648E-02
  15 F= -.10065087E+03 E0= -.10065087E+03  d E =-.882693E+00
 curvature: -15.84 expect dE=-0.127E+01 dE for cont linesearch -0.158E-02
 trial: gam=-0.04739 g(F)=  0.612E-01 g(S)=  0.191E-01 ort = 0.111E-01 (trialstep = 0.161E+01)
 search vector abs. value=  0.821E-01
 bond charge predicted
       N       E                     dE             d eps       ncg     rms          rms(c)
DAV:   1    -0.100771066857E+03   -0.12022E+00   -0.12199E+00  1008   0.286E+00    0.652E-01
DAV:   2    -0.100772850634E+03   -0.17838E-02   -0.82231E-02  1288   0.732E-01    0.263E-01
DAV:   3    -0.100770855124E+03    0.19955E-02   -0.35286E-03  1260   0.165E-01    0.151E-01
DAV:   4    -0.100770067077E+03    0.78805E-03   -0.17555E-03  1274   0.111E-01    0.427E-02
DAV:   5    -0.100770046806E+03    0.20272E-04   -0.24197E-04   840   0.467E-02
  16 F= -.10077005E+03 E0= -.10077005E+03  d E =-.119180E+00
 trial-energy change:   -0.119180  1 .order   -0.118232   -0.128866   -0.107598
 step:   5.7873(harm=  9.7859)  dis= 0.04277  next Energy=  -100.925381 (dE=-0.275E+00)
 bond charge predicted
       N       E                     dE             d eps       ncg     rms          rms(c)
DAV:   1    -0.100960432774E+03   -0.19037E+00   -0.81764E+00  1008   0.741E+00    0.173E+00
DAV:   2    -0.100972974652E+03   -0.12542E-01   -0.55424E-01  1274   0.190E+00    0.676E-01
DAV:   3    -0.100959702035E+03    0.13273E-01   -0.24096E-02  1274   0.430E-01    0.388E-01
DAV:   4    -0.100954486853E+03    0.52152E-02   -0.10946E-02  1260   0.279E-01    0.116E-01
DAV:   5    -0.100954305243E+03    0.18161E-03   -0.18208E-03  1330   0.122E-01    0.830E-02
DAV:   6    -0.100954338862E+03   -0.33619E-04   -0.26352E-04   938   0.406E-02
  17 F= -.10095434E+03 E0= -.10095434E+03  d E =-.303472E+00
 curvature:  -3.83 expect dE=-0.788E-01 dE for cont linesearch -0.191E-01
 ZBRENT: extrapolating
 opt :   7.6106  next Energy=  -100.972809 (dE=-0.322E+00)
 bond charge predicted
       N       E                     dE             d eps       ncg     rms          rms(c)
DAV:   1    -0.100977097787E+03   -0.22793E-01   -0.15725E+00  1036   0.326E+00    0.752E-01
DAV:   2    -0.100979652919E+03   -0.25551E-02   -0.10803E-01  1260   0.842E-01    0.300E-01
DAV:   3    -0.100977090710E+03    0.25622E-02   -0.48101E-03  1260   0.191E-01    0.172E-01
DAV:   4    -0.100976092888E+03    0.99782E-03   -0.20343E-03  1274   0.120E-01    0.523E-02
DAV:   5    -0.100976047590E+03    0.45299E-04   -0.33824E-04   980   0.543E-02
  18 F= -.10097605E+03 E0= -.10097605E+03  d E =-.325181E+00
 curvature:  -3.69 expect dE=-0.786E-01 dE for cont linesearch -0.393E-03
 trial: gam= 0.20858 g(F)=  0.125E-01 g(S)=  0.879E-02 ort = 0.295E-02 (trialstep = 0.281E+01)
 search vector abs. value=  0.261E-01
 bond charge predicted
       N       E                     dE             d eps       ncg     rms          rms(c)
DAV:   1    -0.101033086755E+03   -0.56994E-01   -0.10372E+00  1008   0.264E+00    0.587E-01
DAV:   2    -0.101032294440E+03    0.79232E-03   -0.62343E-02  1260   0.658E-01    0.262E-01
DAV:   3    -0.101030620509E+03    0.16739E-02   -0.52274E-03  1274   0.186E-01    0.146E-01
DAV:   4    -0.101029999770E+03    0.62074E-03   -0.91426E-04  1246   0.855E-02    0.614E-02
DAV:   5    -0.101029915246E+03    0.84524E-04   -0.38350E-04  1078   0.534E-02
  19 F= -.10102992E+03 E0= -.10102992E+03  d E =-.538677E-01
 trial-energy change:   -0.053868  1 .order   -0.053437   -0.061660   -0.045215
 step:   8.1357(harm= 10.5514)  dis= 0.03888  next Energy=  -101.075577 (dE=-0.995E-01)
 bond charge predicted
       N       E                     dE             d eps       ncg     rms          rms(c)
DAV:   1    -0.101094150352E+03   -0.64151E-01   -0.37167E+00  1008   0.500E+00    0.112E+00
DAV:   2    -0.101091250733E+03    0.28996E-02   -0.22190E-01  1274   0.124E+00    0.490E-01
DAV:   3    -0.101085208242E+03    0.60425E-02   -0.18800E-02  1246   0.353E-01    0.272E-01
DAV:   4    -0.101083054323E+03    0.21539E-02   -0.31906E-03  1288   0.159E-01    0.118E-01
DAV:   5    -0.101082759573E+03    0.29475E-03   -0.13752E-03  1232   0.995E-02    0.469E-02
DAV:   6    -0.101082775640E+03   -0.16067E-04   -0.14734E-04   756   0.343E-02
  20 F= -.10108278E+03 E0= -.10108278E+03  d E =-.106728E+00
 curvature:  -5.67 expect dE=-0.545E-01 dE for cont linesearch -0.262E-02
 ZBRENT: extrapolating
 opt :   9.6036  next Energy=  -101.085325 (dE=-0.109E+00)
 bond charge predicted
       N       E                     dE             d eps       ncg     rms          rms(c)
DAV:   1    -0.101085275214E+03   -0.25156E-02   -0.28265E-01  1036   0.138E+00    0.308E-01
DAV:   2    -0.101085097018E+03    0.17820E-03   -0.16796E-02  1274   0.341E-01    0.134E-01
DAV:   3    -0.101084647091E+03    0.44993E-03   -0.13545E-03  1246   0.948E-02    0.757E-02
DAV:   4    -0.101084481328E+03    0.16576E-03   -0.21538E-04   798   0.439E-02    0.305E-02
DAV:   5    -0.101084464990E+03    0.16338E-04   -0.14217E-04   756   0.333E-02
  21 F= -.10108446E+03 E0= -.10108446E+03  d E =-.108417E+00
 curvature:  -5.51 expect dE=-0.700E-01 dE for cont linesearch -0.115E-03
 trial: gam= 0.57546 g(F)=  0.110E-01 g(S)=  0.164E-02 ort =-0.738E-03 (trialstep = 0.417E+01)
 search vector abs. value=  0.205E-01
 bond charge predicted
       N       E                     dE             d eps       ncg     rms          rms(c)
DAV:   1    -0.101122797653E+03   -0.38316E-01   -0.20025E+00  1008   0.358E+00    0.659E-01
DAV:   2    -0.101130782946E+03   -0.79853E-02   -0.12689E-01  1246   0.891E-01    0.282E-01
DAV:   3    -0.101129562308E+03    0.12206E-02   -0.33977E-03  1274   0.158E-01    0.186E-01
DAV:   4    -0.101128908978E+03    0.65333E-03   -0.11483E-03  1246   0.929E-02    0.612E-02
DAV:   5    -0.101128867288E+03    0.41690E-04   -0.31660E-04   938   0.490E-02
  22 F= -.10112887E+03 E0= -.10112887E+03  d E =-.444023E-01
 trial-energy change:   -0.044402  1 .order   -0.044667   -0.051166   -0.038169
 step:  16.4243(harm= 16.4243)  dis= 0.05375  next Energy=  -101.185179 (dE=-0.101E+00)
 bond charge predicted
       N       E                     dE             d eps       ncg     rms          rms(c)
DAV:   1    -0.101134368703E+03   -0.54597E-02   -0.17190E+01  1008   0.105E+01    0.195E+00
DAV:   2    -0.101205545008E+03   -0.71176E-01   -0.11101E+00  1260   0.262E+00    0.860E-01
DAV:   3    -0.101195138165E+03    0.10407E-01   -0.28502E-02  1316   0.461E-01    0.573E-01
DAV:   4    -0.101189390542E+03    0.57476E-02   -0.10443E-02  1218   0.278E-01    0.185E-01
DAV:   5    -0.101189087911E+03    0.30263E-03   -0.30082E-03  1260   0.147E-01    0.827E-02
DAV:   6    -0.101189108807E+03   -0.20896E-04   -0.41178E-04  1176   0.499E-02
  23 F= -.10118911E+03 E0= -.10118911E+03  d E =-.104644E+00
 curvature: -13.71 expect dE=-0.334E+00 dE for cont linesearch -0.507E-05
 trial: gam= 1.93844 g(F)=  0.958E-02 g(S)=  0.148E-01 ort = 0.870E-04 (trialstep = 0.133E+01)
 search vector abs. value=  0.102E+00
 bond charge predicted
       N       E                     dE             d eps       ncg     rms          rms(c)
DAV:   1    -0.101221753244E+03   -0.32665E-01   -0.92805E-01  1008   0.244E+00    0.511E-01
DAV:   2    -0.101221730467E+03    0.22776E-04   -0.58765E-02  1176   0.605E-01    0.229E-01
DAV:   3    -0.101220596620E+03    0.11338E-02   -0.28956E-03  1316   0.133E-01    0.130E-01
DAV:   4    -0.101220194224E+03    0.40240E-03   -0.85062E-04  1232   0.724E-02    0.504E-02
DAV:   5    -0.101220180373E+03    0.13851E-04   -0.12426E-04   756   0.299E-02
  24 F= -.10122018E+03 E0= -.10122018E+03  d E =-.310716E-01
 ZBRENT: can't locate minimum, use default step
 trial-energy change:   -0.031072  1 .order   -0.031233   -0.032728   -0.029737
 step:   5.3370(harm= 14.5985)  dis= 0.04221  next Energy=  -101.368155 (dE=-0.179E+00)
 bond charge predicted
       N       E                     dE             d eps       ncg     rms          rms(c)
DAV:   1    -0.101305791770E+03   -0.85598E-01   -0.83732E+00  1008   0.734E+00    0.153E+00
DAV:   2    -0.101304905150E+03    0.88662E-03   -0.52762E-01  1218   0.181E+00    0.669E-01
DAV:   3    -0.101294372499E+03    0.10533E-01   -0.25740E-02  1274   0.399E-01    0.387E-01
DAV:   4    -0.101290797096E+03    0.35754E-02   -0.74916E-03  1246   0.216E-01    0.160E-01
DAV:   5    -0.101290630369E+03    0.16673E-03   -0.11887E-03  1260   0.883E-02    0.752E-02
DAV:   6    -0.101290632378E+03   -0.20093E-05   -0.11832E-04   756   0.292E-02
  25 F= -.10129063E+03 E0= -.10129063E+03  d E =-.101524E+00
 curvature: -15.50 expect dE=-0.206E+00 dE for cont linesearch -0.215E-01
 ZBRENT: increasing intervall
 opt :  13.3425  next Energy=  -101.302245 (dE=-0.113E+00)
 bond charge predicted
       N       E                     dE             d eps       ncg     rms          rms(c)
DAV:   1    -0.101334996566E+03   -0.44366E-01   -0.33687E+01  1008   0.148E+01    0.328E+00
DAV:   2    -0.101329111328E+03    0.58852E-02   -0.21733E+00  1232   0.366E+00    0.131E+00
DAV:   3    -0.101286297838E+03    0.42813E-01   -0.10594E-01  1260   0.817E-01    0.778E-01
DAV:   4    -0.101272877457E+03    0.13420E-01   -0.29448E-02  1246   0.431E-01    0.341E-01
DAV:   5    -0.101272187705E+03    0.68975E-03   -0.43921E-03  1246   0.172E-01    0.152E-01
DAV:   6    -0.101272175355E+03    0.12351E-04   -0.57186E-04  1190   0.586E-02
  26 F= -.10127218E+03 E0= -.10127218E+03  d E =-.830665E-01
 curvature:  -8.38 expect dE=-0.564E+00 dE for cont linesearch -0.210E-01
 ZBRENT: bracketing found
 ZBRENT: interpolating
 opt :   8.7510  next Energy=  -101.310893 (dE=-0.122E+00)
 bond charge predicted
       N       E                     dE             d eps       ncg     rms          rms(c)
DAV:   1    -0.101331135859E+03   -0.58948E-01   -0.10880E+01  1008   0.836E+00    0.171E+00
DAV:   2    -0.101331083953E+03    0.51906E-04   -0.67741E-01  1232   0.207E+00    0.868E-01
DAV:   3    -0.101317281171E+03    0.13803E-01   -0.31582E-02  1274   0.440E-01    0.512E-01
DAV:   4    -0.101311354860E+03    0.59263E-02   -0.11094E-02  1246   0.257E-01    0.173E-01
DAV:   5    -0.101311030289E+03    0.32457E-03   -0.18568E-03  1274   0.107E-01    0.829E-02
DAV:   6    -0.101311031602E+03   -0.13134E-05   -0.12740E-04   756   0.314E-02
  27 F= -.10131103E+03 E0= -.10131103E+03  d E =-.121923E+00
 curvature:  -8.08 expect dE=-0.210E+00 dE for cont linesearch -0.224E-03
 trial: gam= 1.06005 g(F)=  0.183E-01 g(S)=  0.770E-02 ort =-0.168E-02 (trialstep = 0.210E+01)
 search vector abs. value=  0.137E+00
 bond charge predicted
       N       E                     dE             d eps       ncg     rms          rms(c)
DAV:   1    -0.101350322969E+03   -0.39293E-01   -0.25029E+00  1008   0.404E+00    0.650E-01
DAV:   2    -0.101360542029E+03   -0.10219E-01   -0.16048E-01  1232   0.985E-01    0.270E-01
DAV:   3    -0.101359302053E+03    0.12400E-02   -0.31358E-03  1260   0.160E-01    0.188E-01
DAV:   4    -0.101358653904E+03    0.64815E-03   -0.16024E-03  1204   0.106E-01    0.686E-02
DAV:   5    -0.101358651604E+03    0.22999E-05   -0.29620E-04   910   0.466E-02
  28 F= -.10135865E+03 E0= -.10135865E+03  d E =-.476200E-01
 ZBRENT: can't locate minimum, use default step
 trial-energy change:   -0.047620  1 .order   -0.048809   -0.050746   -0.046872
 step:   8.3832(harm= 27.4534)  dis= 0.08319  next Energy=  -101.643398 (dE=-0.332E+00)
 bond charge predicted
       N       E                     dE             d eps       ncg     rms          rms(c)
DAV:   1    -0.101387670772E+03   -0.29017E-01   -0.22477E+01  1008   0.121E+01    0.204E+00
DAV:   2    -0.101481539871E+03   -0.93869E-01   -0.14870E+00  1232   0.298E+00    0.817E-01
DAV:   3    -0.101470447811E+03    0.11092E-01   -0.28314E-02  1274   0.487E-01    0.587E-01
DAV:   4    -0.101464836913E+03    0.56109E-02   -0.14903E-02  1190   0.325E-01    0.224E-01
DAV:   5    -0.101464857184E+03   -0.20271E-04   -0.28616E-03  1288   0.143E-01    0.945E-02
DAV:   6    -0.101464855071E+03    0.21128E-05   -0.24215E-04   826   0.400E-02
  29 F= -.10146486E+03 E0= -.10146486E+03  d E =-.153823E+00
 curvature: -33.66 expect dE=-0.765E+00 dE for cont linesearch -0.207E-01
 ZBRENT: increasing intervall
 opt :  20.9580  next Energy=  -101.414036 (dE=-0.103E+00)
 bond charge predicted
       N       E                     dE             d eps       ncg     rms          rms(c)
DAV:   1    -0.101101682521E+03    0.36317E+00   -0.89310E+01  1008   0.242E+01    0.492E+00
DAV:   2    -0.101498647951E+03   -0.39697E+00   -0.63149E+00  1260   0.609E+00    0.182E+00
DAV:   3    -0.101453542778E+03    0.45105E-01   -0.11179E-01  1260   0.100E+00    0.137E+00
DAV:   4    -0.101431906546E+03    0.21636E-01   -0.61643E-02  1218   0.659E-01    0.547E-01
DAV:   5    -0.101431810290E+03    0.96256E-04   -0.11156E-02  1260   0.288E-01    0.217E-01
DAV:   6    -0.101431802951E+03    0.73386E-05   -0.11698E-03  1260   0.841E-02    0.126E-01
DAV:   7    -0.101431839990E+03   -0.37039E-04   -0.18011E-04   826   0.411E-02
  30 F= -.10143184E+03 E0= -.10143184E+03  d E =-.120808E+00
 curvature:  82.75 expect dE= 0.491E+01 dE for cont linesearch  0.113E+00
 ZBRENT: bracketing found
 ZBRENT: interpolating
 opt :  13.4365  next Energy=  -101.488004 (dE=-0.177E+00)
 bond charge predicted
       N       E                     dE             d eps       ncg     rms          rms(c)
DAV:   1    -0.101377424431E+03    0.54379E-01   -0.31863E+01  1008   0.144E+01    0.254E+00
DAV:   2    -0.101511182492E+03   -0.13376E+00   -0.20232E+00  1232   0.354E+00    0.115E+00
DAV:   3    -0.101495081328E+03    0.16101E-01   -0.39639E-02  1288   0.559E-01    0.802E-01
DAV:   4    -0.101484874048E+03    0.10207E-01   -0.21993E-02  1218   0.386E-01    0.255E-01
DAV:   5    -0.101484724392E+03    0.14966E-03   -0.45269E-03  1274   0.174E-01    0.974E-02
DAV:   6    -0.101484730800E+03   -0.64076E-05   -0.38125E-04  1162   0.492E-02
  31 F= -.10148473E+03 E0= -.10148473E+03  d E =-.173699E+00
 curvature: -17.01 expect dE=-0.573E+00 dE for cont linesearch -0.301E-04
 trial: gam= 0.67667 g(F)=  0.231E-01 g(S)=  0.106E-01 ort = 0.492E-03 (trialstep = 0.436E+01)
 search vector abs. value=  0.969E-01
 bond charge predicted
       N       E                     dE             d eps       ncg     rms          rms(c)
DAV:   1    -0.101562083305E+03   -0.77359E-01   -0.66572E+00  1008   0.670E+00    0.123E+00
DAV:   2    -0.101588690395E+03   -0.26607E-01   -0.46730E-01  1274   0.171E+00    0.584E-01
DAV:   3    -0.101584469218E+03    0.42212E-02   -0.14233E-02  1260   0.310E-01    0.345E-01
DAV:   4    -0.101582407939E+03    0.20613E-02   -0.33197E-03  1260   0.147E-01    0.125E-01
DAV:   5    -0.101582129846E+03    0.27809E-03   -0.98104E-04  1260   0.808E-02    0.475E-02
DAV:   6    -0.101582134549E+03   -0.47038E-05   -0.11941E-04   756   0.294E-02
  32 F= -.10158213E+03 E0= -.10158213E+03  d E =-.974037E-01
 trial-energy change:   -0.097404  1 .order   -0.098214   -0.148374   -0.048054
 step:   6.6202(harm=  6.4543)  dis= 0.05556  next Energy=  -101.594445 (dE=-0.110E+00)
 bond charge predicted
       N       E                     dE             d eps       ncg     rms          rms(c)
DAV:   1    -0.101591443882E+03   -0.93140E-02   -0.17869E+00  1008   0.346E+00    0.637E-01
DAV:   2    -0.101598436666E+03   -0.69928E-02   -0.12387E-01  1260   0.883E-01    0.287E-01
DAV:   3    -0.101597331240E+03    0.11054E-02   -0.38339E-03  1260   0.160E-01    0.168E-01
DAV:   4    -0.101596810836E+03    0.52040E-03   -0.83119E-04  1260   0.741E-02    0.641E-02
DAV:   5    -0.101596729022E+03    0.81814E-04   -0.23294E-04   770   0.418E-02
  33 F= -.10159673E+03 E0= -.10159673E+03  d E =-.111998E+00
 curvature:  -9.14 expect dE=-0.195E+00 dE for cont linesearch -0.234E-04
 trial: gam= 0.61300 g(F)=  0.128E-01 g(S)=  0.855E-02 ort = 0.498E-03 (trialstep = 0.482E+01)
 search vector abs. value=  0.584E-01
 bond charge predicted
       N       E                     dE             d eps       ncg     rms          rms(c)
DAV:   1    -0.101701722811E+03   -0.10491E+00   -0.49347E+00  1008   0.571E+00    0.114E+00
DAV:   2    -0.101694667834E+03    0.70550E-02   -0.29844E-01  1260   0.140E+00    0.540E-01
DAV:   3    -0.101686129235E+03    0.85386E-02   -0.20118E-02  1260   0.361E-01    0.297E-01
DAV:   4    -0.101683533955E+03    0.25953E-02   -0.48061E-03  1246   0.182E-01    0.124E-01
DAV:   5    -0.101683284665E+03    0.24929E-03   -0.92934E-04  1260   0.835E-02    0.561E-02
DAV:   6    -0.101683294135E+03   -0.94705E-05   -0.12275E-04   756   0.310E-02
  34 F= -.10168329E+03 E0= -.10168329E+03  d E =-.865651E-01
 trial-energy change:   -0.086565  1 .order   -0.080043   -0.104165   -0.055922
 step:   7.3156(harm= 10.3969)  dis= 0.04767  next Energy=  -101.698727 (dE=-0.102E+00)
 bond charge predicted
       N       E                     dE             d eps       ncg     rms          rms(c)
DAV:   1    -0.101710092489E+03   -0.26808E-01   -0.13296E+00  1008   0.296E+00    0.589E-01
DAV:   2    -0.101708167994E+03    0.19245E-02   -0.80133E-02  1260   0.726E-01    0.282E-01
DAV:   3    -0.101705838581E+03    0.23294E-02   -0.54187E-03  1260   0.187E-01    0.156E-01
DAV:   4    -0.101705128419E+03    0.71016E-03   -0.13164E-03  1246   0.954E-02    0.645E-02
DAV:   5    -0.101705064877E+03    0.63542E-04   -0.23019E-04   784   0.438E-02
  35 F= -.10170506E+03 E0= -.10170506E+03  d E =-.108336E+00
 curvature:  -9.75 expect dE=-0.139E+00 dE for cont linesearch -0.583E-02
 ZBRENT: increasing intervall
 opt :  12.3164  next Energy=  -101.706076 (dE=-0.109E+00)
 bond charge predicted
       N       E                     dE             d eps       ncg     rms          rms(c)
DAV:   1    -0.101727377996E+03   -0.22250E-01   -0.53354E+00  1008   0.594E+00    0.120E+00
DAV:   2    -0.101719358960E+03    0.80190E-02   -0.32255E-01  1260   0.146E+00    0.564E-01
DAV:   3    -0.101709969246E+03    0.93897E-02   -0.22058E-02  1260   0.378E-01    0.310E-01
DAV:   4    -0.101707172078E+03    0.27972E-02   -0.50479E-03  1232   0.188E-01    0.133E-01
DAV:   5    -0.101706901773E+03    0.27031E-03   -0.10398E-03  1274   0.873E-02    0.586E-02
DAV:   6    -0.101706913218E+03   -0.11445E-04   -0.12392E-04   756   0.317E-02
  36 F= -.10170691E+03 E0= -.10170691E+03  d E =-.110184E+00
 curvature:  -1.69 expect dE=-0.483E-01 dE for cont linesearch -0.355E-03
 trial: gam= 1.43557 g(F)=  0.219E-01 g(S)=  0.670E-02 ort =-0.350E-02 (trialstep = 0.265E+01)
 search vector abs. value=  0.139E+00
 bond charge predicted
       N       E                     dE             d eps       ncg     rms          rms(c)
DAV:   1    -0.101754669470E+03   -0.47768E-01   -0.41131E+00  1022   0.515E+00    0.868E-01
DAV:   2    -0.101767528099E+03   -0.12859E-01   -0.25748E-01  1218   0.128E+00    0.389E-01
DAV:   3    -0.101764157806E+03    0.33703E-02   -0.75792E-03  1274   0.241E-01    0.262E-01
DAV:   4    -0.101762307387E+03    0.18504E-02   -0.31828E-03  1190   0.157E-01    0.843E-02
DAV:   5    -0.101762232182E+03    0.75205E-04   -0.79698E-04  1246   0.747E-02
  37 F= -.10176223E+03 E0= -.10176223E+03  d E =-.553190E-01
 trial-energy change:   -0.055319  1 .order   -0.054861   -0.062612   -0.047109
 step:   7.9291(harm= 10.7218)  dis= 0.07951  next Energy=  -101.812621 (dE=-0.106E+00)
 bond charge predicted
       N       E                     dE             d eps       ncg     rms          rms(c)
DAV:   1    -0.101796336142E+03   -0.34029E-01   -0.16230E+01  1008   0.102E+01    0.178E+00
DAV:   2    -0.101847385703E+03   -0.51050E-01   -0.10273E+00  1204   0.255E+00    0.782E-01
DAV:   3    -0.101834259159E+03    0.13127E-01   -0.30231E-02  1288   0.482E-01    0.526E-01
DAV:   4    -0.101826876604E+03    0.73826E-02   -0.12922E-02  1204   0.316E-01    0.170E-01
DAV:   5    -0.101826600136E+03    0.27647E-03   -0.31959E-03  1274   0.151E-01    0.810E-02
DAV:   6    -0.101826611077E+03   -0.10941E-04   -0.31948E-04   980   0.460E-02
  38 F= -.10182661E+03 E0= -.10182661E+03  d E =-.119698E+00
 curvature: -27.77 expect dE=-0.575E+00 dE for cont linesearch -0.861E-02
 ZBRENT: increasing intervall
 opt :  18.4777  next Energy=  -101.777825 (dE=-0.709E-01)
 bond charge predicted
       N       E                     dE             d eps       ncg     rms          rms(c)
DAV:   1    -0.101656554687E+03    0.17005E+00   -0.64787E+01  1008   0.204E+01    0.391E+00
DAV:   2    -0.101868913530E+03   -0.21236E+00   -0.42403E+00  1190   0.515E+00    0.168E+00
DAV:   3    -0.101817718967E+03    0.51195E-01   -0.12019E-01  1288   0.963E-01    0.114E+00
DAV:   4    -0.101786438107E+03    0.31281E-01   -0.55693E-02  1190   0.658E-01    0.367E-01
DAV:   5    -0.101785419938E+03    0.10182E-02   -0.13912E-02  1260   0.315E-01    0.174E-01
DAV:   6    -0.101785451728E+03   -0.31790E-04   -0.14236E-03  1246   0.942E-02    0.112E-01
DAV:   7    -0.101785495329E+03   -0.43601E-04   -0.19452E-04   756   0.426E-02
  39 F= -.10178550E+03 E0= -.10178550E+03  d E =-.785821E-01
 curvature: 157.37 expect dE= 0.775E+01 dE for cont linesearch  0.296E+00
 ZBRENT: bracketing found
 ZBRENT: interpolating
 opt :  10.9748  next Energy=  -101.836601 (dE=-0.130E+00)
 bond charge predicted
       N       E                     dE             d eps       ncg     rms          rms(c)
DAV:   1    -0.101779582015E+03    0.58697E-02   -0.32795E+01  1008   0.145E+01    0.257E+00
DAV:   2    -0.101883233675E+03   -0.10365E+00   -0.20495E+00  1190   0.361E+00    0.116E+00
DAV:   3    -0.101857083041E+03    0.26151E-01   -0.60793E-02  1302   0.680E-01    0.786E-01
DAV:   4    -0.101840910546E+03    0.16172E-01   -0.27970E-02  1204   0.467E-01    0.229E-01
DAV:   5    -0.101840432253E+03    0.47829E-03   -0.68577E-03  1246   0.224E-01    0.116E-01
DAV:   6    -0.101840439251E+03   -0.69975E-05   -0.76829E-04  1190   0.694E-02
  40 F= -.10184044E+03 E0= -.10184044E+03  d E =-.133526E+00
 curvature:  -5.31 expect dE=-0.125E+00 dE for cont linesearch -0.108E-03
 trial: gam= 0.33471 g(F)=  0.140E-01 g(S)=  0.950E-02 ort = 0.168E-02 (trialstep = 0.432E+01)
 search vector abs. value=  0.402E-01
 bond charge predicted
       N       E                     dE             d eps       ncg     rms          rms(c)
DAV:   1    -0.101914770377E+03   -0.74338E-01   -0.40083E+00  1022   0.511E+00    0.111E+00
DAV:   2    -0.101923035566E+03   -0.82652E-02   -0.27532E-01  1260   0.133E+00    0.501E-01
DAV:   3    -0.101918122291E+03    0.49133E-02   -0.10723E-02  1246   0.265E-01    0.293E-01
DAV:   4    -0.101915880308E+03    0.22420E-02   -0.35851E-03  1260   0.154E-01    0.958E-02
DAV:   5    -0.101915686997E+03    0.19331E-03   -0.84657E-04  1176   0.743E-02    0.469E-02
DAV:   6    -0.101915688700E+03   -0.17037E-05   -0.66582E-05   756   0.221E-02
  41 F= -.10191569E+03 E0= -.10191569E+03  d E =-.752494E-01
 trial-energy change:   -0.075249  1 .order   -0.076083   -0.103806   -0.048361
 step:   8.9524(harm=  8.0857)  dis= 0.04268  next Energy=  -101.940603 (dE=-0.100E+00)
 bond charge predicted
       N       E                     dE             d eps       ncg     rms          rms(c)
DAV:   1    -0.101939452659E+03   -0.23766E-01   -0.46144E+00  1008   0.547E+00    0.119E+00
DAV:   2    -0.101949014065E+03   -0.95614E-02   -0.31680E-01  1260   0.142E+00    0.531E-01
DAV:   3    -0.101943440134E+03    0.55739E-02   -0.12199E-02  1260   0.283E-01    0.313E-01
DAV:   4    -0.101940886682E+03    0.25535E-02   -0.41325E-03  1260   0.165E-01    0.102E-01
DAV:   5    -0.101940668515E+03    0.21817E-03   -0.96403E-04  1204   0.797E-02    0.498E-02
DAV:   6    -0.101940670460E+03   -0.19447E-05   -0.80537E-05   756   0.241E-02
  42 F= -.10194067E+03 E0= -.10194067E+03  d E =-.100231E+00
 curvature:  -6.40 expect dE=-0.115E+00 dE for cont linesearch -0.123E-03
 trial: gam= 0.83460 g(F)=  0.905E-02 g(S)=  0.890E-02 ort =-0.879E-03 (trialstep = 0.474E+01)
 search vector abs. value=  0.445E-01
 bond charge predicted
       N       E                     dE             d eps       ncg     rms          rms(c)
DAV:   1    -0.102004243852E+03   -0.63575E-01   -0.44695E+00  1008   0.537E+00    0.114E+00
DAV:   2    -0.102011640912E+03   -0.73971E-02   -0.26366E-01  1260   0.131E+00    0.477E-01
DAV:   3    -0.102007321295E+03    0.43196E-02   -0.11360E-02  1260   0.271E-01    0.281E-01
DAV:   4    -0.102005644187E+03    0.16771E-02   -0.29324E-03  1260   0.141E-01    0.101E-01
DAV:   5    -0.102005554847E+03    0.89340E-04   -0.66347E-04  1176   0.685E-02
  43 F= -.10200555E+03 E0= -.10200555E+03  d E =-.648844E-01
 trial-energy change:   -0.064884  1 .order   -0.062334   -0.081575   -0.043092
 step:   7.9242(harm= 10.0435)  dis= 0.04484  next Energy=  -102.020820 (dE=-0.801E-01)
 bond charge predicted
       N       E                     dE             d eps       ncg     rms          rms(c)
DAV:   1    -0.102024140729E+03   -0.18497E-01   -0.20285E+00  1008   0.362E+00    0.768E-01
DAV:   2    -0.102027468801E+03   -0.33281E-02   -0.11960E-01  1274   0.886E-01    0.321E-01
DAV:   3    -0.102025475533E+03    0.19933E-02   -0.51650E-03  1274   0.182E-01    0.190E-01
DAV:   4    -0.102024720526E+03    0.75501E-03   -0.13733E-03  1232   0.965E-02    0.692E-02
DAV:   5    -0.102024686960E+03    0.33566E-04   -0.27225E-04   770   0.466E-02
  44 F= -.10202469E+03 E0= -.10202469E+03  d E =-.840165E-01
 curvature: -10.90 expect dE=-0.132E+00 dE for cont linesearch -0.424E-02
 ZBRENT: increasing intervall
 opt :  14.2965  next Energy=  -102.019713 (dE=-0.790E-01)
 bond charge predicted
       N       E                     dE             d eps       ncg     rms          rms(c)
DAV:   1    -0.102008516114E+03    0.16204E-01   -0.81621E+00  1008   0.727E+00    0.157E+00
DAV:   2    -0.102021567810E+03   -0.13052E-01   -0.48061E-01  1260   0.178E+00    0.642E-01
DAV:   3    -0.102013555943E+03    0.80119E-02   -0.20893E-02  1274   0.367E-01    0.379E-01
DAV:   4    -0.102010518271E+03    0.30377E-02   -0.53213E-03  1246   0.191E-01    0.140E-01
DAV:   5    -0.102010359858E+03    0.15841E-03   -0.12168E-03  1260   0.919E-02    0.620E-02
DAV:   6    -0.102010379524E+03   -0.19666E-04   -0.14315E-04   756   0.326E-02
  45 F= -.10201038E+03 E0= -.10201038E+03  d E =-.697091E-01
 curvature:  12.79 expect dE= 0.481E+00 dE for cont linesearch  0.237E-01
 ZBRENT: bracketing found
 ZBRENT: interpolating
 opt :   9.9274  next Energy=  -102.028851 (dE=-0.882E-01)
 bond charge predicted
       N       E                     dE             d eps       ncg     rms          rms(c)
DAV:   1    -0.102028780862E+03   -0.18421E-01   -0.38043E+00  1022   0.494E+00    0.102E+00
DAV:   2    -0.102034745302E+03   -0.59644E-02   -0.22383E-01  1260   0.121E+00    0.468E-01
DAV:   3    -0.102030795219E+03    0.39501E-02   -0.99687E-03  1260   0.252E-01    0.273E-01
DAV:   4    -0.102029168045E+03    0.16272E-02   -0.26911E-03  1246   0.134E-01    0.914E-02
DAV:   5    -0.102029053609E+03    0.11444E-03   -0.60142E-04  1190   0.647E-02    0.411E-02
DAV:   6    -0.102029060649E+03   -0.70395E-05   -0.75678E-05   756   0.234E-02
  46 F= -.10202906E+03 E0= -.10202906E+03  d E =-.883902E-01
 curvature:  -2.25 expect dE=-0.352E-01 dE for cont linesearch -0.539E-05
 trial: gam= 0.80810 g(F)=  0.939E-02 g(S)=  0.625E-02 ort = 0.326E-03 (trialstep = 0.568E+01)
 search vector abs. value=  0.452E-01
 bond charge predicted
       N       E                     dE             d eps       ncg     rms          rms(c)
DAV:   1    -0.102101317813E+03   -0.72264E-01   -0.59839E+00  1008   0.622E+00    0.111E+00
DAV:   2    -0.102105108590E+03   -0.37908E-02   -0.31313E-01  1260   0.145E+00    0.567E-01
DAV:   3    -0.102097913489E+03    0.71951E-02   -0.15165E-02  1260   0.328E-01    0.335E-01
DAV:   4    -0.102095307994E+03    0.26055E-02   -0.51711E-03  1260   0.191E-01    0.105E-01
DAV:   5    -0.102095233329E+03    0.74666E-04   -0.91546E-04  1190   0.820E-02
  47 F= -.10209523E+03 E0= -.10209523E+03  d E =-.661727E-01
 trial-energy change:   -0.066173  1 .order   -0.070888   -0.090367   -0.051410
 step:  13.1760(harm= 13.1760)  dis= 0.07856  next Energy=  -102.133871 (dE=-0.105E+00)
 bond charge predicted
       N       E                     dE             d eps       ncg     rms          rms(c)
DAV:   1    -0.102116881444E+03   -0.21573E-01   -0.10365E+01  1008   0.817E+00    0.146E+00
DAV:   2    -0.102124027882E+03   -0.71464E-02   -0.54313E-01  1260   0.191E+00    0.746E-01
DAV:   3    -0.102111767691E+03    0.12260E-01   -0.25745E-02  1260   0.427E-01    0.445E-01
DAV:   4    -0.102107255870E+03    0.45118E-02   -0.91847E-03  1260   0.255E-01    0.137E-01
DAV:   5    -0.102107170769E+03    0.85101E-04   -0.16293E-03  1274   0.109E-01    0.676E-02
DAV:   6    -0.102107209497E+03   -0.38727E-04   -0.18278E-04   756   0.364E-02
  48 F= -.10210721E+03 E0= -.10210721E+03  d E =-.781488E-01
 curvature: -18.72 expect dE=-0.289E+00 dE for cont linesearch -0.104E-02
 trial: gam= 0.94608 g(F)=  0.102E-01 g(S)=  0.523E-02 ort =-0.159E-02 (trialstep = 0.613E+01)
 search vector abs. value=  0.529E-01
 bond charge predicted
       N       E                     dE             d eps       ncg     rms          rms(c)
DAV:   1    -0.102176317443E+03   -0.69147E-01   -0.95872E+00  1008   0.780E+00    0.151E+00
DAV:   2    -0.102192179006E+03   -0.15862E-01   -0.57177E-01  1218   0.192E+00    0.744E-01
DAV:   3    -0.102182536599E+03    0.96424E-02   -0.23218E-02  1302   0.388E-01    0.456E-01
DAV:   4    -0.102177978657E+03    0.45579E-02   -0.77811E-03  1232   0.225E-01    0.157E-01
DAV:   5    -0.102177689150E+03    0.28951E-03   -0.18209E-03  1260   0.108E-01    0.648E-02
DAV:   6    -0.102177697506E+03   -0.83557E-05   -0.16897E-04   784   0.357E-02
  49 F= -.10217770E+03 E0= -.10217770E+03  d E =-.704880E-01
 trial-energy change:   -0.070488  1 .order   -0.059082   -0.085591   -0.032573
 step:   7.5840(harm=  9.9006)  dis= 0.05039  next Energy=  -102.181703 (dE=-0.745E-01)
 bond charge predicted
       N       E                     dE             d eps       ncg     rms          rms(c)
DAV:   1    -0.102183141114E+03   -0.54520E-02   -0.53920E-01  1008   0.185E+00    0.355E-01
DAV:   2    -0.102184057432E+03   -0.91632E-03   -0.32134E-02  1218   0.455E-01    0.165E-01
DAV:   3    -0.102183515777E+03    0.54165E-03   -0.12684E-03  1302   0.913E-02    0.101E-01
DAV:   4    -0.102183275015E+03    0.24076E-03   -0.42349E-04  1120   0.529E-02    0.367E-02
DAV:   5    -0.102183258698E+03    0.16317E-04   -0.88480E-05   756   0.254E-02
  50 F= -.10218326E+03 E0= -.10218326E+03  d E =-.760492E-01
 curvature: -11.67 expect dE=-0.128E+00 dE for cont linesearch -0.140E-02
 ZBRENT: increasing intervall
 opt :  10.4865  next Energy=  -102.182461 (dE=-0.753E-01)
 bond charge predicted
       N       E                     dE             d eps       ncg     rms          rms(c)
DAV:   1    -0.102186123464E+03   -0.28484E-02   -0.21510E+00  1008   0.369E+00    0.710E-01
DAV:   2    -0.102189592932E+03   -0.34695E-02   -0.12744E-01  1204   0.906E-01    0.336E-01
DAV:   3    -0.102187437466E+03    0.21555E-02   -0.52150E-03  1316   0.184E-01    0.203E-01
DAV:   4    -0.102186465904E+03    0.97156E-03   -0.16898E-03  1204   0.105E-01    0.733E-02
DAV:   5    -0.102186403469E+03    0.62436E-04   -0.38459E-04  1120   0.498E-02
  51 F= -.10218640E+03 E0= -.10218640E+03  d E =-.791940E-01
 curvature:   6.66 expect dE= 0.974E-01 dE for cont linesearch  0.360E-03
 trial: gam= 0.82735 g(F)=  0.825E-02 g(S)=  0.638E-02 ort =-0.169E-02 (trialstep = 0.700E+01)
 search vector abs. value=  0.480E-01
 bond charge predicted
       N       E                     dE             d eps       ncg     rms          rms(c)
DAV:   1    -0.102218134938E+03   -0.31669E-01   -0.10471E+01  1008   0.827E+00    0.160E+00
DAV:   2    -0.102243494474E+03   -0.25360E-01   -0.64187E-01  1176   0.202E+00    0.683E-01
DAV:   3    -0.102236046718E+03    0.74478E-02   -0.23239E-02  1330   0.404E-01    0.424E-01
DAV:   4    -0.102232469369E+03    0.35773E-02   -0.65283E-03  1204   0.224E-01    0.162E-01
DAV:   5    -0.102232283079E+03    0.18629E-03   -0.18509E-03  1260   0.115E-01    0.662E-02
DAV:   6    -0.102232299892E+03   -0.16813E-04   -0.20948E-04   840   0.386E-02
  52 F= -.10223230E+03 E0= -.10223230E+03  d E =-.458964E-01
 trial-energy change:   -0.045896  1 .order   -0.049717   -0.092631   -0.006804
 step:   7.7936(harm=  7.5587)  dis= 0.04803  next Energy=  -102.232678 (dE=-0.463E-01)
 bond charge predicted
       N       E                     dE             d eps       ncg     rms          rms(c)
DAV:   1    -0.102232103768E+03    0.17931E-03   -0.13326E-01  1008   0.933E-01    0.174E-01
DAV:   2    -0.102232454007E+03   -0.35024E-03   -0.82936E-03  1218   0.230E-01    0.792E-02
DAV:   3    -0.102232356638E+03    0.97369E-04   -0.26070E-04   966   0.450E-02
  53 F= -.10223236E+03 E0= -.10223236E+03  d E =-.459532E-01
 curvature: -11.27 expect dE=-0.131E+00 dE for cont linesearch -0.184E-03
 trial: gam= 0.71625 g(F)=  0.793E-02 g(S)=  0.368E-02 ort =-0.886E-03 (trialstep = 0.716E+01)
 search vector abs. value=  0.350E-01
 bond charge predicted
       N       E                     dE             d eps       ncg     rms          rms(c)
DAV:   1    -0.102241067478E+03   -0.86135E-02   -0.89448E+00  1008   0.762E+00    0.125E+00
DAV:   2    -0.102282415733E+03   -0.41348E-01   -0.58731E-01  1246   0.190E+00    0.541E-01
DAV:   3    -0.102278370505E+03    0.40452E-02   -0.11421E-02  1274   0.313E-01    0.388E-01
DAV:   4    -0.102275941709E+03    0.24288E-02   -0.47121E-03  1260   0.191E-01    0.128E-01
DAV:   5    -0.102275822813E+03    0.11890E-03   -0.12122E-03  1176   0.946E-02    0.563E-02
DAV:   6    -0.102275838876E+03   -0.16063E-04   -0.15469E-04   756   0.328E-02
  54 F= -.10227584E+03 E0= -.10227584E+03  d E =-.434822E-01
 trial-energy change:   -0.043482  1 .order   -0.044310   -0.078578   -0.010042
 step:   8.3072(harm=  8.2109)  dis= 0.03933  next Energy=  -102.276639 (dE=-0.443E-01)
 bond charge predicted
       N       E                     dE             d eps       ncg     rms          rms(c)
DAV:   1    -0.102276421395E+03   -0.59858E-03   -0.23118E-01  1036   0.123E+00    0.209E-01
DAV:   2    -0.102277513723E+03   -0.10923E-02   -0.15324E-02  1260   0.306E-01    0.795E-02
DAV:   3    -0.102277408834E+03    0.10489E-03   -0.26226E-04   966   0.499E-02    0.571E-02
DAV:   4    -0.102277350999E+03    0.57835E-04   -0.13784E-04   756   0.345E-02
  55 F= -.10227735E+03 E0= -.10227735E+03  d E =-.449944E-01
 curvature: -12.98 expect dE=-0.815E-01 dE for cont linesearch -0.309E-04
 trial: gam= 0.43737 g(F)=  0.563E-02 g(S)=  0.651E-03 ort = 0.289E-03 (trialstep = 0.739E+01)
 search vector abs. value=  0.132E-01
 bond charge predicted
       N       E                     dE             d eps       ncg     rms          rms(c)
DAV:   1    -0.102294696867E+03   -0.17288E-01   -0.41592E+00  1008   0.514E+00    0.845E-01
DAV:   2    -0.102312518612E+03   -0.17822E-01   -0.27380E-01  1246   0.128E+00    0.325E-01
DAV:   3    -0.102311036442E+03    0.14822E-02   -0.66177E-03  1260   0.222E-01    0.226E-01
DAV:   4    -0.102310321045E+03    0.71540E-03   -0.12095E-03  1204   0.916E-02    0.104E-01
DAV:   5    -0.102310215399E+03    0.10565E-03   -0.58005E-04  1218   0.610E-02    0.369E-02
DAV:   6    -0.102310218727E+03   -0.33273E-05   -0.61126E-05   756   0.217E-02
  56 F= -.10231022E+03 E0= -.10231022E+03  d E =-.328677E-01
 trial-energy change:   -0.032868  1 .order   -0.031603   -0.047341   -0.015865
 step:  10.1869(harm= 11.1160)  dis= 0.03674  next Energy=  -102.313289 (dE=-0.359E-01)
 bond charge predicted
       N       E                     dE             d eps       ncg     rms          rms(c)
DAV:   1    -0.102312361476E+03   -0.21461E-02   -0.59558E-01  1008   0.194E+00    0.320E-01
DAV:   2    -0.102314932590E+03   -0.25711E-02   -0.39209E-02  1246   0.485E-01    0.125E-01
DAV:   3    -0.102314722125E+03    0.21046E-03   -0.94781E-04  1260   0.837E-02    0.880E-02
DAV:   4    -0.102314616609E+03    0.10552E-03   -0.15404E-04   756   0.345E-02    0.405E-02
DAV:   5    -0.102314603909E+03    0.12700E-04   -0.13564E-04   742   0.299E-02
  57 F= -.10231460E+03 E0= -.10231460E+03  d E =-.372529E-01
 curvature: -10.76 expect dE=-0.376E-01 dE for cont linesearch -0.784E-03
 ZBRENT: increasing intervall
 opt :  15.7794  next Energy=  -102.313574 (dE=-0.362E-01)
 bond charge predicted
       N       E                     dE             d eps       ncg     rms          rms(c)
DAV:   1    -0.102304090341E+03    0.10526E-01   -0.23841E+00  1008   0.389E+00    0.640E-01
DAV:   2    -0.102314236768E+03   -0.10146E-01   -0.15675E-01  1246   0.969E-01    0.251E-01
DAV:   3    -0.102313391763E+03    0.84501E-03   -0.39401E-03  1260   0.170E-01    0.174E-01
DAV:   4    -0.102312980493E+03    0.41127E-03   -0.65795E-04  1190   0.679E-02    0.811E-02
DAV:   5    -0.102312910943E+03    0.69550E-04   -0.36034E-04  1064   0.485E-02
  58 F= -.10231291E+03 E0= -.10231291E+03  d E =-.355599E-01
 curvature:  14.14 expect dE= 0.115E+00 dE for cont linesearch  0.314E-02
 ZBRENT: bracketing found
 ZBRENT: interpolating
 opt :  12.2243  next Energy=  -102.315604 (dE=-0.383E-01)
 bond charge predicted
       N       E                     dE             d eps       ncg     rms          rms(c)
DAV:   1    -0.102312200595E+03    0.77990E-03   -0.95743E-01  1008   0.246E+00    0.406E-01
DAV:   2    -0.102316363679E+03   -0.41631E-02   -0.62574E-02  1246   0.615E-01    0.173E-01
DAV:   3    -0.102316023056E+03    0.34062E-03   -0.15708E-03  1260   0.107E-01    0.121E-01
DAV:   4    -0.102315835237E+03    0.18782E-03   -0.25048E-04   910   0.430E-02    0.560E-02
DAV:   5    -0.102315796570E+03    0.38666E-04   -0.18896E-04   742   0.364E-02
  59 F= -.10231580E+03 E0= -.10231580E+03  d E =-.384456E-01
 curvature:  -4.51 expect dE=-0.212E-01 dE for cont linesearch -0.180E-05
 trial: gam= 0.81674 g(F)=  0.376E-02 g(S)=  0.948E-03 ort =-0.727E-04 (trialstep = 0.824E+01)
 search vector abs. value=  0.134E-01
 bond charge predicted
       N       E                     dE             d eps       ncg     rms          rms(c)
DAV:   1    -0.102317554525E+03   -0.17193E-02   -0.49429E+00  1008   0.564E+00    0.956E-01
DAV:   2    -0.102338891577E+03   -0.21337E-01   -0.33238E-01  1246   0.143E+00    0.398E-01
DAV:   3    -0.102336343781E+03    0.25478E-02   -0.79745E-03  1274   0.251E-01    0.279E-01
DAV:   4    -0.102334864616E+03    0.14792E-02   -0.22638E-03  1232   0.131E-01    0.110E-01
DAV:   5    -0.102334669430E+03    0.19519E-03   -0.88242E-04  1204   0.813E-02    0.438E-02
DAV:   6    -0.102334674399E+03   -0.49697E-05   -0.12250E-04   756   0.296E-02
  60 F= -.10233467E+03 E0= -.10233467E+03  d E =-.188778E-01
 trial-energy change:   -0.018878  1 .order   -0.022038   -0.038308   -0.005767
 step:   9.7019(harm=  9.7019)  dis= 0.03184  next Energy=  -102.338345 (dE=-0.225E-01)
 bond charge predicted
       N       E                     dE             d eps       ncg     rms          rms(c)
DAV:   1    -0.102334523805E+03    0.14562E-03   -0.15601E-01  1036   0.100E+00    0.176E-01
DAV:   2    -0.102335205308E+03   -0.68150E-03   -0.10609E-02  1246   0.254E-01    0.672E-02
DAV:   3    -0.102335124082E+03    0.81226E-04   -0.23363E-04   910   0.448E-02
  61 F= -.10233512E+03 E0= -.10233512E+03  d E =-.193275E-01
 curvature: -14.00 expect dE=-0.416E-01 dE for cont linesearch -0.330E-04
 trial: gam= 0.54602 g(F)=  0.215E-02 g(S)=  0.827E-03 ort = 0.178E-03 (trialstep = 0.853E+01)
 search vector abs. value=  0.717E-02
 bond charge predicted
       N       E                     dE             d eps       ncg     rms          rms(c)
DAV:   1    -0.102349098659E+03   -0.13893E-01   -0.27585E+00  1008   0.423E+00    0.872E-01
DAV:   2    -0.102350305571E+03   -0.12069E-02   -0.17391E-01  1260   0.105E+00    0.386E-01
DAV:   3    -0.102347296254E+03    0.30093E-02   -0.86573E-03  1260   0.232E-01    0.227E-01
DAV:   4    -0.102346135159E+03    0.11611E-02   -0.18154E-03  1246   0.111E-01    0.925E-02
DAV:   5    -0.102346015173E+03    0.11999E-03   -0.53389E-04  1176   0.601E-02    0.403E-02
DAV:   6    -0.102346018731E+03   -0.35580E-05   -0.45969E-05   756   0.190E-02
  62 F= -.10234602E+03 E0= -.10234602E+03  d E =-.108946E-01
 trial-energy change:   -0.010895  1 .order   -0.013485   -0.026225   -0.000744
 step:   9.2727(harm=  8.7828)  dis= 0.01728  next Energy=  -102.346049 (dE=-0.109E-01)
 bond charge predicted
       N       E                     dE             d eps       ncg     rms          rms(c)
DAV:   1    -0.102345877108E+03    0.13806E-03   -0.20582E-02  1064   0.365E-01    0.738E-02
DAV:   2    -0.102345893969E+03   -0.16861E-04   -0.13130E-03  1260   0.912E-02    0.328E-02
DAV:   3    -0.102345872451E+03    0.21517E-04   -0.53396E-05   742   0.194E-02
  63 F= -.10234587E+03 E0= -.10234587E+03  d E =-.107484E-01
 curvature:  29.29 expect dE= 0.128E+00 dE for cont linesearch  0.337E-03
 trial: gam= 1.41737 g(F)=  0.302E-02 g(S)=  0.135E-02 ort =-0.287E-03 (trialstep = 0.346E+01)
 search vector abs. value=  0.180E-01
 bond charge predicted
       N       E                     dE             d eps       ncg     rms          rms(c)
DAV:   1    -0.102351255865E+03   -0.53619E-02   -0.10947E+00  1008   0.265E+00    0.425E-01
DAV:   2    -0.102356255653E+03   -0.49998E-02   -0.69456E-02  1260   0.655E-01    0.175E-01
DAV:   3    -0.102355950264E+03    0.30539E-03   -0.19091E-03  1260   0.118E-01    0.123E-01
DAV:   4    -0.102355750708E+03    0.19956E-03   -0.29679E-04   994   0.495E-02    0.595E-02
DAV:   5    -0.102355713796E+03    0.36913E-04   -0.21068E-04   756   0.412E-02
  64 F= -.10235571E+03 E0= -.10235571E+03  d E =-.984134E-02
 trial-energy change:   -0.009841  1 .order   -0.009612   -0.013747   -0.005476
 step:   5.7587(harm=  5.7587)  dis= 0.01983  next Energy=  -102.357297 (dE=-0.114E-01)
 bond charge predicted
       N       E                     dE             d eps       ncg     rms          rms(c)
DAV:   1    -0.102356571129E+03   -0.82042E-03   -0.48197E-01  1008   0.176E+00    0.290E-01
DAV:   2    -0.102358771754E+03   -0.22006E-02   -0.30636E-02  1260   0.434E-01    0.112E-01
DAV:   3    -0.102358642313E+03    0.12944E-03   -0.85193E-04  1260   0.791E-02    0.766E-02
DAV:   4    -0.102358559473E+03    0.82840E-04   -0.11484E-04   756   0.323E-02
  65 F= -.10235856E+03 E0= -.10235856E+03  d E =-.126870E-01
 curvature: -13.03 expect dE=-0.417E-01 dE for cont linesearch -0.121E-02
 ZBRENT: increasing intervall
 opt :  10.3466  next Energy=  -102.363177 (dE=-0.173E-01)
 bond charge predicted
       N       E                     dE             d eps       ncg     rms          rms(c)
DAV:   1    -0.102355033432E+03    0.36089E-02   -0.19123E+00  1008   0.350E+00    0.568E-01
DAV:   2    -0.102363666243E+03   -0.86328E-02   -0.12074E-01  1260   0.864E-01    0.228E-01
DAV:   3    -0.102363160110E+03    0.50613E-03   -0.34332E-03  1260   0.158E-01    0.157E-01
DAV:   4    -0.102362833941E+03    0.32617E-03   -0.51460E-04  1190   0.641E-02    0.767E-02
DAV:   5    -0.102362771700E+03    0.62241E-04   -0.32925E-04   994   0.500E-02
  66 F= -.10236277E+03 E0= -.10236277E+03  d E =-.168992E-01
 curvature: -49.57 expect dE=-0.231E+00 dE for cont linesearch -0.371E-03
 trial: gam= 0.51259 g(F)=  0.340E-02 g(S)=  0.126E-02 ort = 0.367E-03 (trialstep = 0.484E+01)
 search vector abs. value=  0.976E-02
 bond charge predicted
       N       E                     dE             d eps       ncg     rms          rms(c)
DAV:   1    -0.102376571850E+03   -0.13738E-01   -0.10472E+00  1008   0.265E+00    0.514E-01
DAV:   2    -0.102379704454E+03   -0.31326E-02   -0.70976E-02  1260   0.665E-01    0.227E-01
DAV:   3    -0.102378894179E+03    0.81027E-03   -0.23569E-03  1260   0.131E-01    0.134E-01
DAV:   4    -0.102378516787E+03    0.37739E-03   -0.72487E-04  1190   0.704E-02    0.460E-02
DAV:   5    -0.102378481343E+03    0.35444E-04   -0.12870E-04   756   0.336E-02
  67 F= -.10237848E+03 E0= -.10237848E+03  d E =-.157096E-01
 trial-energy change:   -0.015710  1 .order   -0.016196   -0.023476   -0.008917
 step:   9.8492(harm=  7.8058)  dis= 0.02228  next Energy=  -102.382555 (dE=-0.198E-01)
 bond charge predicted
       N       E                     dE             d eps       ncg     rms          rms(c)
DAV:   1    -0.102382794780E+03   -0.42780E-02   -0.11180E+00  1008   0.273E+00    0.527E-01
DAV:   2    -0.102386159821E+03   -0.33650E-02   -0.75292E-02  1260   0.685E-01    0.230E-01
DAV:   3    -0.102385300964E+03    0.85886E-03   -0.24524E-03  1260   0.134E-01    0.137E-01
DAV:   4    -0.102384901487E+03    0.39948E-03   -0.78363E-04  1190   0.731E-02    0.470E-02
DAV:   5    -0.102384867265E+03    0.34222E-04   -0.13497E-04   756   0.344E-02
  68 F= -.10238487E+03 E0= -.10238487E+03  d E =-.220956E-01
 curvature:  -4.12 expect dE=-0.207E-01 dE for cont linesearch -0.350E-03
 trial: gam= 0.94718 g(F)=  0.335E-02 g(S)=  0.168E-02 ort = 0.910E-03 (trialstep = 0.368E+01)
 search vector abs. value=  0.155E-01
 bond charge predicted
       N       E                     dE             d eps       ncg     rms          rms(c)
DAV:   1    -0.102400369549E+03   -0.15468E-01   -0.10077E+00  1008   0.258E+00    0.440E-01
DAV:   2    -0.102404180426E+03   -0.38109E-02   -0.64401E-02  1260   0.638E-01    0.188E-01
DAV:   3    -0.102403707281E+03    0.47315E-03   -0.18512E-03  1274   0.118E-01    0.124E-01
DAV:   4    -0.102403452145E+03    0.25514E-03   -0.46646E-04  1106   0.602E-02    0.511E-02
DAV:   5    -0.102403429236E+03    0.22910E-04   -0.17370E-04   756   0.377E-02
  69 F= -.10240343E+03 E0= -.10240343E+03  d E =-.185620E-01
 trial-energy change:   -0.018562  1 .order   -0.018700   -0.021650   -0.015750
 step:  13.4929(harm= 13.4929)  dis= 0.03953  next Energy=  -102.424589 (dE=-0.397E-01)
 bond charge predicted
       N       E                     dE             d eps       ncg     rms          rms(c)
DAV:   1    -0.102391472798E+03    0.11979E-01   -0.71902E+00  1008   0.691E+00    0.119E+00
DAV:   2    -0.102418579272E+03   -0.27106E-01   -0.46035E-01  1260   0.170E+00    0.497E-01
DAV:   3    -0.102415199849E+03    0.33794E-02   -0.13157E-02  1274   0.316E-01    0.329E-01
DAV:   4    -0.102413380123E+03    0.18197E-02   -0.33007E-03  1246   0.159E-01    0.139E-01
DAV:   5    -0.102413203350E+03    0.17677E-03   -0.12698E-03  1218   0.961E-02    0.587E-02
DAV:   6    -0.102413209873E+03   -0.65233E-05   -0.14581E-04   756   0.332E-02
  70 F= -.10241321E+03 E0= -.10241321E+03  d E =-.283426E-01
 curvature: -17.76 expect dE=-0.117E+00 dE for cont linesearch -0.738E-02
 ZBRENT: interpolating
 opt :   9.8411  next Energy=  -102.417843 (dE=-0.330E-01)
 bond charge predicted
       N       E                     dE             d eps       ncg     rms          rms(c)
DAV:   1    -0.102413618075E+03   -0.41473E-03   -0.98874E-01  1008   0.256E+00    0.428E-01
DAV:   2    -0.102417298671E+03   -0.36806E-02   -0.62677E-02  1260   0.631E-01    0.191E-01
DAV:   3    -0.102416813597E+03    0.48507E-03   -0.18772E-03  1274   0.118E-01    0.127E-01
DAV:   4    -0.102416537282E+03    0.27631E-03   -0.44308E-04  1106   0.591E-02    0.520E-02
DAV:   5    -0.102416498564E+03    0.38718E-04   -0.18238E-04   756   0.382E-02
  71 F= -.10241650E+03 E0= -.10241650E+03  d E =-.316313E-01
 curvature: -11.15 expect dE=-0.498E-01 dE for cont linesearch -0.594E-05
 trial: gam= 0.81543 g(F)=  0.402E-02 g(S)=  0.442E-03 ort =-0.909E-04 (trialstep = 0.491E+01)
 search vector abs. value=  0.146E-01
 bond charge predicted
       N       E                     dE             d eps       ncg     rms          rms(c)
DAV:   1    -0.102426042888E+03   -0.95056E-02   -0.18718E+00  1008   0.351E+00    0.612E-01
DAV:   2    -0.102431947536E+03   -0.59046E-02   -0.11306E-01  1260   0.860E-01    0.269E-01
DAV:   3    -0.102430570362E+03    0.13772E-02   -0.32122E-03  1302   0.160E-01    0.185E-01
DAV:   4    -0.102429828384E+03    0.74198E-03   -0.11628E-03  1218   0.968E-02    0.604E-02
DAV:   5    -0.102429787640E+03    0.40744E-04   -0.36220E-04  1036   0.515E-02
  72 F= -.10242979E+03 E0= -.10242979E+03  d E =-.132891E-01
 trial-energy change:   -0.013289  1 .order   -0.014077   -0.021544   -0.006610
 step:   7.0834(harm=  7.0834)  dis= 0.01767  next Energy=  -102.432039 (dE=-0.155E-01)
 bond charge predicted
       N       E                     dE             d eps       ncg     rms          rms(c)
DAV:   1    -0.102430849740E+03   -0.10214E-02   -0.36810E-01  1008   0.156E+00    0.282E-01
DAV:   2    -0.102432006290E+03   -0.11565E-02   -0.22336E-02  1260   0.381E-01    0.114E-01
DAV:   3    -0.102431734009E+03    0.27228E-03   -0.63648E-04  1302   0.717E-02    0.769E-02
DAV:   4    -0.102431595879E+03    0.13813E-03   -0.20170E-04   756   0.431E-02    0.250E-02
DAV:   5    -0.102431594209E+03    0.16702E-05   -0.11006E-04   756   0.288E-02
  73 F= -.10243159E+03 E0= -.10243159E+03  d E =-.150956E-01
 curvature: -11.80 expect dE=-0.681E-01 dE for cont linesearch -0.192E-04
 trial: gam= 0.99861 g(F)=  0.366E-02 g(S)=  0.211E-02 ort =-0.154E-03 (trialstep = 0.390E+01)
 search vector abs. value=  0.200E-01
 bond charge predicted
       N       E                     dE             d eps       ncg     rms          rms(c)
DAV:   1    -0.102435498135E+03   -0.39023E-02   -0.16223E+00  1008   0.326E+00    0.515E-01
DAV:   2    -0.102443044437E+03   -0.75463E-02   -0.10276E-01  1246   0.802E-01    0.224E-01
DAV:   3    -0.102442499677E+03    0.54476E-03   -0.22625E-03  1260   0.134E-01    0.153E-01
DAV:   4    -0.102442168205E+03    0.33147E-03   -0.59146E-04  1176   0.682E-02    0.605E-02
DAV:   5    -0.102442138659E+03    0.29546E-04   -0.19861E-04   770   0.401E-02
  74 F= -.10244214E+03 E0= -.10244214E+03  d E =-.105445E-01
 trial-energy change:   -0.010544  1 .order   -0.013082   -0.021897   -0.004268
 step:   4.8427(harm=  4.8427)  dis= 0.01928  next Energy=  -102.445193 (dE=-0.136E-01)
 bond charge predicted
       N       E                     dE             d eps       ncg     rms          rms(c)
DAV:   1    -0.102442368759E+03   -0.20055E-03   -0.95039E-02  1008   0.788E-01    0.131E-01
DAV:   2    -0.102442800555E+03   -0.43180E-03   -0.60086E-03  1246   0.193E-01    0.507E-02
DAV:   3    -0.102442767692E+03    0.32863E-04   -0.11732E-04   770   0.329E-02
  75 F= -.10244277E+03 E0= -.10244277E+03  d E =-.111735E-01
 curvature:  -8.64 expect dE=-0.393E-01 dE for cont linesearch -0.270E-04
 trial: gam= 0.46452 g(F)=  0.349E-02 g(S)=  0.105E-02 ort = 0.250E-03 (trialstep = 0.409E+01)
 search vector abs. value=  0.911E-02
 bond charge predicted
       N       E                     dE             d eps       ncg     rms          rms(c)
DAV:   1    -0.102456418965E+03   -0.13618E-01   -0.92683E-01  1008   0.244E+00    0.457E-01
DAV:   2    -0.102458404582E+03   -0.19856E-02   -0.54270E-02  1274   0.592E-01    0.203E-01
DAV:   3    -0.102457391482E+03    0.10131E-02   -0.15802E-03  1344   0.111E-01    0.133E-01
DAV:   4    -0.102456878727E+03    0.51276E-03   -0.96371E-04  1176   0.855E-02    0.345E-02
DAV:   5    -0.102456877532E+03    0.11948E-05   -0.17244E-04   756   0.366E-02
  76 F= -.10245688E+03 E0= -.10245688E+03  d E =-.141098E-01
 trial-energy change:   -0.014110  1 .order   -0.012049   -0.019071   -0.005027
 step:   4.8065(harm=  5.5507)  dis= 0.01006  next Energy=  -102.457331 (dE=-0.146E-01)
 bond charge predicted
       N       E                     dE             d eps       ncg     rms          rms(c)
DAV:   1    -0.102457757266E+03   -0.87854E-03   -0.29190E-02  1078   0.434E-01    0.877E-02
DAV:   2    -0.102457828409E+03   -0.71143E-04   -0.17349E-03  1288   0.105E-01    0.334E-02
DAV:   3    -0.102457797754E+03    0.30655E-04   -0.41886E-05   714   0.198E-02
  77 F= -.10245780E+03 E0= -.10245780E+03  d E =-.150301E-01
 curvature:  -4.02 expect dE=-0.109E-01 dE for cont linesearch -0.948E-03
 ZBRENT: increasing intervall
 opt :   6.2441  next Energy=  -102.460245 (dE=-0.175E-01)
 bond charge predicted
       N       E                     dE             d eps       ncg     rms          rms(c)
DAV:   1    -0.102459053659E+03   -0.12252E-02   -0.11293E-01  1008   0.852E-01    0.160E-01
DAV:   2    -0.102459285314E+03   -0.23165E-03   -0.65927E-03  1274   0.206E-01    0.705E-02
DAV:   3    -0.102459158185E+03    0.12713E-03   -0.17191E-04   840   0.392E-02    0.450E-02
DAV:   4    -0.102459095805E+03    0.62380E-04   -0.15938E-04   756   0.367E-02
  78 F= -.10245910E+03 E0= -.10245910E+03  d E =-.163281E-01
 curvature: -10.37 expect dE=-0.317E-01 dE for cont linesearch -0.563E-03
 ZBRENT: increasing intervall
 opt :   9.1193  next Energy=  -102.458923 (dE=-0.162E-01)
 bond charge predicted
       N       E                     dE             d eps       ncg     rms          rms(c)
DAV:   1    -0.102458348185E+03    0.81000E-03   -0.46156E-01  1008   0.172E+00    0.326E-01
DAV:   2    -0.102459396684E+03   -0.10485E-02   -0.27174E-02  1274   0.418E-01    0.139E-01
DAV:   3    -0.102458903906E+03    0.49278E-03   -0.78086E-04  1316   0.786E-02    0.910E-02
DAV:   4    -0.102458659141E+03    0.24476E-03   -0.46287E-04  1176   0.592E-02    0.239E-02
DAV:   5    -0.102458658535E+03    0.60608E-06   -0.82219E-05   756   0.254E-02
  79 F= -.10245866E+03 E0= -.10245866E+03  d E =-.158908E-01
 curvature:   3.18 expect dE= 0.127E-01 dE for cont linesearch  0.269E-03
 ZBRENT: bracketing found
 ZBRENT: interpolating
 opt :   7.5226  next Energy=  -102.459545 (dE=-0.168E-01)
 bond charge predicted
       N       E                     dE             d eps       ncg     rms          rms(c)
DAV:   1    -0.102459537774E+03   -0.87863E-03   -0.14205E-01  1008   0.956E-01    0.175E-01
DAV:   2    -0.102459852963E+03   -0.31519E-03   -0.83439E-03  1274   0.233E-01    0.804E-02
DAV:   3    -0.102459696681E+03    0.15628E-03   -0.21625E-04   924   0.433E-02    0.527E-02
DAV:   4    -0.102459613084E+03    0.83597E-04   -0.17012E-04   756   0.378E-02
  80 F= -.10245961E+03 E0= -.10245961E+03  d E =-.168454E-01
 curvature:  -5.31 expect dE=-0.134E-01 dE for cont linesearch -0.175E-05
 trial: gam= 0.44162 g(F)=  0.205E-02 g(S)=  0.470E-03 ort =-0.548E-04 (trialstep = 0.477E+01)
 search vector abs. value=  0.425E-02
 bond charge predicted
       N       E                     dE             d eps       ncg     rms          rms(c)
DAV:   1    -0.102464509632E+03   -0.48130E-02   -0.51073E-01  1008   0.183E+00    0.316E-01
DAV:   2    -0.102466606525E+03   -0.20969E-02   -0.34390E-02  1260   0.469E-01    0.131E-01
DAV:   3    -0.102466405024E+03    0.20150E-03   -0.11819E-03  1260   0.925E-02    0.883E-02
DAV:   4    -0.102466277837E+03    0.12719E-03   -0.15960E-04   756   0.382E-02    0.412E-02
DAV:   5    -0.102466255163E+03    0.22674E-04   -0.16463E-04   756   0.359E-02
  81 F= -.10246626E+03 E0= -.10246626E+03  d E =-.664208E-02
 trial-energy change:   -0.006642  1 .order   -0.006717   -0.011926   -0.001509
 step:   5.4663(harm=  5.4663)  dis= 0.01011  next Energy=  -102.466440 (dE=-0.683E-02)
 bond charge predicted
       N       E                     dE             d eps       ncg     rms          rms(c)
DAV:   1    -0.102466332314E+03   -0.54477E-04   -0.10826E-02  1064   0.268E-01    0.525E-02
DAV:   2    -0.102466373373E+03   -0.41059E-04   -0.74746E-04  1246   0.686E-02
  82 F= -.10246637E+03 E0= -.10246637E+03  d E =-.676029E-02
 curvature:  -4.65 expect dE=-0.912E-02 dE for cont linesearch -0.797E-05
 trial: gam= 0.69942 g(F)=  0.194E-02 g(S)=  0.253E-04 ort = 0.854E-04 (trialstep = 0.491E+01)
 search vector abs. value=  0.416E-02
 bond charge predicted
       N       E                     dE             d eps       ncg     rms          rms(c)
DAV:   1    -0.102469620686E+03   -0.32884E-02   -0.63636E-01  1008   0.201E+00    0.331E-01
DAV:   2    -0.102472836967E+03   -0.32163E-02   -0.42585E-02  1260   0.508E-01    0.127E-01
DAV:   3    -0.102472602025E+03    0.23494E-03   -0.90452E-04  1260   0.856E-02    0.892E-02
DAV:   4    -0.102472460861E+03    0.14116E-03   -0.22961E-04   770   0.441E-02    0.381E-02
DAV:   5    -0.102472447188E+03    0.13673E-04   -0.13807E-04   756   0.325E-02
  83 F= -.10247245E+03 E0= -.10247245E+03  d E =-.607381E-02
 trial-energy change:   -0.006074  1 .order   -0.006984   -0.009926   -0.004042
 step:   8.2880(harm=  8.2880)  dis= 0.01577  next Energy=  -102.474746 (dE=-0.837E-02)
 bond charge predicted
       N       E                     dE             d eps       ncg     rms          rms(c)
DAV:   1    -0.102471795116E+03    0.66575E-03   -0.30173E-01  1008   0.139E+00    0.234E-01
DAV:   2    -0.102473338710E+03   -0.15436E-02   -0.20346E-02  1260   0.351E-01    0.824E-02
DAV:   3    -0.102473237385E+03    0.10133E-03   -0.43361E-04  1232   0.594E-02    0.568E-02
DAV:   4    -0.102473179129E+03    0.58255E-04   -0.98296E-05   756   0.288E-02
  84 F= -.10247318E+03 E0= -.10247318E+03  d E =-.680576E-02
 curvature:  -8.53 expect dE=-0.235E-01 dE for cont linesearch -0.119E-03
 trial: gam= 1.37540 g(F)=  0.217E-02 g(S)=  0.588E-03 ort =-0.241E-03 (trialstep = 0.233E+01)
 search vector abs. value=  0.996E-02
 bond charge predicted
       N       E                     dE             d eps       ncg     rms          rms(c)
DAV:   1    -0.102475521323E+03   -0.22839E-02   -0.37764E-01  1008   0.154E+00    0.277E-01
DAV:   2    -0.102476950757E+03   -0.14294E-02   -0.24397E-02  1218   0.382E-01    0.114E-01
DAV:   3    -0.102476756983E+03    0.19377E-03   -0.66747E-04  1302   0.678E-02    0.708E-02
DAV:   4    -0.102476661045E+03    0.95939E-04   -0.16119E-04   756   0.337E-02
  85 F= -.10247666E+03 E0= -.10247666E+03  d E =-.348192E-02
 trial-energy change:   -0.003482  1 .order   -0.003931   -0.005656   -0.002206
 step:   3.8253(harm=  3.8253)  dis= 0.01256  next Energy=  -102.477816 (dE=-0.464E-02)
 bond charge predicted
       N       E                     dE             d eps       ncg     rms          rms(c)
DAV:   1    -0.102476379582E+03    0.37740E-03   -0.15309E-01  1008   0.978E-01    0.175E-01
DAV:   2    -0.102476939693E+03   -0.56011E-03   -0.98030E-03  1218   0.242E-01    0.708E-02
DAV:   3    -0.102476858925E+03    0.80768E-04   -0.26282E-04   980   0.440E-02
  86 F= -.10247686E+03 E0= -.10247686E+03  d E =-.367980E-02
 curvature:  -7.86 expect dE=-0.167E-01 dE for cont linesearch -0.115E-03
 trial: gam= 0.44625 g(F)=  0.175E-02 g(S)=  0.366E-03 ort =-0.382E-03 (trialstep = 0.263E+01)
 search vector abs. value=  0.376E-02
 bond charge predicted
       N       E                     dE             d eps       ncg     rms          rms(c)
DAV:   1    -0.102480529651E+03   -0.35900E-02   -0.15401E-01  1008   0.997E-01    0.192E-01
DAV:   2    -0.102480823727E+03   -0.29408E-03   -0.97726E-03  1260   0.248E-01    0.878E-02
DAV:   3    -0.102480676885E+03    0.14684E-03   -0.32985E-04   980   0.487E-02    0.541E-02
DAV:   4    -0.102480610325E+03    0.66560E-04   -0.14825E-04   728   0.322E-02
  87 F= -.10248061E+03 E0= -.10248061E+03  d E =-.375140E-02
 trial-energy change:   -0.003751  1 .order   -0.003749   -0.005129   -0.002369
 step:   4.8911(harm=  4.8911)  dis= 0.00788  next Energy=  -102.481625 (dE=-0.477E-02)
 bond charge predicted
       N       E                     dE             d eps       ncg     rms          rms(c)
DAV:   1    -0.102481020201E+03   -0.34332E-03   -0.11469E-01  1008   0.860E-01    0.170E-01
DAV:   2    -0.102481284295E+03   -0.26409E-03   -0.74005E-03  1260   0.215E-01    0.712E-02
DAV:   3    -0.102481188025E+03    0.96270E-04   -0.24023E-04   882   0.423E-02
  88 F= -.10248119E+03 E0= -.10248119E+03  d E =-.432910E-02
 curvature:  -4.72 expect dE=-0.641E-02 dE for cont linesearch -0.652E-04
 trial: gam= 0.70759 g(F)=  0.748E-03 g(S)=  0.610E-03 ort =-0.228E-03 (trialstep = 0.308E+01)
 search vector abs. value=  0.292E-02
 bond charge predicted
       N       E                     dE             d eps       ncg     rms          rms(c)
DAV:   1    -0.102483913599E+03   -0.26293E-02   -0.17200E-01  1008   0.105E+00    0.225E-01
DAV:   2    -0.102483972273E+03   -0.58674E-04   -0.10526E-02  1260   0.260E-01    0.106E-01
DAV:   3    -0.102483745451E+03    0.22682E-03   -0.55463E-04  1190   0.583E-02    0.578E-02
DAV:   4    -0.102483660368E+03    0.85083E-04   -0.11925E-04   756   0.299E-02
  89 F= -.10248366E+03 E0= -.10248366E+03  d E =-.247234E-02
 trial-energy change:   -0.002472  1 .order   -0.002548   -0.003691   -0.001406
 step:   4.9800(harm=  4.9800)  dis= 0.00699  next Energy=  -102.484168 (dE=-0.298E-02)
 bond charge predicted
       N       E                     dE             d eps       ncg     rms          rms(c)
DAV:   1    -0.102484120679E+03   -0.37523E-03   -0.64107E-02  1008   0.640E-01    0.139E-01
DAV:   2    -0.102484142176E+03   -0.21498E-04   -0.40041E-03  1260   0.160E-01    0.591E-02
DAV:   3    -0.102484052840E+03    0.89337E-04   -0.18806E-04   756   0.360E-02
  90 F= -.10248405E+03 E0= -.10248405E+03  d E =-.286481E-02
 curvature:  -6.07 expect dE=-0.633E-02 dE for cont linesearch -0.835E-04
 trial: gam= 0.40566 g(F)=  0.934E-03 g(S)=  0.107E-03 ort = 0.200E-03 (trialstep = 0.346E+01)
 search vector abs. value=  0.168E-02
 bond charge predicted
       N       E                     dE             d eps       ncg     rms          rms(c)
DAV:   1    -0.102486867486E+03   -0.27253E-02   -0.11000E-01  1008   0.843E-01    0.189E-01
DAV:   2    -0.102486647930E+03    0.21956E-03   -0.69493E-03  1218   0.211E-01    0.875E-02
DAV:   3    -0.102486447873E+03    0.20006E-03   -0.46729E-04  1218   0.511E-02    0.459E-02
DAV:   4    -0.102486380398E+03    0.67475E-04   -0.85274E-05   686   0.238E-02
  91 F= -.10248638E+03 E0= -.10248638E+03  d E =-.232756E-02
 trial-energy change:   -0.002328  1 .order   -0.002511   -0.003889   -0.001133
 step:   4.8873(harm=  4.8873)  dis= 0.00489  next Energy=  -102.486797 (dE=-0.274E-02)
 bond charge predicted
       N       E                     dE             d eps       ncg     rms          rms(c)
DAV:   1    -0.102486449737E+03   -0.18638E-05   -0.18379E-02  1036   0.345E-01    0.759E-02
DAV:   2    -0.102486414382E+03    0.35354E-04   -0.11540E-03  1218   0.857E-02    0.330E-02
DAV:   3    -0.102486381042E+03    0.33340E-04   -0.71377E-05   700   0.211E-02
  92 F= -.10248638E+03 E0= -.10248638E+03  d E =-.232820E-02
 curvature:  -3.67 expect dE=-0.470E-02 dE for cont linesearch -0.111E-04
 trial: gam= 1.25795 g(F)=  0.106E-02 g(S)=  0.225E-03 ort =-0.713E-04 (trialstep = 0.167E+01)
 search vector abs. value=  0.377E-02
 bond charge predicted
       N       E                     dE             d eps       ncg     rms          rms(c)
DAV:   1    -0.102487888329E+03   -0.14739E-02   -0.57379E-02  1008   0.603E-01    0.902E-02
DAV:   2    -0.102488154533E+03   -0.26620E-03   -0.34609E-03  1218   0.145E-01    0.380E-02
DAV:   3    -0.102488139837E+03    0.14696E-04   -0.56419E-05   756   0.226E-02
  93 F= -.10248814E+03 E0= -.10248814E+03  d E =-.175879E-02
 ZBRENT: can't locate minimum, use default step
 trial-energy change:   -0.001759  1 .order   -0.001902   -0.001999   -0.001805
 step:   6.6992(harm= 17.2131)  dis= 0.01067  next Energy=  -102.496654 (dE=-0.103E-01)
 bond charge predicted
       N       E                     dE             d eps       ncg     rms          rms(c)
DAV:   1    -0.102488087193E+03    0.67339E-04   -0.51653E-01  1008   0.181E+00    0.274E-01
DAV:   2    -0.102490520965E+03   -0.24338E-02   -0.31142E-02  1218   0.435E-01    0.111E-01
DAV:   3    -0.102490405373E+03    0.11559E-03   -0.60128E-04  1302   0.679E-02    0.788E-02
DAV:   4    -0.102490326151E+03    0.79222E-04   -0.14957E-04   756   0.349E-02
  94 F= -.10249033E+03 E0= -.10249033E+03  d E =-.394511E-02
 curvature: -14.74 expect dE=-0.251E-01 dE for cont linesearch -0.698E-05
 trial: gam= 0.93596 g(F)=  0.144E-02 g(S)=  0.259E-03 ort = 0.423E-04 (trialstep = 0.199E+01)
 search vector abs. value=  0.508E-02
 bond charge predicted
       N       E                     dE             d eps       ncg     rms          rms(c)
DAV:   1    -0.102492778596E+03   -0.23732E-02   -0.96401E-02  1008   0.791E-01    0.128E-01
DAV:   2    -0.102493158437E+03   -0.37984E-03   -0.58702E-03  1232   0.189E-01    0.565E-02
DAV:   3    -0.102493131523E+03    0.26914E-04   -0.13204E-04   784   0.322E-02
  95 F= -.10249313E+03 E0= -.10249313E+03  d E =-.280537E-02
 ZBRENT: can't locate minimum, use default step
 trial-energy change:   -0.002805  1 .order   -0.003153   -0.003459   -0.002848
 step:   7.9501(harm= 11.2372)  dis= 0.01549  next Energy=  -102.500106 (dE=-0.978E-02)
 bond charge predicted
       N       E                     dE             d eps       ncg     rms          rms(c)
DAV:   1    -0.102493802043E+03   -0.64361E-03   -0.87629E-01  1008   0.238E+00    0.381E-01
DAV:   2    -0.102497381115E+03   -0.35791E-02   -0.54355E-02  1246   0.575E-01    0.169E-01
DAV:   3    -0.102497108647E+03    0.27247E-03   -0.13067E-03  1260   0.955E-02    0.111E-01
DAV:   4    -0.102496952961E+03    0.15569E-03   -0.25523E-04   910   0.436E-02    0.489E-02
DAV:   5    -0.102496941253E+03    0.11707E-04   -0.13806E-04   756   0.304E-02
  96 F= -.10249694E+03 E0= -.10249694E+03  d E =-.661510E-02
 curvature: -14.33 expect dE=-0.351E-01 dE for cont linesearch -0.862E-04
 trial: gam= 1.43536 g(F)=  0.209E-02 g(S)=  0.352E-03 ort =-0.175E-03 (trialstep = 0.130E+01)
 search vector abs. value=  0.124E-01
 bond charge predicted
       N       E                     dE             d eps       ncg     rms          rms(c)
DAV:   1    -0.102498841907E+03   -0.18889E-02   -0.87357E-02  1008   0.760E-01    0.109E-01
DAV:   2    -0.102499250583E+03   -0.40868E-03   -0.54208E-03  1260   0.184E-01    0.447E-02
DAV:   3    -0.102499247293E+03    0.32899E-05   -0.13752E-04   756   0.342E-02
  97 F= -.10249925E+03 E0= -.10249925E+03  d E =-.230604E-02
 trial-energy change:   -0.002306  1 .order   -0.002254   -0.002857   -0.001651
 step:   3.0832(harm=  3.0832)  dis= 0.01073  next Energy=  -102.500325 (dE=-0.338E-02)
 bond charge predicted
       N       E                     dE             d eps       ncg     rms          rms(c)
DAV:   1    -0.102498969789E+03    0.28079E-03   -0.16173E-01  1008   0.103E+00    0.138E-01
DAV:   2    -0.102499706680E+03   -0.73689E-03   -0.98372E-03  1260   0.249E-01    0.673E-02
DAV:   3    -0.102499700518E+03    0.61624E-05   -0.28518E-04   910   0.475E-02
  98 F= -.10249970E+03 E0= -.10249970E+03  d E =-.275926E-02
 curvature:  -8.72 expect dE=-0.210E-01 dE for cont linesearch -0.355E-03
 ZBRENT: interpolating
 opt :   2.4432  next Energy=  -102.499928 (dE=-0.299E-02)
 bond charge predicted
       N       E                     dE             d eps       ncg     rms          rms(c)
DAV:   1    -0.102499790970E+03   -0.84290E-04   -0.21799E-02  1008   0.380E-01    0.693E-02
DAV:   2    -0.102499906678E+03   -0.11571E-03   -0.14795E-03  1260   0.947E-02    0.997E-03
DAV:   3    -0.102499907153E+03   -0.47407E-06   -0.28339E-05   672   0.159E-02
  99 F= -.10249991E+03 E0= -.10249991E+03  d E =-.296590E-02
 curvature:  -5.59 expect dE=-0.142E-01 dE for cont linesearch -0.127E-05
 trial: gam= 0.38101 g(F)=  0.215E-02 g(S)=  0.392E-03 ort = 0.531E-04 (trialstep = 0.153E+01)
 search vector abs. value=  0.439E-02
