<?xml version="1.0" encoding="ISO-8859-1"?>
<modeling>
 <generator>
  <i name="program" type="string">vasp </i>
  <i name="version" type="string">5.4.4.18Apr17-6-g9f103f2a35  </i>
  <i name="subversion" type="string">(build Oct 27 2022 13:04:57) complex            parallel </i>
  <i name="platform" type="string">LinuxIFC </i>
  <i name="date" type="string">2024 07 04 </i>
  <i name="time" type="string">12:18:47 </i>
 </generator>
 <incar>
  <i type="string" name="SYSTEM"> CIS</i>
  <i type="int" name="ISTART">     0</i>
  <i type="string" name="PREC">medium</i>
  <i type="int" name="ICHARG">     2</i>
  <i type="int" name="IBRION">     2</i>
  <i name="EDIFF">      0.00010000</i>
  <i name="EDIFFG">     -0.05000000</i>
  <i type="int" name="NSW">    99</i>
  <i type="int" name="ISIF">     3</i>
  <i name="ENCUT">    300.00000000</i>
  <i name="POTIM">      0.10000000</i>
  <i type="string" name="LREAL"> Auto</i>
  <i type="int" name="ISMEAR">     0</i>
  <i name="SIGMA">      0.05000000</i>
  <i type="int" name="LMAXMIX">     4</i>
  <i type="logical" name="LWAVE"> F  </i>
  <i type="logical" name="LCHARG"> F  </i>
  <i type="int" name="LORBIT">    10</i>
  <i type="logical" name="LASPH"> T  </i>
  <v type="int" name="KPOINT_BSE">    -1     0     0     0</v>
  <i type="logical" name="LASPH"> T  </i>
 </incar>
 <structure name="primitive_cell" >
  <crystal>
   <varray name="basis" >
    <v>      -7.11306633      -0.11183825      -0.07884350 </v>
    <v>       2.20209236       9.00422046      -0.56908708 </v>
    <v>      -0.49583177      -1.28495614     -11.20101184 </v>
   </varray>
   <i name="volume">    719.68053398 </i>
   <varray name="rec_basis" >
    <v>      -0.14115656       0.03466515       0.00227182 </v>
    <v>      -0.00159986       0.11065250      -0.01262300 </v>
    <v>       0.00107488      -0.00586590      -0.08865231 </v>
   </varray>
  </crystal>
  <varray name="positions" >
   <v>       0.34046353       0.33059309       0.13426573 </v>
   <v>      -0.46195480       0.49349452       0.30958332 </v>
   <v>       0.42668921       0.06767203       0.17121890 </v>
   <v>      -0.03602148       0.27705810       0.23796961 </v>
   <v>       0.30857196      -0.38411559       0.04284115 </v>
   <v>      -0.30857196       0.38411559      -0.04284115 </v>
   <v>       0.16099655       0.16073636      -0.12196727 </v>
   <v>      -0.11857385      -0.45655069       0.18999775 </v>
   <v>       0.47186803      -0.24577365       0.24623760 </v>
   <v>      -0.23239940       0.13326104       0.04801381 </v>
   <v>      -0.36812720       0.16184661       0.35950804 </v>
   <v>       0.03232923      -0.04174326       0.33207822 </v>
   <v>       0.11857385       0.45655069      -0.18999775 </v>
   <v>      -0.47186803       0.24577365      -0.24623760 </v>
   <v>       0.23239940      -0.13326104      -0.04801381 </v>
   <v>      -0.34046353      -0.33059309      -0.13426573 </v>
   <v>       0.08367752      -0.31206276       0.37635480 </v>
   <v>      -0.16099655      -0.16073636       0.12196727 </v>
   <v>       0.29221584       0.06246297      -0.46284876 </v>
   <v>       0.46195480      -0.49349452      -0.30958332 </v>
   <v>      -0.42668921      -0.06767203      -0.17121890 </v>
   <v>      -0.08367752       0.31206276      -0.37635480 </v>
   <v>      -0.03232923       0.04174326      -0.33207822 </v>
   <v>      -0.29221584      -0.06246297       0.46284876 </v>
   <v>       0.03602148      -0.27705810      -0.23796961 </v>
   <v>       0.36812720      -0.16184661      -0.35950804 </v>
  </varray>
 </structure>
 <varray name="primitive_index" >
  <v type="int" >        1 </v>
  <v type="int" >       25 </v>
  <v type="int" >       19 </v>
  <v type="int" >       22 </v>
  <v type="int" >       18 </v>
  <v type="int" >       14 </v>
  <v type="int" >       26 </v>
  <v type="int" >       11 </v>
  <v type="int" >       12 </v>
  <v type="int" >        7 </v>
  <v type="int" >        3 </v>
  <v type="int" >        5 </v>
  <v type="int" >        6 </v>
  <v type="int" >        8 </v>
  <v type="int" >        9 </v>
  <v type="int" >        4 </v>
  <v type="int" >       17 </v>
  <v type="int" >       13 </v>
  <v type="int" >       16 </v>
  <v type="int" >       15 </v>
  <v type="int" >       21 </v>
  <v type="int" >       20 </v>
  <v type="int" >       10 </v>
  <v type="int" >       24 </v>
  <v type="int" >       23 </v>
  <v type="int" >        2 </v>
 </varray>
 <kpoints>
  <generation param="Monkhorst-Pack">
   <v type="int" name="divisions">       3        2        2 </v>
   <v name="usershift">      0.00000000       0.00000000       0.00000000 </v>
   <v name="genvec1">      0.33333333      -0.00000000       0.00000000 </v>
   <v name="genvec2">      0.00000000       0.50000000       0.00000000 </v>
   <v name="genvec3">     -0.00000000      -0.00000000       0.50000000 </v>
   <v name="shift">      0.00000000       0.50000000       0.50000000 </v>
  </generation>
  <varray name="kpointlist" >
   <v>      -0.00000000       0.25000000       0.25000000 </v>
   <v>       0.33333333       0.25000000       0.25000000 </v>
   <v>      -0.33333333       0.25000000       0.25000000 </v>
   <v>       0.00000000      -0.25000000       0.25000000 </v>
   <v>       0.33333333      -0.25000000       0.25000000 </v>
   <v>      -0.33333333      -0.25000000       0.25000000 </v>
  </varray>
  <varray name="weights" >
   <v>       0.16666667 </v>
   <v>       0.16666667 </v>
   <v>       0.16666667 </v>
   <v>       0.16666667 </v>
   <v>       0.16666667 </v>
   <v>       0.16666667 </v>
  </varray>
 </kpoints>
 <parameters>
  <separator name="general" >
   <i type="string" name="SYSTEM">CIS</i>
   <i type="logical" name="LCOMPAT"> F  </i>
  </separator>
  <separator name="electronic" >
   <i type="string" name="PREC">medium</i>
   <i name="ENMAX">    300.00000000</i>
   <i name="ENAUG">    446.84200000</i>
   <i name="EDIFF">      0.00010000</i>
   <i type="int" name="IALGO">    38</i>
   <i type="int" name="IWAVPR">    11</i>
   <i type="int" name="NBANDS">    84</i>
   <i name="NELECT">    128.00000000</i>
   <i type="int" name="TURBO">     0</i>
   <i type="int" name="IRESTART">     0</i>
   <i type="int" name="NREBOOT">     0</i>
   <i type="int" name="NMIN">     0</i>
   <i name="EREF">      0.00000000</i>
   <separator name="electronic smearing" >
    <i type="int" name="ISMEAR">     0</i>
    <i name="SIGMA">      0.05000000</i>
    <i name="KSPACING">      0.50000000</i>
    <i type="logical" name="KGAMMA"> T  </i>
   </separator>
   <separator name="electronic projectors" >
    <i type="logical" name="LREAL"> T  </i>
    <v name="ROPT">     -0.00200000     -0.00200000     -0.00200000</v>
    <i type="int" name="LMAXPAW">  -100</i>
    <i type="int" name="LMAXMIX">     4</i>
    <i type="logical" name="NLSPLINE"> F  </i>
   </separator>
   <separator name="electronic startup" >
    <i type="int" name="ISTART">     0</i>
    <i type="int" name="ICHARG">     2</i>
    <i type="int" name="INIWAV">     1</i>
   </separator>
   <separator name="electronic spin" >
    <i type="int" name="ISPIN">     1</i>
    <i type="logical" name="LNONCOLLINEAR"> F  </i>
    <v name="MAGMOM">      1.00000000      1.00000000      1.00000000      1.00000000      1.00000000      1.00000000      1.00000000      1.00000000      1.00000000      1.00000000      1.00000000      1.00000000      1.00000000      1.00000000      1.00000000      1.00000000      1.00000000      1.00000000      1.00000000      1.00000000
      1.00000000      1.00000000      1.00000000      1.00000000      1.00000000      1.00000000</v>
    <i name="NUPDOWN">     -1.00000000</i>
    <i type="logical" name="LSORBIT"> F  </i>
    <v name="SAXIS">      0.00000000      0.00000000      1.00000000</v>
    <i type="logical" name="LSPIRAL"> F  </i>
    <v name="QSPIRAL">      0.00000000      0.00000000      0.00000000</v>
    <i type="logical" name="LZEROZ"> F  </i>
   </separator>
   <separator name="electronic exchange-correlation" >
    <i type="logical" name="LASPH"> T  </i>
    <i type="logical" name="LMETAGGA"> F  </i>
   </separator>
   <separator name="electronic convergence" >
    <i type="int" name="NELM">    60</i>
    <i type="int" name="NELMDL">    -5</i>
    <i type="int" name="NELMIN">     2</i>
    <i name="ENINI">    300.00000000</i>
    <separator name="electronic convergence detail" >
     <i type="logical" name="LDIAG"> T  </i>
     <i type="logical" name="LSUBROT"> F  </i>
     <i name="WEIMIN">      0.00100000</i>
     <i name="EBREAK">      0.00000030</i>
     <i name="DEPER">      0.30000000</i>
     <i type="int" name="NRMM">     4</i>
     <i name="TIME">      0.40000000</i>
    </separator>
   </separator>
   <separator name="electronic mixer" >
    <i name="AMIX">      0.40000000</i>
    <i name="BMIX">      1.00000000</i>
    <i name="AMIN">      0.10000000</i>
    <i name="AMIX_MAG">      1.60000000</i>
    <i name="BMIX_MAG">      1.00000000</i>
    <separator name="electronic mixer details" >
     <i type="int" name="IMIX">     4</i>
     <i type="logical" name="MIXFIRST"> F  </i>
     <i type="int" name="MAXMIX">   -45</i>
     <i name="WC">    100.00000000</i>
     <i type="int" name="INIMIX">     1</i>
     <i type="int" name="MIXPRE">     1</i>
     <i type="int" name="MREMOVE">     5</i>
    </separator>
   </separator>
   <separator name="electronic dipolcorrection" >
    <i type="logical" name="LDIPOL"> F  </i>
    <i type="logical" name="LMONO"> F  </i>
    <i type="int" name="IDIPOL">     0</i>
    <i name="EPSILON">      1.00000000</i>
    <v name="DIPOL">   -100.00000000   -100.00000000   -100.00000000</v>
    <i name="EFIELD">      0.00000000</i>
   </separator>
  </separator>
  <separator name="grids" >
   <i type="int" name="NGX">    30</i>
   <i type="int" name="NGY">    40</i>
   <i type="int" name="NGZ">    48</i>
   <i type="int" name="NGXF">    50</i>
   <i type="int" name="NGYF">    64</i>
   <i type="int" name="NGZF">    80</i>
   <i type="logical" name="ADDGRID"> F  </i>
  </separator>
  <separator name="ionic" >
   <i type="int" name="NSW">    99</i>
   <i type="int" name="IBRION">     2</i>
   <i type="int" name="MDALGO">     0</i>
   <i type="int" name="ISIF">     3</i>
   <i name="PSTRESS">      0.00000000</i>
   <i name="EDIFFG">     -0.05000000</i>
   <i type="int" name="NFREE">     1</i>
   <i name="POTIM">      0.10000000</i>
   <i name="SMASS">     -3.00000000</i>
   <i name="SCALEE">      1.00000000</i>
  </separator>
  <separator name="ionic md" >
   <i name="TEBEG">      0.00010000</i>
   <i name="TEEND">      0.00010000</i>
   <i type="int" name="NBLOCK">     1</i>
   <i type="int" name="KBLOCK">    99</i>
   <i type="int" name="NPACO">   256</i>
   <i name="APACO">     16.00000000</i>
  </separator>
  <separator name="symmetry" >
   <i type="int" name="ISYM">     2</i>
   <i name="SYMPREC">      0.00001000</i>
  </separator>
  <separator name="dos" >
   <i type="int" name="LORBIT">    10</i>
   <v name="RWIGS">     -1.00000000     -1.00000000     -1.00000000</v>
   <i type="int" name="NEDOS">   301</i>
   <i name="EMIN">     10.00000000</i>
   <i name="EMAX">    -10.00000000</i>
   <i name="EFERMI">      0.00000000</i>
  </separator>
  <separator name="writing" >
   <i type="int" name="NWRITE">     2</i>
   <i type="logical" name="LWAVE"> F  </i>
   <i type="logical" name="LDOWNSAMPLE"> F  </i>
   <i type="logical" name="LCHARG"> F  </i>
   <i type="logical" name="LPARD"> F  </i>
   <i type="logical" name="LVTOT"> F  </i>
   <i type="logical" name="LVHAR"> F  </i>
   <i type="logical" name="LELF"> F  </i>
   <i type="logical" name="LOPTICS"> F  </i>
   <v name="STM">      0.00000000      0.00000000      0.00000000      0.00000000      0.00000000      0.00000000      0.00000000</v>
  </separator>
  <separator name="performance" >
   <i type="int" name="NPAR">    14</i>
   <i type="int" name="NSIM">     4</i>
   <i type="int" name="NBLK">    -1</i>
   <i type="logical" name="LPLANE"> T  </i>
   <i type="logical" name="LSCALAPACK"> T  </i>
   <i type="logical" name="LSCAAWARE"> F  </i>
   <i type="logical" name="LSCALU"> F  </i>
   <i type="logical" name="LASYNC"> F  </i>
   <i type="logical" name="LORBITALREAL"> F  </i>
  </separator>
  <separator name="miscellaneous" >
   <i type="int" name="IDIOT">     3</i>
   <i type="int" name="ISPECIAL">     0</i>
   <i type="logical" name="LMUSIC"> F  </i>
   <v name="POMASS">      7.01000000    121.75000000     78.96000000</v>
   <v name="DARWINR">      0.00000000      0.00000000      0.00000000</v>
   <v name="DARWINV">      1.00000000      1.00000000      1.00000000</v>
   <i type="logical" name="LCORR"> T  </i>
  </separator>
  <i type="logical" name="GGA_COMPAT"> T  </i>
  <i type="logical" name="LBERRY"> F  </i>
  <i type="int" name="ICORELEVEL">     0</i>
  <i type="logical" name="LDAU"> F  </i>
  <i type="int" name="I_CONSTRAINED_M">     0</i>
  <separator name="electronic exchange-correlation" >
   <i type="string" name="GGA">--</i>
   <i type="int" name="VOSKOWN">     0</i>
   <i type="logical" name="LHFCALC"> F  </i>
   <i type="string" name="PRECFOCK"></i>
   <i type="logical" name="LSYMGRAD"> F  </i>
   <i type="logical" name="LHFONE"> F  </i>
   <i type="logical" name="LRHFCALC"> F  </i>
   <i type="logical" name="LTHOMAS"> F  </i>
   <i type="logical" name="LMODELHF"> F  </i>
   <i name="ENCUT4O">     -1.00000000</i>
   <i type="int" name="EXXOEP">     0</i>
   <i type="int" name="FOURORBIT">     0</i>
   <i name="AEXX">      0.00000000</i>
   <i name="HFALPHA">      0.00000000</i>
   <i name="MCALPHA">      0.00000000</i>
   <i name="ALDAX">      1.00000000</i>
   <i name="AGGAX">      1.00000000</i>
   <i name="ALDAC">      1.00000000</i>
   <i name="AGGAC">      1.00000000</i>
   <i type="int" name="NKREDX">     1</i>
   <i type="int" name="NKREDY">     1</i>
   <i type="int" name="NKREDZ">     1</i>
   <i type="logical" name="SHIFTRED"> F  </i>
   <i type="logical" name="ODDONLY"> F  </i>
   <i type="logical" name="EVENONLY"> F  </i>
   <i type="int" name="LMAXFOCK">     0</i>
   <i type="int" name="NMAXFOCKAE">     0</i>
   <i type="logical" name="LFOCKAEDFT"> F  </i>
   <i name="HFSCREEN">      0.00000000</i>
   <i name="HFSCREENC">      0.00000000</i>
   <i type="int" name="NBANDSGWLOW">     0</i>
  </separator>
  <separator name="vdW DFT" >
   <i type="logical" name="LUSE_VDW"> F  </i>
   <i name="Zab_VDW">     -0.84910000</i>
   <i name="PARAM1">      0.12340000</i>
   <i name="PARAM2">      1.00000000</i>
   <i name="PARAM3">      0.00000000</i>
  </separator>
  <separator name="model GW" >
   <i type="int" name="MODEL_GW">     0</i>
   <i name="MODEL_EPS0">     16.60801232</i>
   <i name="MODEL_ALPHA">      1.00000000</i>
  </separator>
  <separator name="linear response parameters" >
   <i type="logical" name="LEPSILON"> F  </i>
   <i type="logical" name="LRPA"> F  </i>
   <i type="logical" name="LNABLA"> F  </i>
   <i type="logical" name="LVEL"> F  </i>
   <i type="int" name="KINTER">     0</i>
   <i name="CSHIFT">      0.10000000</i>
   <i name="OMEGAMAX">     -1.00000000</i>
   <i name="DEG_THRESHOLD">      0.00200000</i>
   <i name="RTIME">     -0.10000000</i>
   <i name="WPLASMAI">      0.00000000</i>
   <v name="DFIELD">      0.00000000      0.00000000      0.00000000</v>
   <v name="WPLASMA">      0.00000000      0.00000000      0.00000000      0.00000000      0.00000000      0.00000000      0.00000000      0.00000000      0.00000000</v>
  </separator>
  <separator name="orbital magnetization" >
   <i type="logical" name="NUCIND"> F  </i>
   <v name="MAGPOS">      0.00000000      0.00000000      0.00000000</v>
   <i type="logical" name="LNICSALL"> T  </i>
   <i type="logical" name="ORBITALMAG"> F  </i>
   <i type="logical" name="LMAGBLOCH"> F  </i>
   <i type="logical" name="LCHIMAG"> F  </i>
   <i type="logical" name="LGAUGE"> T  </i>
   <i type="int" name="MAGATOM">     0</i>
   <v name="MAGDIPOL">      0.00000000      0.00000000      0.00000000</v>
   <v name="AVECCONST">      0.00000000      0.00000000      0.00000000</v>
  </separator>
  <separator name="response functions" >
   <i type="logical" name="LADDER"> F  </i>
   <i type="logical" name="LRPAFORCE"> F  </i>
   <i type="logical" name="LFXC"> F  </i>
   <i type="logical" name="LHARTREE"> T  </i>
   <i type="int" name="IBSE">     0</i>
   <v type="int" name="KPOINT">    -1     0     0     0</v>
   <i type="logical" name="LTCTE"> F  </i>
   <i type="logical" name="LTETE"> F  </i>
   <i type="logical" name="LTRIPLET"> F  </i>
   <i type="logical" name="LFXCEPS"> F  </i>
   <i type="logical" name="LFXHEG"> F  </i>
   <i type="int" name="NATURALO">     2</i>
   <i type="logical" name="L2ORDER"> F  </i>
   <i type="logical" name="LMP2LT"> F  </i>
   <i type="logical" name="LUSEW"> F  </i>
   <i name="ENCUTGW">     -2.00000000</i>
   <i name="ENCUTGWSOFT">     -2.00000000</i>
   <i name="ENCUTLF">     -1.00000000</i>
   <i type="int" name="LMAXMP2">    -1</i>
   <i name="SCISSOR">      0.00000000</i>
   <i type="int" name="NOMEGA">     0</i>
   <i type="int" name="NOMEGAR">     0</i>
   <i type="int" name="NBANDSGW">    -1</i>
   <i type="int" name="NBANDSO">    -1</i>
   <i type="int" name="NBANDSV">    -1</i>
   <i type="int" name="NELM">     1</i>
   <i type="int" name="NELMHF">     1</i>
   <i type="int" name="DIM">     3</i>
   <i type="int" name="ANTIRES">     0</i>
   <i name="OMEGAMAX">    -30.00000000</i>
   <i name="OMEGAMIN">    -30.00000000</i>
   <i name="OMEGATL">   -200.00000000</i>
   <i type="int" name="OMEGAGRID">   140</i>
   <i name="CSHIFT">     -0.10000000</i>
   <i type="logical" name="SELFENERGY"> F  </i>
   <i type="logical" name="LSPECTRAL"> F  </i>
   <i type="logical" name="LSPECTRALGW"> F  </i>
   <i type="logical" name="LSINGLES"> F  </i>
   <i type="logical" name="LFERMIGW"> F  </i>
   <i type="logical" name="ODDONLYGW"> F  </i>
   <i type="logical" name="EVENONLYGW"> F  </i>
   <i type="int" name="NKREDLFX">     1</i>
   <i type="int" name="NKREDLFY">     1</i>
   <i type="int" name="NKREDLFZ">     1</i>
   <i type="int" name="MAXMEM">  2800</i>
   <i type="int" name="TELESCOPE">     0</i>
   <i type="int" name="TAUPAR">     1</i>
   <i type="int" name="OMEGAPAR">    -1</i>
   <i name="LAMBDA">      1.00000000</i>
  </separator>
  <separator name="External order field" >
   <i name="OFIELD_KAPPA">      0.00000000</i>
   <v name="OFIELD_K">      0.00000000      0.00000000      0.00000000</v>
   <i name="OFIELD_Q6_NEAR">      0.00000000</i>
   <i name="OFIELD_Q6_FAR">      0.00000000</i>
   <i name="OFIELD_A">      0.00000000</i>
  </separator>
 </parameters>
 <atominfo>
  <atoms>      26 </atoms>
  <types>       3 </types>
  <array name="atoms" >
   <dimension dim="1">ion</dimension>
   <field type="string">element</field>
   <field type="int">atomtype</field>
   <set>
    <rc><c>Li</c><c>   1</c></rc>
    <rc><c>Li</c><c>   1</c></rc>
    <rc><c>Li</c><c>   1</c></rc>
    <rc><c>Li</c><c>   1</c></rc>
    <rc><c>Sb</c><c>   2</c></rc>
    <rc><c>Sb</c><c>   2</c></rc>
    <rc><c>Sb</c><c>   2</c></rc>
    <rc><c>Sb</c><c>   2</c></rc>
    <rc><c>Sb</c><c>   2</c></rc>
    <rc><c>Sb</c><c>   2</c></rc>
    <rc><c>Sb</c><c>   2</c></rc>
    <rc><c>Sb</c><c>   2</c></rc>
    <rc><c>Se</c><c>   3</c></rc>
    <rc><c>Se</c><c>   3</c></rc>
    <rc><c>Se</c><c>   3</c></rc>
    <rc><c>Se</c><c>   3</c></rc>
    <rc><c>Se</c><c>   3</c></rc>
    <rc><c>Se</c><c>   3</c></rc>
    <rc><c>Se</c><c>   3</c></rc>
    <rc><c>Se</c><c>   3</c></rc>
    <rc><c>Se</c><c>   3</c></rc>
    <rc><c>Se</c><c>   3</c></rc>
    <rc><c>Se</c><c>   3</c></rc>
    <rc><c>Se</c><c>   3</c></rc>
    <rc><c>Se</c><c>   3</c></rc>
    <rc><c>Se</c><c>   3</c></rc>
   </set>
  </array>
  <array name="atomtypes" >
   <dimension dim="1">type</dimension>
   <field type="int">atomspertype</field>
   <field type="string">element</field>
   <field>mass</field>
   <field>valence</field>
   <field type="string">pseudopotential</field>
   <set>
    <rc><c>   4</c><c>Li</c><c>      7.01000000</c><c>      1.00000000</c><c>  PAW_PBE Li 17Jan2003                  </c></rc>
    <rc><c>   8</c><c>Sb</c><c>    121.75000000</c><c>      5.00000000</c><c>  PAW_PBE Sb 06Sep2000                  </c></rc>
    <rc><c>  14</c><c>Se</c><c>     78.96000000</c><c>      6.00000000</c><c>  PAW_PBE Se 06Sep2000                  </c></rc>
   </set>
  </array>
 </atominfo>
 <structure name="initialpos" >
  <crystal>
   <varray name="basis" >
    <v>      -7.11306633      -0.11183825      -0.07884350 </v>
    <v>       2.20209236       9.00422046      -0.56908708 </v>
    <v>      -0.49583177      -1.28495614     -11.20101184 </v>
   </varray>
   <i name="volume">    719.68053398 </i>
   <varray name="rec_basis" >
    <v>      -0.14115656       0.03466515       0.00227182 </v>
    <v>      -0.00159986       0.11065250      -0.01262300 </v>
    <v>       0.00107488      -0.00586590      -0.08865231 </v>
   </varray>
  </crystal>
  <varray name="positions" >
   <v>       0.34046353       0.33059309       0.13426573 </v>
   <v>       0.36812720       0.83815339       0.64049196 </v>
   <v>       0.63187280       0.16184661       0.35950804 </v>
   <v>       0.65953647       0.66940691       0.86573427 </v>
   <v>       0.03232923       0.95825674       0.33207822 </v>
   <v>       0.11857385       0.45655069       0.81000225 </v>
   <v>       0.76760060       0.13326104       0.04801381 </v>
   <v>       0.52813197       0.24577365       0.75376240 </v>
   <v>       0.23239940       0.86673896       0.95198619 </v>
   <v>       0.96767077       0.04174326       0.66792178 </v>
   <v>       0.88142615       0.54344931       0.18999775 </v>
   <v>       0.47186803       0.75422635       0.24623760 </v>
   <v>       0.83900345       0.83926364       0.12196727 </v>
   <v>       0.69142804       0.38411559       0.95715885 </v>
   <v>       0.46195480       0.50650548       0.69041668 </v>
   <v>       0.29221584       0.06246297       0.53715124 </v>
   <v>       0.08367752       0.68793724       0.37635480 </v>
   <v>       0.30857196       0.61588441       0.04284115 </v>
   <v>       0.42668921       0.06767203       0.17121890 </v>
   <v>       0.91632248       0.31206276       0.62364520 </v>
   <v>       0.57331079       0.93232797       0.82878110 </v>
   <v>       0.96397852       0.27705810       0.23796961 </v>
   <v>       0.03602148       0.72294190       0.76203039 </v>
   <v>       0.70778416       0.93753703       0.46284876 </v>
   <v>       0.53804520       0.49349452       0.30958332 </v>
   <v>       0.16099655       0.16073636       0.87803273 </v>
  </varray>
 </structure>
 <calculation>
  <scstep>
   <time name="dav">    0.67    0.67</time>
   <time name="total">    0.93    0.96</time>
   <energy>
    <i name="alphaZ">    129.62105662 </i>
    <i name="ewald">  -4302.51570889 </i>
    <i name="hartreedc">   -711.42394853 </i>
    <i name="XCdc">   -394.94529374 </i>
    <i name="pawpsdc">   4284.29267966 </i>
    <i name="pawaedc">  -3637.57793506 </i>
    <i name="eentropy">     -0.01139600 </i>
    <i name="bandstr">    346.35265460 </i>
    <i name="atom">   4820.54206163 </i>
    <i name="e_fr_energy">    534.33417028 </i>
    <i name="e_wo_entrp">    534.34556628 </i>
    <i name="e_0_energy">    534.33986828 </i>
   </energy>
  </scstep>
  <scstep>
   <time name="dav">    0.97    0.98</time>
   <time name="total">    0.97    0.98</time>
   <energy>
    <i name="e_fr_energy">    -47.24010007 </i>
    <i name="e_wo_entrp">    -47.24010007 </i>
    <i name="e_0_energy">    -47.24010007 </i>
   </energy>
  </scstep>
  <scstep>
   <time name="dav">    0.64    0.64</time>
   <time name="total">    0.64    0.64</time>
   <energy>
    <i name="e_fr_energy">   -105.02675420 </i>
    <i name="e_wo_entrp">   -105.02675420 </i>
    <i name="e_0_energy">   -105.02675420 </i>
   </energy>
  </scstep>
  <scstep>
   <time name="dav">    0.77    0.77</time>
   <time name="total">    0.77    0.78</time>
   <energy>
    <i name="e_fr_energy">   -106.44564555 </i>
    <i name="e_wo_entrp">   -106.44564555 </i>
    <i name="e_0_energy">   -106.44564555 </i>
   </energy>
  </scstep>
  <scstep>
   <time name="dav">    0.79    0.79</time>
   <time name="total">    0.81    0.82</time>
   <energy>
    <i name="e_fr_energy">   -106.47772176 </i>
    <i name="e_wo_entrp">   -106.47772176 </i>
    <i name="e_0_energy">   -106.47772176 </i>
   </energy>
  </scstep>
  <scstep>
   <time name="dav">    0.63    0.63</time>
   <time name="total">    0.90    0.90</time>
   <energy>
    <i name="e_fr_energy">   -102.48880783 </i>
    <i name="e_wo_entrp">   -102.48880783 </i>
    <i name="e_0_energy">   -102.48880783 </i>
   </energy>
  </scstep>
  <scstep>
   <time name="dav">    0.83    0.83</time>
   <time name="total">    1.10    1.10</time>
   <energy>
    <i name="e_fr_energy">   -102.47434344 </i>
    <i name="e_wo_entrp">   -102.47434344 </i>
    <i name="e_0_energy">   -102.47434344 </i>
   </energy>
  </scstep>
  <scstep>
   <time name="dav">    0.87    0.87</time>
   <time name="total">    1.14    1.15</time>
   <energy>
    <i name="e_fr_energy">   -102.45965434 </i>
    <i name="e_wo_entrp">   -102.45965434 </i>
    <i name="e_0_energy">   -102.45965434 </i>
   </energy>
  </scstep>
  <scstep>
   <time name="dav">    0.41    0.41</time>
   <time name="total">    0.69    0.69</time>
   <energy>
    <i name="e_fr_energy">   -102.46414761 </i>
    <i name="e_wo_entrp">   -102.46414761 </i>
    <i name="e_0_energy">   -102.46414761 </i>
   </energy>
  </scstep>
  <scstep>
   <time name="dav">    0.95    0.95</time>
   <time name="total">    1.21    1.21</time>
   <energy>
    <i name="e_fr_energy">   -102.46463619 </i>
    <i name="e_wo_entrp">   -102.46463619 </i>
    <i name="e_0_energy">   -102.46463619 </i>
   </energy>
  </scstep>
  <scstep>
   <time name="dav">    0.96    0.96</time>
   <time name="total">    1.23    1.23</time>
   <energy>
    <i name="e_fr_energy">   -102.46552770 </i>
    <i name="e_wo_entrp">   -102.46552770 </i>
    <i name="e_0_energy">   -102.46552770 </i>
   </energy>
  </scstep>
  <scstep>
   <time name="dav">    0.65    0.65</time>
   <time name="total">    0.92    0.92</time>
   <energy>
    <i name="e_fr_energy">   -102.46585605 </i>
    <i name="e_wo_entrp">   -102.46585605 </i>
    <i name="e_0_energy">   -102.46585605 </i>
   </energy>
  </scstep>
  <scstep>
   <time name="dav">    0.61    0.61</time>
   <time name="total">    0.85    0.86</time>
   <energy>
    <i name="alphaZ">    129.62105662 </i>
    <i name="ewald">  -4302.51570889 </i>
    <i name="hartreedc">   -743.41055690 </i>
    <i name="XCdc">   -390.49903974 </i>
    <i name="pawpsdc">   6839.49879097 </i>
    <i name="pawaedc">  -6194.43464113 </i>
    <i name="eentropy">     -0.00000000 </i>
    <i name="bandstr">   -261.26791789 </i>
    <i name="atom">   4820.54206163 </i>
    <i name="e_fr_energy">   -102.46595533 </i>
    <i name="e_wo_entrp">   -102.46595533 </i>
    <i name="e_0_energy">   -102.46595533 </i>
   </energy>
  </scstep>
  <structure>
   <crystal>
    <varray name="basis" >
     <v>      -7.11306633      -0.11183825      -0.07884350 </v>
     <v>       2.20209236       9.00422046      -0.56908708 </v>
     <v>      -0.49583177      -1.28495614     -11.20101184 </v>
    </varray>
    <i name="volume">    719.68053398 </i>
    <varray name="rec_basis" >
     <v>      -0.14115656       0.03466515       0.00227182 </v>
     <v>      -0.00159986       0.11065250      -0.01262300 </v>
     <v>       0.00107488      -0.00586590      -0.08865231 </v>
    </varray>
   </crystal>
   <varray name="positions" >
    <v>       0.34046353       0.33059309       0.13426573 </v>
    <v>       0.36812720       0.83815339       0.64049196 </v>
    <v>       0.63187280       0.16184661       0.35950804 </v>
    <v>       0.65953647       0.66940691       0.86573427 </v>
    <v>       0.03232923       0.95825674       0.33207822 </v>
    <v>       0.11857385       0.45655069       0.81000225 </v>
    <v>       0.76760060       0.13326104       0.04801381 </v>
    <v>       0.52813197       0.24577365       0.75376240 </v>
    <v>       0.23239940       0.86673896       0.95198619 </v>
    <v>       0.96767077       0.04174326       0.66792178 </v>
    <v>       0.88142615       0.54344931       0.18999775 </v>
    <v>       0.47186803       0.75422635       0.24623760 </v>
    <v>       0.83900345       0.83926364       0.12196727 </v>
    <v>       0.69142804       0.38411559       0.95715885 </v>
    <v>       0.46195480       0.50650548       0.69041668 </v>
    <v>       0.29221584       0.06246297       0.53715124 </v>
    <v>       0.08367752       0.68793724       0.37635480 </v>
    <v>       0.30857196       0.61588441       0.04284115 </v>
    <v>       0.42668921       0.06767203       0.17121890 </v>
    <v>       0.91632248       0.31206276       0.62364520 </v>
    <v>       0.57331079       0.93232797       0.82878110 </v>
    <v>       0.96397852       0.27705810       0.23796961 </v>
    <v>       0.03602148       0.72294190       0.76203039 </v>
    <v>       0.70778416       0.93753703       0.46284876 </v>
    <v>       0.53804520       0.49349452       0.30958332 </v>
    <v>       0.16099655       0.16073636       0.87803273 </v>
   </varray>
  </structure>
  <varray name="forces" >
   <v>      -0.04051846      -0.01313296      -0.00017407 </v>
   <v>       0.02480796       0.00956233       0.02428839 </v>
   <v>      -0.02480796      -0.00956233      -0.02428839 </v>
   <v>       0.04051846       0.01313296       0.00017407 </v>
   <v>       0.03368164      -0.05899240       0.00798821 </v>
   <v>      -0.01227367      -0.01702441      -0.00177229 </v>
   <v>       0.02756032      -0.12343433       0.05974781 </v>
   <v>       0.27486661       0.04171842       0.02597171 </v>
   <v>      -0.02756032       0.12343433      -0.05974781 </v>
   <v>      -0.03368164       0.05899240      -0.00798821 </v>
   <v>       0.01227367       0.01702441       0.00177229 </v>
   <v>      -0.27486661      -0.04171842      -0.02597171 </v>
   <v>      -0.05035512      -0.06326975       0.05708953 </v>
   <v>       0.02634175       0.03701682      -0.02154595 </v>
   <v>      -0.00231995       0.03651671      -0.04233539 </v>
   <v>      -0.00425045      -0.03758316      -0.06591611 </v>
   <v>      -0.05827541      -0.00723431      -0.00014482 </v>
   <v>      -0.02634175      -0.03701682       0.02154595 </v>
   <v>       0.00839957       0.00585201       0.00499815 </v>
   <v>       0.05827541       0.00723431       0.00014482 </v>
   <v>      -0.00839957      -0.00585201      -0.00499815 </v>
   <v>      -0.06813128       0.00420280      -0.07598665 </v>
   <v>       0.06813128      -0.00420280       0.07598665 </v>
   <v>       0.00425045       0.03758316       0.06591611 </v>
   <v>       0.00231995      -0.03651671       0.04233539 </v>
   <v>       0.05035512       0.06326975      -0.05708953 </v>
  </varray>
  <varray name="stress" >
   <v>      -0.40496397      -0.36633365      -0.12577345 </v>
   <v>      -0.36633036       0.41007508      -0.47093160 </v>
   <v>      -0.12577236      -0.47093143       1.08992092 </v>
  </varray>
  <energy>
   <i name="e_fr_energy">   -102.46595533 </i>
   <i name="e_wo_entrp">   -102.46595533 </i>
   <i name="e_0_energy">     -0.00000000 </i>
  </energy>
  <time name="totalsc">   13.24   13.37</time>
 </calculation>
 <calculation>
  <scstep>
   <time name="dav">    0.66    0.68</time>
   <time name="total">    0.95    1.00</time>
   <energy>
    <i name="alphaZ">    129.59740260 </i>
    <i name="ewald">  -4302.30212976 </i>
    <i name="hartreedc">   -743.34997250 </i>
    <i name="XCdc">   -390.50617931 </i>
    <i name="pawpsdc">   6840.78492183 </i>
    <i name="pawaedc">  -6195.72018906 </i>
    <i name="eentropy">     -0.00000000 </i>
    <i name="bandstr">   -261.51468694 </i>
    <i name="atom">   4820.54206163 </i>
    <i name="e_fr_energy">   -102.46877151 </i>
    <i name="e_wo_entrp">   -102.46877151 </i>
    <i name="e_0_energy">   -102.46877151 </i>
   </energy>
  </scstep>
  <scstep>
   <time name="dav">    0.93    0.95</time>
   <time name="total">    1.17    1.19</time>
   <energy>
    <i name="alphaZ">    129.59740260 </i>
    <i name="ewald">  -4302.30212976 </i>
    <i name="hartreedc">   -743.42216804 </i>
    <i name="XCdc">   -390.50393126 </i>
    <i name="pawpsdc">   6840.10060574 </i>
    <i name="pawaedc">  -6195.03562710 </i>
    <i name="eentropy">     -0.00000000 </i>
    <i name="bandstr">   -261.44502094 </i>
    <i name="atom">   4820.54206163 </i>
    <i name="e_fr_energy">   -102.46880713 </i>
    <i name="e_wo_entrp">   -102.46880713 </i>
    <i name="e_0_energy">   -102.46880713 </i>
   </energy>
  </scstep>
  <structure>
   <crystal>
    <varray name="basis" >
     <v>      -7.11257768      -0.11140535      -0.07869992 </v>
     <v>       2.20140580       9.00474616      -0.56994348 </v>
     <v>      -0.49548500      -1.28413440     -11.20293560 </v>
    </varray>
    <i name="volume">    719.81188952 </i>
    <varray name="rec_basis" >
     <v>      -0.14116393       0.03465434       0.00227117 </v>
     <v>      -0.00159348       0.11064384      -0.01261205 </v>
     <v>       0.00107274      -0.00587239      -0.08863664 </v>
    </varray>
   </crystal>
   <varray name="positions" >
    <v>       0.34051432       0.33057972       0.13426620 </v>
    <v>       0.36809714       0.83816026       0.64047090 </v>
    <v>       0.63190286       0.16183974       0.35952910 </v>
    <v>       0.65948568       0.66942028       0.86573380 </v>
    <v>       0.03226380       0.95819226       0.33207508 </v>
    <v>       0.11858483       0.45653292       0.81000460 </v>
    <v>       0.76752309       0.13312155       0.04796997 </v>
    <v>       0.52777213       0.24581078       0.75374068 </v>
    <v>       0.23247691       0.86687845       0.95203003 </v>
    <v>       0.96773620       0.04180774       0.66792492 </v>
    <v>       0.88141517       0.54346708       0.18999540 </v>
    <v>       0.47222787       0.75418922       0.24625932 </v>
    <v>       0.83905212       0.83918991       0.12192149 </v>
    <v>       0.69140407       0.38415732       0.95717546 </v>
    <v>       0.46196924       0.50654966       0.69045080 </v>
    <v>       0.29220762       0.06243094       0.53720971 </v>
    <v>       0.08375446       0.68793044       0.37635473 </v>
    <v>       0.30859593       0.61584268       0.04282454 </v>
    <v>       0.42667984       0.06767754       0.17121438 </v>
    <v>       0.91624554       0.31206956       0.62364527 </v>
    <v>       0.57332016       0.93232246       0.82878562 </v>
    <v>       0.96407105       0.27707289       0.23803366 </v>
    <v>       0.03592895       0.72292711       0.76196634 </v>
    <v>       0.70779238       0.93756906       0.46279029 </v>
    <v>       0.53803076       0.49345034       0.30954920 </v>
    <v>       0.16094788       0.16081009       0.87807851 </v>
   </varray>
  </structure>
  <varray name="forces" >
   <v>      -0.03974313      -0.01287277       0.00020651 </v>
   <v>       0.02571992       0.00828611       0.02308922 </v>
   <v>      -0.02571992      -0.00828611      -0.02308922 </v>
   <v>       0.03974313       0.01287277      -0.00020651 </v>
   <v>       0.03704835      -0.07142307       0.01059748 </v>
   <v>      -0.00679744      -0.01436883      -0.00168334 </v>
   <v>       0.03474931      -0.14006619       0.06476582 </v>
   <v>       0.21170078       0.09840692       0.02925005 </v>
   <v>      -0.03474931       0.14006619      -0.06476582 </v>
   <v>      -0.03704835       0.07142307      -0.01059748 </v>
   <v>       0.00679744       0.01436883       0.00168334 </v>
   <v>      -0.21170078      -0.09840692      -0.02925005 </v>
   <v>      -0.06116971      -0.05450065       0.04964488 </v>
   <v>       0.02696461       0.03161428      -0.01964466 </v>
   <v>      -0.00150864       0.04057365      -0.04082281 </v>
   <v>      -0.00527992      -0.03637486      -0.06709327 </v>
   <v>      -0.06045440      -0.00855467       0.00286139 </v>
   <v>      -0.02696461      -0.03161428       0.01964466 </v>
   <v>       0.00784616       0.00532898       0.00757905 </v>
   <v>       0.06045440       0.00855467      -0.00286139 </v>
   <v>      -0.00784616      -0.00532898      -0.00757905 </v>
   <v>      -0.04367826      -0.00561223      -0.05524922 </v>
   <v>       0.04367826       0.00561223       0.05524922 </v>
   <v>       0.00527992       0.03637486       0.06709327 </v>
   <v>       0.00150864      -0.04057365       0.04082281 </v>
   <v>       0.06116971       0.05450065      -0.04964488 </v>
  </varray>
  <varray name="stress" >
   <v>       0.08818771      -0.17764217      -0.25811598 </v>
   <v>      -0.17764060       0.18788012      -0.46823998 </v>
   <v>      -0.25811364      -0.46823933       1.06213284 </v>
  </varray>
  <energy>
   <i name="e_fr_energy">   -102.46880713 </i>
   <i name="e_wo_entrp">   -102.46880713 </i>
   <i name="e_0_energy">     -0.00000000 </i>
  </energy>
  <time name="totalsc">    3.38    3.56</time>
 </calculation>
 <calculation>
  <scstep>
   <time name="dav">    0.57    0.58</time>
   <time name="total">    0.85    0.89</time>
   <energy>
    <i name="alphaZ">    129.52651530 </i>
    <i name="ewald">  -4301.65169570 </i>
    <i name="hartreedc">   -743.18734570 </i>
    <i name="XCdc">   -390.53418679 </i>
    <i name="pawpsdc">   6839.53795458 </i>
    <i name="pawaedc">  -6194.47230269 </i>
    <i name="eentropy">     -0.00000000 </i>
    <i name="bandstr">   -262.23514855 </i>
    <i name="atom">   4820.54206163 </i>
    <i name="e_fr_energy">   -102.47414792 </i>
    <i name="e_wo_entrp">   -102.47414792 </i>
    <i name="e_0_energy">   -102.47414792 </i>
   </energy>
  </scstep>
  <scstep>
   <time name="dav">    0.62    0.62</time>
   <time name="total">    0.88    0.88</time>
   <energy>
    <i name="e_fr_energy">   -102.47443099 </i>
    <i name="e_wo_entrp">   -102.47443099 </i>
    <i name="e_0_energy">   -102.47443099 </i>
   </energy>
  </scstep>
  <scstep>
   <time name="dav">    0.87    0.87</time>
   <time name="total">    1.11    1.11</time>
   <energy>
    <i name="alphaZ">    129.52651530 </i>
    <i name="ewald">  -4301.65169570 </i>
    <i name="hartreedc">   -743.49246514 </i>
    <i name="XCdc">   -390.53046847 </i>
    <i name="pawpsdc">   6834.79691924 </i>
    <i name="pawaedc">  -6189.72932399 </i>
    <i name="eentropy">     -0.00000000 </i>
    <i name="bandstr">   -261.93590316 </i>
    <i name="atom">   4820.54206163 </i>
    <i name="e_fr_energy">   -102.47436030 </i>
    <i name="e_wo_entrp">   -102.47436030 </i>
    <i name="e_0_energy">   -102.47436030 </i>
   </energy>
  </scstep>
  <structure>
   <crystal>
    <varray name="basis" >
     <v>      -7.11111174      -0.11010663      -0.07826917 </v>
     <v>       2.19934612       9.00632326      -0.57251268 </v>
     <v>      -0.49444469      -1.28166921     -11.20870687 </v>
    </varray>
    <i name="volume">    720.20582836 </i>
    <varray name="rec_basis" >
     <v>      -0.14118604       0.03462191       0.00226920 </v>
     <v>      -0.00157432       0.11061792      -0.01257925 </v>
     <v>       0.00106630      -0.00589185      -0.08858969 </v>
    </varray>
   </crystal>
   <varray name="positions" >
    <v>       0.34066670       0.33053959       0.13426762 </v>
    <v>       0.36800697       0.83818087       0.64040773 </v>
    <v>       0.63199303       0.16181913       0.35959227 </v>
    <v>       0.65933330       0.66946041       0.86573238 </v>
    <v>       0.03206753       0.95799886       0.33206565 </v>
    <v>       0.11861779       0.45647961       0.81001166 </v>
    <v>       0.76729059       0.13270315       0.04783852 </v>
    <v>       0.52669256       0.24592223       0.75367549 </v>
    <v>       0.23270941       0.86729685       0.95216148 </v>
    <v>       0.96793247       0.04200114       0.66793435 </v>
    <v>       0.88138221       0.54352039       0.18998834 </v>
    <v>       0.47330744       0.75407777       0.24632451 </v>
    <v>       0.83919816       0.83896877       0.12178421 </v>
    <v>       0.69133215       0.38428253       0.95722527 </v>
    <v>       0.46201257       0.50668217       0.69055314 </v>
    <v>       0.29218295       0.06233483       0.53738508 </v>
    <v>       0.08398531       0.68791001       0.37635452 </v>
    <v>       0.30866785       0.61571747       0.04277473 </v>
    <v>       0.42665172       0.06769406       0.17120082 </v>
    <v>       0.91601469       0.31208999       0.62364548 </v>
    <v>       0.57334828       0.93230594       0.82879918 </v>
    <v>       0.96434866       0.27711724       0.23822578 </v>
    <v>       0.03565134       0.72288276       0.76177422 </v>
    <v>       0.70781705       0.93766517       0.46261492 </v>
    <v>       0.53798743       0.49331783       0.30944686 </v>
    <v>       0.16080184       0.16103123       0.87821579 </v>
   </varray>
  </structure>
  <varray name="forces" >
   <v>      -0.03785407      -0.01144942       0.00131189 </v>
   <v>       0.02751396       0.00548993       0.01817031 </v>
   <v>      -0.02751396      -0.00548993      -0.01817031 </v>
   <v>       0.03785407       0.01144942      -0.00131189 </v>
   <v>       0.03359014      -0.02988306      -0.00572810 </v>
   <v>       0.01431505       0.02575526       0.03289301 </v>
   <v>       0.04402498      -0.14009483       0.11269773 </v>
   <v>       0.09620539       0.04767887       0.03399368 </v>
   <v>      -0.04402498       0.14009483      -0.11269773 </v>
   <v>      -0.03359014       0.02988306       0.00572810 </v>
   <v>      -0.01431505      -0.02575526      -0.03289301 </v>
   <v>      -0.09620539      -0.04767887      -0.03399368 </v>
   <v>      -0.05446944      -0.04168157       0.04943878 </v>
   <v>       0.01113544      -0.00565333      -0.00279359 </v>
   <v>       0.00125461       0.05121428      -0.03909710 </v>
   <v>      -0.00200816      -0.03029212      -0.06006358 </v>
   <v>      -0.05384965      -0.00970116       0.00684686 </v>
   <v>      -0.01113544       0.00565333       0.00279359 </v>
   <v>       0.00673099       0.00399079       0.01495707 </v>
   <v>       0.05384965       0.00970116      -0.00684686 </v>
   <v>      -0.00673099      -0.00399079      -0.01495707 </v>
   <v>      -0.00365084      -0.00162261      -0.02634587 </v>
   <v>       0.00365084       0.00162261       0.02634587 </v>
   <v>       0.00200816       0.03029212       0.06006358 </v>
   <v>      -0.00125461      -0.05121428       0.03909710 </v>
   <v>       0.05446944       0.04168157      -0.04943878 </v>
  </varray>
  <varray name="stress" >
   <v>       0.54971806      -0.54950001      -0.46796681 </v>
   <v>      -0.54949776      -0.12836775       0.11880403 </v>
   <v>      -0.46796467       0.11880513       1.13104723 </v>
  </varray>
  <energy>
   <i name="e_fr_energy">   -102.47436030 </i>
   <i name="e_wo_entrp">   -102.47436030 </i>
   <i name="e_0_energy">     -0.00000000 </i>
  </energy>
  <time name="totalsc">    3.99    4.23</time>
 </calculation>
 <calculation>
  <scstep>
   <time name="dav">    0.47    0.48</time>
   <time name="total">    0.74    0.79</time>
   <energy>
    <i name="alphaZ">    129.38507637 </i>
    <i name="ewald">  -4300.30750597 </i>
    <i name="hartreedc">   -743.04832942 </i>
    <i name="XCdc">   -390.59205051 </i>
    <i name="pawpsdc">   6833.56941216 </i>
    <i name="pawaedc">  -6188.49983932 </i>
    <i name="eentropy">     -0.00000000 </i>
    <i name="bandstr">   -263.52916996 </i>
    <i name="atom">   4820.54206163 </i>
    <i name="e_fr_energy">   -102.48034504 </i>
    <i name="e_wo_entrp">   -102.48034504 </i>
    <i name="e_0_energy">   -102.48034504 </i>
   </energy>
  </scstep>
  <scstep>
   <time name="dav">    0.70    0.70</time>
   <time name="total">    0.96    0.97</time>
   <energy>
    <i name="e_fr_energy">   -102.48145605 </i>
    <i name="e_wo_entrp">   -102.48145605 </i>
    <i name="e_0_energy">   -102.48145605 </i>
   </energy>
  </scstep>
  <scstep>
   <time name="dav">    0.76    0.76</time>
   <time name="total">    1.03    1.03</time>
   <energy>
    <i name="e_fr_energy">   -102.48121951 </i>
    <i name="e_wo_entrp">   -102.48121951 </i>
    <i name="e_0_energy">   -102.48121951 </i>
   </energy>
  </scstep>
  <scstep>
   <time name="dav">    0.55    0.55</time>
   <time name="total">    0.83    0.83</time>
   <energy>
    <i name="e_fr_energy">   -102.48108178 </i>
    <i name="e_wo_entrp">   -102.48108178 </i>
    <i name="e_0_energy">   -102.48108178 </i>
   </energy>
  </scstep>
  <scstep>
   <time name="dav">    0.68    0.68</time>
   <time name="total">    0.93    0.93</time>
   <energy>
    <i name="alphaZ">    129.38507637 </i>
    <i name="ewald">  -4300.30750597 </i>
    <i name="hartreedc">   -743.84283395 </i>
    <i name="XCdc">   -390.59061424 </i>
    <i name="pawpsdc">   6821.20008689 </i>
    <i name="pawaedc">  -6176.11991900 </i>
    <i name="eentropy">     -0.00000000 </i>
    <i name="bandstr">   -262.74740349 </i>
    <i name="atom">   4820.54206163 </i>
    <i name="e_fr_energy">   -102.48105177 </i>
    <i name="e_wo_entrp">   -102.48105177 </i>
    <i name="e_0_energy">   -102.48105177 </i>
   </energy>
  </scstep>
  <structure>
   <crystal>
    <varray name="basis" >
     <v>      -7.10817986      -0.10750920      -0.07740766 </v>
     <v>       2.19522676       9.00947747      -0.57765108 </v>
     <v>      -0.49236408      -1.27673881     -11.22024941 </v>
    </varray>
    <i name="volume">    720.99313045 </i>
    <varray name="rec_basis" >
     <v>      -0.14123032       0.03455706       0.00226523 </v>
     <v>      -0.00153601       0.11056615      -0.01251379 </v>
     <v>       0.00105342      -0.00593067      -0.08849596 </v>
    </varray>
   </crystal>
   <varray name="positions" >
    <v>       0.34097153       0.33045931       0.13427049 </v>
    <v>       0.36782656       0.83822216       0.64028144 </v>
    <v>       0.63217344       0.16177784       0.35971856 </v>
    <v>       0.65902847       0.66954069       0.86572951 </v>
    <v>       0.03167504       0.95761220       0.33204689 </v>
    <v>       0.11868375       0.45637300       0.81002580 </v>
    <v>       0.76682578       0.13186668       0.04757590 </v>
    <v>       0.52453299       0.24614542       0.75354503 </v>
    <v>       0.23317422       0.86813332       0.95242410 </v>
    <v>       0.96832496       0.04238780       0.66795311 </v>
    <v>       0.88131625       0.54362700       0.18997420 </v>
    <v>       0.47546701       0.75385458       0.24645497 </v>
    <v>       0.83949042       0.83852661       0.12150990 </v>
    <v>       0.69118821       0.38453287       0.95732477 </v>
    <v>       0.46209916       0.50694706       0.69075766 </v>
    <v>       0.29213371       0.06214255       0.53773569 </v>
    <v>       0.08444711       0.68786910       0.37635413 </v>
    <v>       0.30881179       0.61546713       0.04267523 </v>
    <v>       0.42659545       0.06772713       0.17117371 </v>
    <v>       0.91555289       0.31213090       0.62364587 </v>
    <v>       0.57340455       0.93227287       0.82882629 </v>
    <v>       0.96490397       0.27720569       0.23860984 </v>
    <v>       0.03509603       0.72279431       0.76139016 </v>
    <v>       0.70786629       0.93785745       0.46226431 </v>
    <v>       0.53790084       0.49305294       0.30924234 </v>
    <v>       0.16050958       0.16147339       0.87849010 </v>
   </varray>
  </structure>
  <varray name="forces" >
   <v>      -0.03390734      -0.00793551       0.00289880 </v>
   <v>       0.03053917      -0.00263361       0.00812227 </v>
   <v>      -0.03053917       0.00263361      -0.00812227 </v>
   <v>       0.03390734       0.00793551      -0.00289880 </v>
   <v>      -0.05955404      -0.00757270      -0.02902700 </v>
   <v>       0.17947888       0.10286892       0.00696717 </v>
   <v>       0.09527428       0.02313964      -0.01883504 </v>
   <v>       0.13396140      -0.09110753       0.04308542 </v>
   <v>      -0.09527428      -0.02313964       0.01883504 </v>
   <v>       0.05955404       0.00757270       0.02902700 </v>
   <v>      -0.17947888      -0.10286892      -0.00696717 </v>
   <v>      -0.13396140       0.09110753      -0.04308542 </v>
   <v>      -0.07253744      -0.00353091       0.01839051 </v>
   <v>       0.02115371      -0.05028717       0.00122972 </v>
   <v>       0.00236658       0.05842018      -0.02590130 </v>
   <v>      -0.01492570      -0.01256815      -0.00948424 </v>
   <v>      -0.04003746      -0.00603982       0.04376666 </v>
   <v>      -0.02115371       0.05028717      -0.00122972 </v>
   <v>      -0.01767558       0.00537804       0.01753904 </v>
   <v>       0.04003746       0.00603982      -0.04376666 </v>
   <v>       0.01767558      -0.00537804      -0.01753904 </v>
   <v>       0.02670383       0.00175401       0.01239547 </v>
   <v>      -0.02670383      -0.00175401      -0.01239547 </v>
   <v>       0.01492570       0.01256815       0.00948424 </v>
   <v>      -0.00236658      -0.05842018       0.02590130 </v>
   <v>       0.07253744       0.00353091      -0.01839051 </v>
  </varray>
  <varray name="stress" >
   <v>       0.74766845      -0.21426729      -1.38755553 </v>
   <v>      -0.21426427      -0.98960111       1.19824344 </v>
   <v>      -1.38755293       1.19824365      -1.34098771 </v>
  </varray>
  <energy>
   <i name="e_fr_energy">   -102.48105177 </i>
   <i name="e_wo_entrp">   -102.48105177 </i>
   <i name="e_0_energy">     -0.00000000 </i>
  </energy>
  <time name="totalsc">    5.51    5.73</time>
 </calculation>
 <calculation>
  <scstep>
   <time name="dav">    0.77    0.79</time>
   <time name="total">    1.06    1.11</time>
   <energy>
    <i name="alphaZ">    129.40804144 </i>
    <i name="ewald">  -4300.50590902 </i>
    <i name="hartreedc">   -743.92891225 </i>
    <i name="XCdc">   -390.58191051 </i>
    <i name="pawpsdc">   6821.62131311 </i>
    <i name="pawaedc">  -6176.54073492 </i>
    <i name="eentropy">     -0.00000000 </i>
    <i name="bandstr">   -262.49796272 </i>
    <i name="atom">   4820.54206163 </i>
    <i name="e_fr_energy">   -102.48401325 </i>
    <i name="e_wo_entrp">   -102.48401325 </i>
    <i name="e_0_energy">   -102.48401325 </i>
   </energy>
  </scstep>
  <scstep>
   <time name="dav">    0.86    0.88</time>
   <time name="total">    1.14    1.16</time>
   <energy>
    <i name="e_fr_energy">   -102.48404264 </i>
    <i name="e_wo_entrp">   -102.48404264 </i>
    <i name="e_0_energy">   -102.48404264 </i>
   </energy>
  </scstep>
  <scstep>
   <time name="dav">    0.42    0.42</time>
   <time name="total">    0.66    0.67</time>
   <energy>
    <i name="alphaZ">    129.40804144 </i>
    <i name="ewald">  -4300.50590902 </i>
    <i name="hartreedc">   -743.82831143 </i>
    <i name="XCdc">   -390.58294316 </i>
    <i name="pawpsdc">   6823.31516287 </i>
    <i name="pawaedc">  -6178.23413009 </i>
    <i name="eentropy">     -0.00000000 </i>
    <i name="bandstr">   -262.59797133 </i>
    <i name="atom">   4820.54206163 </i>
    <i name="e_fr_energy">   -102.48399909 </i>
    <i name="e_wo_entrp">   -102.48399909 </i>
    <i name="e_0_energy">   -102.48399909 </i>
   </energy>
  </scstep>
  <structure>
   <crystal>
    <varray name="basis" >
     <v>      -7.10889040      -0.10661467      -0.07479255 </v>
     <v>       2.19454138       9.00759679      -0.57654880 </v>
     <v>      -0.48810761      -1.27876484     -11.21900344 </v>
    </varray>
    <i name="volume">    720.86518121 </i>
    <varray name="rec_basis" >
     <v>      -0.14121022       0.03454458       0.00220620 </v>
     <v>      -0.00152659       0.11058678      -0.01253849 </v>
     <v>       0.00101984      -0.00591339      -0.08850483 </v>
    </varray>
   </crystal>
   <varray name="positions" >
    <v>       0.34109666       0.33043108       0.13426755 </v>
    <v>       0.36772794       0.83822402       0.64024689 </v>
    <v>       0.63227206       0.16177598       0.35975311 </v>
    <v>       0.65890334       0.66956892       0.86573245 </v>
    <v>       0.03171368       0.95753044       0.33207984 </v>
    <v>       0.11838406       0.45651008       0.81001370 </v>
    <v>       0.76655174       0.13173972       0.04754759 </v>
    <v>       0.52379103       0.24603424       0.75347427 </v>
    <v>       0.23344826       0.86826028       0.95245241 </v>
    <v>       0.96828632       0.04246956       0.66792016 </v>
    <v>       0.88161594       0.54348992       0.18998630 </v>
    <v>       0.47620897       0.75396576       0.24652573 </v>
    <v>       0.83969415       0.83843208       0.12143168 </v>
    <v>       0.69109194       0.38450172       0.95734740 </v>
    <v>       0.46213958       0.50709665       0.69082595 </v>
    <v>       0.29214775       0.06208664       0.53781775 </v>
    <v>       0.08461792       0.68784443       0.37629835 </v>
    <v>       0.30890806       0.61549828       0.04265260 </v>
    <v>       0.42662342       0.06773944       0.17114534 </v>
    <v>       0.91538208       0.31215557       0.62370165 </v>
    <v>       0.57337658       0.93226056       0.82885466 </v>
    <v>       0.96496073       0.27722303       0.23867008 </v>
    <v>       0.03503927       0.72277697       0.76132992 </v>
    <v>       0.70785225       0.93791336       0.46218225 </v>
    <v>       0.53786042       0.49290335       0.30917405 </v>
    <v>       0.16030585       0.16156792       0.87856832 </v>
   </varray>
  </structure>
  <varray name="forces" >
   <v>      -0.03240574      -0.00737272       0.00391124 </v>
   <v>       0.03076981      -0.00708998       0.00686320 </v>
   <v>      -0.03076981       0.00708998      -0.00686320 </v>
   <v>       0.03240574       0.00737272      -0.00391124 </v>
   <v>      -0.04665998      -0.01844374      -0.00317074 </v>
   <v>       0.09804165       0.01119829       0.01777384 </v>
   <v>       0.01840195       0.01984129      -0.03632925 </v>
   <v>       0.04692203       0.00523070      -0.01067285 </v>
   <v>      -0.01840195      -0.01984129       0.03632925 </v>
   <v>       0.04665998       0.01844374       0.00317074 </v>
   <v>      -0.09804165      -0.01119829      -0.01777384 </v>
   <v>      -0.04692203      -0.00523070       0.01067285 </v>
   <v>      -0.07700264      -0.00568177       0.02170581 </v>
   <v>       0.02420068      -0.05434831       0.00403385 </v>
   <v>       0.00734684       0.04832432      -0.02414498 </v>
   <v>      -0.01648807      -0.00265085      -0.00126215 </v>
   <v>      -0.04304028      -0.01097793       0.04483133 </v>
   <v>      -0.02420068       0.05434831      -0.00403385 </v>
   <v>      -0.01688011       0.00699076       0.01504729 </v>
   <v>       0.04304028       0.01097793      -0.04483133 </v>
   <v>       0.01688011      -0.00699076      -0.01504729 </v>
   <v>       0.02604051      -0.01141471       0.02355669 </v>
   <v>      -0.02604051       0.01141471      -0.02355669 </v>
   <v>       0.01648807       0.00265085       0.00126215 </v>
   <v>      -0.00734684      -0.04832432       0.02414498 </v>
   <v>       0.07700264       0.00568177      -0.02170581 </v>
  </varray>
  <varray name="stress" >
   <v>       0.73984780      -0.56241850      -1.18665888 </v>
   <v>      -0.56241622      -0.74640160       1.14435140 </v>
   <v>      -1.18665624       1.14435187      -1.18021362 </v>
  </varray>
  <energy>
   <i name="e_fr_energy">   -102.48399909 </i>
   <i name="e_wo_entrp">   -102.48399909 </i>
   <i name="e_0_energy">     -0.00000000 </i>
  </energy>
  <time name="totalsc">    3.96    4.11</time>
 </calculation>
 <calculation>
  <scstep>
   <time name="dav">    0.67    0.69</time>
   <time name="total">    0.95    1.00</time>
   <energy>
    <i name="alphaZ">    129.43610872 </i>
    <i name="ewald">  -4300.74357048 </i>
    <i name="hartreedc">   -743.91160143 </i>
    <i name="XCdc">   -390.57180991 </i>
    <i name="pawpsdc">   6823.79027847 </i>
    <i name="pawaedc">  -6178.70945267 </i>
    <i name="eentropy">     -0.00000000 </i>
    <i name="bandstr">   -262.31898344 </i>
    <i name="atom">   4820.54206163 </i>
    <i name="e_fr_energy">   -102.48696911 </i>
    <i name="e_wo_entrp">   -102.48696911 </i>
    <i name="e_0_energy">   -102.48696911 </i>
   </energy>
  </scstep>
  <scstep>
   <time name="dav">    0.82    0.84</time>
   <time name="total">    1.09    1.11</time>
   <energy>
    <i name="e_fr_energy">   -102.48697506 </i>
    <i name="e_wo_entrp">   -102.48697506 </i>
    <i name="e_0_energy">   -102.48697506 </i>
   </energy>
  </scstep>
  <scstep>
   <time name="dav">    0.57    0.58</time>
   <time name="total">    0.82    0.83</time>
   <energy>
    <i name="alphaZ">    129.43610872 </i>
    <i name="ewald">  -4300.74357048 </i>
    <i name="hartreedc">   -743.78856792 </i>
    <i name="XCdc">   -390.57298414 </i>
    <i name="pawpsdc">   6824.74107178 </i>
    <i name="pawaedc">  -6179.66057729 </i>
    <i name="eentropy">     -0.00000000 </i>
    <i name="bandstr">   -262.44043773 </i>
    <i name="atom">   4820.54206163 </i>
    <i name="e_fr_energy">   -102.48689545 </i>
    <i name="e_wo_entrp">   -102.48689545 </i>
    <i name="e_0_energy">   -102.48689545 </i>
   </energy>
  </scstep>
  <structure>
   <crystal>
    <varray name="basis" >
     <v>      -7.10975625      -0.10552463      -0.07160586 </v>
     <v>       2.19370619       9.00530505      -0.57520560 </v>
     <v>      -0.48292081      -1.28123370     -11.21748514 </v>
    </varray>
    <i name="volume">    720.70886686 </i>
    <varray name="rec_basis" >
     <v>      -0.14118579       0.03452940       0.00213429 </v>
     <v>      -0.00151514       0.11061194      -0.01256860 </v>
     <v>       0.00097894      -0.00589233      -0.08851568 </v>
    </varray>
   </crystal>
   <varray name="positions" >
    <v>       0.34124911       0.33039666       0.13426400 </v>
    <v>       0.36760776       0.83822628       0.64020476 </v>
    <v>       0.63239224       0.16177372       0.35979524 </v>
    <v>       0.65875089       0.66960334       0.86573600 </v>
    <v>       0.03176079       0.95743079       0.33212001 </v>
    <v>       0.11801889       0.45667718       0.80999888 </v>
    <v>       0.76621783       0.13158500       0.04751298 </v>
    <v>       0.52288697       0.24589876       0.75338782 </v>
    <v>       0.23378217       0.86841500       0.95248702 </v>
    <v>       0.96823921       0.04256921       0.66787999 </v>
    <v>       0.88198111       0.54332282       0.19000112 </v>
    <v>       0.47711303       0.75410124       0.24661218 </v>
    <v>       0.83994230       0.83831683       0.12133640 </v>
    <v>       0.69097466       0.38446377       0.95737496 </v>
    <v>       0.46218887       0.50727900       0.69090920 </v>
    <v>       0.29216492       0.06201852       0.53791774 </v>
    <v>       0.08482600       0.68781433       0.37623042 </v>
    <v>       0.30902534       0.61553623       0.04262504 </v>
    <v>       0.42665748       0.06775444       0.17111079 </v>
    <v>       0.91517400       0.31218567       0.62376958 </v>
    <v>       0.57334252       0.93224556       0.82888921 </v>
    <v>       0.96502993       0.27724418       0.23874351 </v>
    <v>       0.03497007       0.72275582       0.76125649 </v>
    <v>       0.70783508       0.93798148       0.46208226 </v>
    <v>       0.53781113       0.49272100       0.30909080 </v>
    <v>       0.16005770       0.16168317       0.87866360 </v>
   </varray>
  </structure>
  <varray name="forces" >
   <v>      -0.03002319      -0.00721300       0.00670879 </v>
   <v>       0.03093590      -0.01258797       0.00557703 </v>
   <v>      -0.03093590       0.01258797      -0.00557703 </v>
   <v>       0.03002319       0.00721300      -0.00670879 </v>
   <v>      -0.01382590      -0.06589312      -0.03137435 </v>
   <v>       0.14844331       0.04039316       0.05901771 </v>
   <v>      -0.00824214       0.01781039      -0.00910135 </v>
   <v>       0.03806890       0.05100968       0.06778505 </v>
   <v>       0.00824214      -0.01781039       0.00910135 </v>
   <v>       0.01382590       0.06589312       0.03137435 </v>
   <v>      -0.14844331      -0.04039316      -0.05901771 </v>
   <v>      -0.03806890      -0.05100968      -0.06778505 </v>
   <v>      -0.06325697      -0.00403843       0.02933551 </v>
   <v>       0.02261276      -0.04573115       0.01221607 </v>
   <v>       0.02210712       0.04935819      -0.03272397 </v>
   <v>      -0.00109929      -0.00024738      -0.00018478 </v>
   <v>      -0.04101414      -0.02611871       0.00523170 </v>
   <v>      -0.02261276       0.04573115      -0.01221607 </v>
   <v>      -0.01631029       0.00795863       0.01356766 </v>
   <v>       0.04101414       0.02611871      -0.00523170 </v>
   <v>       0.01631029      -0.00795863      -0.01356766 </v>
   <v>       0.01849172      -0.01753174       0.01771723 </v>
   <v>      -0.01849172       0.01753174      -0.01771723 </v>
   <v>       0.00109929       0.00024738       0.00018478 </v>
   <v>      -0.02210712      -0.04935819       0.03272397 </v>
   <v>       0.06325697       0.00403843      -0.02933551 </v>
  </varray>
  <varray name="stress" >
   <v>       0.52998307      -0.34976318      -1.01468345 </v>
   <v>      -0.34975892      -0.80364369       1.07352806 </v>
   <v>      -1.01468229       1.07352809      -1.02883039 </v>
  </varray>
  <energy>
   <i name="e_fr_energy">   -102.48689545 </i>
   <i name="e_wo_entrp">   -102.48689545 </i>
   <i name="e_0_energy">     -0.00000000 </i>
  </energy>
  <time name="totalsc">    3.95    4.19</time>
 </calculation>
 <calculation>
  <scstep>
   <time name="dav">    0.75    0.77</time>
   <time name="total">    1.03    1.08</time>
   <energy>
    <i name="alphaZ">    129.49251604 </i>
    <i name="ewald">  -4301.20499404 </i>
    <i name="hartreedc">   -743.97965420 </i>
    <i name="XCdc">   -390.55081622 </i>
    <i name="pawpsdc">   6824.75939873 </i>
    <i name="pawaedc">  -6179.67943818 </i>
    <i name="eentropy">     -0.00000000 </i>
    <i name="bandstr">   -261.87162895 </i>
    <i name="atom">   4820.54206163 </i>
    <i name="e_fr_energy">   -102.49255519 </i>
    <i name="e_wo_entrp">   -102.49255519 </i>
    <i name="e_0_energy">   -102.49255519 </i>
   </energy>
  </scstep>
  <scstep>
   <time name="dav">    0.63    0.64</time>
   <time name="total">    0.90    0.91</time>
   <energy>
    <i name="e_fr_energy">   -102.49265191 </i>
    <i name="e_wo_entrp">   -102.49265191 </i>
    <i name="e_0_energy">   -102.49265191 </i>
   </energy>
  </scstep>
  <scstep>
   <time name="dav">    0.58    0.58</time>
   <time name="total">    0.85    0.85</time>
   <energy>
    <i name="e_fr_energy">   -102.49236435 </i>
    <i name="e_wo_entrp">   -102.49236435 </i>
    <i name="e_0_energy">   -102.49236435 </i>
   </energy>
  </scstep>
  <scstep>
   <time name="dav">    0.51    0.51</time>
   <time name="total">    0.79    0.79</time>
   <energy>
    <i name="e_fr_energy">   -102.49224165 </i>
    <i name="e_wo_entrp">   -102.49224165 </i>
    <i name="e_0_energy">   -102.49224165 </i>
   </energy>
  </scstep>
  <scstep>
   <time name="dav">    0.51    0.51</time>
   <time name="total">    0.76    0.76</time>
   <energy>
    <i name="alphaZ">    129.49251604 </i>
    <i name="ewald">  -4301.20499404 </i>
    <i name="hartreedc">   -743.66854853 </i>
    <i name="XCdc">   -390.55162180 </i>
    <i name="pawpsdc">   6826.02656068 </i>
    <i name="pawaedc">  -6180.94918834 </i>
    <i name="eentropy">     -0.00000000 </i>
    <i name="bandstr">   -262.17901467 </i>
    <i name="atom">   4820.54206163 </i>
    <i name="e_fr_energy">   -102.49222902 </i>
    <i name="e_wo_entrp">   -102.49222902 </i>
    <i name="e_0_energy">   -102.49222902 </i>
   </energy>
  </scstep>
  <structure>
   <crystal>
    <varray name="basis" >
     <v>      -7.11148795      -0.10334455      -0.06523246 </v>
     <v>       2.19203582       9.00072157      -0.57251918 </v>
     <v>      -0.47254721      -1.28617142     -11.21444853 </v>
    </varray>
    <i name="volume">    720.39492394 </i>
    <varray name="rec_basis" >
     <v>      -0.14113715       0.03449915       0.00199048 </v>
     <v>      -0.00149231       0.11066234      -0.01262885 </v>
     <v>       0.00089716      -0.00585020      -0.08853753 </v>
    </varray>
   </crystal>
   <varray name="positions" >
    <v>       0.34155396       0.33032777       0.13425697 </v>
    <v>       0.36736738       0.83823080       0.64012042 </v>
    <v>       0.63263262       0.16176920       0.35987958 </v>
    <v>       0.65844604       0.66967223       0.86574303 </v>
    <v>       0.03185505       0.95723145       0.33220037 </v>
    <v>       0.11728864       0.45701153       0.80996906 </v>
    <v>       0.76555009       0.13127549       0.04744355 </v>
    <v>       0.52107902       0.24562782       0.75321435 </v>
    <v>       0.23444991       0.86872451       0.95255645 </v>
    <v>       0.96814495       0.04276855       0.66779963 </v>
    <v>       0.88271136       0.54298847       0.19003094 </v>
    <v>       0.47892098       0.75437218       0.24678565 </v>
    <v>       0.84043839       0.83808615       0.12114595 </v>
    <v>       0.69074019       0.38438789       0.95743000 </v>
    <v>       0.46228757       0.50764384       0.69107578 </v>
    <v>       0.29219943       0.06188231       0.53811775 </v>
    <v>       0.08524199       0.68775404       0.37609467 </v>
    <v>       0.30925981       0.61561211       0.04257000 </v>
    <v>       0.42672553       0.06778440       0.17104168 </v>
    <v>       0.91475801       0.31224596       0.62390533 </v>
    <v>       0.57327447       0.93221560       0.82895832 </v>
    <v>       0.96516844       0.27728652       0.23889044 </v>
    <v>       0.03483156       0.72271348       0.76110956 </v>
    <v>       0.70780057       0.93811769       0.46188225 </v>
    <v>       0.53771243       0.49235616       0.30892422 </v>
    <v>       0.15956161       0.16191385       0.87885405 </v>
   </varray>
  </structure>
  <varray name="forces" >
   <v>      -0.02452279      -0.00542151       0.01207595 </v>
   <v>       0.03224665      -0.02325649       0.00438703 </v>
   <v>      -0.03224665       0.02325649      -0.00438703 </v>
   <v>       0.02452279       0.00542151      -0.01207595 </v>
   <v>       0.00397690      -0.09353261       0.08683300 </v>
   <v>       0.07262538      -0.03264778       0.02461720 </v>
   <v>       0.02524479       0.01574985      -0.00805598 </v>
   <v>      -0.01331195       0.00304677      -0.01274746 </v>
   <v>      -0.02524479      -0.01574985       0.00805598 </v>
   <v>      -0.00397690       0.09353261      -0.08683300 </v>
   <v>      -0.07262538       0.03264778      -0.02461720 </v>
   <v>       0.01331195      -0.00304677       0.01274746 </v>
   <v>      -0.05270457       0.00437792       0.02870860 </v>
   <v>       0.02538356      -0.04732565       0.02807943 </v>
   <v>       0.06462524       0.03843404      -0.03357366 </v>
   <v>       0.00582564      -0.00158330      -0.01674087 </v>
   <v>      -0.06672277      -0.03174277      -0.02374021 </v>
   <v>      -0.02538356       0.04732565      -0.02807943 </v>
   <v>       0.00557021       0.00263756       0.01086109 </v>
   <v>       0.06672277       0.03174277       0.02374021 </v>
   <v>      -0.00557021      -0.00263756      -0.01086109 </v>
   <v>       0.01033365      -0.03400818       0.02059840 </v>
   <v>      -0.01033365       0.03400818      -0.02059840 </v>
   <v>      -0.00582564       0.00158330       0.01674087 </v>
   <v>      -0.06462524      -0.03843404       0.03357366 </v>
   <v>       0.05270457      -0.00437792      -0.02870860 </v>
  </varray>
  <varray name="stress" >
   <v>       0.59084407       0.08366234      -0.03468964 </v>
   <v>       0.08366526       0.11726442       0.62649970 </v>
   <v>      -0.03468703       0.62650028      -0.22573728 </v>
  </varray>
  <energy>
   <i name="e_fr_energy">   -102.49222902 </i>
   <i name="e_wo_entrp">   -102.49222902 </i>
   <i name="e_0_energy">     -0.00000000 </i>
  </energy>
  <time name="totalsc">    5.47    5.66</time>
 </calculation>
 <calculation>
  <scstep>
   <time name="dav">    0.80    0.82</time>
   <time name="total">    1.08    1.14</time>
   <energy>
    <i name="alphaZ">    129.60642327 </i>
    <i name="ewald">  -4302.07224592 </i>
    <i name="hartreedc">   -744.14096348 </i>
    <i name="XCdc">   -390.50679520 </i>
    <i name="pawpsdc">   6825.79724212 </i>
    <i name="pawaedc">  -6180.71996642 </i>
    <i name="eentropy">     -0.00000000 </i>
    <i name="bandstr">   -260.99216081 </i>
    <i name="atom">   4820.54206163 </i>
    <i name="e_fr_energy">   -102.48640481 </i>
    <i name="e_wo_entrp">   -102.48640481 </i>
    <i name="e_0_energy">   -102.48640481 </i>
   </energy>
  </scstep>
  <scstep>
   <time name="dav">    0.88    0.91</time>
   <time name="total">    1.16    1.19</time>
   <energy>
    <i name="e_fr_energy">   -102.48720949 </i>
    <i name="e_wo_entrp">   -102.48720949 </i>
    <i name="e_0_energy">   -102.48720949 </i>
   </energy>
  </scstep>
  <scstep>
   <time name="dav">    0.56    0.56</time>
   <time name="total">    0.82    0.83</time>
   <energy>
    <i name="e_fr_energy">   -102.48618246 </i>
    <i name="e_wo_entrp">   -102.48618246 </i>
    <i name="e_0_energy">   -102.48618246 </i>
   </energy>
  </scstep>
  <scstep>
   <time name="dav">    0.53    0.53</time>
   <time name="total">    0.79    0.80</time>
   <energy>
    <i name="e_fr_energy">   -102.48573285 </i>
    <i name="e_wo_entrp">   -102.48573285 </i>
    <i name="e_0_energy">   -102.48573285 </i>
   </energy>
  </scstep>
  <scstep>
   <time name="dav">    0.56    0.56</time>
   <time name="total">    0.81    0.81</time>
   <energy>
    <i name="alphaZ">    129.60642327 </i>
    <i name="ewald">  -4302.07224592 </i>
    <i name="hartreedc">   -743.54739409 </i>
    <i name="XCdc">   -390.50887532 </i>
    <i name="pawpsdc">   6832.22906806 </i>
    <i name="pawaedc">  -6187.15729581 </i>
    <i name="eentropy">     -0.00000000 </i>
    <i name="bandstr">   -261.57740291 </i>
    <i name="atom">   4820.54206163 </i>
    <i name="e_fr_energy">   -102.48566110 </i>
    <i name="e_wo_entrp">   -102.48566110 </i>
    <i name="e_0_energy">   -102.48566110 </i>
   </energy>
  </scstep>
  <structure>
   <crystal>
    <varray name="basis" >
     <v>      -7.11495135      -0.09898438      -0.05248568 </v>
     <v>       2.18869507       8.99155461      -0.56714635 </v>
     <v>      -0.45180001      -1.29604686     -11.20837532 </v>
    </varray>
    <i name="volume">    719.76179028 </i>
    <varray name="rec_basis" >
     <v>      -0.14104078       0.03443911       0.00170297 </v>
     <v>      -0.00144691       0.11076350      -0.01274948 </v>
     <v>       0.00073367      -0.00576593      -0.08858184 </v>
    </varray>
   </crystal>
   <varray name="positions" >
    <v>       0.34216345       0.33018982       0.13424324 </v>
    <v>       0.36688649       0.83823982       0.63995143 </v>
    <v>       0.63311351       0.16176018       0.36004857 </v>
    <v>       0.65783655       0.66981018       0.86575676 </v>
    <v>       0.03204382       0.95683264       0.33236113 </v>
    <v>       0.11582848       0.45768079       0.80990870 </v>
    <v>       0.76421488       0.13065628       0.04730374 </v>
    <v>       0.51746381       0.24508604       0.75286511 </v>
    <v>       0.23578512       0.86934372       0.95269626 </v>
    <v>       0.96795618       0.04316736       0.66763887 </v>
    <v>       0.88417152       0.54231921       0.19009130 </v>
    <v>       0.48253619       0.75491396       0.24713489 </v>
    <v>       0.84142965       0.83762416       0.12076543 </v>
    <v>       0.69027161       0.38423620       0.95753981 </v>
    <v>       0.46248537       0.50837407       0.69140929 </v>
    <v>       0.29226910       0.06160996       0.53851783 </v>
    <v>       0.08607324       0.68763311       0.37582354 </v>
    <v>       0.30972839       0.61576380       0.04246019 </v>
    <v>       0.42686135       0.06784426       0.17090354 </v>
    <v>       0.91392676       0.31236689       0.62417646 </v>
    <v>       0.57313865       0.93215574       0.82909646 </v>
    <v>       0.96544584       0.27737138       0.23918453 </v>
    <v>       0.03455416       0.72262862       0.76081547 </v>
    <v>       0.70773090       0.93839004       0.46148217 </v>
    <v>       0.53751463       0.49162593       0.30859071 </v>
    <v>       0.15857035       0.16237584       0.87923457 </v>
   </varray>
  </structure>
  <varray name="forces" >
   <v>      -0.01495715      -0.00370151       0.02203592 </v>
   <v>       0.03465464      -0.04455186      -0.00163752 </v>
   <v>      -0.03465464       0.04455186       0.00163752 </v>
   <v>       0.01495715       0.00370151      -0.02203592 </v>
   <v>       0.02377829      -0.04175719       0.06335179 </v>
   <v>       0.09097856       0.00134377       0.05153959 </v>
   <v>      -0.05941349       0.05107871       0.00829224 </v>
   <v>      -0.24507389       0.01546183      -0.23913559 </v>
   <v>       0.05941349      -0.05107871      -0.00829224 </v>
   <v>      -0.02377829       0.04175719      -0.06335179 </v>
   <v>      -0.09097856      -0.00134377      -0.05153959 </v>
   <v>       0.24507389      -0.01546183       0.23913559 </v>
   <v>       0.02279399       0.03523374      -0.01536372 </v>
   <v>       0.01567724      -0.06480451       0.05134135 </v>
   <v>       0.13634472       0.02780786      -0.03036220 </v>
   <v>       0.01379591       0.00431739      -0.02410824 </v>
   <v>      -0.11382101      -0.00355297      -0.06273737 </v>
   <v>      -0.01567724       0.06480451      -0.05134135 </v>
   <v>       0.01857609       0.00171357       0.00114908 </v>
   <v>       0.11382101       0.00355297       0.06273737 </v>
   <v>      -0.01857609      -0.00171357      -0.00114908 </v>
   <v>      -0.03539308      -0.05616159       0.01603577 </v>
   <v>       0.03539308       0.05616159      -0.01603577 </v>
   <v>      -0.01379591      -0.00431739       0.02410824 </v>
   <v>      -0.13634472      -0.02780786       0.03036220 </v>
   <v>      -0.02279399      -0.03523374       0.01536372 </v>
  </varray>
  <varray name="stress" >
   <v>      -0.04849499       0.74680989       0.69460314 </v>
   <v>       0.74681314       1.45152613       0.45141521 </v>
   <v>       0.69460480       0.45141693      -0.46070782 </v>
  </varray>
  <energy>
   <i name="e_fr_energy">   -102.48566110 </i>
   <i name="e_wo_entrp">   -102.48566110 </i>
   <i name="e_0_energy">     -0.00000000 </i>
  </energy>
  <time name="totalsc">    5.73    5.94</time>
 </calculation>
 <calculation>
  <scstep>
   <time name="dav">    0.68    0.68</time>
   <time name="total">    0.96    1.02</time>
   <energy>
    <i name="alphaZ">    129.52327329 </i>
    <i name="ewald">  -4301.44201776 </i>
    <i name="hartreedc">   -743.20455307 </i>
    <i name="XCdc">   -390.54175117 </i>
    <i name="pawpsdc">   6831.86117668 </i>
    <i name="pawaedc">  -6186.78959140 </i>
    <i name="eentropy">     -0.00000000 </i>
    <i name="bandstr">   -262.44130167 </i>
    <i name="atom">   4820.54206163 </i>
    <i name="e_fr_energy">   -102.49270348 </i>
    <i name="e_wo_entrp">   -102.49270348 </i>
    <i name="e_0_energy">   -102.49270348 </i>
   </energy>
  </scstep>
  <scstep>
   <time name="dav">    0.72    0.72</time>
   <time name="total">    0.98    0.99</time>
   <energy>
    <i name="e_fr_energy">   -102.49313441 </i>
    <i name="e_wo_entrp">   -102.49313441 </i>
    <i name="e_0_energy">   -102.49313441 </i>
   </energy>
  </scstep>
  <scstep>
   <time name="dav">    0.71    0.71</time>
   <time name="total">    0.98    0.98</time>
   <energy>
    <i name="e_fr_energy">   -102.49257381 </i>
    <i name="e_wo_entrp">   -102.49257381 </i>
    <i name="e_0_energy">   -102.49257381 </i>
   </energy>
  </scstep>
  <scstep>
   <time name="dav">    0.71    0.71</time>
   <time name="total">    0.99    0.99</time>
   <energy>
    <i name="e_fr_energy">   -102.49231249 </i>
    <i name="e_wo_entrp">   -102.49231249 </i>
    <i name="e_0_energy">   -102.49231249 </i>
   </energy>
  </scstep>
  <scstep>
   <time name="dav">    0.66    0.66</time>
   <time name="total">    0.91    0.91</time>
   <energy>
    <i name="alphaZ">    129.52327329 </i>
    <i name="ewald">  -4301.44201776 </i>
    <i name="hartreedc">   -743.64325358 </i>
    <i name="XCdc">   -390.54086066 </i>
    <i name="pawpsdc">   6825.22559240 </i>
    <i name="pawaedc">  -6180.15035103 </i>
    <i name="eentropy">     -0.00000000 </i>
    <i name="bandstr">   -262.00671695 </i>
    <i name="atom">   4820.54206163 </i>
    <i name="e_fr_energy">   -102.49227267 </i>
    <i name="e_wo_entrp">   -102.49227267 </i>
    <i name="e_0_energy">   -102.49227267 </i>
   </energy>
  </scstep>
  <structure>
   <crystal>
    <varray name="basis" >
     <v>      -7.11242752      -0.10216170      -0.06177445 </v>
     <v>       2.19112953       8.99823471      -0.57106161 </v>
     <v>      -0.46691881      -1.28885048     -11.21280096 </v>
    </varray>
    <i name="volume">    720.22385535 </i>
    <varray name="rec_basis" >
     <v>      -0.14111089       0.03448280       0.00191247 </v>
     <v>      -0.00147996       0.11068974      -0.01266156 </v>
     <v>       0.00085279      -0.00582734      -0.08854947 </v>
    </varray>
   </crystal>
   <varray name="positions" >
    <v>       0.34171962       0.33029062       0.13425278 </v>
    <v>       0.36723709       0.83823328       0.64007504 </v>
    <v>       0.63276291       0.16176672       0.35992496 </v>
    <v>       0.65828038       0.66970938       0.86574722 </v>
    <v>       0.03190592       0.95712348       0.33224389 </v>
    <v>       0.11689204       0.45719227       0.80995373 </v>
    <v>       0.76518749       0.13110780       0.04740698 </v>
    <v>       0.52009730       0.24548072       0.75312294 </v>
    <v>       0.23481251       0.86889220       0.95259302 </v>
    <v>       0.96809408       0.04287652       0.66775611 </v>
    <v>       0.88310796       0.54280773       0.19004627 </v>
    <v>       0.47990270       0.75451928       0.24687706 </v>
    <v>       0.84070863       0.83796175       0.12104216 </v>
    <v>       0.69061257       0.38434665       0.95746020 </v>
    <v>       0.46234062       0.50784112       0.69116575 </v>
    <v>       0.29221738       0.06180830       0.53822617 </v>
    <v>       0.08546852       0.68772176       0.37602054 </v>
    <v>       0.30938743       0.61565335       0.04253980 </v>
    <v>       0.42676277       0.06780075       0.17100412 </v>
    <v>       0.91453148       0.31227824       0.62397946 </v>
    <v>       0.57323723       0.93219925       0.82899588 </v>
    <v>       0.96524314       0.27730929       0.23896986 </v>
    <v>       0.03475686       0.72269071       0.76103014 </v>
    <v>       0.70778262       0.93819170       0.46177383 </v>
    <v>       0.53765938       0.49215888       0.30883425 </v>
    <v>       0.15929137       0.16203825       0.87895784 </v>
   </varray>
  </structure>
  <varray name="forces" >
   <v>      -0.02195505      -0.00492572       0.01453517 </v>
   <v>       0.03318331      -0.02869221       0.00274611 </v>
[...]
        <r>  0.0004  0.0001  0.0000 </r>
        <r>  0.0008  0.0386  0.0018 </r>
        <r>  0.0011  0.0338  0.0006 </r>
        <r>  0.0013  0.0311  0.0008 </r>
        <r>  0.0014  0.0178  0.0005 </r>
        <r>  0.0013  0.0311  0.0008 </r>
        <r>  0.0008  0.0386  0.0018 </r>
        <r>  0.0011  0.0338  0.0006 </r>
        <r>  0.0014  0.0178  0.0005 </r>
        <r>  0.0033  0.0105  0.0023 </r>
        <r>  0.0022  0.0121  0.0010 </r>
        <r>  0.0034  0.0160  0.0004 </r>
        <r>  0.0003  0.0078  0.0012 </r>
        <r>  0.0043  0.0253  0.0015 </r>
        <r>  0.0022  0.0121  0.0010 </r>
        <r>  0.0000  0.0049  0.0015 </r>
        <r>  0.0043  0.0253  0.0015 </r>
        <r>  0.0000  0.0049  0.0015 </r>
        <r>  0.0053  0.0099  0.0023 </r>
        <r>  0.0053  0.0099  0.0023 </r>
        <r>  0.0003  0.0078  0.0012 </r>
        <r>  0.0034  0.0160  0.0004 </r>
        <r>  0.0033  0.0105  0.0023 </r>
       </set>
       <set comment="band 70">
        <r>  0.0002  0.0012  0.0000 </r>
        <r>  0.0006  0.0003  0.0000 </r>
        <r>  0.0006  0.0003  0.0000 </r>
        <r>  0.0002  0.0012  0.0000 </r>
        <r>  0.0012  0.0161  0.0008 </r>
        <r>  0.0061  0.0456  0.0014 </r>
        <r>  0.0009  0.0214  0.0004 </r>
        <r>  0.0009  0.0322  0.0008 </r>
        <r>  0.0009  0.0214  0.0004 </r>
        <r>  0.0012  0.0161  0.0008 </r>
        <r>  0.0061  0.0456  0.0014 </r>
        <r>  0.0009  0.0322  0.0008 </r>
        <r>  0.0045  0.0063  0.0007 </r>
        <r>  0.0059  0.0102  0.0022 </r>
        <r>  0.0006  0.0061  0.0006 </r>
        <r>  0.0015  0.0267  0.0009 </r>
        <r>  0.0053  0.0274  0.0018 </r>
        <r>  0.0059  0.0102  0.0022 </r>
        <r>  0.0019  0.0074  0.0009 </r>
        <r>  0.0053  0.0274  0.0018 </r>
        <r>  0.0019  0.0074  0.0009 </r>
        <r>  0.0035  0.0158  0.0013 </r>
        <r>  0.0035  0.0158  0.0013 </r>
        <r>  0.0015  0.0267  0.0009 </r>
        <r>  0.0006  0.0061  0.0006 </r>
        <r>  0.0045  0.0063  0.0007 </r>
       </set>
       <set comment="band 71">
        <r>  0.0001  0.0025  0.0000 </r>
        <r>  0.0003  0.0020  0.0000 </r>
        <r>  0.0003  0.0020  0.0000 </r>
        <r>  0.0001  0.0025  0.0000 </r>
        <r>  0.0004  0.0254  0.0004 </r>
        <r>  0.0019  0.0243  0.0007 </r>
        <r>  0.0000  0.0462  0.0011 </r>
        <r>  0.0010  0.0262  0.0004 </r>
        <r>  0.0000  0.0462  0.0011 </r>
        <r>  0.0004  0.0254  0.0004 </r>
        <r>  0.0019  0.0243  0.0007 </r>
        <r>  0.0010  0.0262  0.0004 </r>
        <r>  0.0040  0.0144  0.0017 </r>
        <r>  0.0010  0.0174  0.0021 </r>
        <r>  0.0004  0.0050  0.0019 </r>
        <r>  0.0005  0.0078  0.0008 </r>
        <r>  0.0034  0.0098  0.0006 </r>
        <r>  0.0010  0.0174  0.0021 </r>
        <r>  0.0029  0.0058  0.0016 </r>
        <r>  0.0034  0.0098  0.0006 </r>
        <r>  0.0029  0.0058  0.0016 </r>
        <r>  0.0059  0.0229  0.0011 </r>
        <r>  0.0059  0.0229  0.0011 </r>
        <r>  0.0005  0.0078  0.0008 </r>
        <r>  0.0004  0.0050  0.0019 </r>
        <r>  0.0040  0.0144  0.0017 </r>
       </set>
       <set comment="band 72">
        <r>  0.0032  0.0019  0.0000 </r>
        <r>  0.0000  0.0009  0.0000 </r>
        <r>  0.0000  0.0009  0.0000 </r>
        <r>  0.0032  0.0019  0.0000 </r>
        <r>  0.0042  0.0797  0.0005 </r>
        <r>  0.0006  0.0072  0.0008 </r>
        <r>  0.0002  0.0304  0.0003 </r>
        <r>  0.0025  0.0119  0.0009 </r>
        <r>  0.0002  0.0304  0.0003 </r>
        <r>  0.0042  0.0797  0.0005 </r>
        <r>  0.0006  0.0072  0.0008 </r>
        <r>  0.0025  0.0119  0.0009 </r>
        <r>  0.0028  0.0240  0.0036 </r>
        <r>  0.0013  0.0195  0.0019 </r>
        <r>  0.0000  0.0032  0.0002 </r>
        <r>  0.0009  0.0101  0.0031 </r>
        <r>  0.0010  0.0219  0.0015 </r>
        <r>  0.0013  0.0195  0.0019 </r>
        <r>  0.0006  0.0027  0.0013 </r>
        <r>  0.0010  0.0219  0.0015 </r>
        <r>  0.0006  0.0027  0.0013 </r>
        <r>  0.0000  0.0044  0.0013 </r>
        <r>  0.0000  0.0044  0.0013 </r>
        <r>  0.0009  0.0101  0.0031 </r>
        <r>  0.0000  0.0032  0.0002 </r>
        <r>  0.0028  0.0240  0.0036 </r>
       </set>
       <set comment="band 73">
        <r>  0.0003  0.0022  0.0000 </r>
        <r>  0.0010  0.0017  0.0000 </r>
        <r>  0.0010  0.0017  0.0000 </r>
        <r>  0.0003  0.0022  0.0000 </r>
        <r>  0.0006  0.0258  0.0012 </r>
        <r>  0.0000  0.0140  0.0008 </r>
        <r>  0.0005  0.0141  0.0008 </r>
        <r>  0.0018  0.0591  0.0006 </r>
        <r>  0.0005  0.0141  0.0008 </r>
        <r>  0.0006  0.0258  0.0012 </r>
        <r>  0.0000  0.0140  0.0008 </r>
        <r>  0.0018  0.0591  0.0006 </r>
        <r>  0.0016  0.0151  0.0010 </r>
        <r>  0.0021  0.0045  0.0017 </r>
        <r>  0.0085  0.0275  0.0020 </r>
        <r>  0.0007  0.0040  0.0014 </r>
        <r>  0.0007  0.0215  0.0016 </r>
        <r>  0.0021  0.0045  0.0017 </r>
        <r>  0.0020  0.0146  0.0018 </r>
        <r>  0.0007  0.0215  0.0016 </r>
        <r>  0.0020  0.0146  0.0018 </r>
        <r>  0.0019  0.0072  0.0007 </r>
        <r>  0.0019  0.0072  0.0007 </r>
        <r>  0.0007  0.0040  0.0014 </r>
        <r>  0.0085  0.0275  0.0020 </r>
        <r>  0.0016  0.0151  0.0010 </r>
       </set>
       <set comment="band 74">
        <r>  0.0011  0.0007  0.0000 </r>
        <r>  0.0005  0.0010  0.0000 </r>
        <r>  0.0005  0.0010  0.0000 </r>
        <r>  0.0011  0.0007  0.0000 </r>
        <r>  0.0006  0.0224  0.0004 </r>
        <r>  0.0007  0.0314  0.0016 </r>
        <r>  0.0001  0.0382  0.0006 </r>
        <r>  0.0009  0.0372  0.0006 </r>
        <r>  0.0001  0.0382  0.0006 </r>
        <r>  0.0006  0.0224  0.0004 </r>
        <r>  0.0007  0.0314  0.0016 </r>
        <r>  0.0009  0.0372  0.0006 </r>
        <r>  0.0024  0.0044  0.0019 </r>
        <r>  0.0002  0.0195  0.0032 </r>
        <r>  0.0036  0.0124  0.0016 </r>
        <r>  0.0001  0.0157  0.0007 </r>
        <r>  0.0029  0.0211  0.0016 </r>
        <r>  0.0002  0.0195  0.0032 </r>
        <r>  0.0008  0.0123  0.0014 </r>
        <r>  0.0029  0.0211  0.0016 </r>
        <r>  0.0008  0.0123  0.0014 </r>
        <r>  0.0006  0.0181  0.0009 </r>
        <r>  0.0006  0.0181  0.0009 </r>
        <r>  0.0001  0.0157  0.0007 </r>
        <r>  0.0036  0.0124  0.0016 </r>
        <r>  0.0024  0.0044  0.0019 </r>
       </set>
       <set comment="band 75">
        <r>  0.0005  0.0012  0.0000 </r>
        <r>  0.0016  0.0023  0.0000 </r>
        <r>  0.0016  0.0023  0.0000 </r>
        <r>  0.0005  0.0012  0.0000 </r>
        <r>  0.0001  0.0419  0.0010 </r>
        <r>  0.0011  0.0074  0.0010 </r>
        <r>  0.0027  0.0200  0.0009 </r>
        <r>  0.0010  0.0577  0.0004 </r>
        <r>  0.0027  0.0200  0.0009 </r>
        <r>  0.0001  0.0419  0.0010 </r>
        <r>  0.0011  0.0074  0.0010 </r>
        <r>  0.0010  0.0577  0.0004 </r>
        <r>  0.0010  0.0223  0.0028 </r>
        <r>  0.0004  0.0059  0.0019 </r>
        <r>  0.0018  0.0161  0.0017 </r>
        <r>  0.0019  0.0085  0.0011 </r>
        <r>  0.0005  0.0251  0.0027 </r>
        <r>  0.0004  0.0059  0.0019 </r>
        <r>  0.0002  0.0175  0.0010 </r>
        <r>  0.0005  0.0251  0.0027 </r>
        <r>  0.0002  0.0175  0.0010 </r>
        <r>  0.0002  0.0086  0.0006 </r>
        <r>  0.0002  0.0086  0.0006 </r>
        <r>  0.0019  0.0085  0.0011 </r>
        <r>  0.0018  0.0161  0.0017 </r>
        <r>  0.0010  0.0223  0.0028 </r>
       </set>
       <set comment="band 76">
        <r>  0.0007  0.0026  0.0000 </r>
        <r>  0.0009  0.0019  0.0000 </r>
        <r>  0.0009  0.0019  0.0000 </r>
        <r>  0.0007  0.0026  0.0000 </r>
        <r>  0.0031  0.0120  0.0006 </r>
        <r>  0.0019  0.0385  0.0008 </r>
        <r>  0.0003  0.0397  0.0004 </r>
        <r>  0.0001  0.0340  0.0007 </r>
        <r>  0.0003  0.0397  0.0004 </r>
        <r>  0.0031  0.0120  0.0006 </r>
        <r>  0.0019  0.0385  0.0008 </r>
        <r>  0.0001  0.0340  0.0007 </r>
        <r>  0.0007  0.0074  0.0008 </r>
        <r>  0.0012  0.0163  0.0018 </r>
        <r>  0.0044  0.0245  0.0029 </r>
        <r>  0.0004  0.0078  0.0001 </r>
        <r>  0.0012  0.0185  0.0013 </r>
        <r>  0.0012  0.0163  0.0018 </r>
        <r>  0.0003  0.0110  0.0024 </r>
        <r>  0.0012  0.0185  0.0013 </r>
        <r>  0.0003  0.0110  0.0024 </r>
        <r>  0.0003  0.0151  0.0025 </r>
        <r>  0.0003  0.0151  0.0025 </r>
        <r>  0.0004  0.0078  0.0001 </r>
        <r>  0.0044  0.0245  0.0029 </r>
        <r>  0.0007  0.0074  0.0008 </r>
       </set>
       <set comment="band 77">
        <r>  0.0025  0.0014  0.0000 </r>
        <r>  0.0029  0.0007  0.0000 </r>
        <r>  0.0029  0.0007  0.0000 </r>
        <r>  0.0025  0.0014  0.0000 </r>
        <r>  0.0006  0.0276  0.0006 </r>
        <r>  0.0016  0.0434  0.0008 </r>
        <r>  0.0006  0.0338  0.0004 </r>
        <r>  0.0011  0.0227  0.0010 </r>
        <r>  0.0006  0.0338  0.0004 </r>
        <r>  0.0006  0.0276  0.0006 </r>
        <r>  0.0016  0.0434  0.0008 </r>
        <r>  0.0011  0.0227  0.0010 </r>
        <r>  0.0005  0.0152  0.0018 </r>
        <r>  0.0006  0.0092  0.0020 </r>
        <r>  0.0013  0.0105  0.0018 </r>
        <r>  0.0006  0.0084  0.0010 </r>
        <r>  0.0004  0.0303  0.0032 </r>
        <r>  0.0006  0.0092  0.0020 </r>
        <r>  0.0002  0.0051  0.0018 </r>
        <r>  0.0004  0.0303  0.0032 </r>
        <r>  0.0002  0.0051  0.0018 </r>
        <r>  0.0013  0.0191  0.0016 </r>
        <r>  0.0013  0.0191  0.0016 </r>
        <r>  0.0006  0.0084  0.0010 </r>
        <r>  0.0013  0.0105  0.0018 </r>
        <r>  0.0005  0.0152  0.0018 </r>
       </set>
       <set comment="band 78">
        <r>  0.0014  0.0011  0.0000 </r>
        <r>  0.0003  0.0027  0.0000 </r>
        <r>  0.0003  0.0027  0.0000 </r>
        <r>  0.0014  0.0011  0.0000 </r>
        <r>  0.0004  0.0155  0.0003 </r>
        <r>  0.0034  0.0446  0.0004 </r>
        <r>  0.0013  0.0350  0.0009 </r>
        <r>  0.0008  0.0231  0.0016 </r>
        <r>  0.0013  0.0350  0.0009 </r>
        <r>  0.0004  0.0155  0.0003 </r>
        <r>  0.0034  0.0446  0.0004 </r>
        <r>  0.0008  0.0231  0.0016 </r>
        <r>  0.0006  0.0085  0.0014 </r>
        <r>  0.0004  0.0190  0.0021 </r>
        <r>  0.0019  0.0127  0.0010 </r>
        <r>  0.0010  0.0214  0.0005 </r>
        <r>  0.0031  0.0117  0.0016 </r>
        <r>  0.0004  0.0190  0.0021 </r>
        <r>  0.0033  0.0159  0.0021 </r>
        <r>  0.0031  0.0117  0.0016 </r>
        <r>  0.0033  0.0159  0.0021 </r>
        <r>  0.0004  0.0278  0.0026 </r>
        <r>  0.0004  0.0278  0.0026 </r>
        <r>  0.0010  0.0214  0.0005 </r>
        <r>  0.0019  0.0127  0.0010 </r>
        <r>  0.0006  0.0085  0.0014 </r>
       </set>
       <set comment="band 79">
        <r>  0.0006  0.0014  0.0000 </r>
        <r>  0.0011  0.0013  0.0000 </r>
        <r>  0.0011  0.0013  0.0000 </r>
        <r>  0.0006  0.0014  0.0000 </r>
        <r>  0.0010  0.0045  0.0004 </r>
        <r>  0.0028  0.0513  0.0014 </r>
        <r>  0.0004  0.0369  0.0009 </r>
        <r>  0.0003  0.0320  0.0006 </r>
        <r>  0.0004  0.0369  0.0009 </r>
        <r>  0.0010  0.0045  0.0004 </r>
        <r>  0.0028  0.0513  0.0014 </r>
        <r>  0.0003  0.0320  0.0006 </r>
        <r>  0.0009  0.0069  0.0003 </r>
        <r>  0.0006  0.0103  0.0026 </r>
        <r>  0.0023  0.0476  0.0038 </r>
        <r>  0.0006  0.0052  0.0004 </r>
        <r>  0.0005  0.0050  0.0007 </r>
        <r>  0.0006  0.0103  0.0026 </r>
        <r>  0.0012  0.0161  0.0016 </r>
        <r>  0.0005  0.0050  0.0007 </r>
        <r>  0.0012  0.0161  0.0016 </r>
        <r>  0.0003  0.0241  0.0018 </r>
        <r>  0.0003  0.0241  0.0018 </r>
        <r>  0.0006  0.0052  0.0004 </r>
        <r>  0.0023  0.0476  0.0038 </r>
        <r>  0.0009  0.0069  0.0003 </r>
       </set>
       <set comment="band 80">
        <r>  0.0013  0.0016  0.0000 </r>
        <r>  0.0005  0.0020  0.0000 </r>
        <r>  0.0005  0.0020  0.0000 </r>
        <r>  0.0013  0.0016  0.0000 </r>
        <r>  0.0017  0.0296  0.0007 </r>
        <r>  0.0003  0.0428  0.0017 </r>
        <r>  0.0014  0.0196  0.0010 </r>
        <r>  0.0004  0.0306  0.0007 </r>
        <r>  0.0014  0.0196  0.0010 </r>
        <r>  0.0017  0.0296  0.0007 </r>
        <r>  0.0003  0.0428  0.0017 </r>
        <r>  0.0004  0.0306  0.0007 </r>
        <r>  0.0000  0.0201  0.0019 </r>
        <r>  0.0019  0.0079  0.0016 </r>
        <r>  0.0006  0.0305  0.0025 </r>
        <r>  0.0008  0.0121  0.0014 </r>
        <r>  0.0006  0.0190  0.0021 </r>
        <r>  0.0019  0.0079  0.0016 </r>
        <r>  0.0016  0.0135  0.0014 </r>
        <r>  0.0006  0.0190  0.0021 </r>
        <r>  0.0016  0.0135  0.0014 </r>
        <r>  0.0007  0.0069  0.0012 </r>
        <r>  0.0007  0.0069  0.0012 </r>
        <r>  0.0008  0.0121  0.0014 </r>
        <r>  0.0006  0.0305  0.0025 </r>
        <r>  0.0000  0.0201  0.0019 </r>
       </set>
       <set comment="band 81">
        <r>  0.0007  0.0020  0.0000 </r>
        <r>  0.0009  0.0030  0.0000 </r>
        <r>  0.0009  0.0030  0.0000 </r>
        <r>  0.0007  0.0020  0.0000 </r>
        <r>  0.0003  0.0419  0.0007 </r>
        <r>  0.0020  0.0223  0.0009 </r>
        <r>  0.0013  0.0405  0.0004 </r>
        <r>  0.0011  0.0263  0.0004 </r>
        <r>  0.0013  0.0405  0.0004 </r>
        <r>  0.0003  0.0419  0.0007 </r>
        <r>  0.0020  0.0223  0.0009 </r>
        <r>  0.0011  0.0263  0.0004 </r>
        <r>  0.0015  0.0108  0.0017 </r>
        <r>  0.0009  0.0123  0.0006 </r>
        <r>  0.0005  0.0206  0.0018 </r>
        <r>  0.0005  0.0166  0.0016 </r>
        <r>  0.0006  0.0113  0.0010 </r>
        <r>  0.0009  0.0123  0.0006 </r>
        <r>  0.0005  0.0214  0.0026 </r>
        <r>  0.0006  0.0113  0.0010 </r>
        <r>  0.0005  0.0214  0.0026 </r>
        <r>  0.0009  0.0281  0.0022 </r>
        <r>  0.0009  0.0281  0.0022 </r>
        <r>  0.0005  0.0166  0.0016 </r>
        <r>  0.0005  0.0206  0.0018 </r>
        <r>  0.0015  0.0108  0.0017 </r>
       </set>
       <set comment="band 82">
        <r>  0.0003  0.0013  0.0000 </r>
        <r>  0.0018  0.0008  0.0000 </r>
        <r>  0.0018  0.0008  0.0000 </r>
        <r>  0.0003  0.0013  0.0000 </r>
        <r>  0.0014  0.0271  0.0015 </r>
        <r>  0.0015  0.0177  0.0009 </r>
        <r>  0.0010  0.0201  0.0008 </r>
        <r>  0.0013  0.0463  0.0008 </r>
        <r>  0.0010  0.0201  0.0008 </r>
        <r>  0.0014  0.0271  0.0015 </r>
        <r>  0.0015  0.0177  0.0009 </r>
        <r>  0.0013  0.0463  0.0008 </r>
        <r>  0.0014  0.0564  0.0016 </r>
        <r>  0.0007  0.0116  0.0019 </r>
        <r>  0.0011  0.0237  0.0016 </r>
        <r>  0.0021  0.0255  0.0018 </r>
        <r>  0.0006  0.0088  0.0025 </r>
        <r>  0.0007  0.0116  0.0019 </r>
        <r>  0.0019  0.0026  0.0019 </r>
        <r>  0.0006  0.0088  0.0025 </r>
        <r>  0.0019  0.0026  0.0019 </r>
        <r>  0.0001  0.0042  0.0006 </r>
        <r>  0.0001  0.0042  0.0006 </r>
        <r>  0.0021  0.0255  0.0018 </r>
        <r>  0.0011  0.0237  0.0016 </r>
        <r>  0.0014  0.0564  0.0016 </r>
       </set>
       <set comment="band 83">
        <r>  0.0003  0.0010  0.0000 </r>
        <r>  0.0014  0.0041  0.0000 </r>
        <r>  0.0014  0.0041  0.0000 </r>
        <r>  0.0003  0.0010  0.0000 </r>
        <r>  0.0003  0.0332  0.0012 </r>
        <r>  0.0009  0.0189  0.0007 </r>
        <r>  0.0045  0.0300  0.0016 </r>
        <r>  0.0016  0.0268  0.0013 </r>
        <r>  0.0045  0.0300  0.0016 </r>
        <r>  0.0003  0.0332  0.0012 </r>
        <r>  0.0009  0.0189  0.0007 </r>
        <r>  0.0016  0.0268  0.0013 </r>
        <r>  0.0008  0.0150  0.0030 </r>
        <r>  0.0002  0.0242  0.0011 </r>
        <r>  0.0003  0.0034  0.0020 </r>
        <r>  0.0010  0.0246  0.0027 </r>
        <r>  0.0021  0.0051  0.0015 </r>
        <r>  0.0002  0.0242  0.0011 </r>
        <r>  0.0002  0.0320  0.0013 </r>
        <r>  0.0021  0.0051  0.0015 </r>
        <r>  0.0002  0.0320  0.0013 </r>
        <r>  0.0010  0.0121  0.0007 </r>
        <r>  0.0010  0.0121  0.0007 </r>
        <r>  0.0010  0.0246  0.0027 </r>
        <r>  0.0003  0.0034  0.0020 </r>
        <r>  0.0008  0.0150  0.0030 </r>
       </set>
       <set comment="band 84">
        <r>  0.0003  0.0046  0.0000 </r>
        <r>  0.0008  0.0038  0.0000 </r>
        <r>  0.0008  0.0038  0.0000 </r>
        <r>  0.0003  0.0046  0.0000 </r>
        <r>  0.0017  0.0369  0.0007 </r>
        <r>  0.0008  0.0231  0.0005 </r>
        <r>  0.0004  0.0173  0.0013 </r>
        <r>  0.0004  0.0372  0.0010 </r>
        <r>  0.0004  0.0173  0.0013 </r>
        <r>  0.0017  0.0369  0.0007 </r>
        <r>  0.0008  0.0231  0.0005 </r>
        <r>  0.0004  0.0372  0.0010 </r>
        <r>  0.0005  0.0204  0.0022 </r>
        <r>  0.0006  0.0266  0.0018 </r>
        <r>  0.0000  0.0020  0.0013 </r>
        <r>  0.0010  0.0434  0.0029 </r>
        <r>  0.0010  0.0031  0.0031 </r>
        <r>  0.0006  0.0266  0.0018 </r>
        <r>  0.0007  0.0140  0.0008 </r>
        <r>  0.0010  0.0031  0.0031 </r>
        <r>  0.0007  0.0140  0.0008 </r>
        <r>  0.0011  0.0100  0.0007 </r>
        <r>  0.0011  0.0100  0.0007 </r>
        <r>  0.0010  0.0434  0.0029 </r>
        <r>  0.0000  0.0020  0.0013 </r>
        <r>  0.0005  0.0204  0.0022 </r>
       </set>
      </set>
     </set>
    </set>
   </array>
  </projected>
 </calculation>
 <structure name="finalpos" >
  <crystal>
   <varray name="basis" >
    <v>      -7.10594358      -0.08485704      -0.03787885 </v>
    <v>       2.16952693       8.98059023      -0.57745378 </v>
    <v>      -0.42596250      -1.28722186     -11.21406246 </v>
   </varray>
   <i name="volume">    718.78919038 </i>
   <varray name="rec_basis" >
    <v>      -0.14114321       0.03418970       0.00143677 </v>
    <v>      -0.00125605       0.11083967      -0.01267518 </v>
    <v>       0.00054143      -0.00582303      -0.08852591 </v>
   </varray>
  </crystal>
  <varray name="positions" >
   <v>       0.34767890       0.32884516       0.13149404 </v>
   <v>       0.35733340       0.83470075       0.64075067 </v>
   <v>       0.64266660       0.16529925       0.35924933 </v>
   <v>       0.65232110       0.67115484       0.86850596 </v>
   <v>       0.03088721       0.95652483       0.33178801 </v>
   <v>       0.11150110       0.45597731       0.81006388 </v>
   <v>       0.76241806       0.12897251       0.04660561 </v>
   <v>       0.52090579       0.24795118       0.75471400 </v>
   <v>       0.23758194       0.87102749       0.95339439 </v>
   <v>       0.96911279       0.04347517       0.66821199 </v>
   <v>       0.88849890       0.54402269       0.18993612 </v>
   <v>       0.47909421       0.75204882       0.24528600 </v>
   <v>       0.84372030       0.83769865       0.11987397 </v>
   <v>       0.68640139       0.38323494       0.95962693 </v>
   <v>       0.45338888       0.51051039       0.69235089 </v>
   <v>       0.29256870       0.06491492       0.53970412 </v>
   <v>       0.09501166       0.68741128       0.37621735 </v>
   <v>       0.31359861       0.61676506       0.04037307 </v>
   <v>       0.42649626       0.06478044       0.17264746 </v>
   <v>       0.90498834       0.31258872       0.62378265 </v>
   <v>       0.57350374       0.93521956       0.82735254 </v>
   <v>       0.97047201       0.27458836       0.23642426 </v>
   <v>       0.02952799       0.72541164       0.76357574 </v>
   <v>       0.70743130       0.93508508       0.46029588 </v>
   <v>       0.54661112       0.48948961       0.30764911 </v>
   <v>       0.15627970       0.16230135       0.88012603 </v>
  </varray>
 </structure>
</modeling>
