CIS                                     
           1
    -7.113066   -0.111838   -0.078844
     2.202092    9.004220   -0.569087
    -0.495832   -1.284956  -11.201012
   Li   Sb   Se
   4   8  14
Direct configuration=     1
   0.34046353  0.33059309  0.13426573
   0.36812720  0.83815339  0.64049196
   0.63187280  0.16184661  0.35950804
   0.65953647  0.66940691  0.86573427
   0.03232923  0.95825674  0.33207822
   0.11857385  0.45655069  0.81000225
   0.76760060  0.13326104  0.04801381
   0.52813197  0.24577365  0.75376240
   0.23239940  0.86673896  0.95198619
   0.96767077  0.04174326  0.66792178
   0.88142615  0.54344931  0.18999775
   0.47186803  0.75422635  0.24623760
   0.83900345  0.83926364  0.12196727
   0.69142804  0.38411559  0.95715885
   0.46195480  0.50650548  0.69041668
   0.29221584  0.06246297  0.53715124
   0.08367752  0.68793724  0.37635480
   0.30857196  0.61588441  0.04284115
   0.42668921  0.06767203  0.17121890
   0.91632248  0.31206276  0.62364520
   0.57331079  0.93232797  0.82878110
   0.96397852  0.27705810  0.23796961
   0.03602148  0.72294190  0.76203039
   0.70778416  0.93753703  0.46284876
   0.53804520  0.49349452  0.30958332
   0.16099655  0.16073636  0.87803273
CIS                                     
           1
    -7.112578   -0.111405   -0.078700
     2.201406    9.004746   -0.569943
    -0.495485   -1.284134  -11.202936
   Li   Sb   Se
   4   8  14
Direct configuration=     2
   0.34051432  0.33057972  0.13426620
   0.36809714  0.83816026  0.64047090
   0.63190286  0.16183974  0.35952910
   0.65948568  0.66942028  0.86573380
   0.03226380  0.95819226  0.33207508
   0.11858483  0.45653292  0.81000460
   0.76752309  0.13312155  0.04796997
   0.52777213  0.24581078  0.75374068
   0.23247691  0.86687845  0.95203003
   0.96773620  0.04180774  0.66792492
   0.88141517  0.54346708  0.18999540
   0.47222787  0.75418922  0.24625932
   0.83905212  0.83918991  0.12192149
   0.69140407  0.38415732  0.95717546
   0.46196924  0.50654966  0.69045080
   0.29220762  0.06243094  0.53720971
   0.08375446  0.68793044  0.37635473
   0.30859593  0.61584268  0.04282454
   0.42667984  0.06767754  0.17121438
   0.91624554  0.31206956  0.62364527
   0.57332016  0.93232246  0.82878562
   0.96407105  0.27707289  0.23803366
   0.03592895  0.72292711  0.76196634
   0.70779238  0.93756906  0.46279029
   0.53803076  0.49345034  0.30954920
   0.16094788  0.16081009  0.87807851
CIS                                     
           1
    -7.111112   -0.110107   -0.078269
     2.199346    9.006323   -0.572513
    -0.494445   -1.281669  -11.208707
   Li   Sb   Se
   4   8  14
Direct configuration=     3
   0.34066670  0.33053959  0.13426762
   0.36800697  0.83818087  0.64040773
   0.63199303  0.16181913  0.35959227
   0.65933330  0.66946041  0.86573238
   0.03206753  0.95799886  0.33206565
   0.11861779  0.45647961  0.81001166
   0.76729059  0.13270315  0.04783852
   0.52669256  0.24592223  0.75367549
   0.23270941  0.86729685  0.95216148
   0.96793247  0.04200114  0.66793435
   0.88138221  0.54352039  0.18998834
   0.47330744  0.75407777  0.24632451
   0.83919816  0.83896877  0.12178421
   0.69133215  0.38428253  0.95722527
   0.46201257  0.50668217  0.69055314
   0.29218295  0.06233483  0.53738508
   0.08398531  0.68791001  0.37635452
   0.30866785  0.61571747  0.04277473
   0.42665172  0.06769406  0.17120082
   0.91601469  0.31208999  0.62364548
   0.57334828  0.93230594  0.82879918
   0.96434866  0.27711724  0.23822578
   0.03565134  0.72288276  0.76177422
   0.70781705  0.93766517  0.46261492
   0.53798743  0.49331783  0.30944686
   0.16080184  0.16103123  0.87821579
CIS                                     
           1
    -7.108180   -0.107509   -0.077408
     2.195227    9.009477   -0.577651
    -0.492364   -1.276739  -11.220249
   Li   Sb   Se
   4   8  14
Direct configuration=     4
   0.34097153  0.33045931  0.13427049
   0.36782656  0.83822216  0.64028144
   0.63217344  0.16177784  0.35971856
   0.65902847  0.66954069  0.86572951
   0.03167504  0.95761220  0.33204689
   0.11868375  0.45637300  0.81002580
   0.76682578  0.13186668  0.04757590
   0.52453299  0.24614542  0.75354503
   0.23317422  0.86813332  0.95242410
   0.96832496  0.04238780  0.66795311
   0.88131625  0.54362700  0.18997420
   0.47546701  0.75385458  0.24645497
   0.83949042  0.83852661  0.12150990
   0.69118821  0.38453287  0.95732477
   0.46209916  0.50694706  0.69075766
   0.29213371  0.06214255  0.53773569
   0.08444711  0.68786910  0.37635413
   0.30881179  0.61546713  0.04267523
   0.42659545  0.06772713  0.17117371
   0.91555289  0.31213090  0.62364587
   0.57340455  0.93227287  0.82882629
   0.96490397  0.27720569  0.23860984
   0.03509603  0.72279431  0.76139016
   0.70786629  0.93785745  0.46226431
   0.53790084  0.49305294  0.30924234
   0.16050958  0.16147339  0.87849010
CIS                                     
           1
    -7.108890   -0.106615   -0.074793
     2.194541    9.007597   -0.576549
    -0.488108   -1.278765  -11.219003
   Li   Sb   Se
   4   8  14
Direct configuration=     5
   0.34109666  0.33043108  0.13426755
   0.36772794  0.83822402  0.64024689
   0.63227206  0.16177598  0.35975311
   0.65890334  0.66956892  0.86573245
   0.03171368  0.95753044  0.33207984
   0.11838406  0.45651008  0.81001370
   0.76655174  0.13173972  0.04754759
   0.52379103  0.24603424  0.75347427
   0.23344826  0.86826028  0.95245241
   0.96828632  0.04246956  0.66792016
   0.88161594  0.54348992  0.18998630
   0.47620897  0.75396576  0.24652573
   0.83969415  0.83843208  0.12143168
   0.69109194  0.38450172  0.95734740
   0.46213958  0.50709665  0.69082595
   0.29214775  0.06208664  0.53781775
   0.08461792  0.68784443  0.37629835
   0.30890806  0.61549828  0.04265260
   0.42662342  0.06773944  0.17114534
   0.91538208  0.31215557  0.62370165
   0.57337658  0.93226056  0.82885466
   0.96496073  0.27722303  0.23867008
   0.03503927  0.72277697  0.76132992
   0.70785225  0.93791336  0.46218225
   0.53786042  0.49290335  0.30917405
   0.16030585  0.16156792  0.87856832
CIS                                     
           1
    -7.109756   -0.105525   -0.071606
     2.193706    9.005305   -0.575206
    -0.482921   -1.281234  -11.217485
   Li   Sb   Se
   4   8  14
Direct configuration=     6
   0.34124911  0.33039666  0.13426400
   0.36760776  0.83822628  0.64020476
   0.63239224  0.16177372  0.35979524
   0.65875089  0.66960334  0.86573600
   0.03176079  0.95743079  0.33212001
   0.11801889  0.45667718  0.80999888
   0.76621783  0.13158500  0.04751298
   0.52288697  0.24589876  0.75338782
   0.23378217  0.86841500  0.95248702
   0.96823921  0.04256921  0.66787999
   0.88198111  0.54332282  0.19000112
   0.47711303  0.75410124  0.24661218
   0.83994230  0.83831683  0.12133640
   0.69097466  0.38446377  0.95737496
   0.46218887  0.50727900  0.69090920
   0.29216492  0.06201852  0.53791774
   0.08482600  0.68781433  0.37623042
   0.30902534  0.61553623  0.04262504
   0.42665748  0.06775444  0.17111079
   0.91517400  0.31218567  0.62376958
   0.57334252  0.93224556  0.82888921
   0.96502993  0.27724418  0.23874351
   0.03497007  0.72275582  0.76125649
   0.70783508  0.93798148  0.46208226
   0.53781113  0.49272100  0.30909080
   0.16005770  0.16168317  0.87866360
CIS                                     
           1
    -7.111488   -0.103345   -0.065232
     2.192036    9.000722   -0.572519
    -0.472547   -1.286171  -11.214449
   Li   Sb   Se
   4   8  14
Direct configuration=     7
   0.34155396  0.33032777  0.13425697
   0.36736738  0.83823080  0.64012042
   0.63263262  0.16176920  0.35987958
   0.65844604  0.66967223  0.86574303
   0.03185505  0.95723145  0.33220037
   0.11728864  0.45701153  0.80996906
   0.76555009  0.13127549  0.04744355
   0.52107902  0.24562782  0.75321435
   0.23444991  0.86872451  0.95255645
   0.96814495  0.04276855  0.66779963
   0.88271136  0.54298847  0.19003094
   0.47892098  0.75437218  0.24678565
   0.84043839  0.83808615  0.12114595
   0.69074019  0.38438789  0.95743000
   0.46228757  0.50764384  0.69107578
   0.29219943  0.06188231  0.53811775
   0.08524199  0.68775404  0.37609467
   0.30925981  0.61561211  0.04257000
   0.42672553  0.06778440  0.17104168
   0.91475801  0.31224596  0.62390533
   0.57327447  0.93221560  0.82895832
   0.96516844  0.27728652  0.23889044
   0.03483156  0.72271348  0.76110956
   0.70780057  0.93811769  0.46188225
   0.53771243  0.49235616  0.30892422
   0.15956161  0.16191385  0.87885405
CIS                                     
           1
    -7.114951   -0.098984   -0.052486
     2.188695    8.991555   -0.567146
    -0.451800   -1.296047  -11.208375
   Li   Sb   Se
   4   8  14
Direct configuration=     8
   0.34216345  0.33018982  0.13424324
   0.36688649  0.83823982  0.63995143
   0.63311351  0.16176018  0.36004857
   0.65783655  0.66981018  0.86575676
   0.03204382  0.95683264  0.33236113
   0.11582848  0.45768079  0.80990870
   0.76421488  0.13065628  0.04730374
   0.51746381  0.24508604  0.75286511
   0.23578512  0.86934372  0.95269626
   0.96795618  0.04316736  0.66763887
   0.88417152  0.54231921  0.19009130
   0.48253619  0.75491396  0.24713489
   0.84142965  0.83762416  0.12076543
   0.69027161  0.38423620  0.95753981
   0.46248537  0.50837407  0.69140929
   0.29226910  0.06160996  0.53851783
   0.08607324  0.68763311  0.37582354
   0.30972839  0.61576380  0.04246019
   0.42686135  0.06784426  0.17090354
   0.91392676  0.31236689  0.62417646
   0.57313865  0.93215574  0.82909646
   0.96544584  0.27737138  0.23918453
   0.03455416  0.72262862  0.76081547
   0.70773090  0.93839004  0.46148217
   0.53751463  0.49162593  0.30859071
   0.15857035  0.16237584  0.87923457
CIS                                     
           1
    -7.112428   -0.102162   -0.061774
     2.191130    8.998235   -0.571062
    -0.466919   -1.288850  -11.212801
   Li   Sb   Se
   4   8  14
Direct configuration=     9
   0.34171962  0.33029062  0.13425278
   0.36723709  0.83823328  0.64007504
   0.63276291  0.16176672  0.35992496
   0.65828038  0.66970938  0.86574722
   0.03190592  0.95712348  0.33224389
   0.11689204  0.45719227  0.80995373
   0.76518749  0.13110780  0.04740698
   0.52009730  0.24548072  0.75312294
   0.23481251  0.86889220  0.95259302
   0.96809408  0.04287652  0.66775611
   0.88310796  0.54280773  0.19004627
   0.47990270  0.75451928  0.24687706
   0.84070863  0.83796175  0.12104216
   0.69061257  0.38434665  0.95746020
   0.46234062  0.50784112  0.69116575
   0.29221738  0.06180830  0.53822617
   0.08546852  0.68772176  0.37602054
   0.30938743  0.61565335  0.04253980
   0.42676277  0.06780075  0.17100412
   0.91453148  0.31227824  0.62397946
   0.57323723  0.93219925  0.82899588
   0.96524314  0.27730929  0.23896986
   0.03475686  0.72269071  0.76103014
   0.70778262  0.93819170  0.46177383
   0.53765938  0.49215888  0.30883425
   0.15929137  0.16203825  0.87895784
CIS                                     
           1
    -7.111985   -0.102719   -0.063404
     2.191557    8.999407   -0.571749
    -0.469571   -1.287588  -11.213577
   Li   Sb   Se
   4   8  14
Direct configuration=    10
   0.34164171  0.33030826  0.13425451
   0.36729858  0.83823212  0.64009666
   0.63270142  0.16176788  0.35990334
   0.65835829  0.66969174  0.86574549
   0.03188177  0.95717448  0.33222333
   0.11707870  0.45710667  0.80996149
   0.76535817  0.13118698  0.04742492
   0.52055944  0.24554998  0.75316775
   0.23464183  0.86881302  0.95257508
   0.96811823  0.04282552  0.66777667
   0.88292130  0.54289333  0.19003851
   0.47944056  0.75445002  0.24683225
   0.84058196  0.83802086  0.12109078
   0.69067245  0.38436604  0.95744618
   0.46231530  0.50774773  0.69112309
   0.29220843  0.06184312  0.53817502
   0.08536230  0.68773725  0.37605518
   0.30932755  0.61563396  0.04255382
   0.42674543  0.06779310  0.17102178
   0.91463770  0.31226275  0.62394482
   0.57325457  0.93220690  0.82897822
   0.96520765  0.27729843  0.23893224
   0.03479235  0.72270157  0.76106776
   0.70779157  0.93815688  0.46182498
   0.53768470  0.49225227  0.30887691
   0.15941804  0.16197914  0.87890922
CIS                                     
           1
    -7.114528   -0.103104   -0.061843
     2.192928    8.998686   -0.567834
    -0.467290   -1.292852  -11.211417
   Li   Sb   Se
   4   8  14
Direct configuration=    11
   0.34185008  0.33026126  0.13421978
   0.36705230  0.83815263  0.64005974
   0.63294770  0.16184737  0.35994026
   0.65814992  0.66973874  0.86578022
   0.03185493  0.95689494  0.33201723
   0.11637779  0.45720705  0.80989623
   0.76490427  0.13107809  0.04740340
   0.52025670  0.24562737  0.75339250
   0.23509573  0.86892191  0.95259660
   0.96814507  0.04310506  0.66798277
   0.88362221  0.54279295  0.19010377
   0.47974330  0.75437263  0.24660750
   0.84093162  0.83798467  0.12096520
   0.69043131  0.38417329  0.95740627
   0.46210992  0.50802018  0.69127713
   0.29218711  0.06178714  0.53830913
   0.08579853  0.68763597  0.37606824
   0.30956869  0.61582671  0.04259373
   0.42675782  0.06781151  0.17096950
   0.91420147  0.31236403  0.62393176
   0.57324218  0.93218849  0.82903050
   0.96520846  0.27719720  0.23895747
   0.03479154  0.72280280  0.76104253
   0.70781289  0.93821286  0.46169087
   0.53789008  0.49197982  0.30872287
   0.15906838  0.16201533  0.87903480
CIS                                     
           1
    -7.118274   -0.103671   -0.059543
     2.194949    8.997625   -0.562070
    -0.463931   -1.300604  -11.208236
   Li   Sb   Se
   4   8  14
Direct configuration=    12
   0.34215681  0.33019201  0.13416865
   0.36668968  0.83803548  0.64000527
   0.63331032  0.16196452  0.35999473
   0.65784319  0.66980799  0.86583135
   0.03181518  0.95648300  0.33171349
   0.11534588  0.45735477  0.80979999
   0.76423597  0.13091765  0.04737156
   0.51981119  0.24574155  0.75372354
   0.23576403  0.86908235  0.95262844
   0.96818482  0.04351700  0.66828651
   0.88465412  0.54264523  0.19020001
   0.48018881  0.75425845  0.24627646
   0.84144630  0.83793127  0.12078029
   0.69007619  0.38388932  0.95734733
   0.46180775  0.50842161  0.69150413
   0.29215582  0.06170480  0.53850665
   0.08644075  0.68748683  0.37608753
   0.30992381  0.61611068  0.04265267
   0.42677603  0.06783859  0.17089250
   0.91355925  0.31251317  0.62391247
   0.57322397  0.93216141  0.82910750
   0.96520963  0.27704812  0.23899459
   0.03479037  0.72295188  0.76100541
   0.70784418  0.93829520  0.46149335
   0.53819225  0.49157839  0.30849587
   0.15855370  0.16206873  0.87921971
CIS                                     
           1
    -7.119748   -0.103893   -0.058639
     2.195743    8.997207   -0.559803
    -0.462610   -1.303653  -11.206984
   Li   Sb   Se
   4   8  14
Direct configuration=    13
   0.34227736  0.33016476  0.13414855
   0.36654710  0.83798937  0.63998378
   0.63345290  0.16201063  0.36001622
   0.65772264  0.66983524  0.86585145
   0.03179942  0.95632085  0.33159392
   0.11494022  0.45741282  0.80976208
   0.76397324  0.13085450  0.04735895
   0.51963617  0.24578657  0.75385375
   0.23602676  0.86914550  0.95264105
   0.96820058  0.04367915  0.66840608
   0.88505978  0.54258718  0.19023792
   0.48036383  0.75421343  0.24614625
   0.84164855  0.83791022  0.12070758
   0.68993655  0.38377758  0.95732406
   0.46168908  0.50857960  0.69159349
   0.29214356  0.06167248  0.53858434
   0.08669319  0.68742820  0.37609514
   0.31006345  0.61622242  0.04267594
   0.42678316  0.06784922  0.17086222
   0.91330681  0.31257180  0.62390486
   0.57321684  0.93215078  0.82913778
   0.96521008  0.27698949  0.23900916
   0.03478992  0.72301051  0.76099084
   0.70785644  0.93832752  0.46141566
   0.53831092  0.49142040  0.30840651
   0.15835145  0.16208978  0.87929242
CIS                                     
           1
    -7.123206   -0.103703   -0.059747
     2.196424    9.000218   -0.558041
    -0.464498   -1.305958  -11.208594
   Li   Sb   Se
   4   8  14
Direct configuration=    14
   0.34250678  0.33008907  0.13406244
   0.36616937  0.83781413  0.63994705
   0.63383063  0.16218587  0.36005295
   0.65749322  0.66991093  0.86593756
   0.03183570  0.95598173  0.33166159
   0.11436795  0.45754174  0.80986815
   0.76376642  0.13083593  0.04723919
   0.52006108  0.24624369  0.75383650
   0.23623358  0.86916407  0.95276081
   0.96816430  0.04401827  0.66833841
   0.88563205  0.54245826  0.19013185
   0.47993892  0.75375631  0.24616350
   0.84178066  0.83792070  0.12056987
   0.68968045  0.38356977  0.95727827
   0.46075062  0.50877661  0.69189358
   0.29188677  0.06163300  0.53878154
   0.08737000  0.68739417  0.37617506
   0.31031955  0.61643023  0.04272173
   0.42664663  0.06784678  0.17085238
   0.91263000  0.31260583  0.62382494
   0.57335337  0.93215322  0.82914762
   0.96534137  0.27682651  0.23894686
   0.03465863  0.72317349  0.76105314
   0.70811323  0.93836700  0.46121846
   0.53924938  0.49122339  0.30810642
   0.15821934  0.16207930  0.87943013
CIS                                     
           1
    -7.127628   -0.103460   -0.061164
     2.197294    9.004067   -0.555789
    -0.466911   -1.308905  -11.210652
   Li   Sb   Se
   4   8  14
Direct configuration=    15
   0.34279992  0.32999232  0.13395234
   0.36568680  0.83759020  0.63990011
   0.63431320  0.16240980  0.36009989
   0.65720008  0.67000768  0.86604766
   0.03188204  0.95554841  0.33174799
   0.11363677  0.45770654  0.81000381
   0.76350221  0.13081216  0.04708615
   0.52060396  0.24682780  0.75381450
   0.23649779  0.86918784  0.95291385
   0.96811796  0.04445159  0.66825201
   0.88636323  0.54229346  0.18999619
   0.47939604  0.75317220  0.24618550
   0.84194947  0.83793405  0.12039385
   0.68935326  0.38330422  0.95721974
   0.45955155  0.50902850  0.69227727
   0.29155864  0.06158262  0.53903360
   0.08823467  0.68735068  0.37627711
   0.31064674  0.61669578  0.04278026
   0.42647220  0.06784366  0.17083982
   0.91176533  0.31264932  0.62372289
   0.57352780  0.93215634  0.82916018
   0.96550913  0.27661822  0.23886720
   0.03449087  0.72338178  0.76113280
   0.70844136  0.93841738  0.46096640
   0.54044845  0.49097150  0.30772273
   0.15805053  0.16206595  0.87960615
CIS                                     
           1
    -7.127148   -0.101303   -0.064894
     2.194109    9.005577   -0.555908
    -0.472366   -1.307510  -11.211135
   Li   Sb   Se
   4   8  14
Direct configuration=    16
   0.34303862  0.32984824  0.13379554
   0.36518599  0.83737248  0.63989808
   0.63481401  0.16262752  0.36010192
   0.65696138  0.67015176  0.86620446
   0.03133319  0.95568748  0.33179269
   0.11347051  0.45748910  0.81006962
   0.76354699  0.13096417  0.04694125
   0.52063928  0.24686621  0.75377415
   0.23645301  0.86903583  0.95305875
   0.96866681  0.04431252  0.66820731
   0.88652949  0.54251090  0.18993038
   0.47936072  0.75313379  0.24622585
   0.84186519  0.83792316  0.12037610
   0.68920649  0.38320200  0.95725967
   0.45812386  0.50917022  0.69285349
   0.29124609  0.06165102  0.53909315
   0.08893221  0.68720814  0.37637997
   0.31079351  0.61679800  0.04274033
   0.42629841  0.06783314  0.17089755
   0.91106779  0.31279186  0.62362003
   0.57370159  0.93216686  0.82910245
   0.96563467  0.27649768  0.23873530
   0.03436533  0.72350232  0.76126470
   0.70875391  0.93834898  0.46090685
   0.54187614  0.49082978  0.30714651
   0.15813481  0.16207684  0.87962390
CIS                                     
           1
    -7.126924   -0.100297   -0.066633
     2.192625    9.006280   -0.555963
    -0.474910   -1.306860  -11.211360
   Li   Sb   Se
   4   8  14
Direct configuration=    17
   0.34315001  0.32978104  0.13372240
   0.36495251  0.83727104  0.63989720
   0.63504749  0.16272896  0.36010280
   0.65684999  0.67021896  0.86627760
   0.03107721  0.95575239  0.33181361
   0.11339301  0.45738775  0.81010034
   0.76356789  0.13103504  0.04687367
   0.52065575  0.24688411  0.75375533
   0.23643211  0.86896496  0.95312633
   0.96892279  0.04424761  0.66818639
   0.88660699  0.54261225  0.18989966
   0.47934425  0.75311589  0.24624467
   0.84182589  0.83791810  0.12036784
   0.68913806  0.38315435  0.95727831
   0.45745787  0.50923644  0.69312239
   0.29110031  0.06168294  0.53912097
   0.08925747  0.68714158  0.37642783
   0.31086194  0.61684565  0.04272169
   0.42621735  0.06782826  0.17092449
   0.91074253  0.31285842  0.62357217
   0.57378265  0.93217174  0.82907551
   0.96569329  0.27644148  0.23867378
   0.03430671  0.72355852  0.76132622
   0.70889969  0.93831706  0.46087903
   0.54254213  0.49076356  0.30687761
   0.15817411  0.16208190  0.87963216
CIS                                     
           1
    -7.127888   -0.096920   -0.066580
     2.188716    9.003292   -0.557672
    -0.474324   -1.304138  -11.209785
   Li   Sb   Se
   4   8  14
Direct configuration=    18
   0.34330311  0.32967564  0.13360476
   0.36462095  0.83713083  0.63991317
   0.63537905  0.16286917  0.36008683
   0.65669689  0.67032436  0.86639524
   0.03112189  0.95596769  0.33192755
   0.11314628  0.45703367  0.81019951
   0.76352001  0.13101285  0.04681455
   0.52052497  0.24681360  0.75375094
   0.23647999  0.86898715  0.95318545
   0.96887811  0.04403231  0.66807245
   0.88685372  0.54296633  0.18980049
   0.47947503  0.75318640  0.24624906
   0.84175191  0.83791587  0.12039015
   0.68905463  0.38312570  0.95732663
   0.45672920  0.50932370  0.69342648
   0.29095275  0.06177289  0.53909717
   0.08965856  0.68703995  0.37647123
   0.31094537  0.61687430  0.04267337
   0.42616112  0.06781182  0.17096970
   0.91034144  0.31296005  0.62352877
   0.57383888  0.93218818  0.82903030
   0.96574728  0.27639566  0.23856942
   0.03425272  0.72360434  0.76143058
   0.70904725  0.93822711  0.46090283
   0.54327080  0.49067630  0.30657352
   0.15824809  0.16208413  0.87960985
CIS                                     
           1
    -7.130145   -0.089020   -0.066455
     2.179573    8.996300   -0.561671
    -0.472953   -1.297770  -11.206103
   Li   Sb   Se
   4   8  14
Direct configuration=    19
   0.34366125  0.32942897  0.13332960
   0.36384574  0.83680306  0.63995055
   0.63615426  0.16319694  0.36004945
   0.65633875  0.67057103  0.86667040
   0.03122615  0.95647134  0.33219403
   0.11256966  0.45620538  0.81043163
   0.76340809  0.13096100  0.04667623
   0.52021923  0.24664872  0.75374068
   0.23659191  0.86903900  0.95332377
   0.96877385  0.04352866  0.66780597
   0.88743034  0.54379462  0.18956837
   0.47978077  0.75335128  0.24625932
   0.84157891  0.83791071  0.12044235
   0.68885955  0.38305870  0.95743968
   0.45502516  0.50952832  0.69413781
   0.29060762  0.06198350  0.53904144
   0.09059661  0.68680180  0.37657282
   0.31114045  0.61694130  0.04256032
   0.42602966  0.06777337  0.17107546
   0.90940339  0.31319820  0.62342718
   0.57397034  0.93222663  0.82892454
   0.96587358  0.27628847  0.23832530
   0.03412642  0.72371153  0.76167470
   0.70939238  0.93801650  0.46095856
   0.54497484  0.49047168  0.30586219
   0.15842109  0.16208929  0.87955765
CIS                                     
           1
    -7.129259   -0.092121   -0.066504
     2.183161    8.999044   -0.560101
    -0.473491   -1.300269  -11.207548
   Li   Sb   Se
   4   8  14
Direct configuration=    20
   0.34352067  0.32952590  0.13343759
   0.36414967  0.83693154  0.63993584
   0.63585033  0.16306846  0.36006416
   0.65647933  0.67047410  0.86656241
   0.03118546  0.95627364  0.33208948
   0.11279549  0.45653055  0.81034038
   0.76345197  0.13098129  0.04673053
   0.52033909  0.24671337  0.75374469
   0.23654803  0.86901871  0.95326947
   0.96881454  0.04372636  0.66791052
   0.88720451  0.54346945  0.18965962
   0.47966091  0.75328663  0.24625531
   0.84164676  0.83791269  0.12042186
   0.68893604  0.38308497  0.95739529
   0.45569364  0.50944755  0.69385860
   0.29074308  0.06190065  0.53906336
   0.09022857  0.68689568  0.37653288
   0.31106396  0.61691503  0.04260471
   0.42608121  0.06778845  0.17103394
   0.90977143  0.31310432  0.62346712
   0.57391879  0.93221155  0.82896606
   0.96582399  0.27633055  0.23842113
   0.03417601  0.72366945  0.76157887
   0.70925692  0.93809935  0.46093664
   0.54430636  0.49055245  0.30614140
   0.15835324  0.16208731  0.87957814
CIS                                     
           1
    -7.129651   -0.090749   -0.066482
     2.181574    8.997830   -0.560796
    -0.473253   -1.299163  -11.206909
   Li   Sb   Se
   4   8  14
Direct configuration=    21
   0.34358286  0.32948305  0.13338981
   0.36401517  0.83687468  0.63994234
   0.63598483  0.16312532  0.36005766
   0.65641714  0.67051695  0.86661019
   0.03120350  0.95636109  0.33213574
   0.11269551  0.45638672  0.81038072
   0.76343255  0.13097230  0.04670651
   0.52028604  0.24668476  0.75374291
   0.23656745  0.86902770  0.95329349
   0.96879650  0.04363891  0.66786426
   0.88730449  0.54361328  0.18961928
   0.47971396  0.75331524  0.24625709
   0.84161674  0.83791181  0.12043092
   0.68890219  0.38307335  0.95741492
   0.45539787  0.50948320  0.69398211
   0.29068316  0.06193727  0.53905367
   0.09039141  0.68685422  0.37655054
   0.31109781  0.61692665  0.04258508
   0.42605840  0.06778177  0.17105230
   0.90960859  0.31314578  0.62344946
   0.57394160  0.93221823  0.82894770
   0.96584592  0.27631193  0.23837874
   0.03415408  0.72368807  0.76162126
   0.70931684  0.93806273  0.46094633
   0.54460213  0.49051680  0.30601789
   0.15838326  0.16208819  0.87956908
CIS                                     
           1
    -7.133471   -0.086699   -0.061670
     2.178096    8.993846   -0.564543
    -0.465293   -1.295400  -11.202605
   Li   Sb   Se
   4   8  14
Direct configuration=    22
   0.34375809  0.32935875  0.13323646
   0.36362374  0.83670503  0.63999410
   0.63637626  0.16329497  0.36000590
   0.65624191  0.67064125  0.86676354
   0.03123858  0.95629403  0.33208453
   0.11211024  0.45609937  0.81044052
   0.76329588  0.13080658  0.04660888
   0.51998442  0.24639141  0.75377942
   0.23670412  0.86919342  0.95339112
   0.96876142  0.04370597  0.66791547
   0.88788976  0.54390063  0.18955948
   0.48001558  0.75360859  0.24622058
   0.84158378  0.83797799  0.12048084
   0.68876335  0.38310940  0.95748128
   0.45478931  0.50957238  0.69421105
   0.29073140  0.06207312  0.53891691
   0.09081429  0.68676259  0.37656070
   0.31123665  0.61689060  0.04251872
   0.42611703  0.06772640  0.17112199
   0.90918571  0.31323741  0.62343930
   0.57388297  0.93227360  0.82887801
   0.96588948  0.27626831  0.23817826
   0.03411052  0.72373169  0.76182174
   0.70926860  0.93792688  0.46108309
   0.54521069  0.49042762  0.30578895
   0.15841622  0.16202201  0.87951916
CIS                                     
           1
    -7.136112   -0.083900   -0.058343
     2.175692    8.991092   -0.567133
    -0.459790   -1.292798  -11.199629
   Li   Sb   Se
   4   8  14
Direct configuration=    23
   0.34387907  0.32927278  0.13313048
   0.36335339  0.83658780  0.64002982
   0.63664661  0.16341220  0.35997018
   0.65612093  0.67072722  0.86686952
   0.03126279  0.95624766  0.33204915
   0.11170602  0.45590079  0.81048177
   0.76320144  0.13069203  0.04654135
   0.51977613  0.24618861  0.75380464
   0.23679856  0.86930797  0.95345865
   0.96873721  0.04375234  0.66795085
   0.88829398  0.54409921  0.18951823
   0.48022387  0.75381139  0.24619536
   0.84156103  0.83802375  0.12051534
   0.68866747  0.38313436  0.95752712
   0.45436901  0.50963416  0.69436917
   0.29076460  0.06216709  0.53882232
   0.09110647  0.68669909  0.37656788
   0.31133253  0.61686564  0.04247288
   0.42615760  0.06768808  0.17117023
   0.90889353  0.31330091  0.62343212
   0.57384240  0.93231192  0.82882977
   0.96591945  0.27623818  0.23803964
   0.03408055  0.72376182  0.76196036
   0.70923540  0.93783291  0.46117768
   0.54563099  0.49036584  0.30563083
   0.15843897  0.16197625  0.87948466
CIS                                     
           1
    -7.136912   -0.081687   -0.050901
     2.173807    8.986886   -0.569294
    -0.447821   -1.291912  -11.193452
   Li   Sb   Se
   4   8  14
Direct configuration=    24
   0.34406629  0.32915526  0.13295443
   0.36292194  0.83638862  0.64011335
   0.63707806  0.16361138  0.35988665
   0.65593371  0.67084474  0.86704557
   0.03142744  0.95633469  0.33203452
   0.11131000  0.45595421  0.81013717
   0.76307448  0.13029390  0.04646047
   0.51985655  0.24590887  0.75384984
   0.23692552  0.86970610  0.95353953
   0.96857256  0.04366531  0.66796548
   0.88869000  0.54404579  0.18986283
   0.48014345  0.75409113  0.24615016
   0.84155120  0.83813262  0.12057404
   0.68848545  0.38325684  0.95760786
   0.45398440  0.50968156  0.69449858
   0.29083978  0.06232052  0.53869933
   0.09161286  0.68668919  0.37660804
   0.31151455  0.61674316  0.04239214
   0.42641341  0.06759649  0.17126641
   0.90838714  0.31331081  0.62339196
   0.57358659  0.93240351  0.82873359
   0.96592622  0.27614790  0.23779117
   0.03407378  0.72385210  0.76220883
   0.70916022  0.93767948  0.46130067
   0.54601560  0.49031844  0.30550142
   0.15844880  0.16186738  0.87942596
CIS                                     
           1
    -7.136959   -0.081558   -0.050468
     2.173697    8.986641   -0.569420
    -0.447124   -1.291861  -11.193092
   Li   Sb   Se
   4   8  14
Direct configuration=    25
   0.34407718  0.32914840  0.13294418
   0.36289681  0.83637701  0.64011821
   0.63710319  0.16362299  0.35988179
   0.65592282  0.67085160  0.86705582
   0.03143703  0.95633976  0.33203367
   0.11128690  0.45595733  0.81011706
   0.76306708  0.13027069  0.04645575
   0.51986124  0.24589256  0.75385249
   0.23693292  0.86972931  0.95354425
   0.96856297  0.04366024  0.66796633
   0.88871310  0.54404267  0.18988294
   0.48013876  0.75410744  0.24614751
   0.84155063  0.83813896  0.12057746
   0.68847485  0.38326398  0.95761255
   0.45396201  0.50968432  0.69450611
   0.29084415  0.06232946  0.53869217
   0.09164236  0.68668861  0.37661040