  16  16   1   0
  0.2986482E+02  0.8519523E-09  0.8514239E-09  0.8925259E-09  0.1000000E-15
  1.000000000000000E-004
  CAR 
 CIS                                     
     10.33065801    -11.31666498  301      2.18134287      1.00000000
    -11.317  0.0000E+00  0.0000E+00
    -11.245  0.0000E+00  0.0000E+00
    -11.172  0.0000E+00  0.0000E+00
    -11.100  0.0000E+00  0.0000E+00
    -11.028  0.0000E+00  0.0000E+00
    -10.956  0.0000E+00  0.0000E+00
    -10.884  0.0000E+00  0.0000E+00
    -10.812  0.0000E+00  0.0000E+00
    -10.739  0.0000E+00  0.0000E+00
    -10.667  0.0000E+00  0.0000E+00
    -10.595  0.6004E-15  0.4332E-16
    -10.523  0.3848E-09  0.2777E-10
    -10.451  0.4348E-05  0.3138E-06
    -10.379  0.1002E-02  0.7259E-04
    -10.306  0.7098E-02  0.5847E-03
    -10.234  0.1384E-01  0.1584E-02
    -10.162  0.7716E-01  0.7151E-02
    -10.090  0.8011E-01  0.1293E-01
    -10.018  0.8494E-01  0.1906E-01
     -9.946  0.1569E-01  0.2019E-01
     -9.874  0.1248E-03  0.2020E-01
     -9.801  0.4061E-03  0.2023E-01
     -9.729  0.2590E-01  0.2210E-01
     -9.657  0.1323E+00  0.3164E-01
     -9.585  0.1245E+00  0.4063E-01
     -9.513  0.1833E+00  0.5385E-01
     -9.441  0.2819E+00  0.7419E-01
     -9.368  0.2669E+00  0.9345E-01
     -9.296  0.2616E+00  0.1123E+00
     -9.224  0.1134E+00  0.1205E+00
     -9.152  0.9631E-02  0.1212E+00
     -9.080  0.9509E-04  0.1212E+00
     -9.008  0.3141E-07  0.1212E+00
     -8.935  0.2001E-12  0.1212E+00
     -8.863  0.0000E+00  0.1212E+00
     -8.791  0.0000E+00  0.1212E+00
     -8.719  0.0000E+00  0.1212E+00
     -8.647  0.0000E+00  0.1212E+00
     -8.575  0.0000E+00  0.1212E+00
     -8.503  0.0000E+00  0.1212E+00
     -8.430  0.0000E+00  0.1212E+00
     -8.358  0.0000E+00  0.1212E+00
     -8.286  0.0000E+00  0.1212E+00
     -8.214  0.0000E+00  0.1212E+00
     -8.142  0.0000E+00  0.1212E+00
     -8.070  0.0000E+00  0.1212E+00
     -7.997  0.0000E+00  0.1212E+00
     -7.925  0.0000E+00  0.1212E+00
     -7.853  0.0000E+00  0.1212E+00
     -7.781  0.0000E+00  0.1212E+00
     -7.709  0.0000E+00  0.1212E+00
     -7.637  0.0000E+00  0.1212E+00
     -7.564  0.0000E+00  0.1212E+00
     -7.492  0.0000E+00  0.1212E+00
     -7.420  0.0000E+00  0.1212E+00
     -7.348  0.0000E+00  0.1212E+00
     -7.276  0.0000E+00  0.1212E+00
     -7.204  0.0000E+00  0.1212E+00
     -7.132  0.0000E+00  0.1212E+00
     -7.059  0.0000E+00  0.1212E+00
     -6.987  0.0000E+00  0.1212E+00
     -6.915  0.0000E+00  0.1212E+00
     -6.843  0.0000E+00  0.1212E+00
     -6.771  0.0000E+00  0.1212E+00
     -6.699  0.4950E-16  0.1212E+00
     -6.626  0.6057E-10  0.1212E+00
     -6.554  0.1291E-05  0.1212E+00
     -6.482  0.5418E-03  0.1213E+00
     -6.410  0.6808E-02  0.1217E+00
     -6.338  0.3144E-01  0.1240E+00
     -6.266  0.1159E+00  0.1324E+00
     -6.193  0.1125E+00  0.1405E+00
     -6.121  0.1272E-01  0.1414E+00
     -6.049  0.5495E-04  0.1414E+00
     -5.977  0.5302E-08  0.1414E+00
     -5.905  0.9557E-14  0.1414E+00
     -5.833  0.0000E+00  0.1414E+00
     -5.761  0.0000E+00  0.1414E+00
     -5.688  0.0000E+00  0.1414E+00
     -5.616  0.0000E+00  0.1414E+00
     -5.544  0.0000E+00  0.1414E+00
     -5.472  0.0000E+00  0.1414E+00
     -5.400  0.0000E+00  0.1414E+00
     -5.328  0.0000E+00  0.1414E+00
     -5.255  0.0000E+00  0.1414E+00
     -5.183  0.0000E+00  0.1414E+00
     -5.111  0.0000E+00  0.1414E+00
     -5.039  0.0000E+00  0.1414E+00
     -4.967  0.0000E+00  0.1414E+00
     -4.895  0.0000E+00  0.1414E+00
     -4.822  0.0000E+00  0.1414E+00
     -4.750  0.0000E+00  0.1414E+00
     -4.678  0.0000E+00  0.1414E+00
     -4.606  0.0000E+00  0.1414E+00
     -4.534  0.0000E+00  0.1414E+00
     -4.462  0.0000E+00  0.1414E+00
     -4.390  0.0000E+00  0.1414E+00
     -4.317  0.0000E+00  0.1414E+00
     -4.245  0.0000E+00  0.1414E+00
     -4.173  0.0000E+00  0.1414E+00
     -4.101  0.0000E+00  0.1414E+00
     -4.029  0.0000E+00  0.1414E+00
     -3.957  0.0000E+00  0.1414E+00
     -3.884  0.0000E+00  0.1414E+00
     -3.812  0.0000E+00  0.1414E+00
     -3.740  0.0000E+00  0.1414E+00
     -3.668  0.0000E+00  0.1414E+00
     -3.596  0.0000E+00  0.1414E+00
     -3.524  0.0000E+00  0.1414E+00
     -3.451  0.0000E+00  0.1414E+00
     -3.379  0.0000E+00  0.1414E+00
     -3.307  0.0000E+00  0.1414E+00
     -3.235  0.0000E+00  0.1414E+00
     -3.163  0.0000E+00  0.1414E+00
     -3.091  0.0000E+00  0.1414E+00
     -3.019  0.0000E+00  0.1414E+00
     -2.946  0.0000E+00  0.1414E+00
     -2.874  0.0000E+00  0.1414E+00
     -2.802  0.0000E+00  0.1414E+00
     -2.730  0.0000E+00  0.1414E+00
     -2.658  0.0000E+00  0.1414E+00
     -2.586  0.0000E+00  0.1414E+00
     -2.513  0.0000E+00  0.1414E+00
     -2.441  0.0000E+00  0.1414E+00
     -2.369  0.0000E+00  0.1414E+00
     -2.297  0.0000E+00  0.1414E+00
     -2.225  0.0000E+00  0.1414E+00
     -2.153  0.2313E-13  0.1414E+00
     -2.080  0.7289E-08  0.1414E+00
     -2.008  0.4520E-04  0.1414E+00
     -1.936  0.6976E-02  0.1419E+00
     -1.864  0.4126E-01  0.1449E+00
     -1.792  0.1469E-01  0.1460E+00
     -1.720  0.3593E-01  0.1486E+00
     -1.648  0.1018E+00  0.1559E+00
     -1.575  0.7259E-01  0.1611E+00
     -1.503  0.8358E-01  0.1672E+00
     -1.431  0.1127E+00  0.1753E+00
     -1.359  0.1527E+00  0.1863E+00
     -1.287  0.1450E+00  0.1968E+00
     -1.215  0.6391E-01  0.2014E+00
     -1.142  0.8681E-02  0.2020E+00
     -1.070  0.1144E-02  0.2021E+00
     -0.998  0.8328E-02  0.2027E+00
     -0.926  0.2408E-01  0.2044E+00
     -0.854  0.3624E-01  0.2071E+00
     -0.782  0.5904E-01  0.2113E+00
     -0.709  0.1036E+00  0.2188E+00
     -0.637  0.5514E-01  0.2228E+00
     -0.565  0.6287E-01  0.2273E+00
     -0.493  0.8354E-01  0.2333E+00
     -0.421  0.1139E+00  0.2416E+00
     -0.349  0.1394E+00  0.2516E+00
     -0.277  0.1366E+00  0.2615E+00
     -0.204  0.8708E-01  0.2678E+00
     -0.132  0.4934E-01  0.2713E+00
     -0.060  0.1001E+00  0.2785E+00
      0.012  0.1653E+00  0.2905E+00
      0.084  0.8506E-01  0.2966E+00
      0.156  0.1582E+00  0.3080E+00
      0.229  0.1357E+00  0.3178E+00
      0.301  0.4850E-01  0.3213E+00
      0.373  0.7750E-01  0.3269E+00
      0.445  0.1430E+00  0.3372E+00
      0.517  0.1211E+00  0.3460E+00
      0.589  0.9917E-01  0.3531E+00
      0.662  0.7912E-01  0.3588E+00
      0.734  0.7069E-01  0.3639E+00
      0.806  0.1309E+00  0.3734E+00
      0.878  0.1235E+00  0.3823E+00
      0.950  0.2067E+00  0.3972E+00
      1.022  0.1431E+00  0.4075E+00
      1.094  0.1030E+00  0.4150E+00
      1.167  0.1678E+00  0.4271E+00
      1.239  0.2094E+00  0.4422E+00
      1.311  0.2177E+00  0.4579E+00
      1.383  0.1034E+00  0.4653E+00
      1.455  0.8192E-01  0.4712E+00
      1.527  0.1069E+00  0.4790E+00
      1.600  0.2519E-01  0.4808E+00
      1.672  0.4051E-01  0.4837E+00
      1.744  0.7230E-01  0.4889E+00
      1.816  0.9736E-01  0.4959E+00
      1.888  0.6146E-01  0.5004E+00
      1.960  0.4361E-01  0.5035E+00
      2.033  0.2037E-01  0.5050E+00
      2.105  0.7716E-03  0.5051E+00
      2.177  0.8760E-06  0.5051E+00
      2.249  0.2056E-10  0.5051E+00
      2.321  0.9210E-17  0.5051E+00
      2.393  0.0000E+00  0.5051E+00
      2.465  0.0000E+00  0.5051E+00
      2.538  0.0000E+00  0.5051E+00
      2.610  0.0000E+00  0.5051E+00
      2.682  0.0000E+00  0.5051E+00
      2.754  0.0000E+00  0.5051E+00
      2.826  0.0000E+00  0.5051E+00
      2.898  0.0000E+00  0.5051E+00
      2.971  0.0000E+00  0.5051E+00
      3.043  0.0000E+00  0.5051E+00
      3.115  0.0000E+00  0.5051E+00
      3.187  0.0000E+00  0.5051E+00
      3.259  0.0000E+00  0.5051E+00
      3.331  0.0000E+00  0.5051E+00
      3.404  0.0000E+00  0.5051E+00
      3.476  0.0000E+00  0.5051E+00
      3.548  0.0000E+00  0.5051E+00
      3.620  0.0000E+00  0.5051E+00
      3.692  0.0000E+00  0.5051E+00
      3.764  0.1658E-15  0.5051E+00
      3.836  0.1623E-09  0.5051E+00
      3.909  0.3066E-05  0.5051E+00
      3.981  0.1429E-02  0.5052E+00
      4.053  0.2683E-01  0.5071E+00
      4.125  0.4207E-01  0.5101E+00
      4.197  0.5714E-01  0.5142E+00
      4.269  0.6126E-01  0.5187E+00
      4.342  0.5151E-01  0.5224E+00
      4.414  0.8105E-01  0.5282E+00
      4.486  0.8684E-01  0.5345E+00
      4.558  0.9804E-01  0.5416E+00
      4.630  0.9103E-01  0.5481E+00
      4.702  0.6141E-01  0.5526E+00
      4.775  0.8110E-01  0.5584E+00
      4.847  0.6948E-01  0.5634E+00
      4.919  0.2929E-01  0.5656E+00
      4.991  0.1439E-02  0.5657E+00
      5.063  0.2530E-05  0.5657E+00
      5.135  0.9857E-10  0.5657E+00
      5.207  0.7138E-16  0.5657E+00
      5.280  0.0000E+00  0.5657E+00
      5.352  0.5622E-12  0.5657E+00
      5.424  0.5267E-07  0.5657E+00
      5.496  0.9146E-04  0.5657E+00
      5.568  0.3745E-02  0.5659E+00
      5.640  0.6079E-02  0.5664E+00
      5.713  0.4525E-03  0.5664E+00
      5.785  0.9654E-04  0.5664E+00
      5.857  0.8808E-02  0.5670E+00
      5.929  0.3654E-01  0.5697E+00
      6.001  0.2798E-01  0.5717E+00
      6.073  0.6796E-01  0.5766E+00
      6.146  0.8533E-01  0.5828E+00
      6.218  0.6352E-01  0.5873E+00
      6.290  0.6799E-01  0.5923E+00
      6.362  0.6141E-01  0.5967E+00
      6.434  0.3454E-01  0.5992E+00
      6.506  0.3309E-02  0.5994E+00
      6.578  0.2384E-01  0.6011E+00
      6.651  0.6664E-01  0.6059E+00
      6.723  0.9895E-01  0.6131E+00
      6.795  0.1253E+00  0.6221E+00
      6.867  0.1348E+00  0.6318E+00
      6.939  0.1364E+00  0.6417E+00
      7.011  0.8793E-01  0.6480E+00
      7.084  0.2679E-01  0.6500E+00
      7.156  0.4400E-01  0.6531E+00
      7.228  0.1106E+00  0.6611E+00
      7.300  0.7537E-01  0.6666E+00
      7.372  0.4961E-01  0.6701E+00
      7.444  0.1006E+00  0.6774E+00
      7.517  0.1758E+00  0.6901E+00
      7.589  0.1485E+00  0.7008E+00
      7.661  0.7466E-01  0.7062E+00
      7.733  0.4388E-01  0.7094E+00
      7.805  0.5231E-01  0.7131E+00
      7.877  0.8140E-01  0.7190E+00
      7.949  0.5458E-01  0.7229E+00
      8.022  0.6693E-01  0.7278E+00
      8.094  0.1385E+00  0.7378E+00
      8.166  0.1043E+00  0.7453E+00
      8.238  0.4336E-01  0.7484E+00
      8.310  0.4535E-01  0.7517E+00
      8.382  0.6683E-01  0.7565E+00
      8.455  0.1371E+00  0.7664E+00
      8.527  0.9039E-01  0.7729E+00
      8.599  0.8123E-01  0.7788E+00
      8.671  0.1112E+00  0.7868E+00
      8.743  0.9463E-01  0.7936E+00
      8.815  0.9204E-01  0.8003E+00
      8.888  0.1284E+00  0.8095E+00
      8.960  0.1406E+00  0.8197E+00
      9.032  0.1486E+00  0.8304E+00
      9.104  0.1145E+00  0.8387E+00
      9.176  0.6231E-01  0.8432E+00
      9.248  0.3530E-01  0.8457E+00
      9.320  0.1564E-01  0.8469E+00
      9.393  0.2009E-01  0.8483E+00
      9.465  0.2444E-02  0.8485E+00
      9.537  0.9568E-05  0.8485E+00
      9.609  0.8034E-09  0.8485E+00
      9.681  0.1225E-14  0.8485E+00
      9.753  0.0000E+00  0.8485E+00
      9.826  0.0000E+00  0.8485E+00
      9.898  0.0000E+00  0.8485E+00
      9.970  0.0000E+00  0.8485E+00
     10.042  0.0000E+00  0.8485E+00
     10.114  0.0000E+00  0.8485E+00
     10.186  0.0000E+00  0.8485E+00
     10.259  0.0000E+00  0.8485E+00
     10.331  0.0000E+00  0.8485E+00
     10.33065801    -11.31666498  301      2.18134287      1.00000000
    -11.317  0.0000E+00  0.0000E+00  0.0000E+00
    -11.245  0.0000E+00  0.0000E+00  0.0000E+00
    -11.172  0.0000E+00  0.0000E+00  0.0000E+00
    -11.100  0.0000E+00  0.0000E+00  0.0000E+00
    -11.028  0.0000E+00  0.0000E+00  0.0000E+00
    -10.956  0.0000E+00  0.0000E+00  0.0000E+00
    -10.884  0.0000E+00  0.0000E+00  0.0000E+00
    -10.812  0.0000E+00  0.0000E+00  0.0000E+00
    -10.739  0.0000E+00  0.0000E+00  0.0000E+00
    -10.667  0.0000E+00  0.0000E+00  0.0000E+00
    -10.595  0.1177E-15  0.1627E-17  0.0000E+00
    -10.523  0.7545E-10  0.1043E-11  0.0000E+00
    -10.451  0.8524E-06  0.1178E-07  0.0000E+00
    -10.379  0.1964E-03  0.2715E-05  0.0000E+00
    -10.306  0.1384E-02  0.2299E-04  0.0000E+00
    -10.234  0.1956E-02  0.4430E-03  0.0000E+00
    -10.162  0.1024E-01  0.3098E-02  0.0000E+00
    -10.090  0.8418E-02  0.4389E-02  0.0000E+00
    -10.018  0.5887E-02  0.6261E-02  0.0000E+00
     -9.946  0.1098E-02  0.1178E-02  0.0000E+00
     -9.874  0.8480E-05  0.9640E-05  0.0000E+00
     -9.801  0.2552E-04  0.4336E-04  0.0000E+00
     -9.729  0.2317E-02  0.2420E-02  0.0000E+00
     -9.657  0.1429E-01  0.1083E-01  0.0000E+00
     -9.585  0.1272E-01  0.9526E-02  0.0000E+00
     -9.513  0.1169E-01  0.1729E-01  0.0000E+00
     -9.441  0.1255E-01  0.2936E-01  0.0000E+00
     -9.368  0.9648E-02  0.2672E-01  0.0000E+00
     -9.296  0.7675E-02  0.2684E-01  0.0000E+00
     -9.224  0.3111E-02  0.1152E-01  0.0000E+00
     -9.152  0.2711E-03  0.9681E-03  0.0000E+00
     -9.080  0.2901E-05  0.9438E-05  0.0000E+00
     -9.008  0.9706E-09  0.3108E-08  0.0000E+00
     -8.935  0.6190E-14  0.1979E-13  0.0000E+00
     -8.863  0.0000E+00  0.0000E+00  0.0000E+00
     -8.791  0.0000E+00  0.0000E+00  0.0000E+00
     -8.719  0.0000E+00  0.0000E+00  0.0000E+00
     -8.647  0.0000E+00  0.0000E+00  0.0000E+00
     -8.575  0.0000E+00  0.0000E+00  0.0000E+00
     -8.503  0.0000E+00  0.0000E+00  0.0000E+00
     -8.430  0.0000E+00  0.0000E+00  0.0000E+00
     -8.358  0.0000E+00  0.0000E+00  0.0000E+00
     -8.286  0.0000E+00  0.0000E+00  0.0000E+00
     -8.214  0.0000E+00  0.0000E+00  0.0000E+00
     -8.142  0.0000E+00  0.0000E+00  0.0000E+00
     -8.070  0.0000E+00  0.0000E+00  0.0000E+00
     -7.997  0.0000E+00  0.0000E+00  0.0000E+00
     -7.925  0.0000E+00  0.0000E+00  0.0000E+00
     -7.853  0.0000E+00  0.0000E+00  0.0000E+00
     -7.781  0.0000E+00  0.0000E+00  0.0000E+00
     -7.709  0.0000E+00  0.0000E+00  0.0000E+00
     -7.637  0.0000E+00  0.0000E+00  0.0000E+00
     -7.564  0.0000E+00  0.0000E+00  0.0000E+00
     -7.492  0.0000E+00  0.0000E+00  0.0000E+00
     -7.420  0.0000E+00  0.0000E+00  0.0000E+00
     -7.348  0.0000E+00  0.0000E+00  0.0000E+00
     -7.276  0.0000E+00  0.0000E+00  0.0000E+00
     -7.204  0.0000E+00  0.0000E+00  0.0000E+00
     -7.132  0.0000E+00  0.0000E+00  0.0000E+00
     -7.059  0.0000E+00  0.0000E+00  0.0000E+00
     -6.987  0.0000E+00  0.0000E+00  0.0000E+00
     -6.915  0.0000E+00  0.0000E+00  0.0000E+00
     -6.843  0.0000E+00  0.0000E+00  0.0000E+00
     -6.771  0.0000E+00  0.0000E+00  0.0000E+00
     -6.699  0.2856E-17  0.2564E-17  0.0000E+00
     -6.626  0.3495E-11  0.3137E-11  0.0000E+00
     -6.554  0.7446E-07  0.6684E-07  0.0000E+00
     -6.482  0.3126E-04  0.2806E-04  0.0000E+00
     -6.410  0.3847E-03  0.3493E-03  0.0000E+00
     -6.338  0.1283E-02  0.1411E-02  0.0000E+00
     -6.266  0.3499E-02  0.4930E-02  0.0000E+00
     -6.193  0.2337E-02  0.4648E-02  0.0000E+00
     -6.121  0.2338E-03  0.5173E-03  0.0000E+00
     -6.049  0.9875E-06  0.2209E-05  0.0000E+00
     -5.977  0.9676E-10  0.2108E-09  0.0000E+00
     -5.905  0.1815E-15  0.3758E-15  0.0000E+00
     -5.833  0.0000E+00  0.0000E+00  0.0000E+00
     -5.761  0.0000E+00  0.0000E+00  0.0000E+00
     -5.688  0.0000E+00  0.0000E+00  0.0000E+00
     -5.616  0.0000E+00  0.0000E+00  0.0000E+00
     -5.544  0.0000E+00  0.0000E+00  0.0000E+00
     -5.472  0.0000E+00  0.0000E+00  0.0000E+00
     -5.400  0.0000E+00  0.0000E+00  0.0000E+00
     -5.328  0.0000E+00  0.0000E+00  0.0000E+00
     -5.255  0.0000E+00  0.0000E+00  0.0000E+00
     -5.183  0.0000E+00  0.0000E+00  0.0000E+00
     -5.111  0.0000E+00  0.0000E+00  0.0000E+00
     -5.039  0.0000E+00  0.0000E+00  0.0000E+00
     -4.967  0.0000E+00  0.0000E+00  0.0000E+00
     -4.895  0.0000E+00  0.0000E+00  0.0000E+00
     -4.822  0.0000E+00  0.0000E+00  0.0000E+00
     -4.750  0.0000E+00  0.0000E+00  0.0000E+00
     -4.678  0.0000E+00  0.0000E+00  0.0000E+00
     -4.606  0.0000E+00  0.0000E+00  0.0000E+00
     -4.534  0.0000E+00  0.0000E+00  0.0000E+00
     -4.462  0.0000E+00  0.0000E+00  0.0000E+00
     -4.390  0.0000E+00  0.0000E+00  0.0000E+00
     -4.317  0.0000E+00  0.0000E+00  0.0000E+00
     -4.245  0.0000E+00  0.0000E+00  0.0000E+00
     -4.173  0.0000E+00  0.0000E+00  0.0000E+00
     -4.101  0.0000E+00  0.0000E+00  0.0000E+00
     -4.029  0.0000E+00  0.0000E+00  0.0000E+00
     -3.957  0.0000E+00  0.0000E+00  0.0000E+00
     -3.884  0.0000E+00  0.0000E+00  0.0000E+00
     -3.812  0.0000E+00  0.0000E+00  0.0000E+00
     -3.740  0.0000E+00  0.0000E+00  0.0000E+00
     -3.668  0.0000E+00  0.0000E+00  0.0000E+00
     -3.596  0.0000E+00  0.0000E+00  0.0000E+00
     -3.524  0.0000E+00  0.0000E+00  0.0000E+00
     -3.451  0.0000E+00  0.0000E+00  0.0000E+00
     -3.379  0.0000E+00  0.0000E+00  0.0000E+00
     -3.307  0.0000E+00  0.0000E+00  0.0000E+00
     -3.235  0.0000E+00  0.0000E+00  0.0000E+00
     -3.163  0.0000E+00  0.0000E+00  0.0000E+00
     -3.091  0.0000E+00  0.0000E+00  0.0000E+00
     -3.019  0.0000E+00  0.0000E+00  0.0000E+00
     -2.946  0.0000E+00  0.0000E+00  0.0000E+00
     -2.874  0.0000E+00  0.0000E+00  0.0000E+00
     -2.802  0.0000E+00  0.0000E+00  0.0000E+00
     -2.730  0.0000E+00  0.0000E+00  0.0000E+00
     -2.658  0.0000E+00  0.0000E+00  0.0000E+00
     -2.586  0.0000E+00  0.0000E+00  0.0000E+00
     -2.513  0.0000E+00  0.0000E+00  0.0000E+00
     -2.441  0.0000E+00  0.0000E+00  0.0000E+00
     -2.369  0.0000E+00  0.0000E+00  0.0000E+00
     -2.297  0.0000E+00  0.0000E+00  0.0000E+00
     -2.225  0.0000E+00  0.0000E+00  0.0000E+00
     -2.153  0.5790E-14  0.5202E-14  0.0000E+00
     -2.080  0.1862E-08  0.1684E-08  0.0000E+00
     -2.008  0.1233E-04  0.1089E-04  0.0000E+00
     -1.936  0.2182E-02  0.1752E-02  0.0000E+00
     -1.864  0.1522E-01  0.1055E-01  0.0000E+00
     -1.792  0.6165E-02  0.3739E-02  0.0000E+00
     -1.720  0.9248E-02  0.1013E-01  0.0000E+00
     -1.648  0.2606E-01  0.3105E-01  0.0000E+00
     -1.575  0.1830E-01  0.2038E-01  0.0000E+00
     -1.503  0.2532E-01  0.2178E-01  0.0000E+00
     -1.431  0.3241E-01  0.2890E-01  0.0000E+00
     -1.359  0.3783E-01  0.4260E-01  0.0000E+00
     -1.287  0.3304E-01  0.3839E-01  0.0000E+00
     -1.215  0.1571E-01  0.1956E-01  0.0000E+00
     -1.142  0.1459E-02  0.3398E-02  0.0000E+00
     -1.070  0.4231E-03  0.5568E-03  0.0000E+00
     -0.998  0.3791E-02  0.3884E-02  0.0000E+00
     -0.926  0.1493E-01  0.8579E-02  0.0000E+00
     -0.854  0.1787E-01  0.1218E-01  0.0000E+00
     -0.782  0.3235E-01  0.1887E-01  0.0000E+00
     -0.709  0.5059E-01  0.3205E-01  0.0000E+00
     -0.637  0.2090E-01  0.1602E-01  0.0000E+00
     -0.565  0.1343E-01  0.2841E-01  0.0000E+00
     -0.493  0.3752E-01  0.2897E-01  0.0000E+00
     -0.421  0.4085E-01  0.3852E-01  0.0000E+00
     -0.349  0.5359E-01  0.4056E-01  0.0000E+00
     -0.277  0.6489E-01  0.4653E-01  0.0000E+00
     -0.204  0.4436E-01  0.3004E-01  0.0000E+00
     -0.132  0.1567E-01  0.2227E-01  0.0000E+00
     -0.060  0.4059E-01  0.3565E-01  0.0000E+00
      0.012  0.5613E-01  0.6746E-01  0.0000E+00
      0.084  0.1762E-01  0.3711E-01  0.0000E+00
      0.156  0.4400E-01  0.7798E-01  0.0000E+00
      0.229  0.4966E-01  0.6691E-01  0.0000E+00
      0.301  0.1795E-01  0.3182E-01  0.0000E+00
      0.373  0.1354E-01  0.4182E-01  0.0000E+00
      0.445  0.2394E-01  0.7665E-01  0.0000E+00
      0.517  0.1757E-01  0.7729E-01  0.0000E+00
      0.589  0.1498E-01  0.6365E-01  0.0000E+00
      0.662  0.1100E-01  0.3882E-01  0.0000E+00
      0.734  0.9888E-02  0.2908E-01  0.0000E+00
      0.806  0.2250E-01  0.6153E-01  0.0000E+00
      0.878  0.1082E-01  0.6353E-01  0.0000E+00
      0.950  0.2181E-01  0.1038E+00  0.0000E+00
      1.022  0.2178E-01  0.7598E-01  0.0000E+00
      1.094  0.1873E-01  0.4168E-01  0.0000E+00
      1.167  0.1897E-01  0.5916E-01  0.0000E+00
      1.239  0.1405E-01  0.8924E-01  0.0000E+00
      1.311  0.2065E-01  0.8781E-01  0.0000E+00
      1.383  0.7689E-02  0.4256E-01  0.0000E+00
      1.455  0.3134E-02  0.3062E-01  0.0000E+00
      1.527  0.2893E-02  0.3646E-01  0.0000E+00
      1.600  0.5950E-03  0.7205E-02  0.0000E+00
      1.672  0.9364E-03  0.1100E-01  0.0000E+00
      1.744  0.9722E-02  0.2793E-01  0.0000E+00
      1.816  0.1367E-01  0.3840E-01  0.0000E+00
      1.888  0.3750E-02  0.2461E-01  0.0000E+00
      1.960  0.2575E-02  0.1781E-01  0.0000E+00
      2.033  0.6478E-03  0.8078E-02  0.0000E+00
      2.105  0.1864E-04  0.2840E-03  0.0000E+00
      2.177  0.2093E-07  0.2969E-06  0.0000E+00
      2.249  0.4973E-12  0.6590E-11  0.0000E+00
      2.321  0.2259E-18  0.2778E-17  0.0000E+00
      2.393  0.0000E+00  0.0000E+00  0.0000E+00
      2.465  0.0000E+00  0.0000E+00  0.0000E+00
      2.538  0.0000E+00  0.0000E+00  0.0000E+00
      2.610  0.0000E+00  0.0000E+00  0.0000E+00
      2.682  0.0000E+00  0.0000E+00  0.0000E+00
      2.754  0.0000E+00  0.0000E+00  0.0000E+00
      2.826  0.0000E+00  0.0000E+00  0.0000E+00
      2.898  0.0000E+00  0.0000E+00  0.0000E+00
      2.971  0.0000E+00  0.0000E+00  0.0000E+00
      3.043  0.0000E+00  0.0000E+00  0.0000E+00
      3.115  0.0000E+00  0.0000E+00  0.0000E+00
      3.187  0.0000E+00  0.0000E+00  0.0000E+00
      3.259  0.0000E+00  0.0000E+00  0.0000E+00
      3.331  0.0000E+00  0.0000E+00  0.0000E+00
      3.404  0.0000E+00  0.0000E+00  0.0000E+00
      3.476  0.0000E+00  0.0000E+00  0.0000E+00
      3.548  0.0000E+00  0.0000E+00  0.0000E+00
      3.620  0.0000E+00  0.0000E+00  0.0000E+00
      3.692  0.0000E+00  0.0000E+00  0.0000E+00
      3.764  0.7649E-16  0.5166E-16  0.0000E+00
      3.836  0.7349E-10  0.5191E-10  0.0000E+00
      3.909  0.1322E-05  0.1026E-05  0.0000E+00
      3.981  0.5450E-03  0.5088E-03  0.0000E+00
      4.053  0.8577E-02  0.1113E-01  0.0000E+00
      4.125  0.1355E-01  0.2433E-01  0.0000E+00
      4.197  0.1553E-01  0.2697E-01  0.0000E+00
      4.269  0.1958E-01  0.3292E-01  0.0000E+00
      4.342  0.6336E-02  0.1712E-01  0.0000E+00
      4.414  0.1852E-01  0.4209E-01  0.0000E+00
      4.486  0.2683E-01  0.6087E-01  0.0000E+00
      4.558  0.1563E-01  0.3543E-01  0.0000E+00
      4.630  0.1637E-01  0.4185E-01  0.0000E+00
      4.702  0.1131E-01  0.3140E-01  0.0000E+00
      4.775  0.1862E-01  0.4899E-01  0.0000E+00
      4.847  0.8510E-02  0.3139E-01  0.0000E+00
      4.919  0.8278E-03  0.1130E-01  0.0000E+00
      4.991  0.1845E-04  0.5813E-03  0.0000E+00
      5.063  0.2946E-07  0.1051E-05  0.0000E+00
      5.135  0.1189E-11  0.4139E-10  0.0000E+00
      5.207  0.8824E-18  0.3008E-16  0.0000E+00
      5.280  0.0000E+00  0.0000E+00  0.0000E+00
      5.352  0.6531E-12  0.5191E-13  0.0000E+00
      5.424  0.6119E-07  0.4863E-08  0.0000E+00
      5.496  0.1063E-03  0.8445E-05  0.0000E+00
      5.568  0.4351E-02  0.3458E-03  0.0000E+00
      5.640  0.7063E-02  0.5614E-03  0.0000E+00
      5.713  0.5257E-03  0.4181E-04  0.0000E+00
      5.785  0.9137E-05  0.1197E-03  0.0000E+00
      5.857  0.1011E-02  0.1174E-01  0.0000E+00
      5.929  0.5075E-02  0.5244E-01  0.0000E+00
      6.001  0.8117E-02  0.3674E-01  0.0000E+00
      6.073  0.2733E-01  0.7238E-01  0.0000E+00
      6.146  0.2393E-01  0.1066E+00  0.0000E+00
      6.218  0.1507E-01  0.7387E-01  0.0000E+00
      6.290  0.2184E-01  0.7309E-01  0.0000E+00
      6.362  0.2620E-01  0.6690E-01  0.0000E+00
      6.434  0.1949E-01  0.3609E-01  0.0000E+00
      6.506  0.1678E-02  0.2893E-02  0.0000E+00
      6.578  0.1056E-01  0.1651E-01  0.0000E+00
      6.651  0.2994E-01  0.6937E-01  0.0000E+00
      6.723  0.3587E-01  0.1195E+00  0.0000E+00
      6.795  0.4078E-01  0.1513E+00  0.0000E+00
      6.867  0.3500E-01  0.1569E+00  0.0000E+00
      6.939  0.4622E-01  0.1563E+00  0.0000E+00
      7.011  0.4523E-01  0.1148E+00  0.0000E+00
      7.084  0.1320E-01  0.3492E-01  0.0000E+00
      7.156  0.1640E-01  0.4506E-01  0.0000E+00
      7.228  0.3450E-01  0.1191E+00  0.0000E+00
      7.300  0.1823E-01  0.7477E-01  0.0000E+00
      7.372  0.1046E-01  0.4383E-01  0.0000E+00
      7.444  0.3148E-01  0.9587E-01  0.0000E+00
      7.517  0.1154E+00  0.1580E+00  0.0000E+00
      7.589  0.1082E+00  0.1682E+00  0.0000E+00
      7.661  0.2894E-01  0.8476E-01  0.0000E+00
      7.733  0.1676E-01  0.4239E-01  0.0000E+00
      7.805  0.1753E-01  0.4931E-01  0.0000E+00
      7.877  0.3590E-01  0.9567E-01  0.0000E+00
      7.949  0.1638E-01  0.6725E-01  0.0000E+00
      8.022  0.2837E-01  0.1184E+00  0.0000E+00
      8.094  0.7723E-01  0.1877E+00  0.0000E+00
      8.166  0.5381E-01  0.1339E+00  0.0000E+00
      8.238  0.2330E-01  0.4604E-01  0.0000E+00
      8.310  0.2060E-01  0.6204E-01  0.0000E+00
      8.382  0.3734E-01  0.8873E-01  0.0000E+00
      8.455  0.7604E-01  0.1441E+00  0.0000E+00
      8.527  0.4230E-01  0.8918E-01  0.0000E+00
      8.599  0.4554E-01  0.1322E+00  0.0000E+00
      8.671  0.9221E-01  0.1725E+00  0.0000E+00
      8.743  0.7018E-01  0.1177E+00  0.0000E+00
      8.815  0.4670E-01  0.8740E-01  0.0000E+00
      8.888  0.5761E-01  0.1453E+00  0.0000E+00
      8.960  0.8477E-01  0.2075E+00  0.0000E+00
      9.032  0.9683E-01  0.2164E+00  0.0000E+00
      9.104  0.5129E-01  0.1578E+00  0.0000E+00
      9.176  0.1795E-01  0.7059E-01  0.0000E+00
      9.248  0.2043E-01  0.3616E-01  0.0000E+00
      9.320  0.1209E-01  0.1347E-01  0.0000E+00
      9.393  0.1334E-01  0.1103E-01  0.0000E+00
      9.465  0.1589E-02  0.1093E-02  0.0000E+00
      9.537  0.6136E-05  0.3583E-05  0.0000E+00
      9.609  0.5112E-09  0.2685E-09  0.0000E+00
      9.681  0.7766E-15  0.3862E-15  0.0000E+00
      9.753  0.0000E+00  0.0000E+00  0.0000E+00
      9.826  0.0000E+00  0.0000E+00  0.0000E+00
      9.898  0.0000E+00  0.0000E+00  0.0000E+00
      9.970  0.0000E+00  0.0000E+00  0.0000E+00
     10.042  0.0000E+00  0.0000E+00  0.0000E+00
     10.114  0.0000E+00  0.0000E+00  0.0000E+00
     10.186  0.0000E+00  0.0000E+00  0.0000E+00
     10.259  0.0000E+00  0.0000E+00  0.0000E+00
     10.331  0.0000E+00  0.0000E+00  0.0000E+00
     10.33065801    -11.31666498  301      2.18134287      1.00000000
    -11.317  0.0000E+00  0.0000E+00  0.0000E+00
    -11.245  0.0000E+00  0.0000E+00  0.0000E+00
    -11.172  0.0000E+00  0.0000E+00  0.0000E+00
    -11.100  0.0000E+00  0.0000E+00  0.0000E+00
    -11.028  0.0000E+00  0.0000E+00  0.0000E+00
    -10.956  0.0000E+00  0.0000E+00  0.0000E+00
    -10.884  0.0000E+00  0.0000E+00  0.0000E+00
    -10.812  0.0000E+00  0.0000E+00  0.0000E+00
    -10.739  0.0000E+00  0.0000E+00  0.0000E+00
    -10.667  0.0000E+00  0.0000E+00  0.0000E+00
    -10.595  0.6378E-16  0.4376E-17  0.0000E+00
    -10.523  0.4088E-10  0.2805E-11  0.0000E+00
    -10.451  0.4619E-06  0.3169E-07  0.0000E+00
    -10.379  0.1064E-03  0.7301E-05  0.0000E+00
    -10.306  0.7532E-03  0.5228E-04  0.0000E+00
    -10.234  0.1211E-02  0.2276E-03  0.0000E+00
    -10.162  0.5272E-02  0.1897E-02  0.0000E+00
    -10.090  0.4255E-02  0.2456E-02  0.0000E+00
    -10.018  0.2277E-02  0.3369E-02  0.0000E+00
     -9.946  0.2303E-03  0.6854E-03  0.0000E+00
     -9.874  0.9567E-06  0.5753E-05  0.0000E+00
     -9.801  0.3629E-04  0.1606E-04  0.0000E+00
     -9.729  0.1916E-02  0.1063E-02  0.0000E+00
     -9.657  0.7965E-02  0.5635E-02  0.0000E+00
     -9.585  0.6027E-02  0.5473E-02  0.0000E+00
     -9.513  0.5276E-02  0.8370E-02  0.0000E+00
     -9.441  0.4105E-02  0.1290E-01  0.0000E+00
     -9.368  0.3081E-02  0.1062E-01  0.0000E+00
     -9.296  0.2381E-02  0.9866E-02  0.0000E+00
     -9.224  0.8128E-03  0.3789E-02  0.0000E+00
     -9.152  0.5854E-04  0.2675E-03  0.0000E+00
     -9.080  0.5453E-06  0.2426E-05  0.0000E+00
     -9.008  0.1792E-09  0.7932E-09  0.0000E+00
     -8.935  0.1141E-14  0.5048E-14  0.0000E+00
     -8.863  0.0000E+00  0.0000E+00  0.0000E+00
     -8.791  0.0000E+00  0.0000E+00  0.0000E+00
     -8.719  0.0000E+00  0.0000E+00  0.0000E+00
     -8.647  0.0000E+00  0.0000E+00  0.0000E+00
     -8.575  0.0000E+00  0.0000E+00  0.0000E+00
     -8.503  0.0000E+00  0.0000E+00  0.0000E+00
     -8.430  0.0000E+00  0.0000E+00  0.0000E+00
     -8.358  0.0000E+00  0.0000E+00  0.0000E+00
     -8.286  0.0000E+00  0.0000E+00  0.0000E+00
     -8.214  0.0000E+00  0.0000E+00  0.0000E+00
     -8.142  0.0000E+00  0.0000E+00  0.0000E+00
     -8.070  0.0000E+00  0.0000E+00  0.0000E+00
     -7.997  0.0000E+00  0.0000E+00  0.0000E+00
     -7.925  0.0000E+00  0.0000E+00  0.0000E+00
     -7.853  0.0000E+00  0.0000E+00  0.0000E+00
     -7.781  0.0000E+00  0.0000E+00  0.0000E+00
     -7.709  0.0000E+00  0.0000E+00  0.0000E+00
     -7.637  0.0000E+00  0.0000E+00  0.0000E+00
     -7.564  0.0000E+00  0.0000E+00  0.0000E+00
     -7.492  0.0000E+00  0.0000E+00  0.0000E+00
     -7.420  0.0000E+00  0.0000E+00  0.0000E+00
     -7.348  0.0000E+00  0.0000E+00  0.0000E+00
     -7.276  0.0000E+00  0.0000E+00  0.0000E+00
     -7.204  0.0000E+00  0.0000E+00  0.0000E+00
     -7.132  0.0000E+00  0.0000E+00  0.0000E+00
     -7.059  0.0000E+00  0.0000E+00  0.0000E+00
     -6.987  0.0000E+00  0.0000E+00  0.0000E+00
     -6.915  0.0000E+00  0.0000E+00  0.0000E+00
     -6.843  0.0000E+00  0.0000E+00  0.0000E+00
     -6.771  0.0000E+00  0.0000E+00  0.0000E+00
     -6.699  0.1734E-17  0.4060E-18  0.0000E+00
     -6.626  0.2122E-11  0.4968E-12  0.0000E+00
     -6.554  0.4522E-07  0.1058E-07  0.0000E+00
     -6.482  0.1898E-04  0.4444E-05  0.0000E+00
     -6.410  0.2307E-03  0.5634E-04  0.0000E+00
     -6.338  0.7004E-03  0.2893E-03  0.0000E+00
     -6.266  0.2067E-02  0.1168E-02  0.0000E+00
     -6.193  0.1360E-02  0.1268E-02  0.0000E+00
     -6.121  0.1423E-03  0.1481E-03  0.0000E+00
     -6.049  0.6472E-06  0.6441E-06  0.0000E+00
     -5.977  0.6674E-10  0.6224E-10  0.0000E+00
     -5.905  0.1280E-15  0.1123E-15  0.0000E+00
     -5.833  0.0000E+00  0.0000E+00  0.0000E+00
     -5.761  0.0000E+00  0.0000E+00  0.0000E+00
     -5.688  0.0000E+00  0.0000E+00  0.0000E+00
     -5.616  0.0000E+00  0.0000E+00  0.0000E+00
     -5.544  0.0000E+00  0.0000E+00  0.0000E+00
     -5.472  0.0000E+00  0.0000E+00  0.0000E+00
     -5.400  0.0000E+00  0.0000E+00  0.0000E+00
     -5.328  0.0000E+00  0.0000E+00  0.0000E+00
     -5.255  0.0000E+00  0.0000E+00  0.0000E+00
     -5.183  0.0000E+00  0.0000E+00  0.0000E+00
     -5.111  0.0000E+00  0.0000E+00  0.0000E+00
     -5.039  0.0000E+00  0.0000E+00  0.0000E+00
     -4.967  0.0000E+00  0.0000E+00  0.0000E+00
     -4.895  0.0000E+00  0.0000E+00  0.0000E+00