 vasp.5.4.4.18Apr17-6-g9f103f2a35 (build Oct 27 2022 13:04:57) complex          
  
 executed on             LinuxIFC date 2024.07.04  02:08:45
 running on   14 total cores
 distrk:  each k-point on   14 cores,    1 groups
 distr:  one band on NCORES_PER_BAND=   1 cores,   14 groups


--------------------------------------------------------------------------------------------------------


 INCAR:
 POTCAR:    PAW_PBE Li 17Jan2003                  
 POTCAR:    PAW_PBE Sb 06Sep2000                  
 POTCAR:    PAW_PBE Se 06Sep2000                  

 ----------------------------------------------------------------------------- 
|                                                                             |
|           W    W    AA    RRRRR   N    N  II  N    N   GGGG   !!!           |
|           W    W   A  A   R    R  NN   N  II  NN   N  G    G  !!!           |
|           W    W  A    A  R    R  N N  N  II  N N  N  G       !!!           |
|           W WW W  AAAAAA  RRRRR   N  N N  II  N  N N  G  GGG   !            |
|           WW  WW  A    A  R   R   N   NN  II  N   NN  G    G                |
|           W    W  A    A  R    R  N    N  II  N    N   GGGG   !!!           |
|                                                                             |
|      For optimal performance we recommend to set                            |
|        NCORE= 4 - approx SQRT( number of cores)                             |
|      NCORE specifies how many cores store one orbital (NPAR=cpu/NCORE).     |
|      This setting can  greatly improve the performance of VASP for DFT.     |
|      The default,   NCORE=1            might be grossly inefficient         |
|      on modern multi-core architectures or massively parallel machines.     |
|      Do your own testing !!!!                                               |
|      Unfortunately you need to use the default for GW and RPA calculations. |
|      (for HF NCORE is supported but not extensively tested yet)             |
|                                                                             |
 ----------------------------------------------------------------------------- 

 POTCAR:    PAW_PBE Li 17Jan2003                  
   VRHFIN =Li: s1p0                                                             
   LEXCH  = PE                                                                  
   EATOM  =     5.3001 eV,    0.3895 Ry                                         
                                                                                
   TITEL  = PAW_PBE Li 17Jan2003                                                
   LULTRA =        F    use ultrasoft PP ?                                      
   IUNSCR =        1    unscreen: 0-lin 1-nonlin 2-no                           
   RPACOR =    1.500    partial core radius                                     
   POMASS =    7.010; ZVAL   =    1.000    mass and valenz                      
   RCORE  =    2.050    outmost cutoff radius                                   
   RWIGS  =    2.600; RWIGS  =    1.376    wigner-seitz radius (au A)           
   ENMAX  =  140.000; ENMIN  =  100.000 eV                                      
   ICORE  =        2    local potential                                         
   LCOR   =        T    correct aug charges                                     
   LPAW   =        T    paw PP                                                  
   EAUG   =  331.638                                                            
   DEXC   =    0.000                                                            
   RMAX   =    2.098    core radius for proj-oper                               
   RAUG   =    1.300    factor for augmentation sphere                          
   RDEP   =    2.094    radius for radial grids                                 
   RDEPT  =    1.810    core radius for aug-charge                              
                                                                                
   Atomic configuration                                                         
    4 entries                                                                   
     n  l   j            E        occ.                                          
     1  0  0.50       -51.8549   2.0000                                         
     2  0  0.50        -2.8742   1.0000                                         
     2  1  0.50        -1.3606   0.0000                                         
     3  2  1.50        -1.3606   0.0000                                         
   Description                                                                  
     l       E           TYP  RCUT    TYP  RCUT                                 
     0     -2.8742052     23  2.050                                             
     0     27.2116520     23  2.050                                             
     1     -1.3605826     23  2.050                                             
     2     -1.3605826     23  2.050                                             
  local pseudopotential read in
  partial core-charges read in
  partial kinetic energy density read in
  atomic valenz-charges read in
  non local Contribution for L=           0  read in
    real space projection operators read in
  non local Contribution for L=           0  read in
    real space projection operators read in
  non local Contribution for L=           1  read in
    real space projection operators read in
    PAW grid and wavefunctions read in
 
   number of l-projection  operators is LMAX  =           3
   number of lm-projection operators is LMMAX =           5
 
 POTCAR:    PAW_PBE Sb 06Sep2000                  
   VRHFIN =Sb: s2p3                                                             
   LEXCH  = PE                                                                  
   EATOM  =   149.9515 eV,   11.0211 Ry                                         
                                                                                
   TITEL  = PAW_PBE Sb 06Sep2000                                                
   LULTRA =        F    use ultrasoft PP ?                                      
   IUNSCR =        1    unscreen: 0-lin 1-nonlin 2-no                           
   RPACOR =    2.200    partial core radius                                     
   POMASS =  121.750; ZVAL   =    5.000    mass and valenz                      
   RCORE  =    2.300    outmost cutoff radius                                   
   RWIGS  =    2.980; RWIGS  =    1.577    wigner-seitz radius (au A)           
   ENMAX  =  172.069; ENMIN  =  129.052 eV                                      
   ICORE  =        3    local potential                                         
   LCOR   =        T    correct aug charges                                     
   LPAW   =        T    paw PP                                                  
   EAUG   =  380.513                                                            
   DEXC   =    0.000                                                            
   RMAX   =    2.346    core radius for proj-oper                               
   RAUG   =    1.300    factor for augmentation sphere                          
   RDEP   =    2.360    radius for radial grids                                 
   RDEPT  =    2.192    core radius for aug-charge                              
                                                                                
   Atomic configuration                                                         
   13 entries                                                                   
     n  l   j            E        occ.                                          
     1  0  0.50    -30298.2797   2.0000                                         
     2  0  0.50     -4610.2252   2.0000                                         
     2  1  1.50     -4138.3407   6.0000                                         
     3  0  0.50      -903.8815   2.0000                                         
     3  1  1.50      -750.1337   6.0000                                         
     3  2  2.50      -515.7092  10.0000                                         
     4  0  0.50      -148.8034   2.0000                                         
     4  1  1.50      -101.7581   6.0000                                         
     4  2  2.50       -33.5048  10.0000                                         
     5  0  0.50       -12.8298   2.0000                                         
     5  1  0.50        -4.8276   3.0000                                         
     5  2  1.50        -4.0817   0.0000                                         
     4  3  2.50        -4.0817   0.0000                                         
   Description                                                                  
     l       E           TYP  RCUT    TYP  RCUT                                 
     0    -12.8297861     23  2.300                                             
     0     13.6058260     23  2.300                                             
     1     -4.8275512     23  2.300                                             
     1     -0.7245443     23  2.300                                             
     2     -4.0817478     23  2.300                                             
     3     -1.3605826     23  2.300                                             
  local pseudopotential read in
  partial core-charges read in
  partial kinetic energy density read in
  atomic valenz-charges read in
  non local Contribution for L=           0  read in
    real space projection operators read in
  non local Contribution for L=           0  read in
    real space projection operators read in
  non local Contribution for L=           1  read in
    real space projection operators read in
  non local Contribution for L=           1  read in
    real space projection operators read in
  non local Contribution for L=           2  read in
    real space projection operators read in
    PAW grid and wavefunctions read in
 
   number of l-projection  operators is LMAX  =           5
   number of lm-projection operators is LMMAX =          13
 
 POTCAR:    PAW_PBE Se 06Sep2000                  
   VRHFIN =Se: s2p4                                                             
   LEXCH  = PE                                                                  
   EATOM  =   257.1286 eV,   18.8984 Ry                                         
                                                                                
   TITEL  = PAW_PBE Se 06Sep2000                                                
   LULTRA =        F    use ultrasoft PP ?                                      
   IUNSCR =        1    unscreen: 0-lin 1-nonlin 2-no                           
   RPACOR =    1.900    partial core radius                                     
   POMASS =   78.960; ZVAL   =    6.000    mass and valenz                      
   RCORE  =    2.100    outmost cutoff radius                                   
   RWIGS  =    2.200; RWIGS  =    1.164    wigner-seitz radius (au A)           
   ENMAX  =  211.555; ENMIN  =  158.666 eV                                      
   ICORE  =        3    local potential                                         
   LCOR   =        T    correct aug charges                                     
   LPAW   =        T    paw PP                                                  
   EAUG   =  446.842                                                            
   DEXC   =    0.000                                                            
   RMAX   =    2.147    core radius for proj-oper                               
   RAUG   =    1.300    factor for augmentation sphere                          
   RDEP   =    2.177    radius for radial grids                                 
   RDEPT  =    1.928    core radius for aug-charge                              
                                                                                
   Atomic configuration                                                         
   10 entries                                                                   
     n  l   j            E        occ.                                          
     1  0  0.50    -12503.4787   2.0000                                         
     2  0  0.50     -1606.9547   2.0000                                         
     2  1  1.50     -1413.3140   6.0000                                         
     3  0  0.50      -213.4885   2.0000                                         
     3  1  1.50      -152.9538   6.0000                                         
     3  2  2.50       -53.1221  10.0000                                         
     4  0  0.50       -17.2865   2.0000                                         
     4  1  0.50        -6.5110   4.0000                                         
     4  2  2.50        -6.8029   0.0000                                         
     4  3  2.50        -6.8029   0.0000                                         
   Description                                                                  
     l       E           TYP  RCUT    TYP  RCUT                                 
     0    -17.2865377     23  2.100                                             
     0    -15.3094411     23  2.100                                             
     1     -6.5110275     23  2.100                                             
     1     -0.0695192     23  2.100                                             
     2     -6.8029130     23  2.100                                             
     3     -1.3605826      7  2.100                                             
  local pseudopotential read in
  partial core-charges read in
  partial kinetic energy density read in
  atomic valenz-charges read in
  non local Contribution for L=           0  read in
    real space projection operators read in
  non local Contribution for L=           0  read in
    real space projection operators read in
  non local Contribution for L=           1  read in
    real space projection operators read in
  non local Contribution for L=           1  read in
    real space projection operators read in
  non local Contribution for L=           2  read in
    real space projection operators read in
    PAW grid and wavefunctions read in
 
   number of l-projection  operators is LMAX  =           5
   number of lm-projection operators is LMMAX =          13
 
 Optimization of the real space projectors (new method)

 maximal supplied QI-value         = 18.33
 optimisation between [QCUT,QGAM] = [  8.80, 17.60] = [ 21.68, 86.71] Ry 
 Optimized for a Real-space Cutoff    1.15 Angstroem

   l    n(q)    QCUT    max X(q) W(low)/X(q) W(high)/X(q)  e(spline) 
   0      6     8.799    33.825    0.11E-02    0.11E-02    0.82E-07
   0      6     8.799     8.944    0.75E-03    0.85E-03    0.59E-07
   1      5     8.799     4.214    0.92E-03    0.27E-03    0.41E-07
 Optimization of the real space projectors (new method)

 maximal supplied QI-value         = 16.25
 optimisation between [QCUT,QGAM] = [  8.78, 17.71] = [ 21.57, 87.87] Ry 
 Optimized for a Real-space Cutoff    1.26 Angstroem

   l    n(q)    QCUT    max X(q) W(low)/X(q) W(high)/X(q)  e(spline) 
   0      7     8.776    19.000    0.12E-02    0.42E-03    0.95E-07
   0      7     8.776     9.057    0.14E-02    0.54E-03    0.11E-06
   1      6     8.776   125.345    0.45E-03    0.22E-02    0.77E-07
   1      6     8.776    79.963    0.45E-03    0.21E-02    0.76E-07
   2      6     8.776     6.963    0.11E-02    0.51E-03    0.39E-07
 Optimization of the real space projectors (new method)

 maximal supplied QI-value         = 17.95
 optimisation between [QCUT,QGAM] = [  8.80, 17.59] = [ 21.67, 86.68] Ry 
 Optimized for a Real-space Cutoff    1.19 Angstroem

   l    n(q)    QCUT    max X(q) W(low)/X(q) W(high)/X(q)  e(spline) 
   0      6     8.797   133.320    0.14E-02    0.11E-02    0.95E-07
   0      6     8.797   111.601    0.15E-02    0.12E-02    0.10E-06
   1      6     8.797    47.222    0.19E-02    0.96E-03    0.11E-06
   1      6     8.797    33.775    0.19E-02    0.99E-03    0.11E-06
   2      5     8.797     3.720    0.16E-02    0.14E-02    0.40E-07
  PAW_PBE Li 17Jan2003                  :
 energy of atom  1       EATOM=   -5.3001
 kinetic energy error for atom=    0.0000 (will be added to EATOM!!)
  PAW_PBE Sb 06Sep2000                  :
 energy of atom  2       EATOM= -149.9515
 kinetic energy error for atom=    0.0018 (will be added to EATOM!!)
  PAW_PBE Se 06Sep2000                  :
 energy of atom  3       EATOM= -257.1286
 kinetic energy error for atom=    0.0040 (will be added to EATOM!!)
 
 
 POSCAR: Li9 Sb1 Se6                             
  positions in direct lattice
  No initial velocities read in
 exchange correlation table for  LEXCH =        8
   RHO(1)=    0.500       N(1)  =     2000
   RHO(2)=  100.500       N(2)  =     4000
 


--------------------------------------------------------------------------------------------------------


 ion  position               nearest neighbor table
   1  0.993  0.516  0.308-  15 3.02
   2  0.207  0.006  0.692-  12 3.02
   3  0.000  0.000  0.000-
   4  0.315  0.792  0.308-  13 3.02
   5  0.484  0.684  0.691-  16 3.02
   6  0.516  0.316  0.309-  12 3.02
   7  0.685  0.208  0.692-  15 3.02
   8  0.793  0.994  0.308-  16 3.02
   9  0.007  0.484  0.692-  13 3.02
  10  0.500  0.500  0.000-  11 2.91  14 2.91  13 2.95  15 2.95  12 2.95  16 2.95
  11  0.280  0.280  0.558-  10 2.91
  12  0.186  0.354  1.000-  10 2.95   6 3.02   2 3.02
  13  0.355  0.815  1.000-  10 2.95   9 3.02   4 3.02
  14  0.720  0.720  0.442-  10 2.91
  15  0.645  0.185  0.000-  10 2.95   1 3.02   7 3.02
  16  0.814  0.646  0.000-  10 2.95   5 3.02   8 3.02
 
  LATTYP: Found a triclinic cell.
 ALAT       =     8.9311313994
 B/A-ratio  =     1.3489429812
 C/A-ratio  =     0.9991642712
 COS(alpha) =     0.0003642371
 COS(beta)  =     0.5446447401
 COS(gamma) =     0.6752536543
  
  Lattice vectors:
  
 A1 = (   2.1893370000,  -7.2650735300,  -4.7106919000)
 A2 = (   9.7674780400,  -7.0527069100,  -0.0071328800)
 A3 = (  -5.2135346900,  -7.2254127800,  -0.4942731900)


Analysis of symmetry for initial positions (statically):
=====================================================================
 Subroutine PRICEL returns:
 Original cell was already a primitive cell.
 

 Routine SETGRP: Setting up the symmetry group for a 
 triclinic supercell.


 Subroutine GETGRP returns: Found  2 space group operations
 (whereof  2 operations were pure point group operations)
 out of a pool of  2 trial point group operations.


The static configuration has the point symmetry S_2 .


Analysis of symmetry for dynamics (positions and initial velocities):
=====================================================================
 Subroutine PRICEL returns:
 Original cell was already a primitive cell.
 

 Routine SETGRP: Setting up the symmetry group for a 
 triclinic supercell.


 Subroutine GETGRP returns: Found  2 space group operations
 (whereof  2 operations were pure point group operations)
 out of a pool of  2 trial point group operations.


The dynamic configuration has the point symmetry S_2 .


 Subroutine INISYM returns: Found  2 space group operations
 (whereof  2 operations are pure point group operations),
 and found     1 'primitive' translations

 
 
 KPOINTS: pymatgen with grid density = 807 / numbe

Automatic generation of k-mesh.
Space group operators:
 irot       det(A)        alpha          n_x          n_y          n_z        tau_x        tau_y        tau_z
    1     1.000000     0.000000     1.000000     0.000000     0.000000     0.000000     0.000000     0.000000
    2    -1.000000     0.000000     1.000000     0.000000     0.000000     0.000000     0.000000     0.000000
 
 Subroutine IBZKPT returns following result:
 ===========================================
 
 Found     14 irreducible k-points:
 
 Following reciprocal coordinates:
            Coordinates               Weight
  0.000000  0.000000  0.000000      1.000000
  0.333333  0.000000 -0.000000      2.000000
  0.000000  0.333333 -0.000000      2.000000
  0.333333  0.333333 -0.000000      2.000000
 -0.333333  0.333333 -0.000000      2.000000
 -0.000000  0.000000  0.333333      2.000000
  0.333333  0.000000  0.333333      2.000000
 -0.333333  0.000000  0.333333      2.000000
  0.000000  0.333333  0.333333      2.000000
  0.333333  0.333333  0.333333      2.000000
 -0.333333  0.333333  0.333333      2.000000
 -0.000000 -0.333333  0.333333      2.000000
  0.333333 -0.333333  0.333333      2.000000
 -0.333333 -0.333333  0.333333      2.000000
 
 Following cartesian coordinates:
            Coordinates               Weight
  0.000000  0.000000  0.000000      1.000000
  0.044378  0.014199 -0.001273      2.000000
 -0.000495  0.046580 -0.001306      2.000000
  0.043884  0.060779 -0.002580      2.000000
 -0.044873  0.032381 -0.000033      2.000000
  0.020744  0.028692  0.036151      2.000000
  0.065123  0.042891  0.034878      2.000000
 -0.023634  0.014493  0.037424      2.000000
  0.020250  0.075272  0.034845      2.000000
  0.064628  0.089471  0.033571      2.000000
 -0.024129  0.061073  0.036118      2.000000
  0.021239 -0.017887  0.037457      2.000000
  0.065617 -0.003688  0.036184      2.000000
 -0.023140 -0.032086  0.038731      2.000000
 


--------------------------------------------------------------------------------------------------------




 Dimension of arrays:
   k-points           NKPTS =     14   k-points in BZ     NKDIM =     14   number of bands    NBANDS=     42
   number of dos      NEDOS =    301   number of ions     NIONS =     16
   non local maximal  LDIM  =      5   non local SUM 2l+1 LMDIM =     13
   total plane-waves  NPLWV =  51840
   max r-space proj   IRMAX =    955   max aug-charges    IRDMAX=   3544
   dimension x,y,z NGX =    36 NGY =   36 NGZ =   40
   dimension x,y,z NGXF=    60 NGYF=   60 NGZF=   64
   support grid    NGXF=    60 NGYF=   60 NGZF=   64
   ions per type =               9   1   6
   NGX,Y,Z   is equivalent  to a cutoff of   7.02,  7.03,  7.45 a.u.
   NGXF,Y,Z  is equivalent  to a cutoff of  11.71, 11.72, 11.92 a.u.

 SYSTEM =  CIS                                     
 POSCAR =  Li9 Sb1 Se6                             

 Startparameter for this run:
   NWRITE =      2    write-flag & timer
   PREC   = medium    normal or accurate (medium, high low for compatibility)
   ISTART =      0    job   : 0-new  1-cont  2-samecut
   ICHARG =      2    charge: 1-file 2-atom 10-const
   ISPIN  =      1    spin polarized calculation?
   LNONCOLLINEAR =      F non collinear calculations
   LSORBIT =      F    spin-orbit coupling
   INIWAV =      1    electr: 0-lowe 1-rand  2-diag
   LASPH  =      T    aspherical Exc in radial PAW
   METAGGA=      F    non-selfconsistent MetaGGA calc.

 Electronic Relaxation 1
   ENCUT  =  300.0 eV  22.05 Ry    4.70 a.u.  12.03 12.02 12.60*2*pi/ulx,y,z
   ENINI  =  300.0     initial cutoff
   ENAUG  =  446.8 eV  augmentation charge cutoff
   NELM   =     60;   NELMIN=  2; NELMDL= -5     # of ELM steps 
   EDIFF  = 0.1E-03   stopping-criterion for ELM
   LREAL  =      T    real-space projection
   NLSPLINE    = F    spline interpolate recip. space projectors
   LCOMPAT=      F    compatible to vasp.4.4
   GGA_COMPAT  = T    GGA compatible to vasp.4.4-vasp.4.6
   LMAXPAW     = -100 max onsite density
   LMAXMIX     =    4 max onsite mixed and CHGCAR
   VOSKOWN=      0    Vosko Wilk Nusair interpolation
   ROPT   =   -0.00200  -0.00200  -0.00200
 Ionic relaxation
   EDIFFG = -.5E-01   stopping-criterion for IOM
   NSW    =     99    number of steps for IOM
   NBLOCK =      1;   KBLOCK =     99    inner block; outer block 
   IBRION =      2    ionic relax: 0-MD 1-quasi-New 2-CG
   NFREE  =      1    steps in history (QN), initial steepest desc. (CG)
   ISIF   =      3    stress and relaxation
   IWAVPR =     11    prediction:  0-non 1-charg 2-wave 3-comb
   ISYM   =      2    0-nonsym 1-usesym 2-fastsym
   LCORR  =      T    Harris-Foulkes like correction to forces

   POTIM  = 0.1000    time-step for ionic-motion
   TEIN   =    0.0    initial temperature
   TEBEG  =    0.0;   TEEND  =   0.0 temperature during run
   SMASS  =  -3.00    Nose mass-parameter (am)
   estimated Nose-frequenzy (Omega)   =  0.10E-29 period in steps =****** mass=  -0.166E-26a.u.
   SCALEE = 1.0000    scale energy and forces
   NPACO  =    256;   APACO  = 16.0  distance and # of slots for P.C.
   PSTRESS=    0.0 pullay stress

  Mass of Ions in am
   POMASS =   7.01121.75 78.96
  Ionic Valenz
   ZVAL   =   1.00  5.00  6.00
  Atomic Wigner-Seitz radii
   RWIGS  =  -1.00 -1.00 -1.00
  virtual crystal weights 
   VCA    =   1.00  1.00  1.00
   NELECT =      50.0000    total number of electrons
   NUPDOWN=      -1.0000    fix difference up-down

 DOS related values:
   EMIN   =  10.00;   EMAX   =-10.00  energy-range for DOS
   EFERMI =   0.00
   ISMEAR =     0;   SIGMA  =   0.05  broadening in eV -4-tet -1-fermi 0-gaus

 Electronic relaxation 2 (details)
   IALGO  =     38    algorithm
   LDIAG  =      T    sub-space diagonalisation (order eigenvalues)
   LSUBROT=      F    optimize rotation matrix (better conditioning)
   TURBO    =      0    0=normal 1=particle mesh
   IRESTART =      0    0=no restart 2=restart with 2 vectors
   NREBOOT  =      0    no. of reboots
   NMIN     =      0    reboot dimension
   EREF     =   0.00    reference energy to select bands
   IMIX   =      4    mixing-type and parameters
     AMIX     =   0.40;   BMIX     =  1.00
     AMIX_MAG =   1.60;   BMIX_MAG =  1.00
     AMIN     =   0.10
     WC   =   100.;   INIMIX=   1;  MIXPRE=   1;  MAXMIX= -45

 Intra band minimization:
   WEIMIN = 0.0010     energy-eigenvalue tresh-hold
   EBREAK =  0.60E-06  absolut break condition
   DEPER  =   0.30     relativ break condition  

   TIME   =   0.40     timestep for ELM

  volume/ion in A,a.u.               =      29.86       201.54
  Fermi-wavevector in a.u.,A,eV,Ry     =   0.771445  1.457819  8.097195  0.595127
  Thomas-Fermi vector in A             =   1.872864
 
 Write flags
   LWAVE        =      F    write WAVECAR
   LDOWNSAMPLE  =      F    k-point downsampling of WAVECAR
   LCHARG       =      F    write CHGCAR
   LVTOT        =      F    write LOCPOT, total local potential
   LVHAR        =      F    write LOCPOT, Hartree potential only
   LELF         =      F    write electronic localiz. function (ELF)
   LORBIT       =     10    0 simple, 1 ext, 2 COOP (PROOUT), +10 PAW based schemes


 Dipole corrections
   LMONO  =      F    monopole corrections only (constant potential shift)
   LDIPOL =      F    correct potential (dipole corrections)
   IDIPOL =      0    1-x, 2-y, 3-z, 4-all directions 
   EPSILON=  1.0000000 bulk dielectric constant

 Exchange correlation treatment:
   GGA     =    --    GGA type
   LEXCH   =     8    internal setting for exchange type
   VOSKOWN=      0    Vosko Wilk Nusair interpolation
   LHFCALC =     F    Hartree Fock is set to
   LHFONE  =     F    Hartree Fock one center treatment
   AEXX    =    0.0000 exact exchange contribution

 Linear response parameters
   LEPSILON=     F    determine dielectric tensor
   LRPA    =     F    only Hartree local field effects (RPA)
   LNABLA  =     F    use nabla operator in PAW spheres
   LVEL    =     F    velocity operator in full k-point grid
   LINTERFAST=   F  fast interpolation
   KINTER  =     0    interpolate to denser k-point grid
   CSHIFT  =0.1000    complex shift for real part using Kramers Kronig
   OMEGAMAX=  -1.0    maximum frequency
   DEG_THRESHOLD= 0.2000000E-02 threshold for treating states as degnerate
   RTIME   =   -0.100 relaxation time in fs
  (WPLASMAI=    0.000 imaginary part of plasma frequency in eV, 0.658/RTIME)
   DFIELD  = 0.0000000 0.0000000 0.0000000 field for delta impulse in time
 
 Orbital magnetization related:
   ORBITALMAG=     F  switch on orbital magnetization
   LCHIMAG   =     F  perturbation theory with respect to B field
   DQ        =  0.001000  dq finite difference perturbation B field
   LLRAUG    =     F  two centre corrections for induced B field



--------------------------------------------------------------------------------------------------------


 conjugate gradient relaxation of ions
 charge density and potential will be updated during run
 non-spin polarized calculation
 Variant of blocked Davidson
 Davidson routine will perform the subspace rotation
 perform sub-space diagonalisation
    after iterative eigenvector-optimisation
 modified Broyden-mixing scheme, WC =      100.0
 initial mixing is a Kerker type mixing with AMIX =  0.4000 and BMIX =      1.0000
 Hartree-type preconditioning will be used
 using additional bands           17
 real space projection scheme for non local part
 use partial core corrections
 calculate Harris-corrections to forces 
   (improved forces if not selfconsistent)
 use gradient corrections 
 use of overlap-Matrix (Vanderbilt PP)
 Gauss-broadening in eV      SIGMA  =   0.05


--------------------------------------------------------------------------------------------------------


  energy-cutoff  :      300.00
  volume of cell :      477.84
      direct lattice vectors                 reciprocal lattice vectors
     7.402871690 -0.039660750 -4.216418710     0.133135451  0.042597096 -0.003819538
    -2.364606350  7.013046160 -4.209285830    -0.001483518  0.139738932 -0.003919070
     0.175269350  0.252027370  8.919977730     0.062232247  0.086077378  0.108453044

  length of vectors
     8.519522814  8.514239064  8.925258531     0.139836153  0.139801749  0.151803262


 
 k-points in units of 2pi/SCALE and weight: pymatgen with grid density = 807 / numbe
   0.00000000  0.00000000  0.00000000       0.037
   0.04437848  0.01419903 -0.00127318       0.074
  -0.00049451  0.04657964 -0.00130636       0.074
   0.04388398  0.06077868 -0.00257954       0.074
  -0.04487299  0.03238061 -0.00003318       0.074
   0.02074408  0.02869246  0.03615101       0.074
   0.06512257  0.04289149  0.03487784       0.074
  -0.02363440  0.01449343  0.03742419       0.074
   0.02024958  0.07527210  0.03484466       0.074
   0.06462806  0.08947114  0.03357148       0.074
  -0.02412891  0.06107307  0.03611784       0.074
   0.02123859 -0.01788718  0.03745737       0.074
   0.06561707 -0.00368815  0.03618419       0.074
  -0.02313990 -0.03208622  0.03873055       0.074
 
 k-points in reciprocal lattice and weights: pymatgen with grid density = 807 / numbe
   0.00000000  0.00000000  0.00000000       0.037
   0.33333333  0.00000000 -0.00000000       0.074
   0.00000000  0.33333333 -0.00000000       0.074
   0.33333333  0.33333333 -0.00000000       0.074
  -0.33333333  0.33333333 -0.00000000       0.074
  -0.00000000  0.00000000  0.33333333       0.074
   0.33333333  0.00000000  0.33333333       0.074
  -0.33333333  0.00000000  0.33333333       0.074
   0.00000000  0.33333333  0.33333333       0.074
   0.33333333  0.33333333  0.33333333       0.074
  -0.33333333  0.33333333  0.33333333       0.074
  -0.00000000 -0.33333333  0.33333333       0.074
   0.33333333 -0.33333333  0.33333333       0.074
  -0.33333333 -0.33333333  0.33333333       0.074
 
 position of ions in fractional coordinates (direct lattice) 
   0.99315651  0.51569040  0.30835219
   0.20720099  0.00635107  0.69171193
   0.00000000  0.00000000  0.00000000
   0.31509448  0.79233036  0.30787600
   0.48396808  0.68441975  0.69093477
   0.51603192  0.31558025  0.30906523
   0.68490552  0.20766964  0.69212400
   0.79279901  0.99364893  0.30828807
   0.00684349  0.48430960  0.69164781
   0.50000000  0.50000000  0.00000000
   0.27962759  0.27964126  0.55819657
   0.18550858  0.35420298  0.99985196
   0.35477974  0.81455249  0.99971218
   0.72037241  0.72035874  0.44180343
   0.64522026  0.18544751  0.00028782
   0.81449142  0.64579702  0.00014804
 
 position of ions in cartesian coordinates  (Angst):
   6.18685011  3.65488444 -3.60775732
   1.64010046  0.21065294  5.26967541
   0.00000000  0.00000000  0.00000000
   0.51301583  5.62174568 -1.91746815
   2.08547000  4.95480724  1.24159234
   3.12806469  2.27060554 -0.74731915
   4.70051886  1.60366710  2.41174134
   3.57343423  7.01475984 -4.77540222
  -0.97331542  3.57052834  4.10203051
   2.51913267  3.48669270 -4.21285227
   1.50664042  2.09072764  2.62298398
   0.71098900  2.72867450  6.64553378
   0.87551181  5.95037821  3.99282619
   3.70689427  5.13468514 -2.12871079
   4.33802288  1.27503457 -3.49855300
   4.50254569  4.49673828 -6.15126059
 


--------------------------------------------------------------------------------------------------------


 k-point  1 :   0.0000 0.0000 0.0000  plane waves:    5579
 k-point  2 :   0.3333 0.0000-0.0000  plane waves:    5640
 k-point  3 :   0.0000 0.3333-0.0000  plane waves:    5642
 k-point  4 :   0.3333 0.3333-0.0000  plane waves:    5654
 k-point  5 :  -0.3333 0.3333-0.0000  plane waves:    5657
 k-point  6 :  -0.0000 0.0000 0.3333  plane waves:    5596
 k-point  7 :   0.3333 0.0000 0.3333  plane waves:    5645
 k-point  8 :  -0.3333 0.0000 0.3333  plane waves:    5641
 k-point  9 :   0.0000 0.3333 0.3333  plane waves:    5644
 k-point 10 :   0.3333 0.3333 0.3333  plane waves:    5651
 k-point 11 :  -0.3333 0.3333 0.3333  plane waves:    5650
 k-point 12 :  -0.0000-0.3333 0.3333  plane waves:    5644
 k-point 13 :   0.3333-0.3333 0.3333  plane waves:    5653
 k-point 14 :  -0.3333-0.3333 0.3333  plane waves:    5657

 maximum and minimum number of plane-waves per node :      5657     5579

 maximum number of plane-waves:      5657
 maximum index in each direction: 
   IXMAX=   12   IYMAX=   12   IZMAX=   12
   IXMIN=  -12   IYMIN=  -12   IZMIN=  -12


 serial   3D FFT for wavefunctions
 parallel 3D FFT for charge:
    minimum data exchange during FFTs selected (reduces bandwidth)


 total amount of memory used by VASP MPI-rank0    39380. kBytes
=======================================================================

   base      :      30000. kBytes
   nonlr-proj:       1117. kBytes
   fftplans  :        879. kBytes
   grid      :       3351. kBytes
   one-center:        129. kBytes
   wavefun   :       3904. kBytes
 
     INWAV:  cpu time    0.0000: real time    0.0000
 Broyden mixing: mesh for mixing (old mesh)
   NGX = 25   NGY = 25   NGZ = 25
  (NGX  = 60   NGY  = 60   NGZ  = 64)
  gives a total of  15625 points

 initial charge density was supplied:
 charge density of overlapping atoms calculated
 number of electron      50.0000000 magnetization 
 keeping initial charge density in first step


--------------------------------------------------------------------------------------------------------


 Maximum index for non-local projection operator          887
 Maximum index for augmentation-charges          305 (set IRDMAX)


--------------------------------------------------------------------------------------------------------


 First call to EWALD:  gamma=   0.227
 Maximum number of real-space cells 3x 3x 3
 Maximum number of reciprocal cells 3x 3x 3

    FEWALD:  cpu time    0.0017: real time    0.0104


--------------------------------------- Iteration      1(   1)  ---------------------------------------


    POTLOK:  cpu time    0.0109: real time    0.0195
    SETDIJ:  cpu time    0.1213: real time    0.2202
     EDDAV:  cpu time    0.3480: real time    0.3511
       DOS:  cpu time    0.0004: real time    0.0004
    --------------------------------------------
      LOOP:  cpu time    0.4806: real time    0.5912

 eigenvalue-minimisations  :  1176
 total energy-change (2. order) : 0.1476115E+03  (-0.1200609E+04)
 number of electron      50.0000000 magnetization 
 augmentation part       50.0000000 magnetization 

 Free energy of the ion-electron system (eV)
  ---------------------------------------------------
  alpha Z        PSCENC =        37.70902954
  Ewald energy   TEWEN  =     -1248.27895205
  -Hartree energ DENC   =      -448.38680113
  -exchange      EXHF   =         0.00000000
  -V(xc)+E(xc)   XCENC  =       -91.48796785
  PAW double counting   =      1494.44577748    -1307.82147914
  entropy T*S    EENTRO =        -0.00367660
  eigenvalues    EBANDS =       -28.96233340
  atomic energy  EATOM  =      1740.39794420
  Solvation  Ediel_sol  =         0.00000000
  ---------------------------------------------------
  free energy    TOTEN  =       147.61154106 eV

  energy without entropy =      147.61521766  energy(sigma->0) =      147.61337936


--------------------------------------------------------------------------------------------------------




--------------------------------------- Iteration      1(   2)  ---------------------------------------


     EDDAV:  cpu time    0.5372: real time    0.5391
       DOS:  cpu time    0.0002: real time    0.0002
    --------------------------------------------
      LOOP:  cpu time    0.5374: real time    0.5393

 eigenvalue-minimisations  :  1624
 total energy-change (2. order) :-0.1809613E+03  (-0.1717655E+03)
 number of electron      50.0000000 magnetization 
 augmentation part       50.0000000 magnetization 

 Free energy of the ion-electron system (eV)
  ---------------------------------------------------
  alpha Z        PSCENC =        37.70902954
  Ewald energy   TEWEN  =     -1248.27895205
  -Hartree energ DENC   =      -448.38680113
  -exchange      EXHF   =         0.00000000
  -V(xc)+E(xc)   XCENC  =       -91.48796785
  PAW double counting   =      1494.44577748    -1307.82147914
  entropy T*S    EENTRO =        -0.00000000
  eigenvalues    EBANDS =      -209.92729138
  atomic energy  EATOM  =      1740.39794420
  Solvation  Ediel_sol  =         0.00000000
  ---------------------------------------------------
  free energy    TOTEN  =       -33.34974032 eV

  energy without entropy =      -33.34974032  energy(sigma->0) =      -33.34974032


--------------------------------------------------------------------------------------------------------




--------------------------------------- Iteration      1(   3)  ---------------------------------------


     EDDAV:  cpu time    0.4443: real time    0.4495
       DOS:  cpu time    0.0002: real time    0.0002
    --------------------------------------------
      LOOP:  cpu time    0.4445: real time    0.4497

 eigenvalue-minimisations  :  1568
 total energy-change (2. order) :-0.2040486E+02  (-0.2026103E+02)
 number of electron      50.0000000 magnetization 
 augmentation part       50.0000000 magnetization 

 Free energy of the ion-electron system (eV)
  ---------------------------------------------------
  alpha Z        PSCENC =        37.70902954
  Ewald energy   TEWEN  =     -1248.27895205
  -Hartree energ DENC   =      -448.38680113
  -exchange      EXHF   =         0.00000000
  -V(xc)+E(xc)   XCENC  =       -91.48796785
  PAW double counting   =      1494.44577748    -1307.82147914
  entropy T*S    EENTRO =        -0.00000000
  eigenvalues    EBANDS =      -230.33215249
  atomic energy  EATOM  =      1740.39794420
  Solvation  Ediel_sol  =         0.00000000
  ---------------------------------------------------
  free energy    TOTEN  =       -53.75460143 eV

  energy without entropy =      -53.75460143  energy(sigma->0) =      -53.75460143


--------------------------------------------------------------------------------------------------------




--------------------------------------- Iteration      1(   4)  ---------------------------------------


     EDDAV:  cpu time    0.5388: real time    0.5399
       DOS:  cpu time    0.0002: real time    0.0002
    --------------------------------------------
      LOOP:  cpu time    0.5390: real time    0.5401

 eigenvalue-minimisations  :  1470
 total energy-change (2. order) :-0.3216811E+00  (-0.3214933E+00)
 number of electron      50.0000000 magnetization 
 augmentation part       50.0000000 magnetization 

 Free energy of the ion-electron system (eV)
  ---------------------------------------------------
  alpha Z        PSCENC =        37.70902954
  Ewald energy   TEWEN  =     -1248.27895205
  -Hartree energ DENC   =      -448.38680113
  -exchange      EXHF   =         0.00000000
  -V(xc)+E(xc)   XCENC  =       -91.48796785
  PAW double counting   =      1494.44577748    -1307.82147914
  entropy T*S    EENTRO =        -0.00000000
  eigenvalues    EBANDS =      -230.65383356
  atomic energy  EATOM  =      1740.39794420
  Solvation  Ediel_sol  =         0.00000000
  ---------------------------------------------------
  free energy    TOTEN  =       -54.07628250 eV

  energy without entropy =      -54.07628250  energy(sigma->0) =      -54.07628250


--------------------------------------------------------------------------------------------------------




--------------------------------------- Iteration      1(   5)  ---------------------------------------


     EDDAV:  cpu time    0.5170: real time    0.5173
       DOS:  cpu time    0.0002: real time    0.0002
    CHARGE:  cpu time    0.0183: real time    0.0184
    MIXING:  cpu time    0.0005: real time    0.0006
    --------------------------------------------
      LOOP:  cpu time    0.5360: real time    0.5365

 eigenvalue-minimisations  :  1652
 total energy-change (2. order) :-0.4844809E-02  (-0.4844109E-02)
 number of electron      49.9999976 magnetization 
 augmentation part       -7.8537154 magnetization 

 Broyden mixing:
  rms(total) = 0.66468E+00    rms(broyden)= 0.66466E+00
  rms(prec ) = 0.14904E+01
  weight for this iteration     100.00

 Free energy of the ion-electron system (eV)
  ---------------------------------------------------
  alpha Z        PSCENC =        37.70902954
  Ewald energy   TEWEN  =     -1248.27895205
  -Hartree energ DENC   =      -448.38680113
  -exchange      EXHF   =         0.00000000
  -V(xc)+E(xc)   XCENC  =       -91.48796785
  PAW double counting   =      1494.44577748    -1307.82147914
  entropy T*S    EENTRO =        -0.00000000
  eigenvalues    EBANDS =      -230.65867837
  atomic energy  EATOM  =      1740.39794420
  Solvation  Ediel_sol  =         0.00000000
  ---------------------------------------------------
  free energy    TOTEN  =       -54.08112731 eV

  energy without entropy =      -54.08112731  energy(sigma->0) =      -54.08112731


--------------------------------------------------------------------------------------------------------




--------------------------------------- Iteration      1(   6)  ---------------------------------------


    POTLOK:  cpu time    0.0089: real time    0.0090
    SETDIJ:  cpu time    0.1629: real time    0.1629
     EDDAV:  cpu time    0.5146: real time    0.5148
       DOS:  cpu time    0.0002: real time    0.0002
    CHARGE:  cpu time    0.0183: real time    0.0183
    MIXING:  cpu time    0.0007: real time    0.0007
    --------------------------------------------
      LOOP:  cpu time    0.7056: real time    0.7059

 eigenvalue-minimisations  :  1484
 total energy-change (2. order) : 0.2845165E+01  (-0.5201253E+00)
 number of electron      49.9999978 magnetization 
 augmentation part       -7.5578214 magnetization 

 Broyden mixing:
  rms(total) = 0.37538E+00    rms(broyden)= 0.37538E+00
  rms(prec ) = 0.65015E+00
  weight for this iteration     100.00

 eigenvalues of (default mixing * dielectric matrix)
  average eigenvalue GAMMA=   1.2434
  1.2434

 Free energy of the ion-electron system (eV)
  ---------------------------------------------------
  alpha Z        PSCENC =        37.70902954
  Ewald energy   TEWEN  =     -1248.27895205
  -Hartree energ DENC   =      -478.60064254
  -exchange      EXHF   =         0.00000000
  -V(xc)+E(xc)   XCENC  =       -89.40178699
  PAW double counting   =      1771.04372462    -1584.91806199
  entropy T*S    EENTRO =        -0.00000001
  eigenvalues    EBANDS =      -199.18721720
  atomic energy  EATOM  =      1740.39794420
  Solvation  Ediel_sol  =         0.00000000
  ---------------------------------------------------
  free energy    TOTEN  =       -51.23596242 eV

  energy without entropy =      -51.23596241  energy(sigma->0) =      -51.23596242


--------------------------------------------------------------------------------------------------------




--------------------------------------- Iteration      1(   7)  ---------------------------------------


    POTLOK:  cpu time    0.0088: real time    0.0113
    SETDIJ:  cpu time    0.1597: real time    0.1617
     EDDAV:  cpu time    0.5095: real time    0.5106
       DOS:  cpu time    0.0007: real time    0.0007
    CHARGE:  cpu time    0.0191: real time    0.0191
    MIXING:  cpu time    0.0007: real time    0.0007
    --------------------------------------------
      LOOP:  cpu time    0.6984: real time    0.7041

 eigenvalue-minimisations  :  1568
 total energy-change (2. order) : 0.3053540E+00  (-0.9807448E-01)
 number of electron      49.9999978 magnetization 
 augmentation part       -7.4666751 magnetization 

 Broyden mixing:
  rms(total) = 0.18494E+00    rms(broyden)= 0.18494E+00
  rms(prec ) = 0.28508E+00
  weight for this iteration     100.00

 eigenvalues of (default mixing * dielectric matrix)
  average eigenvalue GAMMA=   1.3748
  1.3748  1.3748

 Free energy of the ion-electron system (eV)
  ---------------------------------------------------
  alpha Z        PSCENC =        37.70902954
  Ewald energy   TEWEN  =     -1248.27895205
  -Hartree energ DENC   =      -491.16287211
  -exchange      EXHF   =         0.00000000
  -V(xc)+E(xc)   XCENC  =       -88.41223908
  PAW double counting   =      2025.96690973    -1839.96167057
  entropy T*S    EENTRO =        -0.00135390
  eigenvalues    EBANDS =      -187.18740417
  atomic energy  EATOM  =      1740.39794420
  Solvation  Ediel_sol  =         0.00000000
  ---------------------------------------------------
  free energy    TOTEN  =       -50.93060841 eV

  energy without entropy =      -50.92925451  energy(sigma->0) =      -50.92993146


--------------------------------------------------------------------------------------------------------




--------------------------------------- Iteration      1(   8)  ---------------------------------------


    POTLOK:  cpu time    0.0102: real time    0.0104
    SETDIJ:  cpu time    0.1646: real time    0.1646
     EDDAV:  cpu time    0.4639: real time    0.4662
       DOS:  cpu time    0.0003: real time    0.0003
    CHARGE:  cpu time    0.0163: real time    0.0176
    MIXING:  cpu time    0.0004: real time    0.0004
    --------------------------------------------
      LOOP:  cpu time    0.6557: real time    0.6596

 eigenvalue-minimisations  :  1596
 total energy-change (2. order) : 0.3222583E-01  (-0.6823577E-02)
 number of electron      49.9999978 magnetization 
 augmentation part       -7.4800966 magnetization 

 Broyden mixing:
  rms(total) = 0.62248E-01    rms(broyden)= 0.62248E-01
  rms(prec ) = 0.11335E+00
  weight for this iteration     100.00

 eigenvalues of (default mixing * dielectric matrix)
  average eigenvalue GAMMA=   1.5521
  1.1878  1.1878  2.2807

 Free energy of the ion-electron system (eV)
  ---------------------------------------------------
  alpha Z        PSCENC =        37.70902954
  Ewald energy   TEWEN  =     -1248.27895205
  -Hartree energ DENC   =      -492.25063889
  -exchange      EXHF   =         0.00000000
  -V(xc)+E(xc)   XCENC  =       -88.17360684
  PAW double counting   =      2124.45536960    -1938.38765391
  entropy T*S    EENTRO =        -0.00281090
  eigenvalues    EBANDS =      -186.36706333
  atomic energy  EATOM  =      1740.39794420
  Solvation  Ediel_sol  =         0.00000000
  ---------------------------------------------------
  free energy    TOTEN  =       -50.89838258 eV

  energy without entropy =      -50.89557168  energy(sigma->0) =      -50.89697713


--------------------------------------------------------------------------------------------------------




--------------------------------------- Iteration      1(   9)  ---------------------------------------


    POTLOK:  cpu time    0.0087: real time    0.0094
    SETDIJ:  cpu time    0.1638: real time    0.1642
     EDDAV:  cpu time    0.4763: real time    0.4801
       DOS:  cpu time    0.0003: real time    0.0003
    CHARGE:  cpu time    0.0161: real time    0.0161
    MIXING:  cpu time    0.0005: real time    0.0005
    --------------------------------------------
      LOOP:  cpu time    0.6657: real time    0.6706

 eigenvalue-minimisations  :  1568
 total energy-change (2. order) : 0.2342407E-02  (-0.2561964E-02)
 number of electron      49.9999978 magnetization 
 augmentation part       -7.4859881 magnetization 

 Broyden mixing:
  rms(total) = 0.30729E-01    rms(broyden)= 0.30729E-01
  rms(prec ) = 0.35817E-01
  weight for this iteration     100.00

 eigenvalues of (default mixing * dielectric matrix)
  average eigenvalue GAMMA=   1.5950
  2.0617  2.0617  1.1282  1.1282

 Free energy of the ion-electron system (eV)
  ---------------------------------------------------
  alpha Z        PSCENC =        37.70902954
  Ewald energy   TEWEN  =     -1248.27895205
  -Hartree energ DENC   =      -493.72634715
  -exchange      EXHF   =         0.00000000
  -V(xc)+E(xc)   XCENC  =       -87.96836419
  PAW double counting   =      2161.41923912    -1975.31581173
  entropy T*S    EENTRO =        -0.00344282
  eigenvalues    EBANDS =      -185.12933510
  atomic energy  EATOM  =      1740.39794420
  Solvation  Ediel_sol  =         0.00000000
  ---------------------------------------------------
  free energy    TOTEN  =       -50.89604017 eV

  energy without entropy =      -50.89259735  energy(sigma->0) =      -50.89431876


--------------------------------------------------------------------------------------------------------




--------------------------------------- Iteration      1(  10)  ---------------------------------------


    POTLOK:  cpu time    0.0078: real time    0.0079
    SETDIJ:  cpu time    0.1624: real time    0.1625
     EDDAV:  cpu time    0.4627: real time    0.4628
       DOS:  cpu time    0.0004: real time    0.0004
    CHARGE:  cpu time    0.0166: real time    0.0166
    MIXING:  cpu time    0.0005: real time    0.0005
    --------------------------------------------
      LOOP:  cpu time    0.6503: real time    0.6507

 eigenvalue-minimisations  :  1456
 total energy-change (2. order) :-0.8137980E-03  (-0.1336167E-03)
 number of electron      49.9999978 magnetization 
 augmentation part       -7.4869572 magnetization 

 Broyden mixing:
  rms(total) = 0.91578E-02    rms(broyden)= 0.91578E-02
  rms(prec ) = 0.17239E-01
  weight for this iteration     100.00

 eigenvalues of (default mixing * dielectric matrix)
  average eigenvalue GAMMA=   1.7480
  2.9326  2.4834  1.1801  1.1801  0.9638

 Free energy of the ion-electron system (eV)
  ---------------------------------------------------
  alpha Z        PSCENC =        37.70902954
  Ewald energy   TEWEN  =     -1248.27895205
  -Hartree energ DENC   =      -493.54807726
  -exchange      EXHF   =         0.00000000
  -V(xc)+E(xc)   XCENC  =       -88.00013312
  PAW double counting   =      2125.40967043    -1939.29135555
  entropy T*S    EENTRO =        -0.00335634
  eigenvalues    EBANDS =      -185.29162383
  atomic energy  EATOM  =      1740.39794420
  Solvation  Ediel_sol  =         0.00000000
  ---------------------------------------------------
  free energy    TOTEN  =       -50.89685397 eV

  energy without entropy =      -50.89349763  energy(sigma->0) =      -50.89517580


--------------------------------------------------------------------------------------------------------




--------------------------------------- Iteration      1(  11)  ---------------------------------------


    POTLOK:  cpu time    0.0082: real time    0.0083
    SETDIJ:  cpu time    0.1612: real time    0.1612
     EDDAV:  cpu time    0.5307: real time    0.5360
       DOS:  cpu time    0.0004: real time    0.0004
    CHARGE:  cpu time    0.0194: real time    0.0194
    MIXING:  cpu time    0.0006: real time    0.0006
    --------------------------------------------
      LOOP:  cpu time    0.7205: real time    0.7260

 eigenvalue-minimisations  :  1568
 total energy-change (2. order) :-0.2375776E-03  (-0.1062673E-03)
 number of electron      49.9999977 magnetization 
 augmentation part       -7.4889086 magnetization 

 Broyden mixing:
  rms(total) = 0.30289E-02    rms(broyden)= 0.30289E-02
  rms(prec ) = 0.41325E-02
  weight for this iteration     100.00

 eigenvalues of (default mixing * dielectric matrix)
  average eigenvalue GAMMA=   1.6543
  3.1373  2.1673  1.4830  1.1676  1.1676  0.8029

 Free energy of the ion-electron system (eV)
  ---------------------------------------------------
  alpha Z        PSCENC =        37.70902954
  Ewald energy   TEWEN  =     -1248.27895205
  -Hartree energ DENC   =      -493.67253585
  -exchange      EXHF   =         0.00000000
  -V(xc)+E(xc)   XCENC  =       -87.98903562
  PAW double counting   =      2114.81441880    -1928.68304513
  entropy T*S    EENTRO =        -0.00339876
  eigenvalues    EBANDS =      -185.19151669
  atomic energy  EATOM  =      1740.39794420
  Solvation  Ediel_sol  =         0.00000000
  ---------------------------------------------------
  free energy    TOTEN  =       -50.89709155 eV

  energy without entropy =      -50.89369279  energy(sigma->0) =      -50.89539217


--------------------------------------------------------------------------------------------------------




--------------------------------------- Iteration      1(  12)  ---------------------------------------


    POTLOK:  cpu time    0.0085: real time    0.0093
    SETDIJ:  cpu time    0.1625: real time    0.1625
     EDDAV:  cpu time    0.3709: real time    0.3709
       DOS:  cpu time    0.0003: real time    0.0003
    --------------------------------------------
      LOOP:  cpu time    0.5421: real time    0.5429

 eigenvalue-minimisations  :  1162
 total energy-change (2. order) :-0.8378875E-05  (-0.6868526E-05)
 number of electron      49.9999977 magnetization 
 augmentation part       -7.4889086 magnetization 

 Free energy of the ion-electron system (eV)
  ---------------------------------------------------
  alpha Z        PSCENC =        37.70902954
  Ewald energy   TEWEN  =     -1248.27895205
  -Hartree energ DENC   =      -493.75856856
  -exchange      EXHF   =         0.00000000
  -V(xc)+E(xc)   XCENC  =       -87.98588906
  PAW double counting   =      2114.50139460    -1928.37114174
  entropy T*S    EENTRO =        -0.00342425
  eigenvalues    EBANDS =      -185.10749261
  atomic energy  EATOM  =      1740.39794420
  Solvation  Ediel_sol  =         0.00000000
  ---------------------------------------------------
  free energy    TOTEN  =       -50.89709993 eV

  energy without entropy =      -50.89367568  energy(sigma->0) =      -50.89538780


--------------------------------------------------------------------------------------------------------




 average (electrostatic) potential at core
  the test charge radii are     0.9748  1.1712  1.0808
  (the norm of the test charge is              1.0000)
       1 -31.2927       2 -31.2953       3 -31.3196       4 -31.2913       5 -31.2870
       6 -31.2870       7 -31.2913       8 -31.2953       9 -31.2927      10 -92.4186
      11 -56.8652      12 -56.5743      13 -56.5729      14 -56.8652      15 -56.5729
      16 -56.5743
 
 
 
 E-fermi :   0.5747     XC(G=0):  -6.9709     alpha+bet : -6.2116


 k-point     1 :       0.0000    0.0000    0.0000
  band No.  band energies     occupation 
      1     -11.5334      2.00000
      2     -11.0241      2.00000
      3     -10.7722      2.00000
      4     -10.7348      2.00000
      5     -10.7321      2.00000
      6     -10.6587      2.00000
      7      -7.6380      2.00000
      8      -2.7535      2.00000
      9      -2.5978      2.00000
     10      -2.5965      2.00000
     11      -1.9046      2.00000
     12      -1.9023      2.00000
     13      -1.8313      2.00000
     14      -1.1910      2.00000
     15      -0.7866      2.00000
     16      -0.7669      2.00000
     17      -0.7667      2.00000
     18      -0.6464      2.00000
     19      -0.4040      2.00000
     20      -0.3094      2.00000
     21      -0.2788      2.00000
     22      -0.0647      2.00000
     23      -0.0613      2.00000
     24      -0.0442      2.00000
     25      -0.0430      2.00000
     26       0.5670      1.17175
     27       1.5552      0.00000
     28       2.4097      0.00000
     29       2.7593      0.00000
     30       2.7642      0.00000
     31       2.9197      0.00000
     32       3.7301      0.00000
     33       3.7366      0.00000
     34       3.8476      0.00000
     35       4.5288      0.00000
     36       4.5335      0.00000
     37       4.5715      0.00000
     38       4.8451      0.00000
     39       4.9792      0.00000
     40       5.2088      0.00000
     41       5.4736      0.00000
     42       5.4979      0.00000

 k-point     2 :       0.3333    0.0000   -0.0000
  band No.  band energies     occupation 
      1     -11.5025      2.00000
      2     -11.0292      2.00000
      3     -10.8238      2.00000
      4     -10.7654      2.00000
      5     -10.7273      2.00000
      6     -10.6252      2.00000
      7      -7.6001      2.00000
      8      -2.7322      2.00000
      9      -2.6124      2.00000
     10      -2.5097      2.00000
     11      -1.9268      2.00000
     12      -1.7661      2.00000
     13      -1.5966      2.00000
     14      -1.3263      2.00000
     15      -1.1294      2.00000
     16      -0.9501      2.00000
     17      -0.7624      2.00000
     18      -0.6991      2.00000
     19      -0.5177      2.00000
     20      -0.4861      2.00000
     21      -0.3090      2.00000
     22      -0.2052      2.00000
     23      -0.1404      2.00000
     24      -0.0855      2.00000
     25       0.3955      2.00000
     26       0.9610      0.00000
     27       1.4276      0.00000
     28       2.3076      0.00000
     29       2.8641      0.00000
     30       3.0273      0.00000
     31       3.1801      0.00000
     32       3.3363      0.00000
     33       3.5612      0.00000
     34       3.8830      0.00000
     35       4.2139      0.00000
     36       4.5813      0.00000
     37       4.6619      0.00000
     38       4.8600      0.00000
     39       4.9757      0.00000
     40       5.1756      0.00000
     41       5.2692      0.00000
     42       5.3895      0.00000

 k-point     3 :       0.0000    0.3333   -0.0000
  band No.  band energies     occupation 
      1     -11.5023      2.00000
      2     -11.0292      2.00000
      3     -10.8239      2.00000
      4     -10.7650      2.00000
      5     -10.7294      2.00000
      6     -10.6240      2.00000
      7      -7.5997      2.00000
      8      -2.7317      2.00000
      9      -2.6134      2.00000
     10      -2.5097      2.00000
     11      -1.9264      2.00000
     12      -1.7676      2.00000
     13      -1.5959      2.00000
     14      -1.3238      2.00000
     15      -1.1311      2.00000
     16      -0.9529      2.00000
     17      -0.7632      2.00000
     18      -0.7021      2.00000
     19      -0.5148      2.00000
     20      -0.4831      2.00000
     21      -0.3124      2.00000
     22      -0.2038      2.00000
     23      -0.1444      2.00000
     24      -0.0822      2.00000
     25       0.3983      2.00000
     26       0.9614      0.00000
     27       1.4296      0.00000
     28       2.3053      0.00000
     29       2.8653      0.00000
     30       3.0320      0.00000
     31       3.1813      0.00000
     32       3.3366      0.00000
     33       3.5592      0.00000
     34       3.8826      0.00000
     35       4.2123      0.00000
     36       4.5855      0.00000
     37       4.6643      0.00000
     38       4.8585      0.00000
     39       4.9769      0.00000
     40       5.1751      0.00000
     41       5.2721      0.00000
     42       5.3927      0.00000

 k-point     4 :       0.3333    0.3333   -0.0000
  band No.  band energies     occupation 
      1     -11.4766      2.00000
      2     -11.0311      2.00000
      3     -10.8337      2.00000
      4     -10.8197      2.00000
      5     -10.7204      2.00000
      6     -10.6066      2.00000
      7      -7.5688      2.00000
      8      -2.6795      2.00000
      9      -2.5413      2.00000
     10      -2.5356      2.00000
     11      -2.0024      2.00000
     12      -1.8019      2.00000
     13      -1.4625      2.00000
     14      -1.2007      2.00000
     15      -1.0993      2.00000
     16      -1.0063      2.00000
     17      -0.9896      2.00000
     18      -0.8760      2.00000
     19      -0.5934      2.00000
     20      -0.5214      2.00000
     21      -0.4251      2.00000
     22      -0.2704      2.00000
     23      -0.1585      2.00000
     24       0.1310      2.00000
     25       0.4207      1.99999
     26       1.3783      0.00000
     27       1.4358      0.00000
     28       2.3207      0.00000
     29       2.5300      0.00000
     30       2.8091      0.00000
     31       3.0640      0.00000
     32       3.4572      0.00000
     33       3.7606      0.00000
     34       4.1283      0.00000
     35       4.1833      0.00000
     36       4.3960      0.00000
     37       4.5801      0.00000
     38       4.8095      0.00000
     39       4.8902      0.00000
     40       5.1542      0.00000
     41       5.2281      0.00000
     42       5.4185      0.00000

 k-point     5 :      -0.3333    0.3333   -0.0000
  band No.  band energies     occupation 
      1     -11.4844      2.00000
      2     -11.0280      2.00000
      3     -10.8228      2.00000
      4     -10.8188      2.00000
      5     -10.7241      2.00000
      6     -10.6057      2.00000
      7      -7.5773      2.00000
      8      -2.6663      2.00000
      9      -2.6037      2.00000
     10      -2.5376      2.00000
     11      -2.1269      2.00000
     12      -1.6010      2.00000
     13      -1.4181      2.00000
     14      -1.3319      2.00000
     15      -1.2214      2.00000
     16      -1.0291      2.00000
     17      -0.9941      2.00000
     18      -0.6096      2.00000
     19      -0.5754      2.00000
     20      -0.4514      2.00000
     21      -0.4339      2.00000
     22      -0.1744      2.00000
     23      -0.1341      2.00000
     24       0.0959      2.00000
     25       0.3619      2.00000
     26       1.1074      0.00000
     27       1.6023      0.00000
     28       2.3842      0.00000
     29       2.6444      0.00000
     30       2.8427      0.00000
     31       2.9735      0.00000
     32       3.2783      0.00000
     33       3.7551      0.00000
     34       3.8646      0.00000
     35       4.0664      0.00000
     36       4.3868      0.00000
     37       4.7279      0.00000
     38       4.8540      0.00000
     39       4.9675      0.00000
     40       5.1286      0.00000
     41       5.2952      0.00000
     42       5.5046      0.00000

 k-point     6 :      -0.0000    0.0000    0.3333
  band No.  band energies     occupation 
      1     -11.5075      2.00000
      2     -11.0321      2.00000
      3     -10.8055      2.00000
      4     -10.7358      2.00000
      5     -10.7331      2.00000
      6     -10.6591      2.00000
      7      -7.6036      2.00000
      8      -2.6271      2.00000
      9      -2.5734      2.00000
     10      -2.5721      2.00000
     11      -1.8652      2.00000
     12      -1.6124      2.00000
     13      -1.6108      2.00000
     14      -1.4424      2.00000
     15      -1.0437      2.00000
     16      -1.0430      2.00000
     17      -1.0063      2.00000
     18      -0.9312      2.00000
     19      -0.5632      2.00000
     20      -0.3026      2.00000
     21      -0.3001      2.00000
     22      -0.2781      2.00000
     23      -0.0598      2.00000
     24      -0.0561      2.00000
     25       0.3827      2.00000
     26       1.0237      0.00000
     27       1.1709      0.00000
     28       2.7831      0.00000
     29       2.7888      0.00000
     30       2.7941      0.00000
     31       3.5337      0.00000
     32       3.7189      0.00000
     33       3.7222      0.00000
     34       3.8734      0.00000
     35       4.1218      0.00000
     36       4.4434      0.00000
     37       4.4485      0.00000
     38       4.6047      0.00000
     39       4.6099      0.00000
     40       5.2065      0.00000
     41       5.2346      0.00000
     42       5.6740      0.00000

 k-point     7 :       0.3333    0.0000    0.3333
  band No.  band energies     occupation 
      1     -11.4883      2.00000
      2     -11.0320      2.00000
      3     -10.8436      2.00000
      4     -10.7657      2.00000
      5     -10.7279      2.00000
      6     -10.6247      2.00000
      7      -7.5827      2.00000
      8      -2.6269      2.00000
      9      -2.6062      2.00000
     10      -2.5238      2.00000
     11      -1.8958      2.00000
     12      -1.6999      2.00000
     13      -1.5844      2.00000
     14      -1.2529      2.00000
     15      -1.0532      2.00000
     16      -1.0080      2.00000
     17      -0.9539      2.00000
     18      -0.8564      2.00000
     19      -0.8062      2.00000
     20      -0.4719      2.00000
     21      -0.4236      2.00000
     22      -0.2540      2.00000
     23      -0.1491      2.00000
     24      -0.0334      2.00000
     25       0.5367      1.71779
     26       1.1197      0.00000
     27       1.4932      0.00000
     28       2.5539      0.00000
     29       2.8268      0.00000
     30       2.8822      0.00000
     31       3.2119      0.00000
     32       3.4884      0.00000
     33       3.5965      0.00000
     34       3.6925      0.00000
     35       4.0182      0.00000
     36       4.5885      0.00000
     37       4.7072      0.00000
     38       4.8120      0.00000
     39       5.0110      0.00000
     40       5.0808      0.00000
     41       5.2602      0.00000
     42       5.2747      0.00000

 k-point     8 :      -0.3333    0.0000    0.3333
  band No.  band energies     occupation 
      1     -11.5025      2.00000
      2     -11.0295      2.00000
      3     -10.8235      2.00000
      4     -10.7653      2.00000
      5     -10.7274      2.00000
      6     -10.6253      2.00000
      7      -7.6000      2.00000
      8      -2.7321      2.00000
      9      -2.6129      2.00000
     10      -2.5088      2.00000
     11      -1.9271      2.00000
     12      -1.7652      2.00000
     13      -1.5972      2.00000
     14      -1.3263      2.00000
     15      -1.1324      2.00000
     16      -0.9541      2.00000
     17      -0.7603      2.00000
     18      -0.7006      2.00000
     19      -0.5193      2.00000
     20      -0.4815      2.00000
     21      -0.3091      2.00000
     22      -0.2022      2.00000
     23      -0.1421      2.00000
     24      -0.0855      2.00000
     25       0.3970      2.00000
     26       0.9593      0.00000
     27       1.4299      0.00000
     28       2.3094      0.00000
     29       2.8636      0.00000
     30       3.0272      0.00000
     31       3.1780      0.00000
     32       3.3377      0.00000
     33       3.5594      0.00000
     34       3.8892      0.00000
     35       4.2194      0.00000
     36       4.5861      0.00000
     37       4.6609      0.00000
     38       4.8575      0.00000
     39       4.9737      0.00000
     40       5.1726      0.00000
     41       5.2708      0.00000
     42       5.3883      0.00000

 k-point     9 :       0.0000    0.3333    0.3333
  band No.  band energies     occupation 
      1     -11.4879      2.00000
      2     -11.0320      2.00000
      3     -10.8439      2.00000
      4     -10.7652      2.00000
      5     -10.7301      2.00000
      6     -10.6234      2.00000
      7      -7.5823      2.00000
      8      -2.6283      2.00000
      9      -2.6059      2.00000
     10      -2.5235      2.00000
     11      -1.8963      2.00000
     12      -1.6997      2.00000
     13      -1.5852      2.00000
     14      -1.2531      2.00000
     15      -1.0513      2.00000
     16      -1.0069      2.00000
     17      -0.9564      2.00000
     18      -0.8558      2.00000
     19      -0.8092      2.00000
     20      -0.4706      2.00000
     21      -0.4214      2.00000
     22      -0.2560      2.00000
     23      -0.1496      2.00000
     24      -0.0306      2.00000
     25       0.5383      1.69640
     26       1.1201      0.00000
     27       1.4930      0.00000
     28       2.5499      0.00000
     29       2.8303      0.00000
     30       2.8836      0.00000
     31       3.2114      0.00000
     32       3.4867      0.00000
     33       3.5975      0.00000
     34       3.6930      0.00000
     35       4.0172      0.00000
     36       4.5876      0.00000
     37       4.7110      0.00000
     38       4.8127      0.00000
     39       5.0079      0.00000
     40       5.0805      0.00000
     41       5.2584      0.00000
     42       5.2736      0.00000

 k-point    10 :       0.3333    0.3333    0.3333
  band No.  band energies     occupation 
      1     -11.4765      2.00000
      2     -11.0314      2.00000
      3     -10.8335      2.00000
      4     -10.8197      2.00000
      5     -10.7204      2.00000
      6     -10.6066      2.00000
      7      -7.5687      2.00000
      8      -2.6810      2.00000
      9      -2.5414      2.00000
     10      -2.5339      2.00000
     11      -2.0027      2.00000
     12      -1.8027      2.00000
     13      -1.4612      2.00000
     14      -1.2016      2.00000
     15      -1.0990      2.00000
     16      -1.0074      2.00000
     17      -0.9904      2.00000
     18      -0.8800      2.00000
     19      -0.5924      2.00000
     20      -0.5212      2.00000
     21      -0.4241      2.00000
     22      -0.2666      2.00000
     23      -0.1574      2.00000
     24       0.1312      2.00000
     25       0.4217      1.99998
     26       1.3773      0.00000
     27       1.4347      0.00000
     28       2.3204      0.00000
     29       2.5318      0.00000
     30       2.8105      0.00000
     31       3.0643      0.00000
     32       3.4508      0.00000
     33       3.7645      0.00000
     34       4.1280      0.00000
     35       4.1845      0.00000
     36       4.3920      0.00000
     37       4.5810      0.00000
     38       4.8147      0.00000
     39       4.8926      0.00000
     40       5.1559      0.00000
     41       5.2277      0.00000
     42       5.4155      0.00000

 k-point    11 :      -0.3333    0.3333    0.3333
  band No.  band energies     occupation 
      1     -11.4765      2.00000
      2     -11.0313      2.00000
      3     -10.8324      2.00000
      4     -10.8210      2.00000
      5     -10.7203      2.00000
      6     -10.6065      2.00000
      7      -7.5687      2.00000
      8      -2.6791      2.00000
      9      -2.5420      2.00000
     10      -2.5347      2.00000
     11      -2.0021      2.00000
     12      -1.8016      2.00000
     13      -1.4623      2.00000
     14      -1.1989      2.00000
     15      -1.1017      2.00000
     16      -1.0109      2.00000
     17      -0.9898      2.00000
     18      -0.8766      2.00000
     19      -0.5936      2.00000
     20      -0.5193      2.00000
     21      -0.4267      2.00000
     22      -0.2702      2.00000
     23      -0.1569      2.00000
     24       0.1314      2.00000
     25       0.4209      1.99999
     26       1.3800      0.00000
     27       1.4361      0.00000
     28       2.3219      0.00000
     29       2.5311      0.00000
     30       2.8062      0.00000
     31       3.0658      0.00000
     32       3.4579      0.00000
     33       3.7651      0.00000
     34       4.1294      0.00000
     35       4.1832      0.00000
     36       4.3940      0.00000
     37       4.5779      0.00000
     38       4.8127      0.00000
     39       4.8912      0.00000
     40       5.1510      0.00000
     41       5.2288      0.00000
     42       5.4157      0.00000

 k-point    12 :      -0.0000   -0.3333    0.3333
  band No.  band energies     occupation 
      1     -11.5021      2.00000
      2     -11.0296      2.00000
      3     -10.8237      2.00000
      4     -10.7652      2.00000
      5     -10.7292      2.00000
      6     -10.6240      2.00000
      7      -7.5995      2.00000
      8      -2.7335      2.00000
      9      -2.6125      2.00000
     10      -2.5091      2.00000
     11      -1.9277      2.00000
     12      -1.7665      2.00000
     13      -1.5950      2.00000
     14      -1.3277      2.00000
     15      -1.1341      2.00000
     16      -0.9533      2.00000
     17      -0.7616      2.00000
     18      -0.6985      2.00000
     19      -0.5155      2.00000
     20      -0.4827      2.00000
     21      -0.3107      2.00000
     22      -0.2039      2.00000
     23      -0.1414      2.00000
     24      -0.0810      2.00000
     25       0.3996      2.00000
     26       0.9599      0.00000
     27       1.4262      0.00000
     28       2.3069      0.00000
     29       2.8620      0.00000
     30       3.0306      0.00000
     31       3.1765      0.00000
     32       3.3383      0.00000
     33       3.5633      0.00000
     34       3.8869      0.00000
     35       4.2115      0.00000
     36       4.5870      0.00000
     37       4.6614      0.00000
     38       4.8543      0.00000
     39       4.9701      0.00000
     40       5.1714      0.00000
     41       5.2691      0.00000
     42       5.3900      0.00000

 k-point    13 :       0.3333   -0.3333    0.3333
  band No.  band energies     occupation 
      1     -11.4764      2.00000
      2     -11.0313      2.00000
      3     -10.8326      2.00000
      4     -10.8210      2.00000
      5     -10.7203      2.00000
      6     -10.6065      2.00000
      7      -7.5687      2.00000
      8      -2.6799      2.00000
      9      -2.5417      2.00000
     10      -2.5346      2.00000
     11      -2.0015      2.00000
     12      -1.8034      2.00000
     13      -1.4616      2.00000
     14      -1.1997      2.00000
     15      -1.1029      2.00000
     16      -1.0041      2.00000
     17      -0.9920      2.00000
     18      -0.8777      2.00000
     19      -0.5943      2.00000
     20      -0.5199      2.00000
     21      -0.4237      2.00000
     22      -0.2693      2.00000
     23      -0.1566      2.00000
     24       0.1315      2.00000
     25       0.4208      1.99999
     26       1.3752      0.00000
     27       1.4363      0.00000
     28       2.3216      0.00000
     29       2.5299      0.00000
     30       2.8115      0.00000
     31       3.0660      0.00000
     32       3.4521      0.00000
     33       3.7631      0.00000
     34       4.1261      0.00000
     35       4.1853      0.00000
     36       4.3936      0.00000
     37       4.5773      0.00000
     38       4.8114      0.00000
     39       4.8871      0.00000
     40       5.1563      0.00000
     41       5.2334      0.00000
     42       5.4160      0.00000

 k-point    14 :      -0.3333   -0.3333    0.3333
  band No.  band energies     occupation 
      1     -11.4843      2.00000
      2     -11.0280      2.00000
      3     -10.8236      2.00000
      4     -10.8179      2.00000
      5     -10.7249      2.00000
      6     -10.6052      2.00000
      7      -7.5772      2.00000
      8      -2.6658      2.00000
      9      -2.6041      2.00000
     10      -2.5367      2.00000
     11      -2.1259      2.00000
     12      -1.6019      2.00000
     13      -1.4191      2.00000
     14      -1.3308      2.00000
     15      -1.2208      2.00000
     16      -1.0325      2.00000
     17      -0.9942      2.00000
     18      -0.6095      2.00000
     19      -0.5742      2.00000
     20      -0.4538      2.00000
     21      -0.4354      2.00000
     22      -0.1739      2.00000
     23      -0.1340      2.00000
     24       0.0959      2.00000
     25       0.3643      2.00000
     26       1.1067      0.00000
     27       1.6031      0.00000
     28       2.3849      0.00000
     29       2.6467      0.00000
     30       2.8469      0.00000
     31       2.9690      0.00000
     32       3.2804      0.00000
     33       3.7538      0.00000
     34       3.8616      0.00000
     35       4.0663      0.00000
     36       4.3909      0.00000
     37       4.7309      0.00000
     38       4.8540      0.00000
     39       4.9654      0.00000
     40       5.1326      0.00000
     41       5.2939      0.00000
     42       5.4997      0.00000


--------------------------------------------------------------------------------------------------------


 soft charge-density along one line, spin component           1
         0         1         2         3         4         5         6         7         8         9
 total charge-density along one line
 
 pseudopotential strength for first ion, spin component:           1
  1.143   5.260   0.005   0.003   0.007
  5.260  22.987   0.017   0.011   0.023
  0.005   0.017  -0.523  -0.000   0.000
  0.003   0.011  -0.000  -0.523  -0.000
  0.007   0.023   0.000  -0.000  -0.523
 total augmentation occupancy for first ion, spin component:           1
  0.423  -0.005  -0.006  -0.008  -0.030
 -0.005   0.000   0.000   0.000   0.001
 -0.006   0.000   0.027  -0.002   0.003
 -0.008   0.000  -0.002   0.022  -0.001
 -0.030   0.001   0.003  -0.001   0.023


------------------------ aborting loop because EDIFF is reached ----------------------------------------


 


 total charge     
 
# of ion       s       p       d       tot
------------------------------------------
    1        0.044   0.052   0.000   0.096
    2        0.044   0.051   0.000   0.096
    3        0.034   0.035   0.000   0.069
    4        0.044   0.052   0.000   0.096
    5        0.044   0.052   0.000   0.096
    6        0.044   0.052   0.000   0.096
    7        0.044   0.052   0.000   0.096
    8        0.044   0.051   0.000   0.096
    9        0.044   0.052   0.000   0.096
   10        1.331   0.843   0.056   2.230
   11        1.460   2.270   0.007   3.737
   12        1.457   2.286   0.006   3.750
   13        1.457   2.286   0.006   3.750
   14        1.460   2.270   0.007   3.737
   15        1.457   2.286   0.006   3.750
   16        1.457   2.286   0.006   3.750
--------------------------------------------------
tot         10.469  14.976   0.095  25.540
 
    CHARGE:  cpu time    0.0167: real time    0.0167
    FORLOC:  cpu time    0.0013: real time    0.0013
    FORNL :  cpu time    0.0974: real time    0.0975
    STRESS:  cpu time    0.3647: real time    0.3647
    FORCOR:  cpu time    0.0085: real time    0.0085
    FORHAR:  cpu time    0.0026: real time    0.0026
    MIXING:  cpu time    0.0006: real time    0.0006
    OFIELD:  cpu time    0.0000: real time    0.0000

  FORCE on cell =-STRESS in cart. coord.  units (eV):
  Direction    XX          YY          ZZ          XY          YZ          ZX
  --------------------------------------------------------------------------------------
  Alpha Z    37.70903    37.70903    37.70903
  Ewald    -399.74055  -415.07849  -433.46262   -23.98191   -42.29316   -29.68363
  Hartree   179.88921   165.57381   148.23423   -22.29676   -39.12145   -27.63563
  E(xc)    -166.55531  -166.54565  -166.52476     0.01562     0.02787     0.02082
  Local    -427.90975  -397.56678  -360.83683    47.34527    83.30887    58.69921
  n-local   337.74466   337.57054   337.60981    -0.14395    -0.16871    -0.07400
  augment   -42.92704   -42.87042   -42.79770     0.08707     0.14749     0.10728
[...]
     24       1.3542      2.00000
     25       1.7577      2.00000
     26       4.3250      0.00000
     27       4.4074      0.00000
     28       4.6587      0.00000
     29       5.9370      0.00000
     30       6.0603      0.00000
     31       6.6801      0.00000
     32       6.8777      0.00000
     33       6.9696      0.00000
     34       7.3242      0.00000
     35       7.4642      0.00000
     36       7.8506      0.00000
     37       8.0853      0.00000
     38       8.4381      0.00000
     39       8.8785      0.00000
     40       8.9354      0.00000
     41       9.0783      0.00000
     42       9.2042      0.00000

 k-point    10 :       0.3333    0.3333    0.3333
  band No.  band energies     occupation 
      1     -10.0731      2.00000
      2      -9.6808      2.00000
      3      -9.5993      2.00000
      4      -9.4768      2.00000
      5      -9.3644      2.00000
      6      -9.2814      2.00000
      7      -6.2421      2.00000
      8      -1.7217      2.00000
      9      -1.3294      2.00000
     10      -1.2540      2.00000
     11      -0.7741      2.00000
     12      -0.4141      2.00000
     13      -0.3035      2.00000
     14      -0.0624      2.00000
     15      -0.0341      2.00000
     16       0.1468      2.00000
     17       0.4282      2.00000
     18       0.4521      2.00000
     19       0.7572      2.00000
     20       0.9225      2.00000
     21       0.9858      2.00000
     22       1.1060      2.00000
     23       1.1714      2.00000
     24       1.2629      2.00000
     25       1.8104      2.00000
     26       4.5142      0.00000
     27       4.5546      0.00000
     28       4.7844      0.00000
     29       6.2108      0.00000
     30       6.6664      0.00000
     31       6.7393      0.00000
     32       6.8486      0.00000
     33       7.2129      0.00000
     34       7.4138      0.00000
     35       7.5594      0.00000
     36       7.8083      0.00000
     37       8.1091      0.00000
     38       8.2960      0.00000
     39       8.4256      0.00000
     40       8.6439      0.00000
     41       8.9460      0.00000
     42       9.0450      0.00000

 k-point    11 :      -0.3333    0.3333    0.3333
  band No.  band energies     occupation 
      1     -10.0652      2.00000
      2      -9.6859      2.00000
      3      -9.5783      2.00000
      4      -9.4910      2.00000
      5      -9.3538      2.00000
      6      -9.3077      2.00000
      7      -6.2330      2.00000
      8      -1.6899      2.00000
      9      -1.3612      2.00000
     10      -1.3102      2.00000
     11      -0.7914      2.00000
     12      -0.3966      2.00000
     13      -0.3017      2.00000
     14      -0.0421      2.00000
     15       0.0041      2.00000
     16       0.1797      2.00000
     17       0.3829      2.00000
     18       0.5818      2.00000
     19       0.7680      2.00000
     20       0.8717      2.00000
     21       0.9386      2.00000
     22       1.0219      2.00000
     23       1.1808      2.00000
     24       1.2896      2.00000
     25       1.8657      2.00000
     26       4.4553      0.00000
     27       4.5671      0.00000
     28       4.7826      0.00000
     29       6.2756      0.00000
     30       6.5637      0.00000
     31       6.8020      0.00000
     32       6.8444      0.00000
     33       7.1595      0.00000
     34       7.4643      0.00000
     35       7.5591      0.00000
     36       7.8321      0.00000
     37       8.0676      0.00000
     38       8.1841      0.00000
     39       8.3538      0.00000
     40       8.7155      0.00000
     41       8.9258      0.00000
     42       9.1456      0.00000

 k-point    12 :      -0.0000   -0.3333    0.3333
  band No.  band energies     occupation 
      1     -10.1883      2.00000
      2      -9.6733      2.00000
      3      -9.4423      2.00000
      4      -9.4328      2.00000
      5      -9.3598      2.00000
      6      -9.3248      2.00000
      7      -6.3241      2.00000
      8      -1.9042      2.00000
      9      -1.5051      2.00000
     10      -1.2800      2.00000
     11      -0.7454      2.00000
     12      -0.6089      2.00000
     13      -0.0735      2.00000
     14      -0.0425      2.00000
     15      -0.0023      2.00000
     16       0.1698      2.00000
     17       0.3825      2.00000
     18       0.5573      2.00000
     19       0.7701      2.00000
     20       0.8780      2.00000
     21       1.1410      2.00000
     22       1.2836      2.00000
     23       1.4446      2.00000
     24       1.6609      2.00000
     25       1.7531      2.00000
     26       4.2135      0.00000
     27       4.4848      0.00000
     28       4.6295      0.00000
     29       6.0735      0.00000
     30       6.2966      0.00000
     31       6.7418      0.00000
     32       6.9280      0.00000
     33       7.1979      0.00000
     34       7.4865      0.00000
     35       7.5889      0.00000
     36       7.7403      0.00000
     37       8.1326      0.00000
     38       8.4406      0.00000
     39       8.5073      0.00000
     40       8.6687      0.00000
     41       8.8013      0.00000
     42       8.9975      0.00000

 k-point    13 :       0.3333   -0.3333    0.3333
  band No.  band energies     occupation 
      1     -10.0484      2.00000
      2      -9.6897      2.00000
      3      -9.5924      2.00000
      4      -9.4593      2.00000
      5      -9.3867      2.00000
      6      -9.3104      2.00000
      7      -6.2374      2.00000
      8      -1.6662      2.00000
      9      -1.3913      2.00000
     10      -1.3246      2.00000
     11      -0.6750      2.00000
     12      -0.5241      2.00000
     13      -0.4077      2.00000
     14      -0.2917      2.00000
     15       0.1371      2.00000
     16       0.3129      2.00000
     17       0.4103      2.00000
     18       0.5238      2.00000
     19       0.8698      2.00000
     20       0.9442      2.00000
     21       1.0866      2.00000
     22       1.1611      2.00000
     23       1.2775      2.00000
     24       1.3734      2.00000
     25       1.7569      2.00000
     26       4.1774      0.00000
     27       4.4822      0.00000
     28       4.7434      0.00000
     29       5.8810      0.00000
     30       6.0247      0.00000
     31       6.7232      0.00000
     32       6.8973      0.00000
     33       6.9851      0.00000
     34       7.4562      0.00000
     35       7.5070      0.00000
     36       7.7961      0.00000
     37       8.1187      0.00000
     38       8.4366      0.00000
     39       8.7621      0.00000
     40       8.9475      0.00000
     41       9.0491      0.00000
     42       9.2233      0.00000

 k-point    14 :      -0.3333   -0.3333    0.3333
  band No.  band energies     occupation 
      1     -10.1406      2.00000
      2      -9.5757      2.00000
      3      -9.5347      2.00000
      4      -9.4760      2.00000
      5      -9.4416      2.00000
      6      -9.2913      2.00000
      7      -6.2674      2.00000
      8      -1.5678      2.00000
      9      -1.4712      2.00000
     10      -1.4319      2.00000
     11      -0.8830      2.00000
     12      -0.4618      2.00000
     13      -0.3310      2.00000
     14      -0.2029      2.00000
     15       0.0557      2.00000
     16       0.1749      2.00000
     17       0.5076      2.00000
     18       0.6431      2.00000
     19       0.7822      2.00000
     20       0.8695      2.00000
     21       1.0950      2.00000
     22       1.1748      2.00000
     23       1.2529      2.00000
     24       1.4902      2.00000
     25       1.9505      2.00000
     26       4.1842      0.00000
     27       4.4098      0.00000
     28       4.8255      0.00000
     29       6.1735      0.00000
     30       6.3532      0.00000
     31       6.7584      0.00000
     32       6.9200      0.00000
     33       7.2158      0.00000
     34       7.4857      0.00000
     35       7.5612      0.00000
     36       7.9251      0.00000
     37       8.1042      0.00000
     38       8.3018      0.00000
     39       8.6669      0.00000
     40       8.7272      0.00000
     41       8.8916      0.00000
     42       8.9723      0.00000


--------------------------------------------------------------------------------------------------------


 soft charge-density along one line, spin component           1
         0         1         2         3         4         5         6         7         8         9
 total charge-density along one line
 
 pseudopotential strength for first ion, spin component:           1
  1.169   5.274   0.000   0.001   0.000
  5.274  22.703   0.000   0.002   0.001
  0.000   0.000  -0.382  -0.002  -0.003
  0.001   0.002  -0.002  -0.385   0.002
  0.000   0.001  -0.003   0.002  -0.384
 total augmentation occupancy for first ion, spin component:           1
  0.904  -0.018  -0.008  -0.016  -0.006
 -0.018   0.000   0.000   0.000   0.000
 -0.008   0.000   0.080  -0.009  -0.011
 -0.016   0.000  -0.009   0.068   0.006
 -0.006   0.000  -0.011   0.006   0.071


------------------------ aborting loop because EDIFF is reached ----------------------------------------


 


 total charge     
 
# of ion       s       p       d       tot
------------------------------------------
    1        0.091   0.158   0.000   0.249
    2        0.059   0.098   0.000   0.157
    3        0.076   0.131   0.000   0.207
    4        0.094   0.166   0.000   0.260
    5        0.095   0.168   0.000   0.263
    6        0.095   0.168   0.000   0.263
    7        0.094   0.166   0.000   0.260
    8        0.059   0.098   0.000   0.157
    9        0.091   0.158   0.000   0.249
   10        1.345   0.824   0.058   2.227
   11        1.438   2.431   0.009   3.878
   12        1.437   2.440   0.010   3.887
   13        1.436   2.437   0.009   3.882
   14        1.438   2.431   0.009   3.878
   15        1.436   2.437   0.009   3.882
   16        1.437   2.440   0.010   3.887
--------------------------------------------------
tot         10.721  16.753   0.114  27.587
 
    CHARGE:  cpu time    0.0179: real time    0.0191
    FORLOC:  cpu time    0.0014: real time    0.0014
    FORNL :  cpu time    0.1588: real time    0.1608
    STRESS:  cpu time    0.4267: real time    0.4335
    FORCOR:  cpu time    0.0082: real time    0.0082
    FORHAR:  cpu time    0.0024: real time    0.0024
    MIXING:  cpu time    0.0004: real time    0.0004
    OFIELD:  cpu time    0.0000: real time    0.0000

  FORCE on cell =-STRESS in cart. coord.  units (eV):
  Direction    XX          YY          ZZ          XY          YZ          ZX
  --------------------------------------------------------------------------------------
  Alpha Z    58.73792    58.73792    58.73792
  Ewald    -521.62815  -522.29175  -527.62364     2.96526   -10.52255     0.81994
  Hartree    88.70124    88.26303    92.19392    -1.27179    -0.68520    -4.25928
  E(xc)    -173.49446  -173.48411  -173.43973    -0.02648     0.02865    -0.05329
  Local    -246.19553  -244.40855  -245.54205    -0.96170     9.89889     5.20627
  n-local   349.65516   349.40884   348.74928     0.36544    -0.74676     0.48641
  augment   -42.25857   -42.18654   -42.32098     0.02518    -0.06792     0.07636
  Kinetic   486.38968   485.87144   489.15753    -0.95027     2.04981    -2.38716
  Fock        0.00000     0.00000     0.00000     0.00000     0.00000     0.00000
  -------------------------------------------------------------------------------------
  Total      -0.09271    -0.08972    -0.08774     0.14565    -0.04508    -0.11076
  in kB      -0.48420    -0.46861    -0.45825     0.76068    -0.23543    -0.57848
  external pressure =       -0.47 kB  Pullay stress =        0.00 kB


 VOLUME and BASIS-vectors are now :
 -----------------------------------------------------------------------------
  energy-cutoff  :      300.00
  volume of cell :      306.77
      direct lattice vectors                 reciprocal lattice vectors
     6.623414111 -0.291023684 -4.096237917     0.156313597  0.056861677  0.004585083
    -2.083932953  6.021817658 -3.634306532     0.005191596  0.165815853 -0.003386095
    -0.292291965  0.169671030  7.860584425     0.083857064  0.106295480  0.128040795

  length of vectors
     7.793168440  7.335751388  7.867846615     0.166397758  0.165931659  0.186346939


 FORCES acting on ions
    electron-ion (+dipol)            ewald-force                    non-local-force                 convergence-correction
 -----------------------------------------------------------------------------------------------
   -.227E+01 -.249E+01 0.271E-01   0.220E+01 0.240E+01 -.223E+00   0.714E-01 0.830E-01 0.187E+00   0.540E-05 0.140E-05 0.329E-05
   -.121E+01 0.301E+01 0.473E+01   0.106E+01 -.267E+01 -.419E+01   0.135E+00 -.355E+00 -.546E+00   -.132E-04 -.187E-04 0.623E-04
   0.622E-14 -.268E-14 0.738E-15   0.244E-14 -.444E-14 0.178E-14   -.316E-29 -.158E-28 0.000E+00   -.574E-14 -.800E-14 0.953E-14
   -.140E+01 0.278E+01 -.921E+00   0.143E+01 -.263E+01 0.826E+00   -.211E-01 -.129E+00 0.930E-01   -.188E-04 0.704E-04 -.572E-04
   0.220E+01 0.184E+00 0.264E+01   -.207E+01 -.354E+00 -.257E+01   -.112E+00 0.189E+00 -.814E-01   0.388E-04 -.752E-04 -.128E-04
   -.220E+01 -.184E+00 -.264E+01   0.207E+01 0.354E+00 0.257E+01   0.112E+00 -.189E+00 0.814E-01   -.388E-04 0.752E-04 0.128E-04
   0.140E+01 -.278E+01 0.921E+00   -.143E+01 0.263E+01 -.826E+00   0.211E-01 0.129E+00 -.930E-01   0.188E-04 -.704E-04 0.572E-04
   0.121E+01 -.301E+01 -.473E+01   -.106E+01 0.267E+01 0.419E+01   -.135E+00 0.355E+00 0.546E+00   0.132E-04 0.187E-04 -.623E-04
   0.227E+01 0.249E+01 -.271E-01   -.220E+01 -.240E+01 0.223E+00   -.714E-01 -.830E-01 -.187E+00   -.540E-05 -.140E-05 -.329E-05
   0.569E-12 0.125E-12 -.551E-12   0.213E-13 0.711E-14 0.355E-14   -.434E-25 0.505E-26 -.323E-25   -.102E-12 0.792E-14 -.306E-13
   0.118E+02 -.432E+01 0.148E+02   -.124E+02 0.433E+01 -.151E+02   0.634E+00 -.378E-01 0.272E+00   0.144E-02 0.231E-03 -.186E-03
   0.190E+02 0.754E+01 -.575E+00   -.195E+02 -.807E+01 0.558E+00   0.476E+00 0.540E+00 0.365E-01   0.426E-03 0.315E-03 -.116E-03
   0.229E+01 -.185E+02 -.922E+00   -.245E+01 0.191E+02 0.676E+00   0.132E+00 -.578E+00 0.245E+00   -.542E-03 0.696E-03 -.885E-03
   -.118E+02 0.432E+01 -.148E+02   0.124E+02 -.433E+01 0.151E+02   -.634E+00 0.378E-01 -.272E+00   -.144E-02 -.231E-03 0.186E-03
   -.229E+01 0.185E+02 0.922E+00   0.245E+01 -.191E+02 -.676E+00   -.132E+00 0.578E+00 -.245E+00   0.542E-03 -.696E-03 0.885E-03
   -.190E+02 -.754E+01 0.575E+00   0.195E+02 0.807E+01 -.558E+00   -.476E+00 -.540E+00 -.365E-01   -.426E-03 -.315E-03 0.116E-03
 -----------------------------------------------------------------------------------------------
   0.262E-11 0.328E-12 -.843E-11   -.355E-14 0.000E+00 -.755E-14   0.111E-15 -.111E-15 -.555E-16   -.108E-12 -.742E-13 0.118E-12
 
 
 POSITION                                       TOTAL-FORCE (eV/Angst)
 -----------------------------------------------------------------------------------
     -1.09376      2.55287     -0.43847         0.003876     -0.008854     -0.009499
      1.28415     -0.78382      5.32730        -0.015164     -0.011741     -0.000028
     -0.00000      0.00000     -0.00000         0.000000      0.000000     -0.000000
      1.77622      0.15593      2.14926         0.016281      0.014401     -0.001394
      2.19394      4.14352      0.77072         0.017851      0.019526     -0.008918
      2.05325      1.75694     -0.64068        -0.017851     -0.019526      0.008918
      4.55490     -0.27728      1.61508        -0.016281     -0.014401      0.001394
      5.04697      0.66247     -1.56295         0.015164      0.011741      0.000028
     -1.28246      3.63862      4.66475        -0.003876      0.008854      0.009499
      2.26974      2.86540     -3.86527         0.000000      0.000000     -0.000000
      0.60930      2.35427      1.48746        -0.000447     -0.021281     -0.036452
      0.22028      1.40748     -2.41460        -0.006167      0.007884      0.019530
      0.71830      5.36422     -3.77388        -0.021534     -0.031026     -0.002192
      3.63789      3.54620     -1.35742         0.000447      0.021281      0.036452
      3.82118      0.36657     -3.95666         0.021534      0.031026      0.002192
      4.31920      4.32332     -5.31594         0.006167     -0.007884     -0.019530
 -----------------------------------------------------------------------------------
    total drift:                                0.000000      0.000000     -0.000000


--------------------------------------------------------------------------------------------------------



  FREE ENERGIE OF THE ION-ELECTRON SYSTEM (eV)
  ---------------------------------------------------
  free  energy   TOTEN  =       -59.18359346 eV

  energy  without entropy=      -59.18359346  energy(sigma->0) =      -59.18359346
 
 d Force = 0.1955903E-02[-0.500E-03, 0.441E-02]  d Energy = 0.2459416E-02-0.504E-03
 d Force = 0.1171890E+00[ 0.922E-01, 0.142E+00]  d Ewald  =-0.1341152E+01 0.146E+01


--------------------------------------------------------------------------------------------------------


    POTLOK:  cpu time    0.1664: real time    0.1685


--------------------------------------------------------------------------------------------------------


 Conjugate gradient step on ions:
 trial-energy change:   -0.002459  1 .order   -0.002243   -0.005620    0.001134
  (g-gl).g = 0.214E-03      g.g   = 0.254E-03  gl.gl    = 0.620E-03
 g(Force)  = 0.169E-03   g(Stress)= 0.850E-04 ortho     = 0.873E-05
 gamma     =   0.34474
 trial     =  21.87625
 opt step  =  18.20283  (harmonic =  18.20283) maximal distance =0.01541584
 next E    =   -59.183472   (d E  =  -0.00234)


--------------------------------------------------------------------------------------------------------


  
 reached required accuracy - stopping structural energy minimisation
     LOOP+:  cpu time    4.8174: real time    4.8489
    4ORBIT:  cpu time    0.0000: real time    0.0000
 


 total charge     
 
# of ion       s       p       d       tot
------------------------------------------
    1        0.091   0.158   0.000   0.249
    2        0.059   0.098   0.000   0.157
    3        0.076   0.131   0.000   0.207
    4        0.094   0.166   0.000   0.260
    5        0.095   0.168   0.000   0.263
    6        0.095   0.168   0.000   0.263
    7        0.094   0.166   0.000   0.260
    8        0.059   0.098   0.000   0.157
    9        0.091   0.158   0.000   0.249
   10        1.345   0.824   0.058   2.227
   11        1.438   2.431   0.009   3.878
   12        1.437   2.440   0.010   3.887
   13        1.436   2.437   0.009   3.882
   14        1.438   2.431   0.009   3.878
   15        1.436   2.437   0.009   3.882
   16        1.437   2.440   0.010   3.887
--------------------------------------------------
tot         10.721  16.753   0.114  27.587
 

 total amount of memory used by VASP MPI-rank0    40078. kBytes
=======================================================================

   base      :      30000. kBytes
   nonlr-proj:       1815. kBytes
   fftplans  :        879. kBytes
   grid      :       3351. kBytes
   one-center:        129. kBytes
   wavefun   :       3904. kBytes
 
  
  
 General timing and accounting informations for this job:
 ========================================================
  
                  Total CPU time used (sec):      384.150
                            User time (sec):      378.492
                          System time (sec):        5.658
                         Elapsed time (sec):      385.760
  
                   Maximum memory used (kb):       78496.
                   Average memory used (kb):           0.
  
                          Minor page faults:       228515
                          Major page faults:            0
                 Voluntary context switches:         1018
