PROCAR new format
# of k-points:   14         # of bands:   42         # of ions:   16

 k-point     1 :    0.00000000 0.00000000 0.00000000     weight = 0.03703704

band     1 # energy  -10.33269576 # occ.  2.00000000
 
ion      s      p      d    tot
    1  0.002  0.000  0.000  0.002
    2  0.001  0.000  0.000  0.001
    3  0.002  0.000  0.000  0.002
    4  0.002  0.000  0.000  0.002
    5  0.002  0.000  0.000  0.002
    6  0.002  0.000  0.000  0.002
    7  0.002  0.000  0.000  0.002
    8  0.001  0.000  0.000  0.001
    9  0.002  0.000  0.000  0.002
   10  0.069  0.000  0.000  0.069
   11  0.085  0.000  0.000  0.085
   12  0.098  0.000  0.000  0.099
   13  0.098  0.000  0.000  0.099
   14  0.085  0.000  0.000  0.085
   15  0.098  0.000  0.000  0.099
   16  0.098  0.000  0.000  0.099
tot    0.648  0.002  0.000  0.650
 
band     2 # energy   -9.48392579 # occ.  2.00000000
 
ion      s      p      d    tot
    1  0.001  0.001  0.000  0.001
    2  0.000  0.001  0.000  0.001
    3  0.000  0.001  0.000  0.001
    4  0.000  0.002  0.000  0.002
    5  0.000  0.001  0.000  0.001
    6  0.000  0.001  0.000  0.001
    7  0.000  0.002  0.000  0.002
    8  0.000  0.001  0.000  0.001
    9  0.001  0.001  0.000  0.001
   10  0.000  0.005  0.000  0.005
   11  0.004  0.000  0.000  0.004
   12  0.007  0.000  0.000  0.007
   13  0.341  0.000  0.000  0.341
   14  0.004  0.000  0.000  0.004
   15  0.341  0.000  0.000  0.341
   16  0.007  0.000  0.000  0.007
tot    0.706  0.014  0.000  0.720
 
band     3 # energy   -9.47863973 # occ.  2.00000000
 
ion      s      p      d    tot
    1  0.000  0.002  0.000  0.002
    2  0.000  0.000  0.000  0.001
    3  0.000  0.001  0.000  0.001
    4  0.001  0.001  0.000  0.001
    5  0.001  0.001  0.000  0.001
    6  0.001  0.001  0.000  0.001
    7  0.001  0.001  0.000  0.001
    8  0.000  0.000  0.000  0.001
    9  0.000  0.002  0.000  0.002
   10  0.000  0.006  0.000  0.006
   11  0.011  0.000  0.000  0.012
   12  0.334  0.000  0.000  0.334
   13  0.005  0.000  0.000  0.005
   14  0.011  0.000  0.000  0.012
   15  0.005  0.000  0.000  0.005
   16  0.334  0.000  0.000  0.334
tot    0.705  0.014  0.000  0.719
 
band     4 # energy   -9.41642925 # occ.  2.00000000
 
ion      s      p      d    tot
    1  0.000  0.001  0.000  0.001
    2  0.000  0.000  0.000  0.000
    3  0.000  0.001  0.000  0.001
    4  0.000  0.001  0.000  0.001
    5  0.000  0.002  0.000  0.002
    6  0.000  0.002  0.000  0.002
    7  0.000  0.001  0.000  0.001
    8  0.000  0.000  0.000  0.000
    9  0.000  0.001  0.000  0.001
   10  0.000  0.005  0.000  0.005
   11  0.337  0.000  0.000  0.337
   12  0.010  0.000  0.000  0.010
   13  0.006  0.000  0.000  0.006
   14  0.337  0.000  0.000  0.337
   15  0.006  0.000  0.000  0.006
   16  0.010  0.000  0.000  0.010
tot    0.706  0.015  0.000  0.721
 
band     5 # energy   -9.33641631 # occ.  2.00000000
 
ion      s      p      d    tot
    1  0.000  0.001  0.000  0.001
    2  0.000  0.001  0.000  0.001
    3  0.000  0.000  0.000  0.000
    4  0.000  0.002  0.000  0.002
    5  0.000  0.001  0.000  0.001
    6  0.000  0.001  0.000  0.001
    7  0.000  0.002  0.000  0.002
    8  0.000  0.001  0.000  0.001
    9  0.000  0.001  0.000  0.001
   10  0.000  0.000  0.001  0.001
   11  0.047  0.000  0.000  0.047
   12  0.077  0.000  0.000  0.077
   13  0.237  0.000  0.000  0.237
   14  0.047  0.000  0.000  0.047
   15  0.237  0.000  0.000  0.237
   16  0.077  0.000  0.000  0.077
tot    0.723  0.008  0.001  0.732
 
band     6 # energy   -9.28828886 # occ.  2.00000000
 
ion      s      p      d    tot
    1  0.000  0.002  0.000  0.002
    2  0.000  0.001  0.000  0.001
    3  0.000  0.000  0.000  0.000
    4  0.000  0.001  0.000  0.001
    5  0.000  0.001  0.000  0.002
    6  0.000  0.001  0.000  0.002
    7  0.000  0.001  0.000  0.001
    8  0.000  0.001  0.000  0.001
    9  0.000  0.002  0.000  0.002
   10  0.000  0.000  0.001  0.001
   11  0.203  0.000  0.000  0.203
   12  0.157  0.000  0.000  0.157
   13  0.001  0.000  0.000  0.001
   14  0.203  0.000  0.000  0.203
   15  0.001  0.000  0.000  0.001
   16  0.157  0.000  0.000  0.157
tot    0.724  0.009  0.001  0.733
 
band     7 # energy   -6.42473471 # occ.  2.00000000
 
ion      s      p      d    tot
    1  0.001  0.001  0.000  0.001
    2  0.000  0.000  0.000  0.000
    3  0.002  0.000  0.000  0.002
    4  0.001  0.000  0.000  0.001
    5  0.001  0.000  0.000  0.001
    6  0.001  0.000  0.000  0.001
    7  0.001  0.000  0.000  0.001
    8  0.000  0.000  0.000  0.000
    9  0.001  0.001  0.000  0.001
   10  0.471  0.000  0.000  0.471
   11  0.016  0.008  0.000  0.025
   12  0.019  0.009  0.000  0.028
   13  0.015  0.008  0.000  0.024
   14  0.016  0.008  0.000  0.025
   15  0.015  0.008  0.000  0.024
   16  0.019  0.009  0.000  0.028
tot    0.578  0.053  0.002  0.633
 
band     8 # energy   -1.68342825 # occ.  2.00000000
 
ion      s      p      d    tot
    1  0.001  0.001  0.000  0.002
    2  0.000  0.001  0.000  0.001
    3  0.000  0.008  0.000  0.008
    4  0.009  0.002  0.000  0.010
    5  0.004  0.001  0.000  0.005
    6  0.004  0.001  0.000  0.005
    7  0.009  0.002  0.000  0.010
    8  0.000  0.001  0.000  0.001
    9  0.001  0.001  0.000  0.002
   10  0.000  0.098  0.000  0.098
   11  0.000  0.018  0.000  0.018
   12  0.002  0.065  0.000  0.067
   13  0.000  0.060  0.000  0.061
   14  0.000  0.018  0.000  0.018
   15  0.000  0.060  0.000  0.061
   16  0.002  0.065  0.000  0.067
tot    0.032  0.400  0.001  0.434
 
band     9 # energy   -1.63761385 # occ.  2.00000000
 
ion      s      p      d    tot
    1  0.008  0.001  0.000  0.009
    2  0.000  0.001  0.000  0.001
    3  0.000  0.008  0.000  0.008
    4  0.000  0.001  0.000  0.001
    5  0.005  0.002  0.000  0.007
    6  0.005  0.002  0.000  0.007
    7  0.000  0.001  0.000  0.001
    8  0.000  0.001  0.000  0.001
    9  0.008  0.001  0.000  0.009
   10  0.000  0.099  0.000  0.099
   11  0.001  0.063  0.000  0.064
   12  0.000  0.041  0.000  0.041
   13  0.001  0.038  0.000  0.039
   14  0.001  0.063  0.000  0.064
   15  0.001  0.038  0.000  0.039
   16  0.000  0.041  0.000  0.041
tot    0.032  0.399  0.001  0.432
 
band    10 # energy   -1.49988317 # occ.  2.00000000
 
ion      s      p      d    tot
    1  0.000  0.005  0.000  0.005
    2  0.001  0.002  0.000  0.003
    3  0.000  0.005  0.000  0.005
    4  0.000  0.005  0.000  0.005
    5  0.000  0.005  0.000  0.005
    6  0.000  0.005  0.000  0.005
    7  0.000  0.005  0.000  0.005
    8  0.001  0.002  0.000  0.003
    9  0.000  0.005  0.000  0.005
   10  0.000  0.105  0.000  0.105
   11  0.001  0.057  0.000  0.059
   12  0.001  0.039  0.000  0.040
   13  0.001  0.043  0.000  0.044
   14  0.001  0.057  0.000  0.059
   15  0.001  0.043  0.000  0.044
   16  0.001  0.039  0.000  0.040
tot    0.008  0.422  0.002  0.431
 
band    11 # energy   -1.02549402 # occ.  2.00000000
 
ion      s      p      d    tot
    1  0.004  0.005  0.000  0.009
    2  0.011  0.001  0.000  0.011
    3  0.000  0.000  0.000  0.000
    4  0.005  0.005  0.000  0.010
    5  0.002  0.005  0.000  0.007
    6  0.002  0.005  0.000  0.007
    7  0.005  0.005  0.000  0.010
    8  0.011  0.001  0.000  0.011
    9  0.004  0.005  0.000  0.009
   10  0.003  0.000  0.001  0.004
   11  0.000  0.042  0.000  0.042
   12  0.000  0.052  0.000  0.052
   13  0.000  0.070  0.000  0.070
   14  0.000  0.042  0.000  0.042
   15  0.000  0.070  0.000  0.070
   16  0.000  0.052  0.000  0.052
tot    0.047  0.361  0.002  0.410
 
band    12 # energy   -0.59186297 # occ.  2.00000000
 
ion      s      p      d    tot
    1  0.000  0.003  0.000  0.004
    2  0.000  0.006  0.000  0.006
    3  0.007  0.000  0.000  0.007
    4  0.008  0.002  0.000  0.010
    5  0.014  0.002  0.000  0.016
    6  0.014  0.002  0.000  0.016
    7  0.008  0.002  0.000  0.010
    8  0.000  0.006  0.000  0.006
    9  0.000  0.003  0.000  0.004
   10  0.006  0.000  0.002  0.008
   11  0.001  0.036  0.000  0.037
   12  0.000  0.089  0.000  0.089
   13  0.000  0.052  0.000  0.053
   14  0.001  0.036  0.000  0.037
   15  0.000  0.052  0.000  0.053
   16  0.000  0.089  0.000  0.089
tot    0.059  0.382  0.003  0.444
 
band    13 # energy   -0.56440534 # occ.  2.00000000
 
ion      s      p      d    tot
    1  0.001  0.007  0.000  0.008
    2  0.000  0.007  0.000  0.007
    3  0.023  0.000  0.000  0.023
    4  0.001  0.007  0.000  0.007
    5  0.005  0.007  0.000  0.011
    6  0.005  0.007  0.000  0.011
    7  0.001  0.007  0.000  0.007
    8  0.000  0.007  0.000  0.007
    9  0.001  0.007  0.000  0.008
   10  0.017  0.000  0.001  0.018
   11  0.001  0.073  0.000  0.075
   12  0.001  0.021  0.001  0.023
   13  0.001  0.076  0.000  0.077
   14  0.001  0.073  0.000  0.075
   15  0.001  0.076  0.000  0.077
   16  0.001  0.021  0.001  0.023
tot    0.059  0.395  0.003  0.456
 
band    14 # energy   -0.51240857 # occ.  2.00000000
 
ion      s      p      d    tot
    1  0.016  0.001  0.000  0.016
    2  0.000  0.007  0.000  0.007
    3  0.002  0.000  0.000  0.002
    4  0.009  0.002  0.000  0.011
    5  0.001  0.001  0.000  0.003
    6  0.001  0.001  0.000  0.003
    7  0.009  0.002  0.000  0.011
    8  0.000  0.007  0.000  0.007
    9  0.016  0.001  0.000  0.016
   10  0.001  0.000  0.002  0.004
   11  0.000  0.074  0.000  0.074
   12  0.000  0.068  0.000  0.068
   13  0.000  0.041  0.000  0.041
   14  0.000  0.074  0.000  0.074
   15  0.000  0.041  0.000  0.041
   16  0.000  0.068  0.000  0.068
tot    0.055  0.386  0.003  0.444
 
band    15 # energy   -0.50474527 # occ.  2.00000000
 
ion      s      p      d    tot
    1  0.000  0.007  0.000  0.007
    2  0.013  0.000  0.000  0.013
    3  0.000  0.009  0.000  0.009
    4  0.000  0.006  0.000  0.007
    5  0.000  0.007  0.000  0.007
    6  0.000  0.007  0.000  0.007
    7  0.000  0.006  0.000  0.007
    8  0.013  0.000  0.000  0.013
    9  0.000  0.007  0.000  0.007
   10  0.000  0.001  0.000  0.001
   11  0.000  0.057  0.000  0.058
   12  0.000  0.058  0.000  0.059
   13  0.000  0.063  0.000  0.064
   14  0.000  0.057  0.000  0.058
   15  0.000  0.063  0.000  0.064
   16  0.000  0.058  0.000  0.059
tot    0.028  0.408  0.001  0.438
 
band    16 # energy    0.93946082 # occ.  2.00000000
 
ion      s      p      d    tot
    1  0.000  0.004  0.000  0.004
    2  0.000  0.001  0.000  0.001
    3  0.000  0.000  0.000  0.000
    4  0.000  0.003  0.000  0.003
    5  0.000  0.007  0.000  0.008
    6  0.000  0.007  0.000  0.008
    7  0.000  0.003  0.000  0.003
    8  0.000  0.001  0.000  0.001
    9  0.000  0.004  0.000  0.004
   10  0.000  0.000  0.010  0.010
   11  0.000  0.082  0.000  0.082
   12  0.000  0.018  0.000  0.018
   13  0.000  0.148  0.000  0.148
   14  0.000  0.082  0.000  0.082
   15  0.000  0.148  0.000  0.148
   16  0.000  0.018  0.000  0.018
tot    0.002  0.527  0.010  0.539
 
band    17 # energy    0.96255278 # occ.  2.00000000
 
ion      s      p      d    tot
    1  0.000  0.005  0.000  0.005
    2  0.000  0.002  0.000  0.002
    3  0.000  0.007  0.000  0.007
    4  0.004  0.006  0.000  0.010
    5  0.005  0.001  0.000  0.006
    6  0.005  0.001  0.000  0.006
    7  0.004  0.006  0.000  0.010
    8  0.000  0.002  0.000  0.002
    9  0.000  0.005  0.000  0.005
   10  0.000  0.010  0.000  0.010
   11  0.002  0.060  0.000  0.062
   12  0.000  0.100  0.000  0.101
   13  0.000  0.069  0.000  0.070
   14  0.002  0.060  0.000  0.062
   15  0.000  0.069  0.000  0.070
   16  0.000  0.100  0.000  0.101
tot    0.022  0.505  0.002  0.528
 
band    18 # energy    0.97809180 # occ.  2.00000000
 
ion      s      p      d    tot
    1  0.000  0.006  0.000  0.006
    2  0.000  0.001  0.000  0.001
    3  0.000  0.000  0.000  0.000
    4  0.000  0.008  0.000  0.009
    5  0.000  0.002  0.000  0.002
    6  0.000  0.002  0.000  0.002
    7  0.000  0.008  0.000  0.009
    8  0.000  0.001  0.000  0.001
    9  0.000  0.006  0.000  0.006
   10  0.000  0.000  0.009  0.009
   11  0.000  0.073  0.000  0.073
   12  0.000  0.127  0.000  0.128
   13  0.000  0.047  0.000  0.047
   14  0.000  0.073  0.000  0.073
   15  0.000  0.047  0.000  0.047
   16  0.000  0.127  0.000  0.128
tot    0.001  0.530  0.010  0.541
 
band    19 # energy    1.02451420 # occ.  2.00000000
 
ion      s      p      d    tot
    1  0.005  0.003  0.000  0.007
    2  0.000  0.001  0.000  0.001
    3  0.000  0.008  0.000  0.008
    4  0.002  0.003  0.000  0.005
    5  0.001  0.008  0.000  0.009
    6  0.001  0.008  0.000  0.009
    7  0.002  0.003  0.000  0.005
    8  0.000  0.001  0.000  0.001
    9  0.005  0.003  0.000  0.007
   10  0.000  0.011  0.000  0.011
   11  0.000  0.087  0.000  0.087
   12  0.001  0.057  0.000  0.058
   13  0.001  0.086  0.000  0.088
   14  0.000  0.087  0.000  0.087
   15  0.001  0.086  0.000  0.088
   16  0.001  0.057  0.000  0.058
tot    0.021  0.506  0.002  0.529
 
band    20 # energy    1.25243511 # occ.  2.00000000
 
ion      s      p      d    tot
    1  0.002  0.004  0.000  0.006
    2  0.000  0.000  0.000  0.000
    3  0.000  0.000  0.000  0.000
    4  0.001  0.006  0.000  0.007
    5  0.000  0.005  0.000  0.005
    6  0.000  0.005  0.000  0.005
    7  0.001  0.006  0.000  0.007
    8  0.000  0.000  0.000  0.000
    9  0.002  0.004  0.000  0.006
   10  0.000  0.000  0.002  0.002
   11  0.000  0.108  0.000  0.109
   12  0.000  0.092  0.000  0.093
   13  0.000  0.051  0.000  0.051
   14  0.000  0.108  0.000  0.109
   15  0.000  0.051  0.000  0.051
   16  0.000  0.092  0.000  0.093
tot    0.006  0.535  0.003  0.544
 
band    21 # energy    1.34343126 # occ.  2.00000000
 
ion      s      p      d    tot
    1  0.000  0.006  0.000  0.007
    2  0.000  0.000  0.000  0.000
    3  0.000  0.000  0.000  0.000
    4  0.001  0.002  0.000  0.003
    5  0.001  0.008  0.000  0.010
    6  0.001  0.008  0.000  0.010
    7  0.001  0.002  0.000  0.003
    8  0.000  0.000  0.000  0.000
    9  0.000  0.006  0.000  0.007
   10  0.001  0.000  0.001  0.001
   11  0.000  0.073  0.000  0.074
   12  0.000  0.087  0.000  0.088
   13  0.000  0.092  0.000  0.092
   14  0.000  0.073  0.000  0.074
   15  0.000  0.092  0.000  0.092
   16  0.000  0.087  0.000  0.088
tot    0.007  0.540  0.001  0.548
 
band    22 # energy    1.47786454 # occ.  2.00000000
 
ion      s      p      d    tot
    1  0.000  0.004  0.000  0.004
    2  0.000  0.005  0.000  0.005
    3  0.000  0.002  0.000  0.002
    4  0.000  0.000  0.000  0.001
    5  0.000  0.003  0.000  0.003
    6  0.000  0.003  0.000  0.003
    7  0.000  0.000  0.000  0.001
    8  0.000  0.005  0.000  0.005
    9  0.000  0.004  0.000  0.004
   10  0.000  0.017  0.000  0.017
   11  0.000  0.092  0.000  0.092
   12  0.001  0.095  0.000  0.096
   13  0.000  0.071  0.000  0.071
   14  0.000  0.092  0.000  0.092
   15  0.000  0.071  0.000  0.071
   16  0.001  0.095  0.000  0.096
tot    0.004  0.560  0.001  0.565
 
band    23 # energy    1.49001228 # occ.  2.00000000
 
ion      s      p      d    tot
    1  0.000  0.001  0.000  0.001
    2  0.000  0.004  0.000  0.004
    3  0.000  0.002  0.000  0.002
    4  0.000  0.005  0.000  0.005
    5  0.001  0.002  0.000  0.003
    6  0.001  0.002  0.000  0.003
    7  0.000  0.005  0.000  0.005
    8  0.000  0.004  0.000  0.004
    9  0.000  0.001  0.000  0.001
   10  0.000  0.017  0.000  0.017
   11  0.001  0.085  0.000  0.086
   12  0.000  0.075  0.000  0.075
   13  0.001  0.099  0.000  0.100
   14  0.001  0.085  0.000  0.086
   15  0.001  0.099  0.000  0.100
   16  0.000  0.075  0.000  0.075
tot    0.005  0.561  0.001  0.566
 
band    24 # energy    1.49745181 # occ.  2.00000000
 
ion      s      p      d    tot
    1  0.002  0.006  0.000  0.007
    2  0.001  0.001  0.000  0.002
    3  0.008  0.000  0.000  0.008
    4  0.002  0.007  0.000  0.008
    5  0.002  0.006  0.000  0.007
    6  0.002  0.006  0.000  0.007
    7  0.002  0.007  0.000  0.008
    8  0.001  0.001  0.000  0.002
    9  0.002  0.006  0.000  0.007
   10  0.098  0.000  0.000  0.098
   11  0.005  0.067  0.000  0.072
   12  0.004  0.077  0.000  0.081
   13  0.004  0.052  0.000  0.057
   14  0.005  0.067  0.000  0.072
   15  0.004  0.052  0.000  0.057
   16  0.004  0.077  0.000  0.081
tot    0.144  0.430  0.002  0.576
 
band    25 # energy    1.81704682 # occ.  2.00000000
 
ion      s      p      d    tot
    1  0.000  0.002  0.000  0.002
    2  0.001  0.003  0.000  0.004
    3  0.000  0.001  0.000  0.001
    4  0.000  0.002  0.000  0.002
    5  0.000  0.002  0.000  0.002
    6  0.000  0.002  0.000  0.002
    7  0.000  0.002  0.000  0.002
    8  0.001  0.003  0.000  0.004
    9  0.000  0.002  0.000  0.002
   10  0.000  0.021  0.000  0.021
   11  0.000  0.093  0.000  0.094
   12  0.000  0.084  0.000  0.084
   13  0.000  0.087  0.000  0.087
   14  0.000  0.093  0.000  0.094
   15  0.000  0.087  0.000  0.087
   16  0.000  0.084  0.000  0.084
tot    0.003  0.566  0.001  0.571
 
band    26 # energy    4.03284437 # occ.  0.00000000
 
ion      s      p      d    tot
    1  0.005  0.003  0.000  0.008
    2  0.000  0.004  0.000  0.004
    3  0.000  0.016  0.000  0.016
    4  0.001  0.003  0.000  0.004
    5  0.005  0.007  0.000  0.012
    6  0.005  0.007  0.000  0.012
    7  0.001  0.003  0.000  0.004
    8  0.000  0.004  0.000  0.004
    9  0.005  0.003  0.000  0.008
   10  0.000  0.215  0.000  0.215
   11  0.007  0.016  0.003  0.027
   12  0.004  0.005  0.002  0.011
   13  0.017  0.032  0.004  0.053
   14  0.007  0.016  0.003  0.027
   15  0.017  0.032  0.004  0.053
   16  0.004  0.005  0.002  0.011
tot    0.078  0.370  0.019  0.468
 
band    27 # energy    4.20181427 # occ.  0.00000000
 
ion      s      p      d    tot
    1  0.004  0.007  0.000  0.011
    2  0.000  0.001  0.000  0.001
    3  0.000  0.024  0.000  0.024
    4  0.000  0.001  0.000  0.001
    5  0.004  0.005  0.000  0.009
    6  0.004  0.005  0.000  0.009
    7  0.000  0.001  0.000  0.001
    8  0.000  0.001  0.000  0.001
    9  0.004  0.007  0.000  0.011
   10  0.000  0.234  0.000  0.234
   11  0.016  0.042  0.006  0.064
   12  0.003  0.008  0.002  0.014
   13  0.002  0.019  0.004  0.025
   14  0.016  0.042  0.006  0.064
   15  0.002  0.019  0.004  0.025
   16  0.003  0.008  0.002  0.014
tot    0.058  0.425  0.023  0.506
 
band    28 # energy    4.33470013 # occ.  0.00000000
 
ion      s      p      d    tot
    1  0.000  0.003  0.000  0.004
    2  0.000  0.001  0.000  0.001
    3  0.000  0.025  0.000  0.025
    4  0.007  0.009  0.000  0.016
    5  0.000  0.001  0.000  0.001
    6  0.000  0.001  0.000  0.001
    7  0.007  0.009  0.000  0.016
    8  0.000  0.001  0.000  0.001
    9  0.000  0.003  0.000  0.004
   10  0.000  0.229  0.000  0.229
   11  0.001  0.005  0.002  0.008
   12  0.018  0.052  0.007  0.077
   13  0.004  0.012  0.003  0.020
   14  0.001  0.005  0.002  0.008
   15  0.004  0.012  0.003  0.020
   16  0.018  0.052  0.007  0.077
tot    0.062  0.421  0.024  0.507
 
band    29 # energy    5.57998197 # occ.  0.00000000
 
ion      s      p      d    tot
    1  0.012  0.001  0.000  0.013
    2  0.032  0.001  0.000  0.033
    3  0.004  0.000  0.000  0.004
    4  0.011  0.001  0.000  0.012
    5  0.013  0.001  0.000  0.014
    6  0.013  0.001  0.000  0.014
    7  0.011  0.001  0.000  0.012
    8  0.032  0.001  0.000  0.033
    9  0.012  0.001  0.000  0.013
   10  0.012  0.000  0.001  0.012
   11  0.023  0.008  0.002  0.033
   12  0.022  0.008  0.002  0.031
   13  0.021  0.007  0.001  0.030
   14  0.023  0.008  0.002  0.033
   15  0.021  0.007  0.001  0.030
   16  0.022  0.008  0.002  0.031
tot    0.283  0.054  0.010  0.347
 
band    30 # energy    6.63488687 # occ.  0.00000000
 
ion      s      p      d    tot
    1  0.006  0.008  0.000  0.014
    2  0.016  0.027  0.000  0.042
    3  0.000  0.013  0.000  0.013
    4  0.005  0.008  0.000  0.013
    5  0.004  0.008  0.000  0.013
    6  0.004  0.008  0.000  0.013
    7  0.005  0.008  0.000  0.013
    8  0.016  0.027  0.000  0.042
    9  0.006  0.008  0.000  0.014
   10  0.000  0.044  0.000  0.044
   11  0.002  0.003  0.008  0.013
   12  0.003  0.001  0.008  0.012
   13  0.003  0.002  0.009  0.014
   14  0.002  0.003  0.008  0.013
   15  0.003  0.002  0.009  0.014
   16  0.003  0.001  0.008  0.012
tot    0.078  0.170  0.048  0.296
 
band    31 # energy    6.86213179 # occ.  0.00000000
 
ion      s      p      d    tot
    1  0.001  0.006  0.000  0.006
    2  0.000  0.021  0.000  0.022
    3  0.000  0.000  0.000  0.000
    4  0.011  0.025  0.000  0.035
    5  0.003  0.016  0.000  0.019
    6  0.003  0.016  0.000  0.019
    7  0.011  0.025  0.000  0.035
    8  0.000  0.021  0.000  0.022
    9  0.001  0.006  0.000  0.006
   10  0.000  0.000  0.011  0.011
   11  0.003  0.009  0.008  0.020
   12  0.002  0.008  0.008  0.018
   13  0.014  0.004  0.010  0.028
   14  0.003  0.009  0.008  0.020
   15  0.014  0.004  0.010  0.028
   16  0.002  0.008  0.008  0.018
tot    0.068  0.177  0.062  0.307
 
band    32 # energy    7.00764390 # occ.  0.00000000
 
ion      s      p      d    tot
    1  0.007  0.028  0.000  0.035
    2  0.000  0.021  0.000  0.021
    3  0.000  0.000  0.000  0.000
    4  0.000  0.007  0.000  0.007
    5  0.006  0.014  0.000  0.020
    6  0.006  0.014  0.000  0.020
    7  0.000  0.007  0.000  0.007
    8  0.000  0.021  0.000  0.021
    9  0.007  0.028  0.000  0.035
   10  0.000  0.000  0.012  0.012
   11  0.008  0.005  0.008  0.021
   12  0.011  0.006  0.010  0.027
   13  0.000  0.010  0.009  0.018
   14  0.008  0.005  0.008  0.021
   15  0.000  0.010  0.009  0.018
   16  0.011  0.006  0.010  0.027
tot    0.064  0.181  0.064  0.309
 
band    33 # energy    7.31913648 # occ.  0.00000000
 
ion      s      p      d    tot
    1  0.000  0.009  0.000  0.009
    2  0.000  0.027  0.000  0.027
    3  0.000  0.036  0.000  0.036
    4  0.000  0.024  0.000  0.025
    5  0.000  0.019  0.000  0.020
    6  0.000  0.019  0.000  0.020
    7  0.000  0.024  0.000  0.025
    8  0.000  0.027  0.000  0.027
    9  0.000  0.009  0.000  0.009
   10  0.000  0.024  0.000  0.024
   11  0.004  0.006  0.010  0.019
   12  0.000  0.006  0.007  0.014
   13  0.002  0.009  0.012  0.024
   14  0.004  0.006  0.010  0.019
   15  0.002  0.009  0.012  0.024
   16  0.000  0.006  0.007  0.014
tot    0.015  0.262  0.058  0.335
 
band    34 # energy    7.50351179 # occ.  0.00000000
 
ion      s      p      d    tot
    1  0.002  0.024  0.000  0.026
    2  0.000  0.020  0.000  0.020
    3  0.000  0.018  0.000  0.018
    4  0.002  0.005  0.000  0.007
    5  0.000  0.006  0.000  0.007
    6  0.000  0.006  0.000  0.007
    7  0.002  0.005  0.000  0.007
    8  0.000  0.020  0.000  0.020
    9  0.002  0.024  0.000  0.026
   10  0.000  0.022  0.000  0.022
   11  0.000  0.019  0.007  0.026
   12  0.002  0.024  0.011  0.037
   13  0.001  0.022  0.005  0.028
   14  0.000  0.019  0.007  0.026
   15  0.001  0.022  0.005  0.028
   16  0.002  0.024  0.011  0.037
tot    0.015  0.278  0.048  0.341
 
band    35 # energy    7.64321028 # occ.  0.00000000
 
ion      s      p      d    tot
    1  0.002  0.009  0.000  0.011
    2  0.000  0.015  0.000  0.016
    3  0.000  0.020  0.000  0.020
    4  0.001  0.013  0.000  0.013
    5  0.002  0.016  0.000  0.019
    6  0.002  0.016  0.000  0.019
    7  0.001  0.013  0.000  0.013
    8  0.000  0.015  0.000  0.016
    9  0.002  0.009  0.000  0.011
   10  0.000  0.025  0.000  0.025
   11  0.002  0.027  0.009  0.038
   12  0.001  0.018  0.006  0.025
   13  0.002  0.015  0.010  0.027
   14  0.002  0.027  0.009  0.038
   15  0.002  0.015  0.010  0.027
   16  0.001  0.018  0.006  0.025
tot    0.020  0.273  0.050  0.343
 
band    36 # energy    7.75306698 # occ.  0.00000000
 
ion      s      p      d    tot
    1  0.001  0.006  0.000  0.007
    2  0.000  0.024  0.000  0.024
    3  0.072  0.000  0.000  0.072
    4  0.000  0.006  0.000  0.007
    5  0.000  0.009  0.000  0.009
    6  0.000  0.009  0.000  0.009
    7  0.000  0.006  0.000  0.007
    8  0.000  0.024  0.000  0.024
    9  0.001  0.006  0.000  0.007
   10  0.013  0.000  0.011  0.024
   11  0.001  0.016  0.010  0.027
   12  0.001  0.016  0.009  0.026
   13  0.002  0.016  0.009  0.027
   14  0.001  0.016  0.010  0.027
   15  0.002  0.016  0.009  0.027
   16  0.001  0.016  0.009  0.026
tot    0.097  0.186  0.065  0.348
 
band    37 # energy    8.59150221 # occ.  0.00000000
 
ion      s      p      d    tot
    1  0.000  0.037  0.000  0.037
    2  0.000  0.010  0.000  0.010
    3  0.000  0.000  0.000  0.000
    4  0.006  0.040  0.000  0.046
    5  0.004  0.012  0.000  0.016
    6  0.004  0.012  0.000  0.016
    7  0.006  0.040  0.000  0.046
    8  0.000  0.010  0.000  0.010
    9  0.000  0.037  0.000  0.037
   10  0.000  0.000  0.027  0.027
   11  0.000  0.002  0.014  0.017
   12  0.002  0.007  0.011  0.020
   13  0.002  0.007  0.020  0.029
   14  0.000  0.002  0.014  0.017
   15  0.002  0.007  0.020  0.029
   16  0.002  0.007  0.011  0.020
tot    0.028  0.229  0.116  0.374
 
band    38 # energy    8.61921242 # occ.  0.00000000
 
ion      s      p      d    tot
    1  0.006  0.025  0.000  0.031
    2  0.000  0.012  0.000  0.012
    3  0.001  0.000  0.000  0.001
    4  0.001  0.020  0.000  0.022
    5  0.001  0.041  0.000  0.042
    6  0.001  0.041  0.000  0.042
    7  0.001  0.020  0.000  0.022
    8  0.000  0.012  0.000  0.012
    9  0.006  0.025  0.000  0.031
   10  0.000  0.000  0.028  0.028
   11  0.002  0.011  0.010  0.023
   12  0.000  0.005  0.023  0.028
   13  0.002  0.002  0.012  0.015
   14  0.002  0.011  0.010  0.023
   15  0.002  0.002  0.012  0.015
   16  0.000  0.005  0.023  0.028
tot    0.025  0.232  0.118  0.375
 
band    39 # energy    8.76276021 # occ.  0.00000000
 
ion      s      p      d    tot
    1  0.000  0.020  0.000  0.020
    2  0.001  0.001  0.000  0.002
    3  0.015  0.000  0.000  0.015
    4  0.000  0.025  0.000  0.025
    5  0.001  0.029  0.000  0.029
    6  0.001  0.029  0.000  0.029
    7  0.000  0.025  0.000  0.025
    8  0.001  0.001  0.000  0.002
    9  0.000  0.020  0.000  0.020
   10  0.001  0.000  0.036  0.037
   11  0.000  0.010  0.016  0.025
   12  0.000  0.006  0.013  0.020
   13  0.000  0.004  0.017  0.021
   14  0.000  0.010  0.016  0.025
   15  0.000  0.004  0.017  0.021
   16  0.000  0.006  0.013  0.020
tot    0.019  0.190  0.128  0.336
 
band    40 # energy    8.89263587 # occ.  0.00000000
 
ion      s      p      d    tot
    1  0.001  0.005  0.000  0.006
    2  0.081  0.004  0.000  0.085
    3  0.000  0.003  0.000  0.003
    4  0.003  0.007  0.000  0.010
    5  0.003  0.008  0.000  0.012
    6  0.003  0.008  0.000  0.012
    7  0.003  0.007  0.000  0.010
    8  0.081  0.004  0.000  0.085
    9  0.001  0.005  0.000  0.006
   10  0.000  0.023  0.000  0.023
   11  0.002  0.016  0.011  0.030
   12  0.003  0.023  0.010  0.036
   13  0.001  0.020  0.013  0.035
   14  0.002  0.016  0.011  0.030
   15  0.001  0.020  0.013  0.035
   16  0.003  0.023  0.010  0.036
tot    0.189  0.195  0.069  0.452
 
band    41 # energy    9.14199413 # occ.  0.00000000
 
ion      s      p      d    tot
    1  0.000  0.007  0.000  0.007
    2  0.001  0.046  0.000  0.047
    3  0.054  0.000  0.000  0.054
    4  0.000  0.005  0.000  0.005
    5  0.001  0.016  0.000  0.017
    6  0.001  0.016  0.000  0.017
    7  0.000  0.005  0.000  0.005
    8  0.001  0.046  0.000  0.047
    9  0.000  0.007  0.000  0.007
   10  0.001  0.000  0.005  0.006
   11  0.001  0.017  0.017  0.036
   12  0.002  0.020  0.008  0.031
   13  0.000  0.030  0.007  0.037
   14  0.001  0.017  0.017  0.036
   15  0.000  0.030  0.007  0.037
   16  0.002  0.020  0.008  0.031
tot    0.067  0.283  0.071  0.421
 
band    42 # energy    9.33174390 # occ.  0.00000000
 
ion      s      p      d    tot
    1  0.007  0.011  0.000  0.019
    2  0.002  0.005  0.000  0.007
    3  0.000  0.050  0.000  0.050
    4  0.002  0.013  0.000  0.015
    5  0.000  0.029  0.000  0.029
    6  0.000  0.029  0.000  0.029
    7  0.002  0.013  0.000  0.015
    8  0.002  0.005  0.000  0.007
    9  0.007  0.011  0.000  0.019
   10  0.000  0.062  0.000  0.062
   11  0.000  0.010  0.009  0.019
   12  0.000  0.003  0.019  0.022
   13  0.001  0.002  0.005  0.008
   14  0.000  0.010  0.009  0.019
   15  0.001  0.002  0.005  0.008
   16  0.000  0.003  0.019  0.022
tot    0.025  0.259  0.066  0.350
 

 k-point     2 :    0.33333333 0.00000000-0.00000000     weight = 0.07407407

band     1 # energy  -10.18627228 # occ.  2.00000000
 
ion      s      p      d    tot
    1  0.001  0.001  0.000  0.002
    2  0.001  0.000  0.000  0.001
    3  0.001  0.000  0.000  0.001
    4  0.001  0.000  0.000  0.002
    5  0.002  0.000  0.000  0.002
    6  0.002  0.000  0.000  0.002
    7  0.001  0.000  0.000  0.002
    8  0.001  0.000  0.000  0.001
    9  0.001  0.001  0.000  0.002
   10  0.074  0.000  0.000  0.074
   11  0.082  0.000  0.000  0.082
   12  0.090  0.001  0.000  0.091
   13  0.112  0.000  0.000  0.112
   14  0.082  0.000  0.000  0.082
   15  0.112  0.000  0.000  0.112
   16  0.090  0.001  0.000  0.091
tot    0.652  0.006  0.000  0.659
 
band     2 # energy   -9.65399680 # occ.  2.00000000
 
ion      s      p      d    tot
    1  0.002  0.001  0.000  0.002
    2  0.000  0.000  0.000  0.001
    3  0.001  0.000  0.000  0.002
    4  0.000  0.001  0.000  0.002
    5  0.001  0.001  0.000  0.002
    6  0.001  0.001  0.000  0.002
    7  0.000  0.001  0.000  0.002
    8  0.000  0.000  0.000  0.001
    9  0.002  0.001  0.000  0.002
   10  0.006  0.005  0.000  0.010
   11  0.094  0.000  0.000  0.094
   12  0.165  0.000  0.000  0.165
   13  0.080  0.000  0.000  0.080
   14  0.094  0.000  0.000  0.094
   15  0.080  0.000  0.000  0.080
   16  0.165  0.000  0.000  0.165
tot    0.690  0.013  0.000  0.703
 
band     3 # energy   -9.46979065 # occ.  2.00000000
 
ion      s      p      d    tot
    1  0.000  0.001  0.000  0.001
    2  0.000  0.001  0.000  0.001
    3  0.000  0.001  0.000  0.001
    4  0.001  0.001  0.000  0.002
    5  0.000  0.001  0.000  0.001
    6  0.000  0.001  0.000  0.001
    7  0.001  0.001  0.000  0.002
    8  0.000  0.001  0.000  0.001
    9  0.000  0.001  0.000  0.001