 running on   14 total cores
 distrk:  each k-point on   14 cores,    1 groups
 distr:  one band on    1 cores,   14 groups
 using from now: INCAR     
 vasp.5.4.4.18Apr17-6-g9f103f2a35 (build Oct 27 2022 13:04:57) complex          
  
 POSCAR found type information on POSCAR  Li Sb Se
 POSCAR found :  3 types and      16 ions
 scaLAPACK will be used

 ----------------------------------------------------------------------------- 
|                                                                             |
|           W    W    AA    RRRRR   N    N  II  N    N   GGGG   !!!           |
|           W    W   A  A   R    R  NN   N  II  NN   N  G    G  !!!           |
|           W    W  A    A  R    R  N N  N  II  N N  N  G       !!!           |
|           W WW W  AAAAAA  RRRRR   N  N N  II  N  N N  G  GGG   !            |
|           WW  WW  A    A  R   R   N   NN  II  N   NN  G    G                |
|           W    W  A    A  R    R  N    N  II  N    N   GGGG   !!!           |
|                                                                             |
|      For optimal performance we recommend to set                            |
|        NCORE= 4 - approx SQRT( number of cores)                             |
|      NCORE specifies how many cores store one orbital (NPAR=cpu/NCORE).     |
|      This setting can  greatly improve the performance of VASP for DFT.     |
|      The default,   NCORE=1            might be grossly inefficient         |
|      on modern multi-core architectures or massively parallel machines.     |
|      Do your own testing !!!!                                               |
|      Unfortunately you need to use the default for GW and RPA calculations. |
|      (for HF NCORE is supported but not extensively tested yet)             |
|                                                                             |
 ----------------------------------------------------------------------------- 

 LDA part: xc-table for Pade appr. of Perdew
 POSCAR, INCAR and KPOINTS ok, starting setup
 FFT: planning ...
 WAVECAR not read
 entering main loop
       N       E                     dE             d eps       ncg     rms          rms(c)
DAV:   1     0.147611541060E+03    0.14761E+03   -0.12006E+04  1176   0.574E+02
DAV:   2    -0.333497403233E+02   -0.18096E+03   -0.17177E+03  1624   0.113E+02
DAV:   3    -0.537546014326E+02   -0.20405E+02   -0.20261E+02  1568   0.422E+01
DAV:   4    -0.540762824965E+02   -0.32168E+00   -0.32149E+00  1470   0.635E+00
DAV:   5    -0.540811273054E+02   -0.48448E-02   -0.48441E-02  1652   0.735E-01    0.665E+00
DAV:   6    -0.512359624183E+02    0.28452E+01   -0.52013E+00  1484   0.536E+00    0.375E+00
DAV:   7    -0.509306084079E+02    0.30535E+00   -0.98074E-01  1568   0.246E+00    0.185E+00
DAV:   8    -0.508983825813E+02    0.32226E-01   -0.68236E-02  1596   0.877E-01    0.622E-01
DAV:   9    -0.508960401743E+02    0.23424E-02   -0.25620E-02  1568   0.526E-01    0.307E-01
DAV:  10    -0.508968539723E+02   -0.81380E-03   -0.13362E-03  1456   0.111E-01    0.916E-02
DAV:  11    -0.508970915499E+02   -0.23758E-03   -0.10627E-03  1568   0.111E-01    0.303E-02
DAV:  12    -0.508970999288E+02   -0.83789E-05   -0.68685E-05  1162   0.261E-02
   1 F= -.50897100E+02 E0= -.50895388E+02  d E =-.508971E+02
 curvature:   0.00 expect dE= 0.000E+00 dE for cont linesearch  0.000E+00
 trial: gam= 0.00000 g(F)=  0.830E-01 g(S)=  0.486E+00 ort = 0.000E+00 (trialstep = 0.100E+01)
 search vector abs. value=  0.569E+00
 bond charge predicted
       N       E                     dE             d eps       ncg     rms          rms(c)
DAV:   1    -0.516661656546E+02   -0.76907E+00   -0.31295E+00  1554   0.510E+00    0.214E+00
DAV:   2    -0.514631158087E+02    0.20305E+00   -0.49577E-01  1512   0.173E+00    0.597E-01
DAV:   3    -0.514523578436E+02    0.10758E-01   -0.74005E-02  1568   0.735E-01    0.331E-01
DAV:   4    -0.514508667683E+02    0.14911E-02   -0.27037E-03  1400   0.152E-01    0.184E-01
DAV:   5    -0.514504764073E+02    0.39036E-03   -0.10797E-03  1568   0.976E-02    0.899E-02
DAV:   6    -0.514504668095E+02    0.95978E-05   -0.55350E-05   924   0.246E-02
   2 F= -.51450467E+02 E0= -.51448679E+02  d E =-.553367E+00
 ZBRENT: can't locate minimum, use default step
 trial-energy change:   -0.553367  1 .order   -0.551151   -0.568543   -0.533760
 step:   4.0000(harm= 16.3456)  dis= 0.03428  next Energy=   -55.543698 (dE=-0.465E+01)
 bond charge predicted
       N       E                     dE             d eps       ncg     rms          rms(c)
DAV:   1    -0.549030682986E+02   -0.34526E+01   -0.29653E+01  1540   0.161E+01    0.692E+00
DAV:   2    -0.530137781218E+02    0.18893E+01   -0.50233E+00  1540   0.535E+00    0.191E+00
DAV:   3    -0.529301036517E+02    0.83674E-01   -0.71080E-01  1400   0.231E+00    0.114E+00
DAV:   4    -0.529157039022E+02    0.14400E-01   -0.12349E-02  1554   0.385E-01    0.725E-01
DAV:   5    -0.529102492396E+02    0.54547E-02   -0.10868E-02  1526   0.333E-01    0.224E-01
DAV:   6    -0.529101682453E+02    0.80994E-04   -0.70793E-04  1554   0.918E-02
   3 F= -.52910168E+02 E0= -.52908429E+02  d E =-.201307E+01
 curvature:  -2.88 expect dE=-0.953E+00 dE for cont linesearch -0.883E+00
 ZBRENT: increasing intervall
 opt :  10.0000  next Energy=   -54.714405 (dE=-0.382E+01)
 bond charge predicted
       N       E                     dE             d eps       ncg     rms          rms(c)
DAV:   1    -0.628782523278E+02   -0.99680E+01   -0.13089E+02  1414   0.358E+01    0.154E+01
DAV:   2    -0.550352727843E+02    0.78430E+01   -0.18906E+01  1470   0.110E+01    0.478E+00
DAV:   3    -0.545733525010E+02    0.46192E+00   -0.40693E+00  1316   0.553E+00    0.297E+00
DAV:   4    -0.545249525906E+02    0.48400E-01   -0.55144E-02  1610   0.867E-01    0.210E+00
DAV:   5    -0.544928866533E+02    0.32066E-01   -0.65514E-02  1484   0.854E-01    0.284E-01
DAV:   6    -0.544915504084E+02    0.13362E-02   -0.42000E-03  1484   0.218E-01    0.174E-01
DAV:   7    -0.544915668376E+02   -0.16429E-04   -0.11700E-03  1568   0.974E-02    0.405E-02
DAV:   8    -0.544915292951E+02    0.37543E-04   -0.10589E-04  1078   0.377E-02
   4 F= -.54491529E+02 E0= -.54489866E+02  d E =-.359443E+01
 curvature:  -5.89 expect dE=-0.146E+01 dE for cont linesearch -0.362E-01
 ZBRENT: extrapolating
 opt :  10.9903  next Energy=   -54.520799 (dE=-0.362E+01)
 bond charge predicted
       N       E                     dE             d eps       ncg     rms          rms(c)
DAV:   1    -0.547412454769E+02   -0.24968E+00   -0.34451E+00  1344   0.566E+00    0.241E+00
DAV:   2    -0.545219289433E+02    0.21932E+00   -0.51249E-01  1344   0.188E+00    0.737E-01
DAV:   3    -0.545082800706E+02    0.13649E-01   -0.77082E-02  1442   0.782E-01    0.332E-01
DAV:   4    -0.545068949537E+02    0.13851E-02   -0.13595E-03  1512   0.140E-01    0.244E-01
DAV:   5    -0.545063737069E+02    0.52125E-03   -0.10084E-03  1568   0.108E-01    0.691E-02
DAV:   6    -0.545063655686E+02    0.81383E-05   -0.38965E-05  1064   0.256E-02
   5 F= -.54506366E+02 E0= -.54504699E+02  d E =-.360927E+01
 curvature:  -4.76 expect dE=-0.155E+01 dE for cont linesearch -0.183E-02
 trial: gam= 0.59993 g(F)=  0.306E+00 g(S)=  0.200E-01 ort =-0.148E-01 (trialstep = 0.300E+01)
 search vector abs. value=  0.513E+00
 bond charge predicted
       N       E                     dE             d eps       ncg     rms          rms(c)
DAV:   1    -0.554852870869E+02   -0.97891E+00   -0.28218E+01  1176   0.174E+01    0.291E+00
DAV:   2    -0.553579338835E+02    0.12735E+00   -0.17626E+00  1568   0.426E+00    0.102E+00
DAV:   3    -0.553248956315E+02    0.33038E-01   -0.15112E-01  1386   0.113E+00    0.592E-01
DAV:   4    -0.553237235991E+02    0.11720E-02   -0.82424E-03  1540   0.308E-01    0.302E-01
DAV:   5    -0.553232226723E+02    0.50093E-03   -0.14147E-03  1610   0.123E-01    0.137E-01
DAV:   6    -0.553232174908E+02    0.51815E-05   -0.13269E-04  1330   0.448E-02
   6 F= -.55323217E+02 E0= -.55321555E+02  d E =-.816852E+00
 trial-energy change:   -0.816852  1 .order   -0.826934   -0.951702   -0.702165
 step:  11.4343(harm= 11.4343)  dis= 0.21983  next Energy=   -56.321202 (dE=-0.181E+01)
 bond charge predicted
       N       E                     dE             d eps       ncg     rms          rms(c)
DAV:   1    -0.574496702355E+02   -0.21264E+01   -0.22340E+02  1176   0.496E+01    0.107E+01
DAV:   2    -0.564656192815E+02    0.98405E+00   -0.16116E+01  1568   0.126E+01    0.301E+00
DAV:   3    -0.562360199934E+02    0.22960E+00   -0.12855E+00  1344   0.342E+00    0.241E+00
DAV:   4    -0.562276801296E+02    0.83399E-02   -0.91736E-02  1554   0.102E+00    0.139E+00
DAV:   5    -0.562235908013E+02    0.40893E-02   -0.91290E-03  1498   0.321E-01    0.509E-01
DAV:   6    -0.562234322191E+02    0.15858E-03   -0.15800E-03  1568   0.139E-01    0.116E-01
DAV:   7    -0.562234261877E+02    0.60314E-05   -0.10109E-04  1120   0.354E-02
   7 F= -.56223426E+02 E0= -.56223426E+02  d E =-.171706E+01
 curvature:  -9.24 expect dE=-0.111E+01 dE for cont linesearch -0.114E-01
 ZBRENT: interpolating
 opt :  10.6165  next Energy=   -56.233705 (dE=-0.173E+01)
 bond charge predicted
       N       E                     dE             d eps       ncg     rms          rms(c)
DAV:   1    -0.562468095821E+02   -0.23377E-01   -0.20642E+00  1232   0.471E+00    0.740E-01
DAV:   2    -0.562399486814E+02    0.68609E-02   -0.12235E-01  1540   0.116E+00    0.363E-01
DAV:   3    -0.562366742970E+02    0.32744E-02   -0.95787E-03  1400   0.287E-01    0.159E-01
DAV:   4    -0.562363970416E+02    0.27726E-03   -0.79488E-04  1610   0.910E-02    0.609E-02
DAV:   5    -0.562363533260E+02    0.43716E-04   -0.86597E-05  1078   0.321E-02
   8 F= -.56236353E+02 E0= -.56236353E+02  d E =-.172999E+01
 curvature:  -8.35 expect dE=-0.930E+00 dE for cont linesearch -0.123E-04
 trial: gam=-0.01702 g(F)=  0.273E-01 g(S)=  0.842E-01 ort = 0.869E-03 (trialstep = 0.452E+01)
 search vector abs. value=  0.112E+00
 bond charge predicted
       N       E                     dE             d eps       ncg     rms          rms(c)
DAV:   1    -0.570618113084E+02   -0.82541E+00   -0.12299E+01  1232   0.109E+01    0.351E+00
DAV:   2    -0.566118022276E+02    0.45001E+00   -0.10574E+00  1498   0.318E+00    0.137E+00
DAV:   3    -0.565393249278E+02    0.72477E-01   -0.34132E-01  1372   0.157E+00    0.502E-01
DAV:   4    -0.565366971033E+02    0.26278E-02   -0.62665E-03  1568   0.292E-01    0.337E-01
DAV:   5    -0.565356169733E+02    0.10801E-02   -0.27037E-03  1540   0.168E-01    0.154E-01
DAV:   6    -0.565355893653E+02    0.27608E-04   -0.18076E-04  1512   0.539E-02
   9 F= -.56535589E+02 E0= -.56535589E+02  d E =-.299236E+00
 trial-energy change:   -0.299236  1 .order   -0.306321   -0.503989   -0.108653
 step:   5.9701(harm=  5.7645)  dis= 0.03313  next Energy=   -56.552758 (dE=-0.316E+00)
 bond charge predicted
       N       E                     dE             d eps       ncg     rms          rms(c)
DAV:   1    -0.566061746675E+02   -0.70558E-01   -0.12682E+00  1260   0.352E+00    0.114E+00
DAV:   2    -0.565595753323E+02    0.46599E-01   -0.10840E-01  1540   0.102E+00    0.434E-01
DAV:   3    -0.565524392452E+02    0.71361E-02   -0.35146E-02  1316   0.503E-01    0.174E-01
DAV:   4    -0.565521490238E+02    0.29022E-03   -0.64313E-04  1568   0.929E-02    0.117E-01
DAV:   5    -0.565520198850E+02    0.12914E-03   -0.29439E-04  1498   0.554E-02    0.521E-02
DAV:   6    -0.565520155853E+02    0.42997E-05   -0.18975E-05   840   0.173E-02
  10 F= -.56552016E+02 E0= -.56552016E+02  d E =-.315662E+00
 curvature:  -2.81 expect dE=-0.145E-01 dE for cont linesearch -0.794E-04
 ZBRENT: interpolating
 opt :   5.8704  next Energy=   -56.552104 (dE=-0.316E+00)
 bond charge predicted
       N       E                     dE             d eps       ncg     rms          rms(c)
DAV:   1    -0.565523669089E+02   -0.34702E-03   -0.60075E-03  1316   0.245E-01    0.800E-02
DAV:   2    -0.565521491378E+02    0.21777E-03   -0.50214E-04  1568   0.692E-02    0.303E-02
DAV:   3    -0.565521179357E+02    0.31202E-04   -0.15291E-04   812   0.346E-02
  11 F= -.56552118E+02 E0= -.56552118E+02  d E =-.315765E+00
 curvature:  -3.13 expect dE=-0.157E-01 dE for cont linesearch -0.447E-05
 trial: gam= 0.04551 g(F)=  0.478E-02 g(S)=  0.237E-03 ort =-0.399E-03 (trialstep = 0.479E+01)
 search vector abs. value=  0.521E-02
 bond charge predicted
       N       E                     dE             d eps       ncg     rms          rms(c)
DAV:   1    -0.565746891746E+02   -0.22540E-01   -0.72712E-02  1316   0.878E-01    0.125E-01
DAV:   2    -0.565747986664E+02   -0.10949E-03   -0.41785E-03  1526   0.219E-01    0.486E-02
DAV:   3    -0.565747425896E+02    0.56077E-04   -0.17157E-04  1372   0.449E-02
  12 F= -.56574743E+02 E0= -.56574743E+02  d E =-.226247E-01
 ZBRENT: can't locate minimum, use default step
 trial-energy change:   -0.022625  1 .order   -0.022690   -0.023966   -0.021415
 step:  19.1660(harm= 45.0132)  dis= 0.04533  next Energy=   -56.664691 (dE=-0.113E+00)
 bond charge predicted
       N       E                     dE             d eps       ncg     rms          rms(c)
DAV:   1    -0.566254748812E+02   -0.50676E-01   -0.65320E-01  1372   0.263E+00    0.373E-01
DAV:   2    -0.566262641730E+02   -0.78929E-03   -0.36834E-02  1512   0.652E-01    0.148E-01
DAV:   3    -0.566257238681E+02    0.54030E-03   -0.16387E-03  1498   0.137E-01    0.901E-02
DAV:   4    -0.566255476938E+02    0.17617E-03   -0.37130E-04  1512   0.649E-02    0.301E-02
DAV:   5    -0.566255378174E+02    0.98764E-05   -0.62729E-05  1092   0.295E-02
  13 F= -.56625538E+02 E0= -.56625538E+02  d E =-.734199E-01
 curvature: -13.77 expect dE=-0.324E-01 dE for cont linesearch -0.188E-01
 ZBRENT: increasing intervall
 opt :  47.9149  next Energy=   -56.650591 (dE=-0.985E-01)
 bond charge predicted
       N       E                     dE             d eps       ncg     rms          rms(c)
DAV:   1    -0.566501490621E+02   -0.24601E-01   -0.26626E+00  1302   0.529E+00    0.755E-01
DAV:   2    -0.566537037606E+02   -0.35547E-02   -0.15069E-01  1526   0.132E+00    0.288E-01
DAV:   3    -0.566516667489E+02    0.20370E-02   -0.64897E-03  1484   0.271E-01    0.177E-01
DAV:   4    -0.566510299943E+02    0.63675E-03   -0.14256E-03  1512   0.127E-01    0.607E-02
DAV:   5    -0.566509974175E+02    0.32577E-04   -0.27271E-04  1554   0.580E-02
  14 F= -.56650997E+02 E0= -.56650997E+02  d E =-.988795E-01
 curvature: -18.32 expect dE=-0.996E-01 dE for cont linesearch -0.291E-02
 ZBRENT: bracketing found
 ZBRENT: interpolating
 opt :  40.6098  next Energy=   -56.654320 (dE=-0.102E+00)
 bond charge predicted
       N       E                     dE             d eps       ncg     rms          rms(c)
DAV:   1    -0.566543529865E+02   -0.33230E-02   -0.17285E-01  1232   0.134E+00    0.187E-01
DAV:   2    -0.566544848934E+02   -0.13191E-03   -0.93464E-03  1554   0.333E-01    0.766E-02
DAV:   3    -0.566543495452E+02    0.13535E-03   -0.44075E-04  1456   0.699E-02    0.476E-02
DAV:   4    -0.566543033735E+02    0.46172E-04   -0.76849E-05  1148   0.315E-02
  15 F= -.56654303E+02 E0= -.56654303E+02  d E =-.102185E+00
 curvature: -20.94 expect dE=-0.851E-01 dE for cont linesearch -0.112E-05
 trial: gam= 0.84586 g(F)=  0.186E-02 g(S)=  0.220E-02 ort =-0.167E-04 (trialstep = 0.803E+01)
 search vector abs. value=  0.777E-02
 bond charge predicted
       N       E                     dE             d eps       ncg     rms          rms(c)
DAV:   1    -0.566939437829E+02   -0.39594E-01   -0.82601E-01  1358   0.292E+00    0.570E-01
DAV:   2    -0.566850301377E+02    0.89136E-02   -0.41886E-02  1484   0.710E-01    0.275E-01
DAV:   3    -0.566811793591E+02    0.38508E-02   -0.11108E-02  1540   0.327E-01    0.117E-01
DAV:   4    -0.566809599283E+02    0.21943E-03   -0.12507E-03  1554   0.122E-01    0.780E-02
DAV:   5    -0.566808721958E+02    0.87732E-04   -0.22146E-04  1512   0.475E-02
  16 F= -.56680872E+02 E0= -.56680872E+02  d E =-.265688E-01
 trial-energy change:   -0.026569  1 .order   -0.026380   -0.032514   -0.020246
 step:  21.2699(harm= 21.2699)  dis= 0.05706  next Energy=   -56.697391 (dE=-0.431E-01)
 bond charge predicted
       N       E                     dE             d eps       ncg     rms          rms(c)
DAV:   1    -0.567366151246E+02   -0.55655E-01   -0.22358E+00  1428   0.479E+00    0.919E-01
DAV:   2    -0.567129185444E+02    0.23697E-01   -0.11329E-01  1484   0.116E+00    0.449E-01
DAV:   3    -0.567024695930E+02    0.10449E-01   -0.29294E-02  1568   0.531E-01    0.193E-01
DAV:   4    -0.567018622705E+02    0.60732E-03   -0.33286E-03  1526   0.198E-01    0.126E-01
DAV:   5    -0.567016335494E+02    0.22872E-03   -0.58974E-04  1568   0.771E-02    0.365E-02
DAV:   6    -0.567016328797E+02    0.66962E-06   -0.52666E-05  1064   0.238E-02
  17 F= -.56701633E+02 E0= -.56701633E+02  d E =-.473295E-01
 curvature: -20.39 expect dE=-0.492E-01 dE for cont linesearch -0.730E-03
 ZBRENT: extrapolating
 opt :  24.7715  next Energy=   -56.702556 (dE=-0.483E-01)
 bond charge predicted
       N       E                     dE             d eps       ncg     rms          rms(c)
DAV:   1    -0.567053281205E+02   -0.36946E-02   -0.15508E-01  1400   0.126E+00    0.242E-01
DAV:   2    -0.567036565502E+02    0.16716E-02   -0.76547E-03  1512   0.302E-01    0.117E-01
DAV:   3    -0.567029472247E+02    0.70933E-03   -0.20099E-03  1554   0.138E-01    0.516E-02
DAV:   4    -0.567029035128E+02    0.43712E-04   -0.21442E-04  1540   0.505E-02
  18 F= -.56702904E+02 E0= -.56702904E+02  d E =-.486001E-01
 curvature: -25.78 expect dE=-0.701E-01 dE for cont linesearch -0.172E-03
 trial: gam= 0.52112 g(F)=  0.211E-02 g(S)=  0.611E-03 ort = 0.228E-03 (trialstep = 0.114E+02)
 search vector abs. value=  0.507E-02
 bond charge predicted
       N       E                     dE             d eps       ncg     rms          rms(c)
DAV:   1    -0.567309655206E+02   -0.28018E-01   -0.11487E+00  1176   0.356E+00    0.545E-01
DAV:   2    -0.567284189540E+02    0.25466E-02   -0.62188E-02  1568   0.841E-01    0.243E-01
DAV:   3    -0.567267571255E+02    0.16618E-02   -0.46176E-03  1456   0.208E-01    0.112E-01
DAV:   4    -0.567264931795E+02    0.26395E-03   -0.40328E-04  1596   0.701E-02    0.536E-02
DAV:   5    -0.567264495867E+02    0.43593E-04   -0.12135E-04  1134   0.385E-02
  19 F= -.56726450E+02 E0= -.56726450E+02  d E =-.235461E-01
 trial-energy change:   -0.023546  1 .order   -0.023754   -0.032297   -0.015210
 step:  21.4993(harm= 21.4993)  dis= 0.04064  next Energy=   -56.733427 (dE=-0.305E-01)
 bond charge predicted
       N       E                     dE             d eps       ncg     rms          rms(c)
DAV:   1    -0.567370509560E+02   -0.10558E-01   -0.91154E-01  1176   0.318E+00    0.487E-01
DAV:   2    -0.567350010168E+02    0.20499E-02   -0.49224E-02  1568   0.749E-01    0.214E-01
DAV:   3    -0.567336883985E+02    0.13126E-02   -0.36838E-03  1442   0.186E-01    0.988E-02
DAV:   4    -0.567334816505E+02    0.20675E-03   -0.31213E-04  1582   0.618E-02    0.482E-02
DAV:   5    -0.567334473719E+02    0.34279E-04   -0.98590E-05   994   0.347E-02
  20 F= -.56733447E+02 E0= -.56733447E+02  d E =-.305439E-01
 curvature: -19.19 expect dE=-0.959E-01 dE for cont linesearch -0.103E-04
 trial: gam= 1.85469 g(F)=  0.338E-02 g(S)=  0.161E-02 ort =-0.521E-04 (trialstep = 0.305E+01)
 search vector abs. value=  0.222E-01
 bond charge predicted
       N       E                     dE             d eps       ncg     rms          rms(c)
DAV:   1    -0.567478873642E+02   -0.14406E-01   -0.16948E-01  1176   0.135E+00    0.196E-01
DAV:   2    -0.567477839599E+02    0.10340E-03   -0.91872E-03  1568   0.332E-01    0.849E-02
DAV:   3    -0.567476302747E+02    0.15369E-03   -0.52459E-04  1484   0.749E-02    0.441E-02
DAV:   4    -0.567475913612E+02    0.38913E-04   -0.74209E-05  1162   0.305E-02
  21 F= -.56747591E+02 E0= -.56747591E+02  d E =-.141440E-01
 ZBRENT: can't locate minimum, use default step
 trial-energy change:   -0.014144  1 .order   -0.014250   -0.014965   -0.013536
 step:  12.2154(harm= 31.9904)  dis= 0.05624  next Energy=   -56.811828 (dE=-0.784E-01)
 bond charge predicted
       N       E                     dE             d eps       ncg     rms          rms(c)
DAV:   1    -0.567830422022E+02   -0.35412E-01   -0.15096E+00  1176   0.402E+00    0.581E-01
DAV:   2    -0.567823497796E+02    0.69242E-03   -0.81462E-02  1568   0.989E-01    0.250E-01
DAV:   3    -0.567810014006E+02    0.13484E-02   -0.45357E-03  1498   0.220E-01    0.132E-01
DAV:   4    -0.567806733892E+02    0.32801E-03   -0.73154E-04  1568   0.902E-02    0.523E-02
DAV:   5    -0.567806330918E+02    0.40297E-04   -0.15834E-04  1358   0.417E-02
  22 F= -.56780633E+02 E0= -.56780633E+02  d E =-.471857E-01
 curvature: -38.69 expect dE=-0.108E+00 dE for cont linesearch -0.132E-01
 ZBRENT: increasing intervall
 opt :  30.5385  next Energy=   -56.800442 (dE=-0.670E-01)
 bond charge predicted
       N       E                     dE             d eps       ncg     rms          rms(c)
DAV:   1    -0.568163363858E+02   -0.35663E-01   -0.59809E+00  1176   0.800E+00    0.116E+00
DAV:   2    -0.568147084702E+02    0.16279E-02   -0.32475E-01  1568   0.197E+00    0.517E-01
DAV:   3    -0.568092328447E+02    0.54756E-02   -0.17554E-02  1526   0.430E-01    0.271E-01
DAV:   4    -0.568078573545E+02    0.13755E-02   -0.29970E-03  1568   0.181E-01    0.102E-01
DAV:   5    -0.568077113912E+02    0.14596E-03   -0.66735E-04  1554   0.833E-02    0.346E-02
DAV:   6    -0.568077099294E+02    0.14618E-05   -0.53100E-05  1022   0.256E-02
  23 F= -.56807710E+02 E0= -.56807710E+02  d E =-.742626E-01
 curvature: -57.96 expect dE=-0.203E+00 dE for cont linesearch -0.114E-03
 trial: gam= 0.53115 g(F)=  0.272E-02 g(S)=  0.776E-03 ort = 0.210E-03 (trialstep = 0.855E+01)
 search vector abs. value=  0.100E-01
 bond charge predicted
       N       E                     dE             d eps       ncg     rms          rms(c)
DAV:   1    -0.568404350149E+02   -0.32724E-01   -0.12209E+00  1176   0.351E+00    0.572E-01
DAV:   2    -0.568371281110E+02    0.33069E-02   -0.71170E-02  1568   0.919E-01    0.226E-01
DAV:   3    -0.568352052543E+02    0.19229E-02   -0.58681E-03  1428   0.233E-01    0.108E-01
DAV:   4    -0.568351030614E+02    0.10219E-03   -0.65623E-04  1582   0.847E-02    0.428E-02
DAV:   5    -0.568350858963E+02    0.17165E-04   -0.49465E-05  1036   0.259E-02
  24 F= -.56835086E+02 E0= -.56835086E+02  d E =-.273760E-01
 ZBRENT: can't locate minimum, use default step
 trial-energy change:   -0.027376  1 .order   -0.027453   -0.030884   -0.024021
 step:  34.2031(harm= 38.4807)  dis= 0.09398  next Energy=   -56.877203 (dE=-0.695E-01)
 bond charge predicted
       N       E                     dE             d eps       ncg     rms          rms(c)
DAV:   1    -0.569104911525E+02   -0.75388E-01   -0.11110E+01  1176   0.106E+01    0.174E+00
DAV:   2    -0.568794640464E+02    0.31027E-01   -0.65570E-01  1568   0.279E+00    0.650E-01
DAV:   3    -0.568627715569E+02    0.16692E-01   -0.55384E-02  1470   0.719E-01    0.317E-01
DAV:   4    -0.568619501452E+02    0.82141E-03   -0.59269E-03  1582   0.258E-01    0.144E-01
DAV:   5    -0.568617624656E+02    0.18768E-03   -0.46173E-04  1498   0.748E-02    0.772E-02
DAV:   6    -0.568617549192E+02    0.75465E-05   -0.74357E-05  1106   0.322E-02
  25 F= -.56861755E+02 E0= -.56861755E+02  d E =-.540450E-01
 curvature: -52.16 expect dE=-0.418E+00 dE for cont linesearch -0.275E-02
 ZBRENT: interpolating
 opt :  28.9344  next Energy=   -56.863668 (dE=-0.560E-01)
 bond charge predicted
       N       E                     dE             d eps       ncg     rms          rms(c)
DAV:   1    -0.568652856864E+02   -0.35232E-02   -0.46553E-01  1176   0.217E+00    0.349E-01
DAV:   2    -0.568643075706E+02    0.97812E-03   -0.27163E-02  1554   0.571E-01    0.152E-01
DAV:   3    -0.568635573059E+02    0.75026E-03   -0.20140E-03  1498   0.137E-01    0.721E-02
DAV:   4    -0.568634866615E+02    0.70644E-04   -0.27777E-04  1540   0.542E-02
  26 F= -.56863487E+02 E0= -.56863487E+02  d E =-.557767E-01
 curvature: -36.27 expect dE=-0.206E+00 dE for cont linesearch -0.321E-05
 trial: gam= 1.67756 g(F)=  0.386E-02 g(S)=  0.181E-02 ort = 0.297E-04 (trialstep = 0.372E+01)
 search vector abs. value=  0.339E-01
 bond charge predicted
       N       E                     dE             d eps       ncg     rms          rms(c)
DAV:   1    -0.568829359954E+02   -0.19379E-01   -0.74851E-01  1176   0.269E+00    0.352E-01
DAV:   2    -0.568843522729E+02   -0.14163E-02   -0.38702E-02  1554   0.660E-01    0.118E-01
DAV:   3    -0.568838487526E+02    0.50352E-03   -0.12236E-03  1470   0.132E-01    0.745E-02
DAV:   4    -0.568837284820E+02    0.12027E-03   -0.40486E-04  1568   0.677E-02    0.244E-02
DAV:   5    -0.568837195174E+02    0.89646E-05   -0.42542E-05   980   0.240E-02
  27 F= -.56883720E+02 E0= -.56883720E+02  d E =-.202329E-01
 ZBRENT: can't locate minimum, use default step
 trial-energy change:   -0.020233  1 .order   -0.020291   -0.021300   -0.019282
 step:  14.8933(harm= 39.2896)  dis= 0.07126  next Energy=   -56.975871 (dE=-0.112E+00)
 bond charge predicted
       N       E                     dE             d eps       ncg     rms          rms(c)
DAV:   1    -0.569227760454E+02   -0.39048E-01   -0.67496E+00  1176   0.805E+00    0.112E+00
DAV:   2    -0.569357864909E+02   -0.13010E-01   -0.35387E-01  1554   0.200E+00    0.366E-01
DAV:   3    -0.569312385850E+02    0.45479E-02   -0.11028E-02  1484   0.401E-01    0.232E-01
DAV:   4    -0.569301569435E+02    0.10816E-02   -0.38805E-03  1568   0.212E-01    0.780E-02
DAV:   5    -0.569300766045E+02    0.80339E-04   -0.47147E-04  1512   0.754E-02
  28 F= -.56930077E+02 E0= -.56930077E+02  d E =-.665899E-01
 curvature: -61.64 expect dE=-0.393E+00 dE for cont linesearch -0.164E-01
 ZBRENT: increasing intervall
 opt :  37.2332  next Energy=   -56.948518 (dE=-0.850E-01)
 bond charge predicted
       N       E                     dE             d eps       ncg     rms          rms(c)
DAV:   1    -0.568868461357E+02    0.43311E-01   -0.27329E+01  1176   0.162E+01    0.259E+00
DAV:   2    -0.569443102716E+02   -0.57464E-01   -0.15194E+00  1554   0.416E+00    0.843E-01
DAV:   3    -0.569254224931E+02    0.18888E-01   -0.45852E-02  1498   0.845E-01    0.554E-01
DAV:   4    -0.569207296935E+02    0.46928E-02   -0.19382E-02  1568   0.484E-01    0.187E-01
DAV:   5    -0.569204022611E+02    0.32743E-03   -0.24945E-03  1498   0.176E-01    0.748E-02
DAV:   6    -0.569203839300E+02    0.18331E-04   -0.16721E-04  1260   0.440E-02
  29 F= -.56920384E+02 E0= -.56920384E+02  d E =-.568973E-01
 curvature: -69.37 expect dE=-0.132E+01 dE for cont linesearch -0.539E-01
 ZBRENT: bracketing found
 ZBRENT: interpolating
 opt :  23.1365  next Energy=   -56.942450 (dE=-0.790E-01)
 bond charge predicted
       N       E                     dE             d eps       ncg     rms          rms(c)
DAV:   1    -0.569310982555E+02   -0.10696E-01   -0.10941E+01  1176   0.105E+01    0.136E+00
DAV:   2    -0.569563917000E+02   -0.25293E-01   -0.61531E-01  1554   0.264E+00    0.491E-01
DAV:   3    -0.569488756084E+02    0.75161E-02   -0.19939E-02  1470   0.529E-01    0.314E-01
DAV:   4    -0.569468214290E+02    0.20542E-02   -0.67188E-03  1568   0.274E-01    0.107E-01
DAV:   5    -0.569466893911E+02    0.13204E-03   -0.77861E-04  1498   0.963E-02    0.406E-02
DAV:   6    -0.569466820790E+02    0.73122E-05   -0.57387E-05  1106   0.258E-02
  30 F= -.56946682E+02 E0= -.56946682E+02  d E =-.831954E-01
 curvature: -15.92 expect dE=-0.138E+00 dE for cont linesearch -0.256E-03
 trial: gam= 0.71614 g(F)=  0.664E-02 g(S)=  0.202E-02 ort = 0.739E-03 (trialstep = 0.761E+01)
 search vector abs. value=  0.271E-01
 bond charge predicted
       N       E                     dE             d eps       ncg     rms          rms(c)
DAV:   1    -0.570129093854E+02   -0.66220E-01   -0.40982E+00  1246   0.665E+00    0.973E-01
DAV:   2    -0.570094322072E+02    0.34772E-02   -0.23384E-01  1554   0.164E+00    0.483E-01
DAV:   3    -0.570029984679E+02    0.64337E-02   -0.15780E-02  1498   0.407E-01    0.245E-01
DAV:   4    -0.570017333104E+02    0.12652E-02   -0.29867E-03  1624   0.185E-01    0.108E-01
DAV:   5    -0.570015393421E+02    0.19397E-03   -0.50478E-04  1512   0.767E-02    0.345E-02
DAV:   6    -0.570015408149E+02   -0.14728E-05   -0.46543E-05  1008   0.235E-02
  31 F= -.57001541E+02 E0= -.57001541E+02  d E =-.548587E-01
 trial-energy change:   -0.054859  1 .order   -0.053833   -0.069891   -0.037776
 step:  14.1964(harm= 16.5528)  dis= 0.05002  next Energy=   -57.018574 (dE=-0.719E-01)
 bond charge predicted
       N       E                     dE             d eps       ncg     rms          rms(c)
DAV:   1    -0.570353119609E+02   -0.33773E-01   -0.30790E+00  1302   0.576E+00    0.839E-01
DAV:   2    -0.570332884193E+02    0.20235E-02   -0.17630E-01  1540   0.142E+00    0.412E-01
DAV:   3    -0.570285227491E+02    0.47657E-02   -0.11443E-02  1540   0.350E-01    0.211E-01
DAV:   4    -0.570275813359E+02    0.94141E-03   -0.23325E-03  1624   0.164E-01    0.940E-02
DAV:   5    -0.570274402890E+02    0.14105E-03   -0.37113E-04  1498   0.659E-02    0.289E-02
DAV:   6    -0.570274417957E+02   -0.15067E-05   -0.33429E-05  1036   0.201E-02
  32 F= -.57027442E+02 E0= -.57027442E+02  d E =-.807597E-01
 curvature: -22.72 expect dE=-0.510E-01 dE for cont linesearch -0.565E-02
 ZBRENT: increasing intervall
 opt :  27.3774  next Energy=   -57.030409 (dE=-0.837E-01)
 bond charge predicted
       N       E                     dE             d eps       ncg     rms          rms(c)
DAV:   1    -0.570479804482E+02   -0.20540E-01   -0.12224E+01  1288   0.115E+01    0.169E+00
DAV:   2    -0.570455288406E+02    0.24516E-02   -0.71551E-01  1540   0.286E+00    0.856E-01
DAV:   3    -0.570264786772E+02    0.19050E-01   -0.42221E-02  1470   0.681E-01    0.441E-01
DAV:   4    -0.570222190153E+02    0.42597E-02   -0.10810E-02  1582   0.350E-01    0.182E-01
DAV:   5    -0.570216978494E+02    0.52117E-03   -0.15363E-03  1456   0.134E-01    0.567E-02
DAV:   6    -0.570217039707E+02   -0.61213E-05   -0.12726E-04  1274   0.385E-02
  33 F= -.57021704E+02 E0= -.57021704E+02  d E =-.750219E-01
 curvature: -11.94 expect dE=-0.744E-01 dE for cont linesearch -0.475E-02
 ZBRENT: bracketing found
 ZBRENT: interpolating
 opt :  20.0138  next Energy=   -57.034992 (dE=-0.883E-01)
 bond charge predicted
       N       E                     dE             d eps       ncg     rms          rms(c)
DAV:   1    -0.570435559056E+02   -0.21858E-01   -0.38718E+00  1232   0.646E+00    0.972E-01
DAV:   2    -0.570409331550E+02    0.26228E-02   -0.22257E-01  1554   0.158E+00    0.426E-01
DAV:   3    -0.570352105643E+02    0.57226E-02   -0.13795E-02  1442   0.387E-01    0.228E-01
DAV:   4    -0.570341866568E+02    0.10239E-02   -0.28629E-03  1610   0.182E-01    0.108E-01
DAV:   5    -0.570340363957E+02    0.15026E-03   -0.42355E-04  1498   0.705E-02    0.317E-02
DAV:   6    -0.570340389208E+02   -0.25251E-05   -0.37082E-05  1064   0.216E-02
  34 F= -.57034039E+02 E0= -.57034039E+02  d E =-.873568E-01
 curvature: -18.96 expect dE=-0.531E-01 dE for cont linesearch -0.263E-04
 trial: gam= 0.32373 g(F)=  0.173E-02 g(S)=  0.107E-02 ort =-0.194E-03 (trialstep = 0.101E+02)
 search vector abs. value=  0.552E-02
 bond charge predicted
       N       E                     dE             d eps       ncg     rms          rms(c)
DAV:   1    -0.570656020018E+02   -0.31566E-01   -0.21586E+00  1218   0.477E+00    0.767E-01
DAV:   2    -0.570615278575E+02    0.40741E-02   -0.11475E-01  1568   0.113E+00    0.344E-01
DAV:   3    -0.570570508410E+02    0.44770E-02   -0.82374E-03  1526   0.311E-01    0.180E-01
DAV:   4    -0.570561558433E+02    0.89500E-03   -0.26994E-03  1582   0.175E-01    0.811E-02
DAV:   5    -0.570560943385E+02    0.61505E-04   -0.24943E-04  1344   0.551E-02
  35 F= -.57056094E+02 E0= -.57056094E+02  d E =-.220554E-01
 trial-energy change:   -0.022055  1 .order   -0.021860   -0.027635   -0.016085
 step:  24.1355(harm= 24.1355)  dis= 0.04343  next Energy=   -57.067099 (dE=-0.331E-01)
 bond charge predicted
       N       E                     dE             d eps       ncg     rms          rms(c)
DAV:   1    -0.570791859525E+02   -0.23030E-01   -0.42043E+00  1274   0.667E+00    0.110E+00
DAV:   2    -0.570708990789E+02    0.82869E-02   -0.22424E-01  1568   0.159E+00    0.477E-01
DAV:   3    -0.570621753167E+02    0.87238E-02   -0.16250E-02  1498   0.438E-01    0.250E-01
DAV:   4    -0.570604404030E+02    0.17349E-02   -0.52485E-03  1582   0.245E-01    0.114E-01
DAV:   5    -0.570603182610E+02    0.12214E-03   -0.50692E-04  1484   0.772E-02    0.412E-02
DAV:   6    -0.570603177815E+02    0.47955E-06   -0.49368E-05  1064   0.251E-02
  36 F= -.57060318E+02 E0= -.57060318E+02  d E =-.262789E-01
 curvature: -24.30 expect dE=-0.106E+00 dE for cont linesearch -0.192E-02
 ZBRENT: interpolating
 opt :  20.0251  next Energy=   -57.061673 (dE=-0.276E-01)
 bond charge predicted
       N       E                     dE             d eps       ncg     rms          rms(c)
DAV:   1    -0.570640883274E+02   -0.37701E-02   -0.35862E-01  1190   0.195E+00    0.312E-01
DAV:   2    -0.570633898435E+02    0.69848E-03   -0.19120E-02  1568   0.465E-01    0.147E-01
DAV:   3    -0.570626053866E+02    0.78446E-03   -0.14094E-03  1456   0.128E-01    0.730E-02
DAV:   4    -0.570624445896E+02    0.16080E-03   -0.45836E-04  1568   0.721E-02    0.316E-02
DAV:   5    -0.570624291818E+02    0.15408E-04   -0.39209E-05   910   0.228E-02
  37 F= -.57062429E+02 E0= -.57062429E+02  d E =-.283903E-01
 curvature: -17.19 expect dE=-0.527E-01 dE for cont linesearch -0.904E-04
 trial: gam= 1.09636 g(F)=  0.230E-02 g(S)=  0.765E-03 ort =-0.170E-03 (trialstep = 0.714E+01)
 search vector abs. value=  0.933E-02
 bond charge predicted
       N       E                     dE             d eps       ncg     rms          rms(c)
DAV:   1    -0.570760639880E+02   -0.13619E-01   -0.19672E+00  1176   0.450E+00    0.568E-01
DAV:   2    -0.570829728208E+02   -0.69088E-02   -0.10497E-01  1568   0.106E+00    0.230E-01
DAV:   3    -0.570819264587E+02    0.10464E-02   -0.18910E-03  1554   0.169E-01    0.157E-01
DAV:   4    -0.570814129041E+02    0.51355E-03   -0.11318E-03  1568   0.120E-01    0.447E-02
DAV:   5    -0.570814129650E+02   -0.60918E-07   -0.23082E-04  1176   0.504E-02
  38 F= -.57081413E+02 E0= -.57081413E+02  d E =-.189838E-01
 ZBRENT: can't locate minimum, use default step
 trial-energy change:   -0.018984  1 .order   -0.018921   -0.020582   -0.017261
 step:  28.5739(harm= 44.2714)  dis= 0.07789  next Energy=   -57.126206 (dE=-0.638E-01)
 bond charge predicted
       N       E                     dE             d eps       ncg     rms          rms(c)
DAV:   1    -0.570798729871E+02    0.15399E-02   -0.17585E+01  1176   0.134E+01    0.186E+00
DAV:   2    -0.571443389171E+02   -0.64466E-01   -0.95921E-01  1568   0.320E+00    0.797E-01
DAV:   3    -0.571350192679E+02    0.93196E-02   -0.16259E-02  1554   0.499E-01    0.549E-01
DAV:   4    -0.571299292966E+02    0.50900E-02   -0.11197E-02  1568   0.377E-01    0.145E-01
DAV:   5    -0.571299565503E+02   -0.27254E-04   -0.24947E-03  1498   0.163E-01    0.705E-02
DAV:   6    -0.571299429033E+02    0.13647E-04   -0.66117E-05  1022   0.303E-02
  39 F= -.57129943E+02 E0= -.57129943E+02  d E =-.675137E-01
 curvature: -58.84 expect dE=-0.365E+00 dE for cont linesearch -0.220E-01
 ZBRENT: increasing intervall
 opt :  71.4348  next Energy=   -57.186478 (dE=-0.124E+00)
 bond charge predicted
       N       E                     dE             d eps       ncg     rms          rms(c)
DAV:   1    -0.569350982529E+02    0.19486E+00   -0.69018E+01  1176   0.264E+01    0.465E+00
DAV:   2    -0.572154728754E+02   -0.28037E+00   -0.40469E+00  1568   0.646E+00    0.205E+00
DAV:   3    -0.571778158076E+02    0.37657E-01   -0.59418E-02  1526   0.959E-01    0.145E+00
DAV:   4    -0.571541809056E+02    0.23635E-01   -0.53899E-02  1554   0.813E-01    0.344E-01
DAV:   5    -0.571543910012E+02   -0.21010E-03   -0.11258E-02  1498   0.351E-01    0.145E-01
DAV:   6    -0.571543235999E+02    0.67401E-04   -0.35534E-04  1554   0.655E-02
  40 F= -.57154324E+02 E0= -.57154324E+02  d E =-.918944E-01
 curvature: ****** expect dE=-0.451E+01 dE for cont linesearch -0.158E-01
 ZBRENT: bracketing found
 ZBRENT: interpolating
 opt :  56.6003  next Energy=   -57.161656 (dE=-0.992E-01)
 bond charge predicted
       N       E                     dE             d eps       ncg     rms          rms(c)
DAV:   1    -0.571373642769E+02    0.17027E-01   -0.84670E+00  1176   0.938E+00    0.116E+00
DAV:   2    -0.571670199362E+02   -0.29656E-01   -0.46006E-01  1568   0.222E+00    0.452E-01
DAV:   3    -0.571622141670E+02    0.48058E-02   -0.75177E-03  1526   0.347E-01    0.319E-01
DAV:   4    -0.571597948377E+02    0.24193E-02   -0.56810E-03  1568   0.270E-01    0.869E-02
DAV:   5    -0.571598428976E+02   -0.48060E-04   -0.11249E-03  1442   0.110E-01    0.538E-02
DAV:   6    -0.571598340453E+02    0.88523E-05   -0.29146E-05  1036   0.199E-02
  41 F= -.57159834E+02 E0= -.57159834E+02  d E =-.974049E-01
 curvature: -69.98 expect dE=-0.128E+01 dE for cont linesearch -0.961E-03
 trial: gam= 5.58612 g(F)=  0.128E-01 g(S)=  0.553E-02 ort = 0.358E-03 (trialstep = 0.507E+00)
 search vector abs. value=  0.313E+00
 bond charge predicted
       N       E                     dE             d eps       ncg     rms          rms(c)
DAV:   1    -0.571694443906E+02   -0.96015E-02   -0.34013E-01  1176   0.186E+00    0.204E-01
DAV:   2    -0.571708001042E+02   -0.13557E-02   -0.17486E-02  1554   0.425E-01    0.805E-02
DAV:   3    -0.571706903954E+02    0.10971E-03   -0.19119E-04  1414   0.569E-02    0.598E-02
DAV:   4    -0.571706289946E+02    0.61401E-04   -0.15415E-04  1162   0.458E-02
  42 F= -.57170629E+02 E0= -.57170629E+02  d E =-.107949E-01
 ZBRENT: can't locate minimum, use default step
 trial-energy change:   -0.010795  1 .order   -0.010583   -0.010295   -0.010871
 step:   2.0282(harm=  2.0282)  dis= 0.02749  next Energy=   -57.205618 (dE=-0.458E-01)
 bond charge predicted
       N       E                     dE             d eps       ncg     rms          rms(c)
DAV:   1    -0.571889324670E+02   -0.18242E-01   -0.30695E+00  1176   0.559E+00    0.650E-01
DAV:   2    -0.572012646618E+02   -0.12332E-01   -0.16018E-01  1554   0.128E+00    0.238E-01
DAV:   3    -0.572002717401E+02    0.99292E-03   -0.17742E-03  1512   0.173E-01    0.177E-01
DAV:   4    -0.571997401066E+02    0.53163E-03   -0.14559E-03  1568   0.136E-01    0.483E-02
DAV:   5    -0.571997676639E+02   -0.27557E-04   -0.30539E-04  1386   0.572E-02
  43 F= -.57199768E+02 E0= -.57199768E+02  d E =-.399336E-01
 curvature: -24.00 expect dE=-0.536E+00 dE for cont linesearch -0.255E-01
 ZBRENT: increasing intervall
 opt :   5.0705  next Energy=   -57.245632 (dE=-0.858E-01)
 bond charge predicted
       N       E                     dE             d eps       ncg     rms          rms(c)
DAV:   1    -0.572102837521E+02   -0.10544E-01   -0.12268E+01  1176   0.112E+01    0.140E+00
DAV:   2    -0.572599554627E+02   -0.49672E-01   -0.65343E-01  1554   0.258E+00    0.515E-01
DAV:   3    -0.572559286232E+02    0.40268E-02   -0.70593E-03  1498   0.347E-01    0.385E-01
DAV:   4    -0.572536932690E+02    0.22354E-02   -0.61237E-03  1568   0.279E-01    0.102E-01
DAV:   5    -0.572538059998E+02   -0.11273E-03   -0.13006E-03  1428   0.119E-01    0.595E-02
DAV:   6    -0.572537992715E+02    0.67283E-05   -0.22573E-05  1092   0.183E-02
  44 F= -.57253799E+02 E0= -.57253799E+02  d E =-.939652E-01
 curvature: -43.11 expect dE=-0.113E+01 dE for cont linesearch -0.435E-01
 ZBRENT: increasing intervall
 opt :  11.1550  next Energy=   -57.358999 (dE=-0.199E+00)
 bond charge predicted
       N       E                     dE             d eps       ncg     rms          rms(c)
DAV:   1    -0.571648019133E+02    0.89004E-01   -0.48594E+01  1176   0.223E+01    0.340E+00
DAV:   2    -0.573683076746E+02   -0.20351E+00   -0.27390E+00  1568   0.525E+00    0.132E+00
DAV:   3    -0.573519242144E+02    0.16383E-01   -0.28499E-02  1484   0.698E-01    0.992E-01
DAV:   4    -0.573419084394E+02    0.10016E-01   -0.27493E-02  1568   0.590E-01    0.243E-01
DAV:   5    -0.573423784494E+02   -0.47001E-03   -0.59372E-03  1470   0.254E-01    0.117E-01
DAV:   6    -0.573423450208E+02    0.33429E-04   -0.12236E-04  1134   0.421E-02
  45 F= -.57342345E+02 E0= -.57342345E+02  d E =-.182511E+00
 curvature: ****** expect dE=-0.405E+01 dE for cont linesearch -0.251E-01
 ZBRENT: increasing intervall
 opt :  23.3241  next Energy=   -57.337386 (dE=-0.178E+00)
 bond charge predicted
       N       E                     dE             d eps       ncg     rms          rms(c)
DAV:   1    -0.564072746699E+02    0.93510E+00   -0.18700E+02  1176   0.436E+01    0.114E+01
DAV:   2    -0.573399012930E+02   -0.93263E+00   -0.12844E+01  1568   0.110E+01    0.448E+00
DAV:   3    -0.572681691553E+02    0.71732E-01   -0.13424E-01  1526   0.150E+00    0.342E+00
DAV:   4    -0.572228680111E+02    0.45301E-01   -0.13284E-01  1568   0.127E+00    0.812E-01
DAV:   5    -0.572246232511E+02   -0.17552E-02   -0.26483E-02  1414   0.548E-01    0.247E-01
DAV:   6    -0.572244946325E+02    0.12862E-03   -0.94560E-04  1568   0.105E-01    0.162E-01
DAV:   7    -0.572244690086E+02    0.25624E-04   -0.35505E-04  1414   0.630E-02
  46 F= -.57224469E+02 E0= -.57224469E+02  d E =-.646350E-01
 curvature:  20.61 expect dE= 0.191E+01 dE for cont linesearch  0.737E-01
 ZBRENT: bracketing found
 ZBRENT: interpolating
 opt :  13.6621  next Energy=   -57.353230 (dE=-0.193E+00)
 bond charge predicted
       N       E                     dE             d eps       ncg     rms          rms(c)
DAV:   1    -0.568170469911E+02    0.40745E+00   -0.11894E+02  1176   0.354E+01    0.659E+00
DAV:   2    -0.574414181328E+02   -0.62437E+00   -0.77832E+00  1568   0.884E+00    0.258E+00
DAV:   3    -0.573871508243E+02    0.54267E-01   -0.82837E-02  1526   0.117E+00    0.189E+00
DAV:   4    -0.573517368333E+02    0.35414E-01   -0.94688E-02  1554   0.101E+00    0.430E-01
DAV:   5    -0.573520027353E+02   -0.26590E-03   -0.13378E-02  1470   0.400E-01    0.143E-01
DAV:   6    -0.573519858709E+02    0.16864E-04   -0.66518E-04  1540   0.821E-02
  47 F= -.57351986E+02 E0= -.57351986E+02  d E =-.192152E+00
 curvature:  -3.05 expect dE=-0.141E+00 dE for cont linesearch -0.163E-03
 trial: gam= 1.15785 g(F)=  0.378E-01 g(S)=  0.849E-02 ort = 0.410E-02 (trialstep = 0.207E+01)
 search vector abs. value=  0.476E+00
 bond charge predicted
       N       E                     dE             d eps       ncg     rms          rms(c)
DAV:   1    -0.574282087034E+02   -0.76206E-01   -0.86639E+00  1176   0.947E+00    0.115E+00
DAV:   2    -0.574568058471E+02   -0.28597E-01   -0.46299E-01  1568   0.218E+00    0.433E-01
DAV:   3    -0.574531398249E+02    0.36660E-02   -0.69556E-03  1484   0.313E-01    0.314E-01
DAV:   4    -0.574516492653E+02    0.14906E-02   -0.38182E-03  1568   0.208E-01    0.114E-01
DAV:   5    -0.574516780009E+02   -0.28736E-04   -0.64638E-04  1498   0.824E-02
  48 F= -.57451678E+02 E0= -.57451678E+02  d E =-.996921E-01
 ZBRENT: can't locate minimum, use default step
 trial-energy change:   -0.099692  1 .order   -0.099111   -0.105422   -0.092800
 step:   8.2657(harm= 17.2585)  dis= 0.16613  next Energy=   -57.628451 (dE=-0.276E+00)
 bond charge predicted
       N       E                     dE             d eps       ncg     rms          rms(c)
DAV:   1    -0.574108004109E+02    0.40849E-01   -0.77421E+01  1176   0.284E+01    0.490E+00
DAV:   2    -0.576867511069E+02   -0.27595E+00   -0.46950E+00  1568   0.683E+00    0.167E+00
DAV:   3    -0.576558512008E+02    0.30900E-01   -0.64212E-02  1456   0.977E-01    0.130E+00
DAV:   4    -0.576410114095E+02    0.14840E-01   -0.41917E-02  1568   0.709E-01    0.421E-01
DAV:   5    -0.576416138518E+02   -0.60244E-03   -0.79923E-03  1470   0.293E-01    0.144E-01
DAV:   6    -0.576415803620E+02    0.33490E-04   -0.23474E-04  1400   0.551E-02
  49 F= -.57641580E+02 E0= -.57641580E+02  d E =-.289594E+00
 curvature: -52.28 expect dE=-0.256E+01 dE for cont linesearch -0.156E-01
 ZBRENT: extrapolating
 opt :  10.5002  next Energy=   -57.654873 (dE=-0.303E+00)
 bond charge predicted
       N       E                     dE             d eps       ncg     rms          rms(c)
DAV:   1    -0.576245608937E+02    0.17053E-01   -0.10207E+01  1176   0.103E+01    0.134E+00
DAV:   2    -0.576592702672E+02   -0.34709E-01   -0.56626E-01  1568   0.243E+00    0.463E-01
DAV:   3    -0.576545308049E+02    0.47395E-02   -0.85866E-03  1484   0.350E-01    0.335E-01
DAV:   4    -0.576527020800E+02    0.18287E-02   -0.49392E-03  1568   0.237E-01    0.126E-01
DAV:   5    -0.576527479094E+02   -0.45829E-04   -0.79198E-04  1484   0.928E-02
  50 F= -.57652748E+02 E0= -.57652748E+02  d E =-.300762E+00
 curvature: -44.68 expect dE=-0.249E+01 dE for cont linesearch -0.480E-03
 trial: gam= 0.37310 g(F)=  0.511E-01 g(S)=  0.454E-02 ort =-0.226E-02 (trialstep = 0.375E+01)
 search vector abs. value=  0.120E+00
 bond charge predicted
       N       E                     dE             d eps       ncg     rms          rms(c)
DAV:   1    -0.578195902028E+02   -0.16689E+00   -0.50311E+00  1204   0.736E+00    0.930E-01
DAV:   2    -0.578399242861E+02   -0.20334E-01   -0.28878E-01  1568   0.178E+00    0.354E-01
DAV:   3    -0.578377021593E+02    0.22221E-02   -0.42360E-03  1624   0.261E-01    0.255E-01
DAV:   4    -0.578366610240E+02    0.10411E-02   -0.27308E-03  1554   0.183E-01    0.760E-02
DAV:   5    -0.578366900942E+02   -0.29070E-04   -0.50017E-04  1428   0.747E-02
  51 F= -.57836690E+02 E0= -.57836690E+02  d E =-.183942E+00
 trial-energy change:   -0.183942  1 .order   -0.183463   -0.205825   -0.161100
 step:  14.5709(harm= 17.2723)  dis= 0.15526  next Energy=   -58.080340 (dE=-0.428E+00)
 bond charge predicted
       N       E                     dE             d eps       ncg     rms          rms(c)
DAV:   1    -0.579753699484E+02   -0.13871E+00   -0.41695E+01  1176   0.212E+01    0.307E+00
DAV:   2    -0.581542551545E+02   -0.17889E+00   -0.25269E+00  1568   0.524E+00    0.116E+00
DAV:   3    -0.581357487477E+02    0.18506E-01   -0.35300E-02  1624   0.757E-01    0.860E-01
DAV:   4    -0.581260388172E+02    0.97099E-02   -0.25270E-02  1568   0.560E-01    0.240E-01
DAV:   5    -0.581263220755E+02   -0.28326E-03   -0.48966E-03  1442   0.235E-01    0.106E-01
DAV:   6    -0.581262965301E+02    0.25545E-04   -0.15042E-04  1246   0.435E-02
  52 F= -.58126297E+02 E0= -.58126297E+02  d E =-.473549E+00
 curvature: -18.18 expect dE=-0.610E+00 dE for cont linesearch -0.123E-01
 ZBRENT: extrapolating
 opt :  17.4500  next Energy=   -58.139285 (dE=-0.487E+00)
 bond charge predicted
       N       E                     dE             d eps       ncg     rms          rms(c)
DAV:   1    -0.581230862389E+02    0.32358E-02   -0.30009E+00  1176   0.569E+00    0.735E-01
DAV:   2    -0.581353589916E+02   -0.12273E-01   -0.17355E-01  1568   0.139E+00    0.271E-01
DAV:   3    -0.581339304572E+02    0.14285E-02   -0.24724E-03  1652   0.202E-01    0.195E-01
DAV:   4    -0.581332769350E+02    0.65352E-03   -0.17635E-03  1568   0.147E-01    0.575E-02
DAV:   5    -0.581332970296E+02   -0.20095E-04   -0.31338E-04  1414   0.600E-02
  53 F= -.58133297E+02 E0= -.58133297E+02  d E =-.480549E+00
 curvature: -19.18 expect dE=-0.818E+00 dE for cont linesearch -0.157E-02
 trial: gam= 0.35984 g(F)=  0.380E-01 g(S)=  0.467E-02 ort =-0.314E-02 (trialstep = 0.649E+01)
 search vector abs. value=  0.560E-01
 bond charge predicted
       N       E                     dE             d eps       ncg     rms          rms(c)
DAV:   1    -0.583486308638E+02   -0.21535E+00   -0.77009E+00  1176   0.913E+00    0.119E+00
DAV:   2    -0.583714200486E+02   -0.22789E-01   -0.44466E-01  1568   0.223E+00    0.572E-01
DAV:   3    -0.583651249454E+02    0.62951E-02   -0.90805E-03  1582   0.360E-01    0.370E-01
DAV:   4    -0.583623128906E+02    0.28121E-02   -0.65403E-03  1568   0.276E-01    0.105E-01
DAV:   5    -0.583622754986E+02    0.37392E-04   -0.98179E-04  1456   0.108E-01
  54 F= -.58362275E+02 E0= -.58362275E+02  d E =-.228978E+00
 trial-energy change:   -0.228978  1 .order   -0.229394   -0.269588   -0.189200
 step:  21.7733(harm= 21.7733)  dis= 0.15054  next Energy=   -58.585340 (dE=-0.452E+00)
 bond charge predicted
       N       E                     dE             d eps       ncg     rms          rms(c)
DAV:   1    -0.585149988300E+02   -0.15269E+00   -0.41836E+01  1176   0.213E+01    0.301E+00
DAV:   2    -0.586557578045E+02   -0.14076E+00   -0.25328E+00  1568   0.528E+00    0.148E+00
DAV:   3    -0.586213615166E+02    0.34396E-01   -0.47121E-02  1596   0.816E-01    0.975E-01
DAV:   4    -0.586036441548E+02    0.17717E-01   -0.40450E-02  1568   0.673E-01    0.247E-01
DAV:   5    -0.586034665591E+02    0.17760E-03   -0.58367E-03  1428   0.263E-01    0.103E-01
DAV:   6    -0.586034523479E+02    0.14211E-04   -0.27835E-04  1554   0.553E-02
  55 F= -.58603452E+02 E0= -.58603452E+02  d E =-.470155E+00
 curvature: -14.67 expect dE=-0.277E+00 dE for cont linesearch -0.321E-02
 trial: gam= 0.35435 g(F)=  0.638E-02 g(S)=  0.125E-01 ort = 0.350E-02 (trialstep = 0.955E+01)
 search vector abs. value=  0.284E-01
 bond charge predicted
       N       E                     dE             d eps       ncg     rms          rms(c)
DAV:   1    -0.589100022457E+02   -0.30654E+00   -0.93084E+00  1372   0.100E+01    0.220E+00
DAV:   2    -0.587789561134E+02    0.13105E+00   -0.46970E-01  1512   0.229E+00    0.963E-01
DAV:   3    -0.587421895264E+02    0.36767E-01   -0.11589E-01  1484   0.979E-01    0.444E-01
DAV:   4    -0.587402473259E+02    0.19422E-02   -0.45086E-03  1582   0.242E-01    0.282E-01
DAV:   5    -0.587394120883E+02    0.83524E-03   -0.24420E-03  1568   0.168E-01    0.725E-02
DAV:   6    -0.587394293974E+02   -0.17309E-04   -0.24294E-04  1372   0.538E-02
  56 F= -.58739429E+02 E0= -.58739429E+02  d E =-.135977E+00
 trial-energy change:   -0.135977  1 .order   -0.133661   -0.191973   -0.075348
 step:  14.7583(harm= 15.7178)  dis= 0.05361  next Energy=   -58.760360 (dE=-0.157E+00)
 bond charge predicted
       N       E                     dE             d eps       ncg     rms          rms(c)
DAV:   1    -0.588157071272E+02   -0.76295E-01   -0.27854E+00  1372   0.546E+00    0.119E+00
DAV:   2    -0.587760223876E+02    0.39685E-01   -0.13961E-01  1554   0.125E+00    0.538E-01
DAV:   3    -0.587646656880E+02    0.11357E-01   -0.36003E-02  1540   0.546E-01    0.237E-01
DAV:   4    -0.587641289580E+02    0.53673E-03   -0.13390E-03  1540   0.133E-01    0.153E-01
DAV:   5    -0.587638968798E+02    0.23208E-03   -0.71463E-04  1554   0.910E-02    0.408E-02
DAV:   6    -0.587639012800E+02   -0.44002E-05   -0.68153E-05  1050   0.292E-02
  57 F= -.58763901E+02 E0= -.58763901E+02  d E =-.160449E+00
 curvature: -10.82 expect dE=-0.989E-01 dE for cont linesearch -0.106E-02
 trial: gam= 0.46126 g(F)=  0.490E-02 g(S)=  0.424E-02 ort = 0.167E-02 (trialstep = 0.106E+02)
 search vector abs. value=  0.167E-01
 bond charge predicted
       N       E                     dE             d eps       ncg     rms          rms(c)
DAV:   1    -0.588793073868E+02   -0.11541E+00   -0.44078E+00  1232   0.687E+00    0.113E+00
DAV:   2    -0.588576786531E+02    0.21629E-01   -0.21849E-01  1582   0.158E+00    0.585E-01
DAV:   3    -0.588467371088E+02    0.10942E-01   -0.22828E-02  1498   0.460E-01    0.244E-01
DAV:   4    -0.588452292163E+02    0.15079E-02   -0.27359E-03  1610   0.179E-01    0.126E-01
DAV:   5    -0.588450525310E+02    0.17669E-03   -0.55811E-04  1512   0.802E-02    0.391E-02
DAV:   6    -0.588450607878E+02   -0.82568E-05   -0.52399E-05  1050   0.252E-02
  58 F= -.58845061E+02 E0= -.58845061E+02  d E =-.811595E-01
 trial-energy change:   -0.081160  1 .order   -0.079196   -0.104963   -0.053429
 step:  18.4439(harm= 21.5707)  dis= 0.07568  next Energy=   -58.865671 (dE=-0.102E+00)
 bond charge predicted
       N       E                     dE             d eps       ncg     rms          rms(c)
DAV:   1    -0.588893440824E+02   -0.44292E-01   -0.24084E+00  1218   0.508E+00    0.836E-01
DAV:   2    -0.588779317727E+02    0.11412E-01   -0.11968E-01  1582   0.117E+00    0.422E-01
DAV:   3    -0.588721062112E+02    0.58256E-02   -0.12118E-02  1470   0.336E-01    0.180E-01
DAV:   4    -0.588712997349E+02    0.80648E-03   -0.14768E-03  1610   0.131E-01    0.932E-02
DAV:   5    -0.588712043346E+02    0.95400E-04   -0.28974E-04  1442   0.583E-02
  59 F= -.58871204E+02 E0= -.58871204E+02  d E =-.107303E+00
 curvature: -16.72 expect dE=-0.804E-01 dE for cont linesearch -0.251E-02
 ZBRENT: extrapolating
 opt :  22.0386  next Energy=   -58.874051 (dE=-0.110E+00)
 bond charge predicted
       N       E                     dE             d eps       ncg     rms          rms(c)
DAV:   1    -0.588786685866E+02   -0.73689E-02   -0.50467E-01  1232   0.232E+00    0.384E-01
DAV:   2    -0.588763247353E+02    0.23439E-02   -0.25092E-02  1582   0.533E-01    0.187E-01
DAV:   3    -0.588751312777E+02    0.11935E-02   -0.24969E-03  1470   0.153E-01    0.826E-02
DAV:   4    -0.588749644900E+02    0.16679E-03   -0.30574E-04  1554   0.597E-02    0.436E-02
DAV:   5    -0.588749430342E+02    0.21456E-04   -0.55499E-05  1008   0.267E-02
  60 F= -.58874943E+02 E0= -.58874943E+02  d E =-.111042E+00
 curvature: -18.97 expect dE=-0.120E+00 dE for cont linesearch -0.115E-03
 trial: gam= 0.69001 g(F)=  0.307E-02 g(S)=  0.327E-02 ort = 0.318E-03 (trialstep = 0.129E+02)
 search vector abs. value=  0.147E-01
 bond charge predicted
       N       E                     dE             d eps       ncg     rms          rms(c)
DAV:   1    -0.589393746999E+02   -0.64410E-01   -0.47597E+00  1190   0.719E+00    0.935E-01
DAV:   2    -0.589477017608E+02   -0.83271E-02   -0.25358E-01  1568   0.168E+00    0.393E-01
DAV:   3    -0.589441748495E+02    0.35269E-02   -0.67307E-03  1456   0.283E-01    0.244E-01
DAV:   4    -0.589429364437E+02    0.12384E-02   -0.21389E-03  1568   0.158E-01    0.887E-02
DAV:   5    -0.589428901384E+02    0.46305E-04   -0.41721E-04  1498   0.677E-02
  61 F= -.58942890E+02 E0= -.58942890E+02  d E =-.679471E-01
 trial-energy change:   -0.067947  1 .order   -0.066784   -0.084516   -0.049052
 step:  25.6757(harm= 30.6952)  dis= 0.12700  next Energy=   -58.968395 (dE=-0.935E-01)
 bond charge predicted
       N       E                     dE             d eps       ncg     rms          rms(c)
DAV:   1    -0.589699393051E+02   -0.27003E-01   -0.47130E+00  1232   0.716E+00    0.940E-01
DAV:   2    -0.589782230577E+02   -0.82838E-02   -0.25227E-01  1568   0.168E+00    0.389E-01
DAV:   3    -0.589747053466E+02    0.35177E-02   -0.67074E-03  1456   0.284E-01    0.241E-01
DAV:   4    -0.589734768932E+02    0.12285E-02   -0.21308E-03  1540   0.158E-01    0.882E-02
DAV:   5    -0.589734327992E+02    0.44094E-04   -0.41357E-04  1484   0.675E-02
  62 F= -.58973433E+02 E0= -.58973433E+02  d E =-.984898E-01
 curvature: -31.74 expect dE=-0.116E+00 dE for cont linesearch -0.198E-02
 ZBRENT: extrapolating
 opt :  29.9770  next Energy=   -58.975493 (dE=-0.101E+00)
 bond charge predicted
       N       E                     dE             d eps       ncg     rms          rms(c)
DAV:   1    -0.589745886242E+02   -0.11117E-02   -0.53446E-01  1260   0.241E+00    0.315E-01
DAV:   2    -0.589755627080E+02   -0.97408E-03   -0.28567E-02  1568   0.566E-01    0.134E-01
DAV:   3    -0.589751581565E+02    0.40455E-03   -0.76384E-04  1498   0.957E-02    0.809E-02
DAV:   4    -0.589750177436E+02    0.14041E-03   -0.23745E-04  1344   0.538E-02    0.274E-02
DAV:   5    -0.589750153003E+02    0.24433E-05   -0.60458E-05   966   0.283E-02
  63 F= -.58975015E+02 E0= -.58975015E+02  d E =-.100072E+00
 curvature: -33.09 expect dE=-0.161E+00 dE for cont linesearch -0.119E-03
 trial: gam= 0.78122 g(F)=  0.291E-02 g(S)=  0.196E-02 ort =-0.230E-03 (trialstep = 0.163E+02)
 search vector abs. value=  0.135E-01
 bond charge predicted
       N       E                     dE             d eps       ncg     rms          rms(c)
DAV:   1    -0.590057147012E+02   -0.30697E-01   -0.10264E+01  1176   0.105E+01    0.136E+00
DAV:   2    -0.590371351697E+02   -0.31420E-01   -0.55394E-01  1568   0.247E+00    0.650E-01
DAV:   3    -0.590313144990E+02    0.58207E-02   -0.99253E-03  1512   0.369E-01    0.421E-01
DAV:   4    -0.590282629641E+02    0.30515E-02   -0.54634E-03  1568   0.256E-01    0.116E-01
DAV:   5    -0.590282132611E+02    0.49703E-04   -0.10757E-03  1470   0.108E-01    0.459E-02
DAV:   6    -0.590282105213E+02    0.27398E-05   -0.50536E-05  1036   0.246E-02
  64 F= -.59028211E+02 E0= -.59028211E+02  d E =-.531952E-01
 trial-energy change:   -0.053195  1 .order   -0.055607   -0.076481   -0.034733
 step:  29.8601(harm= 29.8601)  dis= 0.11586  next Energy=   -59.045070 (dE=-0.701E-01)
 bond charge predicted
       N       E                     dE             d eps       ncg     rms          rms(c)
DAV:   1    -0.590305415834E+02   -0.23283E-02   -0.71072E+00  1204   0.874E+00    0.112E+00
DAV:   2    -0.590523934454E+02   -0.21852E-01   -0.38461E-01  1568   0.205E+00    0.526E-01
DAV:   3    -0.590483499447E+02    0.40435E-02   -0.68063E-03  1540   0.306E-01    0.341E-01
DAV:   4    -0.590462571569E+02    0.20928E-02   -0.37885E-03  1568   0.214E-01    0.941E-02
DAV:   5    -0.590462255960E+02    0.31561E-04   -0.74733E-04  1484   0.901E-02
  65 F= -.59046226E+02 E0= -.59046226E+02  d E =-.712103E-01
 curvature: -42.98 expect dE=-0.159E+00 dE for cont linesearch -0.381E-06
 trial: gam= 0.62051 g(F)=  0.234E-02 g(S)=  0.135E-02 ort = 0.109E-04 (trialstep = 0.190E+02)
 search vector abs. value=  0.891E-02
 bond charge predicted
       N       E                     dE             d eps       ncg     rms          rms(c)
DAV:   1    -0.591376724156E+02   -0.91415E-01   -0.13422E+01  1176   0.121E+01    0.194E+00
DAV:   2    -0.591025466747E+02    0.35126E-01   -0.77653E-01  1568   0.286E+00    0.765E-01
DAV:   3    -0.590856781901E+02    0.16868E-01   -0.48002E-02  1386   0.670E-01    0.395E-01
DAV:   4    -0.590839349218E+02    0.17433E-02   -0.41219E-03  1582   0.216E-01    0.226E-01
DAV:   5    -0.590837257640E+02    0.20916E-03   -0.85271E-04  1498   0.996E-02    0.564E-02
DAV:   6    -0.590837341745E+02   -0.84106E-05   -0.62911E-05  1106   0.294E-02
  66 F= -.59083734E+02 E0= -.59083734E+02  d E =-.375086E-01
 trial-energy change:   -0.037509  1 .order   -0.036838   -0.070371   -0.003305
 step:  19.8932(harm= 19.9486)  dis= 0.05459  next Energy=   -59.083811 (dE=-0.376E-01)
 bond charge predicted
       N       E                     dE             d eps       ncg     rms          rms(c)
DAV:   1    -0.590839204201E+02   -0.19466E-03   -0.28636E-02  1274   0.557E-01    0.858E-02
DAV:   2    -0.590838553120E+02    0.65108E-04   -0.16151E-03  1554   0.133E-01    0.374E-02
DAV:   3    -0.590838174803E+02    0.37832E-04   -0.93147E-05   952   0.306E-02
  67 F= -.59083817E+02 E0= -.59083817E+02  d E =-.375919E-01
 curvature: -23.92 expect dE=-0.957E-01 dE for cont linesearch -0.227E-05
 trial: gam= 1.01861 g(F)=  0.199E-02 g(S)=  0.201E-02 ort = 0.290E-04 (trialstep = 0.129E+02)
 search vector abs. value=  0.133E-01
 bond charge predicted
       N       E                     dE             d eps       ncg     rms          rms(c)
DAV:   1    -0.590920734656E+02   -0.82182E-02   -0.75961E+00  1176   0.904E+00    0.108E+00
DAV:   2    -0.591215429147E+02   -0.29469E-01   -0.41440E-01  1568   0.212E+00    0.474E-01
DAV:   3    -0.591186899324E+02    0.28530E-02   -0.54552E-03  1568   0.288E-01    0.333E-01
DAV:   4    -0.591170362787E+02    0.16537E-02   -0.35519E-03  1568   0.205E-01    0.844E-02
DAV:   5    -0.591170570791E+02   -0.20800E-04   -0.64150E-04  1442   0.829E-02
  68 F= -.59117057E+02 E0= -.59117057E+02  d E =-.332396E-01
 trial-energy change:   -0.033240  1 .order   -0.033900   -0.051785   -0.016016
 step:  19.7883(harm= 18.6040)  dis= 0.07753  next Energy=   -59.121277 (dE=-0.375E-01)
 bond charge predicted
       N       E                     dE             d eps       ncg     rms          rms(c)
DAV:   1    -0.591155523999E+02    0.14839E-02   -0.22261E+00  1176   0.489E+00    0.592E-01
DAV:   2    -0.591241273101E+02   -0.85749E-02   -0.12138E-01  1568   0.115E+00    0.234E-01
DAV:   3    -0.591232956206E+02    0.83169E-03   -0.16141E-03  1540   0.157E-01    0.165E-01
DAV:   4    -0.591228457348E+02    0.44989E-03   -0.99211E-04  1568   0.109E-01    0.429E-02
DAV:   5    -0.591228517545E+02   -0.60197E-05   -0.16236E-04   994   0.436E-02
  69 F= -.59122852E+02 E0= -.59122852E+02  d E =-.390343E-01
 curvature: -29.41 expect dE=-0.482E-01 dE for cont linesearch -0.349E-03
 ZBRENT: extrapolating
 opt :  23.0378  next Energy=   -59.123498 (dE=-0.397E-01)
 bond charge predicted
       N       E                     dE             d eps       ncg     rms          rms(c)
DAV:   1    -0.591210422073E+02    0.18035E-02   -0.48912E-01  1204   0.229E+00    0.277E-01
DAV:   2    -0.591229078667E+02   -0.18657E-02   -0.26523E-02  1568   0.536E-01    0.106E-01
DAV:   3    -0.591227243860E+02    0.18348E-03   -0.35387E-04  1470   0.735E-02    0.751E-02
DAV:   4    -0.591226249965E+02    0.99390E-04   -0.19759E-04  1176   0.508E-02
  70 F= -.59122625E+02 E0= -.59122625E+02  d E =-.388075E-01
 curvature: -54.37 expect dE=-0.103E+00 dE for cont linesearch -0.132E-03
 trial: gam= 0.46142 g(F)=  0.154E-02 g(S)=  0.362E-03 ort =-0.180E-03 (trialstep = 0.149E+02)
 search vector abs. value=  0.456E-02
 bond charge predicted
       N       E                     dE             d eps       ncg     rms          rms(c)
DAV:   1    -0.591354973320E+02   -0.12773E-01   -0.24522E+00  1176   0.514E+00    0.651E-01
DAV:   2    -0.591436974660E+02   -0.82001E-02   -0.13401E-01  1568   0.121E+00    0.267E-01
DAV:   3    -0.591422959815E+02    0.14015E-02   -0.19630E-03  1708   0.175E-01    0.189E-01
DAV:   4    -0.591415535257E+02    0.74246E-03   -0.17660E-03  1568   0.150E-01    0.395E-02
DAV:   5    -0.591415800166E+02   -0.26491E-04   -0.30679E-04  1414   0.589E-02
  71 F= -.59141580E+02 E0= -.59141580E+02  d E =-.189550E-01
 trial-energy change:   -0.018955  1 .order   -0.019057   -0.027020   -0.011094
 step:  25.2589(harm= 25.2589)  dis= 0.05985  next Energy=   -59.145547 (dE=-0.229E-01)
 bond charge predicted
       N       E                     dE             d eps       ncg     rms          rms(c)
DAV:   1    -0.591432328234E+02   -0.16793E-02   -0.11899E+00  1176   0.358E+00    0.461E-01
DAV:   2    -0.591472857439E+02   -0.40529E-02   -0.65413E-02  1568   0.848E-01    0.181E-01
DAV:   3    -0.591466136817E+02    0.67206E-03   -0.93698E-04  1680   0.122E-01    0.128E-01
DAV:   4    -0.591462665007E+02    0.34718E-03   -0.84938E-04  1568   0.104E-01    0.268E-02
DAV:   5    -0.591462791356E+02   -0.12635E-04   -0.13839E-04   966   0.409E-02
  72 F= -.59146279E+02 E0= -.59146279E+02  d E =-.236541E-01
 curvature: -31.76 expect dE=-0.309E-01 dE for cont linesearch -0.310E-03
 ZBRENT: extrapolating
 opt :  29.3588  next Energy=   -59.146712 (dE=-0.241E-01)
 bond charge predicted
       N       E                     dE             d eps       ncg     rms          rms(c)
DAV:   1    -0.591458423906E+02    0.42411E-03   -0.18614E-01  1176   0.142E+00    0.186E-01
DAV:   2    -0.591464781609E+02   -0.63577E-03   -0.10215E-02  1568   0.335E-01    0.690E-02
DAV:   3    -0.591463726560E+02    0.10550E-03   -0.13693E-04  1204   0.482E-02    0.473E-02
DAV:   4    -0.591463205840E+02    0.52072E-04   -0.14759E-04  1148   0.456E-02
  73 F= -.59146321E+02 E0= -.59146321E+02  d E =-.236956E-01
 curvature: -44.32 expect dE=-0.571E-01 dE for cont linesearch -0.140E-03
 trial: gam= 0.51208 g(F)=  0.109E-02 g(S)=  0.202E-03 ort =-0.120E-03 (trialstep = 0.178E+02)
 search vector abs. value=  0.236E-02
 bond charge predicted
       N       E                     dE             d eps       ncg     rms          rms(c)
DAV:   1    -0.591596357809E+02   -0.13263E-01   -0.14427E+00  1204   0.393E+00    0.533E-01
DAV:   2    -0.591624558812E+02   -0.28201E-02   -0.73782E-02  1568   0.925E-01    0.231E-01
DAV:   3    -0.591608785597E+02    0.15773E-02   -0.16373E-03  1652   0.153E-01    0.143E-01
DAV:   4    -0.591602617078E+02    0.61685E-03   -0.15336E-03  1568   0.134E-01    0.304E-02
DAV:   5    -0.591602784378E+02   -0.16730E-04   -0.21395E-04  1176   0.504E-02
  74 F= -.59160278E+02 E0= -.59160278E+02  d E =-.139579E-01
 trial-energy change:   -0.013958  1 .order   -0.014260   -0.021804   -0.006716
 step:  25.6966(harm= 25.6966)  dis= 0.05896  next Energy=   -59.162075 (dE=-0.158E-01)
 bond charge predicted
       N       E                     dE             d eps       ncg     rms          rms(c)
DAV:   1    -0.591617799842E+02   -0.15183E-02   -0.28590E-01  1218   0.175E+00    0.245E-01
DAV:   2    -0.591623559137E+02   -0.57593E-03   -0.14729E-02  1568   0.413E-01    0.101E-01
DAV:   3    -0.591620430493E+02    0.31286E-03   -0.32562E-04  1484   0.681E-02    0.615E-02
DAV:   4    -0.591619246804E+02    0.11837E-03   -0.29704E-04  1484   0.593E-02    0.135E-02
DAV:   5    -0.591619286952E+02   -0.40149E-05   -0.43848E-05   882   0.234E-02
  75 F= -.59161929E+02 E0= -.59161929E+02  d E =-.156081E-01
 curvature: -24.75 expect dE=-0.212E-01 dE for cont linesearch -0.266E-04
 trial: gam= 0.53789 g(F)=  0.478E-03 g(S)=  0.379E-03 ort = 0.504E-04 (trialstep = 0.194E+02)
 search vector abs. value=  0.159E-02
 bond charge predicted
       N       E                     dE             d eps       ncg     rms          rms(c)
DAV:   1    -0.591761679404E+02   -0.14243E-01   -0.11881E+00  1176   0.355E+00    0.543E-01
DAV:   2    -0.591752855888E+02    0.88235E-03   -0.58982E-02  1568   0.842E-01    0.242E-01
DAV:   3    -0.591727718548E+02    0.25137E-02   -0.27315E-03  1540   0.197E-01    0.134E-01
DAV:   4    -0.591721213899E+02    0.65046E-03   -0.17294E-03  1568   0.143E-01    0.326E-02
DAV:   5    -0.591721248474E+02   -0.34575E-05   -0.19221E-04  1134   0.500E-02
  76 F= -.59172125E+02 E0= -.59172125E+02  d E =-.101962E-01
 trial-energy change:   -0.010196  1 .order   -0.010133   -0.017120   -0.003147
 step:  23.7268(harm= 23.7268)  dis= 0.04577  next Energy=   -59.172417 (dE=-0.105E-01)
 bond charge predicted
       N       E                     dE             d eps       ncg     rms          rms(c)
DAV:   1    -0.591727022486E+02   -0.58086E-03   -0.60356E-02  1260   0.800E-01    0.127E-01
DAV:   2    -0.591726630542E+02    0.39194E-04   -0.30054E-03  1568   0.190E-01    0.522E-02
DAV:   3    -0.591725362525E+02    0.12680E-03   -0.12904E-04  1078   0.447E-02    0.281E-02
DAV:   4    -0.591725054440E+02    0.30809E-04   -0.10649E-04   980   0.370E-02
  77 F= -.59172505E+02 E0= -.59172505E+02  d E =-.105767E-01
 curvature: -21.40 expect dE=-0.133E-01 dE for cont linesearch -0.135E-06
 trial: gam= 0.73859 g(F)=  0.433E-03 g(S)=  0.187E-03 ort = 0.317E-05 (trialstep = 0.202E+02)
 search vector abs. value=  0.149E-02
 bond charge predicted
       N       E                     dE             d eps       ncg     rms          rms(c)
DAV:   1    -0.591840450959E+02   -0.11509E-01   -0.85463E-01  1176   0.301E+00    0.479E-01
DAV:   2    -0.591823796558E+02    0.16654E-02   -0.44771E-02  1568   0.719E-01    0.211E-01
DAV:   3    -0.591808546052E+02    0.15251E-02   -0.29879E-03  1470   0.176E-01    0.106E-01
DAV:   4    -0.591805866753E+02    0.26793E-03   -0.63312E-04  1568   0.839E-02    0.503E-02
DAV:   5    -0.591805709552E+02    0.15720E-04   -0.72493E-05   966   0.301E-02
  78 F= -.59180571E+02 E0= -.59180571E+02  d E =-.806551E-02
 trial-energy change:   -0.008066  1 .order   -0.008112   -0.012593   -0.003630
 step:  28.4322(harm= 28.4322)  dis= 0.05373  next Energy=   -59.181352 (dE=-0.885E-02)
 bond charge predicted
       N       E                     dE             d eps       ncg     rms          rms(c)
DAV:   1    -0.591816810417E+02   -0.10944E-02   -0.14015E-01  1204   0.122E+00    0.195E-01
DAV:   2    -0.591814273937E+02    0.25365E-03   -0.73508E-03  1568   0.292E-01    0.845E-02
DAV:   3    -0.591811779696E+02    0.24942E-03   -0.48334E-04  1470   0.709E-02    0.421E-02
DAV:   4    -0.591811340463E+02    0.43923E-04   -0.94806E-05  1022   0.341E-02
  79 F= -.59181134E+02 E0= -.59181134E+02  d E =-.862860E-02
 curvature: -34.14 expect dE=-0.867E-02 dE for cont linesearch -0.174E-05
 trial: gam= 0.34474 g(F)=  0.169E-03 g(S)=  0.850E-04 ort = 0.873E-05 (trialstep = 0.219E+02)
 search vector abs. value=  0.438E-03
 bond charge predicted
       N       E                     dE             d eps       ncg     rms          rms(c)
DAV:   1    -0.591833077082E+02   -0.21297E-02   -0.61589E-01  1176   0.260E+00    0.353E-01
DAV:   2    -0.591844017780E+02   -0.10941E-02   -0.35463E-02  1568   0.638E-01    0.170E-01
DAV:   3    -0.591837960167E+02    0.60576E-03   -0.98230E-04  1442   0.109E-01    0.102E-01
DAV:   4    -0.591836057514E+02    0.19027E-03   -0.40984E-04  1568   0.674E-02    0.337E-02
DAV:   5    -0.591835934625E+02    0.12289E-04   -0.50082E-05   924   0.257E-02
  80 F= -.59183593E+02 E0= -.59183593E+02  d E =-.245942E-02
 trial-energy change:   -0.002459  1 .order   -0.002243   -0.005620    0.001134
 step:  18.2028(harm= 18.2028)  dis= 0.01542  next Energy=   -59.183472 (dE=-0.234E-02)
 reached required accuracy - stopping structural energy minimisation
