<?xml version="1.0" encoding="ISO-8859-1"?>
<modeling>
 <generator>
  <i name="program" type="string">vasp </i>
  <i name="version" type="string">5.4.4.18Apr17-6-g9f103f2a35  </i>
  <i name="subversion" type="string">(build Oct 27 2022 13:04:57) complex            parallel </i>
  <i name="platform" type="string">LinuxIFC </i>
  <i name="date" type="string">2024 07 04 </i>
  <i name="time" type="string">02:08:45 </i>
 </generator>
 <incar>
  <i type="string" name="SYSTEM"> CIS</i>
  <i type="int" name="ISTART">     0</i>
  <i type="string" name="PREC">medium</i>
  <i type="int" name="ICHARG">     2</i>
  <i type="int" name="IBRION">     2</i>
  <i name="EDIFF">      0.00010000</i>
  <i name="EDIFFG">     -0.05000000</i>
  <i type="int" name="NSW">    99</i>
  <i type="int" name="ISIF">     3</i>
  <i name="ENCUT">    300.00000000</i>
  <i name="POTIM">      0.10000000</i>
  <i type="string" name="LREAL"> Auto</i>
  <i type="int" name="ISMEAR">     0</i>
  <i name="SIGMA">      0.05000000</i>
  <i type="int" name="LMAXMIX">     4</i>
  <i type="logical" name="LWAVE"> F  </i>
  <i type="logical" name="LCHARG"> F  </i>
  <i type="int" name="LORBIT">    10</i>
  <i type="logical" name="LASPH"> T  </i>
  <v type="int" name="KPOINT_BSE">    -1     0     0     0</v>
  <i type="logical" name="LASPH"> T  </i>
 </incar>
 <structure name="primitive_cell" >
  <crystal>
   <varray name="basis" >
    <v>       7.40287169      -0.03966075      -4.21641871 </v>
    <v>      -2.36460635       7.01304616      -4.20928583 </v>
    <v>       0.17526935       0.25202737       8.91997773 </v>
   </varray>
   <i name="volume">    477.83719846 </i>
   <varray name="rec_basis" >
    <v>       0.13313545       0.04259710      -0.00381954 </v>
    <v>      -0.00148352       0.13973893      -0.00391907 </v>
    <v>       0.06223225       0.08607738       0.10845304 </v>
   </varray>
  </crystal>
  <varray name="positions" >
   <v>      -0.00684349      -0.48430960       0.30835219 </v>
   <v>      -0.35477974       0.18544751       0.00028782 </v>
   <v>      -0.18550858      -0.35420298       0.00014804 </v>
   <v>      -0.27962759      -0.27964126       0.44180343 </v>
   <v>       0.00684349       0.48430960      -0.30835219 </v>
   <v>       0.18550858       0.35420298      -0.00014804 </v>
   <v>       0.48396808      -0.31558025      -0.30906523 </v>
   <v>       0.20720099       0.00635107      -0.30828807 </v>
   <v>       0.31509448      -0.20766964       0.30787600 </v>
   <v>      -0.50000000      -0.50000000       0.00000000 </v>
   <v>       0.27962759       0.27964126      -0.44180343 </v>
   <v>       0.00000000       0.00000000       0.00000000 </v>
   <v>      -0.31509448       0.20766964      -0.30787600 </v>
   <v>      -0.48396808       0.31558025       0.30906523 </v>
   <v>      -0.20720099      -0.00635107       0.30828807 </v>
   <v>       0.35477974      -0.18544751      -0.00028782 </v>
  </varray>
 </structure>
 <varray name="primitive_index" >
  <v type="int" >        1 </v>
  <v type="int" >       15 </v>
  <v type="int" >       16 </v>
  <v type="int" >       14 </v>
  <v type="int" >        9 </v>
  <v type="int" >       12 </v>
  <v type="int" >        5 </v>
  <v type="int" >        2 </v>
  <v type="int" >        4 </v>
  <v type="int" >       10 </v>
  <v type="int" >       11 </v>
  <v type="int" >        3 </v>
  <v type="int" >        7 </v>
  <v type="int" >        6 </v>
  <v type="int" >        8 </v>
  <v type="int" >       13 </v>
 </varray>
 <kpoints>
  <generation param="Monkhorst-Pack">
   <v type="int" name="divisions">       3        3        3 </v>
   <v name="usershift">      0.00000000       0.00000000       0.00000000 </v>
   <v name="genvec1">      0.33333333       0.00000000      -0.00000000 </v>
   <v name="genvec2">     -0.00000000       0.33333333       0.00000000 </v>
   <v name="genvec3">     -0.00000000      -0.00000000       0.33333333 </v>
   <v name="shift">      0.00000000       0.00000000       0.00000000 </v>
  </generation>
  <varray name="kpointlist" >
   <v>       0.00000000       0.00000000       0.00000000 </v>
   <v>       0.33333333       0.00000000      -0.00000000 </v>
   <v>       0.00000000       0.33333333      -0.00000000 </v>
   <v>       0.33333333       0.33333333      -0.00000000 </v>
   <v>      -0.33333333       0.33333333      -0.00000000 </v>
   <v>      -0.00000000       0.00000000       0.33333333 </v>
   <v>       0.33333333       0.00000000       0.33333333 </v>
   <v>      -0.33333333       0.00000000       0.33333333 </v>
   <v>       0.00000000       0.33333333       0.33333333 </v>
   <v>       0.33333333       0.33333333       0.33333333 </v>
   <v>      -0.33333333       0.33333333       0.33333333 </v>
   <v>      -0.00000000      -0.33333333       0.33333333 </v>
   <v>       0.33333333      -0.33333333       0.33333333 </v>
   <v>      -0.33333333      -0.33333333       0.33333333 </v>
  </varray>
  <varray name="weights" >
   <v>       0.03703704 </v>
   <v>       0.07407407 </v>
   <v>       0.07407407 </v>
   <v>       0.07407407 </v>
   <v>       0.07407407 </v>
   <v>       0.07407407 </v>
   <v>       0.07407407 </v>
   <v>       0.07407407 </v>
   <v>       0.07407407 </v>
   <v>       0.07407407 </v>
   <v>       0.07407407 </v>
   <v>       0.07407407 </v>
   <v>       0.07407407 </v>
   <v>       0.07407407 </v>
  </varray>
 </kpoints>
 <parameters>
  <separator name="general" >
   <i type="string" name="SYSTEM">CIS</i>
   <i type="logical" name="LCOMPAT"> F  </i>
  </separator>
  <separator name="electronic" >
   <i type="string" name="PREC">medium</i>
   <i name="ENMAX">    300.00000000</i>
   <i name="ENAUG">    446.84200000</i>
   <i name="EDIFF">      0.00010000</i>
   <i type="int" name="IALGO">    38</i>
   <i type="int" name="IWAVPR">    11</i>
   <i type="int" name="NBANDS">    42</i>
   <i name="NELECT">     50.00000000</i>
   <i type="int" name="TURBO">     0</i>
   <i type="int" name="IRESTART">     0</i>
   <i type="int" name="NREBOOT">     0</i>
   <i type="int" name="NMIN">     0</i>
   <i name="EREF">      0.00000000</i>
   <separator name="electronic smearing" >
    <i type="int" name="ISMEAR">     0</i>
    <i name="SIGMA">      0.05000000</i>
    <i name="KSPACING">      0.50000000</i>
    <i type="logical" name="KGAMMA"> T  </i>
   </separator>
   <separator name="electronic projectors" >
    <i type="logical" name="LREAL"> T  </i>
    <v name="ROPT">     -0.00200000     -0.00200000     -0.00200000</v>
    <i type="int" name="LMAXPAW">  -100</i>
    <i type="int" name="LMAXMIX">     4</i>
    <i type="logical" name="NLSPLINE"> F  </i>
   </separator>
   <separator name="electronic startup" >
    <i type="int" name="ISTART">     0</i>
    <i type="int" name="ICHARG">     2</i>
    <i type="int" name="INIWAV">     1</i>
   </separator>
   <separator name="electronic spin" >
    <i type="int" name="ISPIN">     1</i>
    <i type="logical" name="LNONCOLLINEAR"> F  </i>
    <v name="MAGMOM">      1.00000000      1.00000000      1.00000000      1.00000000      1.00000000      1.00000000      1.00000000      1.00000000      1.00000000      1.00000000      1.00000000      1.00000000      1.00000000      1.00000000      1.00000000      1.00000000</v>
    <i name="NUPDOWN">     -1.00000000</i>
    <i type="logical" name="LSORBIT"> F  </i>
    <v name="SAXIS">      0.00000000      0.00000000      1.00000000</v>
    <i type="logical" name="LSPIRAL"> F  </i>
    <v name="QSPIRAL">      0.00000000      0.00000000      0.00000000</v>
    <i type="logical" name="LZEROZ"> F  </i>
   </separator>
   <separator name="electronic exchange-correlation" >
    <i type="logical" name="LASPH"> T  </i>
    <i type="logical" name="LMETAGGA"> F  </i>
   </separator>
   <separator name="electronic convergence" >
    <i type="int" name="NELM">    60</i>
    <i type="int" name="NELMDL">    -5</i>
    <i type="int" name="NELMIN">     2</i>
    <i name="ENINI">    300.00000000</i>
    <separator name="electronic convergence detail" >
     <i type="logical" name="LDIAG"> T  </i>
     <i type="logical" name="LSUBROT"> F  </i>
     <i name="WEIMIN">      0.00100000</i>
     <i name="EBREAK">      0.00000060</i>
     <i name="DEPER">      0.30000000</i>
     <i type="int" name="NRMM">     4</i>
     <i name="TIME">      0.40000000</i>
    </separator>
   </separator>
   <separator name="electronic mixer" >
    <i name="AMIX">      0.40000000</i>
    <i name="BMIX">      1.00000000</i>
    <i name="AMIN">      0.10000000</i>
    <i name="AMIX_MAG">      1.60000000</i>
    <i name="BMIX_MAG">      1.00000000</i>
    <separator name="electronic mixer details" >
     <i type="int" name="IMIX">     4</i>
     <i type="logical" name="MIXFIRST"> F  </i>
     <i type="int" name="MAXMIX">   -45</i>
     <i name="WC">    100.00000000</i>
     <i type="int" name="INIMIX">     1</i>
     <i type="int" name="MIXPRE">     1</i>
     <i type="int" name="MREMOVE">     5</i>
    </separator>
   </separator>
   <separator name="electronic dipolcorrection" >
    <i type="logical" name="LDIPOL"> F  </i>
    <i type="logical" name="LMONO"> F  </i>
    <i type="int" name="IDIPOL">     0</i>
    <i name="EPSILON">      1.00000000</i>
    <v name="DIPOL">   -100.00000000   -100.00000000   -100.00000000</v>
    <i name="EFIELD">      0.00000000</i>
   </separator>
  </separator>
  <separator name="grids" >
   <i type="int" name="NGX">    36</i>
   <i type="int" name="NGY">    36</i>
   <i type="int" name="NGZ">    40</i>
   <i type="int" name="NGXF">    60</i>
   <i type="int" name="NGYF">    60</i>
   <i type="int" name="NGZF">    64</i>
   <i type="logical" name="ADDGRID"> F  </i>
  </separator>
  <separator name="ionic" >
   <i type="int" name="NSW">    99</i>
   <i type="int" name="IBRION">     2</i>
   <i type="int" name="MDALGO">     0</i>
   <i type="int" name="ISIF">     3</i>
   <i name="PSTRESS">      0.00000000</i>
   <i name="EDIFFG">     -0.05000000</i>
   <i type="int" name="NFREE">     1</i>
   <i name="POTIM">      0.10000000</i>
   <i name="SMASS">     -3.00000000</i>
   <i name="SCALEE">      1.00000000</i>
  </separator>
  <separator name="ionic md" >
   <i name="TEBEG">      0.00010000</i>
   <i name="TEEND">      0.00010000</i>
   <i type="int" name="NBLOCK">     1</i>
   <i type="int" name="KBLOCK">    99</i>
   <i type="int" name="NPACO">   256</i>
   <i name="APACO">     16.00000000</i>
  </separator>
  <separator name="symmetry" >
   <i type="int" name="ISYM">     2</i>
   <i name="SYMPREC">      0.00001000</i>
  </separator>
  <separator name="dos" >
   <i type="int" name="LORBIT">    10</i>
   <v name="RWIGS">     -1.00000000     -1.00000000     -1.00000000</v>
   <i type="int" name="NEDOS">   301</i>
   <i name="EMIN">     10.00000000</i>
   <i name="EMAX">    -10.00000000</i>
   <i name="EFERMI">      0.00000000</i>
  </separator>
  <separator name="writing" >
   <i type="int" name="NWRITE">     2</i>
   <i type="logical" name="LWAVE"> F  </i>
   <i type="logical" name="LDOWNSAMPLE"> F  </i>
   <i type="logical" name="LCHARG"> F  </i>
   <i type="logical" name="LPARD"> F  </i>
   <i type="logical" name="LVTOT"> F  </i>
   <i type="logical" name="LVHAR"> F  </i>
   <i type="logical" name="LELF"> F  </i>
   <i type="logical" name="LOPTICS"> F  </i>
   <v name="STM">      0.00000000      0.00000000      0.00000000      0.00000000      0.00000000      0.00000000      0.00000000</v>
  </separator>
  <separator name="performance" >
   <i type="int" name="NPAR">    14</i>
   <i type="int" name="NSIM">     4</i>
   <i type="int" name="NBLK">    -1</i>
   <i type="logical" name="LPLANE"> T  </i>
   <i type="logical" name="LSCALAPACK"> T  </i>
   <i type="logical" name="LSCAAWARE"> F  </i>
   <i type="logical" name="LSCALU"> F  </i>
   <i type="logical" name="LASYNC"> F  </i>
   <i type="logical" name="LORBITALREAL"> F  </i>
  </separator>
  <separator name="miscellaneous" >
   <i type="int" name="IDIOT">     3</i>
   <i type="int" name="ISPECIAL">     0</i>
   <i type="logical" name="LMUSIC"> F  </i>
   <v name="POMASS">      7.01000000    121.75000000     78.96000000</v>
   <v name="DARWINR">      0.00000000      0.00000000      0.00000000</v>
   <v name="DARWINV">      1.00000000      1.00000000      1.00000000</v>
   <i type="logical" name="LCORR"> T  </i>
  </separator>
  <i type="logical" name="GGA_COMPAT"> T  </i>
  <i type="logical" name="LBERRY"> F  </i>
  <i type="int" name="ICORELEVEL">     0</i>
  <i type="logical" name="LDAU"> F  </i>
  <i type="int" name="I_CONSTRAINED_M">     0</i>
  <separator name="electronic exchange-correlation" >
   <i type="string" name="GGA">--</i>
   <i type="int" name="VOSKOWN">     0</i>
   <i type="logical" name="LHFCALC"> F  </i>
   <i type="string" name="PRECFOCK"></i>
   <i type="logical" name="LSYMGRAD"> F  </i>
   <i type="logical" name="LHFONE"> F  </i>
   <i type="logical" name="LRHFCALC"> F  </i>
   <i type="logical" name="LTHOMAS"> F  </i>
   <i type="logical" name="LMODELHF"> F  </i>
   <i name="ENCUT4O">     -1.00000000</i>
   <i type="int" name="EXXOEP">     0</i>
   <i type="int" name="FOURORBIT">     0</i>
   <i name="AEXX">      0.00000000</i>
   <i name="HFALPHA">      0.00000000</i>
   <i name="MCALPHA">      0.00000000</i>
   <i name="ALDAX">      1.00000000</i>
   <i name="AGGAX">      1.00000000</i>
   <i name="ALDAC">      1.00000000</i>
   <i name="AGGAC">      1.00000000</i>
   <i type="int" name="NKREDX">     1</i>
   <i type="int" name="NKREDY">     1</i>
   <i type="int" name="NKREDZ">     1</i>
   <i type="logical" name="SHIFTRED"> F  </i>
   <i type="logical" name="ODDONLY"> F  </i>
   <i type="logical" name="EVENONLY"> F  </i>
   <i type="int" name="LMAXFOCK">     0</i>
   <i type="int" name="NMAXFOCKAE">     0</i>
   <i type="logical" name="LFOCKAEDFT"> F  </i>
   <i name="HFSCREEN">      0.00000000</i>
   <i name="HFSCREENC">      0.00000000</i>
   <i type="int" name="NBANDSGWLOW">     0</i>
  </separator>
  <separator name="vdW DFT" >
   <i type="logical" name="LUSE_VDW"> F  </i>
   <i name="Zab_VDW">     -0.84910000</i>
   <i name="PARAM1">      0.12340000</i>
   <i name="PARAM2">      1.00000000</i>
   <i name="PARAM3">      0.00000000</i>
  </separator>
  <separator name="model GW" >
   <i type="int" name="MODEL_GW">     0</i>
   <i name="MODEL_EPS0">     17.91889494</i>
   <i name="MODEL_ALPHA">      1.00000000</i>
  </separator>
  <separator name="linear response parameters" >
   <i type="logical" name="LEPSILON"> F  </i>
   <i type="logical" name="LRPA"> F  </i>
   <i type="logical" name="LNABLA"> F  </i>
   <i type="logical" name="LVEL"> F  </i>
   <i type="int" name="KINTER">     0</i>
   <i name="CSHIFT">      0.10000000</i>
   <i name="OMEGAMAX">     -1.00000000</i>
   <i name="DEG_THRESHOLD">      0.00200000</i>
   <i name="RTIME">     -0.10000000</i>
   <i name="WPLASMAI">      0.00000000</i>
   <v name="DFIELD">      0.00000000      0.00000000      0.00000000</v>
   <v name="WPLASMA">      0.00000000      0.00000000      0.00000000      0.00000000      0.00000000      0.00000000      0.00000000      0.00000000      0.00000000</v>
  </separator>
  <separator name="orbital magnetization" >
   <i type="logical" name="NUCIND"> F  </i>
   <v name="MAGPOS">      0.00000000      0.00000000      0.00000000</v>
   <i type="logical" name="LNICSALL"> T  </i>
   <i type="logical" name="ORBITALMAG"> F  </i>
   <i type="logical" name="LMAGBLOCH"> F  </i>
   <i type="logical" name="LCHIMAG"> F  </i>
   <i type="logical" name="LGAUGE"> T  </i>
   <i type="int" name="MAGATOM">     0</i>
   <v name="MAGDIPOL">      0.00000000      0.00000000      0.00000000</v>
   <v name="AVECCONST">      0.00000000      0.00000000      0.00000000</v>
  </separator>
  <separator name="response functions" >
   <i type="logical" name="LADDER"> F  </i>
   <i type="logical" name="LRPAFORCE"> F  </i>
   <i type="logical" name="LFXC"> F  </i>
   <i type="logical" name="LHARTREE"> T  </i>
   <i type="int" name="IBSE">     0</i>
   <v type="int" name="KPOINT">    -1     0     0     0</v>
   <i type="logical" name="LTCTE"> F  </i>
   <i type="logical" name="LTETE"> F  </i>
   <i type="logical" name="LTRIPLET"> F  </i>
   <i type="logical" name="LFXCEPS"> F  </i>
   <i type="logical" name="LFXHEG"> F  </i>
   <i type="int" name="NATURALO">     2</i>
   <i type="logical" name="L2ORDER"> F  </i>
   <i type="logical" name="LMP2LT"> F  </i>
   <i type="logical" name="LUSEW"> F  </i>
   <i name="ENCUTGW">     -2.00000000</i>
   <i name="ENCUTGWSOFT">     -2.00000000</i>
   <i name="ENCUTLF">     -1.00000000</i>
   <i type="int" name="LMAXMP2">    -1</i>
   <i name="SCISSOR">      0.00000000</i>
   <i type="int" name="NOMEGA">     0</i>
   <i type="int" name="NOMEGAR">     0</i>
   <i type="int" name="NBANDSGW">    -1</i>
   <i type="int" name="NBANDSO">    -1</i>
   <i type="int" name="NBANDSV">    -1</i>
   <i type="int" name="NELM">     1</i>
   <i type="int" name="NELMHF">     1</i>
   <i type="int" name="DIM">     3</i>
   <i type="int" name="ANTIRES">     0</i>
   <i name="OMEGAMAX">    -30.00000000</i>
   <i name="OMEGAMIN">    -30.00000000</i>
   <i name="OMEGATL">   -200.00000000</i>
   <i type="int" name="OMEGAGRID">   140</i>
   <i name="CSHIFT">     -0.10000000</i>
   <i type="logical" name="SELFENERGY"> F  </i>
   <i type="logical" name="LSPECTRAL"> F  </i>
   <i type="logical" name="LSPECTRALGW"> F  </i>
   <i type="logical" name="LSINGLES"> F  </i>
   <i type="logical" name="LFERMIGW"> F  </i>
   <i type="logical" name="ODDONLYGW"> F  </i>
   <i type="logical" name="EVENONLYGW"> F  </i>
   <i type="int" name="NKREDLFX">     1</i>
   <i type="int" name="NKREDLFY">     1</i>
   <i type="int" name="NKREDLFZ">     1</i>
   <i type="int" name="MAXMEM">  2800</i>
   <i type="int" name="TELESCOPE">     0</i>
   <i type="int" name="TAUPAR">     1</i>
   <i type="int" name="OMEGAPAR">    -1</i>
   <i name="LAMBDA">      1.00000000</i>
  </separator>
  <separator name="External order field" >
   <i name="OFIELD_KAPPA">      0.00000000</i>
   <v name="OFIELD_K">      0.00000000      0.00000000      0.00000000</v>
   <i name="OFIELD_Q6_NEAR">      0.00000000</i>
   <i name="OFIELD_Q6_FAR">      0.00000000</i>
   <i name="OFIELD_A">      0.00000000</i>
  </separator>
 </parameters>
 <atominfo>
  <atoms>      16 </atoms>
  <types>       3 </types>
  <array name="atoms" >
   <dimension dim="1">ion</dimension>
   <field type="string">element</field>
   <field type="int">atomtype</field>
   <set>
    <rc><c>Li</c><c>   1</c></rc>
    <rc><c>Li</c><c>   1</c></rc>
    <rc><c>Li</c><c>   1</c></rc>
    <rc><c>Li</c><c>   1</c></rc>
    <rc><c>Li</c><c>   1</c></rc>
    <rc><c>Li</c><c>   1</c></rc>
    <rc><c>Li</c><c>   1</c></rc>
    <rc><c>Li</c><c>   1</c></rc>
    <rc><c>Li</c><c>   1</c></rc>
    <rc><c>Sb</c><c>   2</c></rc>
    <rc><c>Se</c><c>   3</c></rc>
    <rc><c>Se</c><c>   3</c></rc>
    <rc><c>Se</c><c>   3</c></rc>
    <rc><c>Se</c><c>   3</c></rc>
    <rc><c>Se</c><c>   3</c></rc>
    <rc><c>Se</c><c>   3</c></rc>
   </set>
  </array>
  <array name="atomtypes" >
   <dimension dim="1">type</dimension>
   <field type="int">atomspertype</field>
   <field type="string">element</field>
   <field>mass</field>
   <field>valence</field>
   <field type="string">pseudopotential</field>
   <set>
    <rc><c>   9</c><c>Li</c><c>      7.01000000</c><c>      1.00000000</c><c>  PAW_PBE Li 17Jan2003                  </c></rc>
    <rc><c>   1</c><c>Sb</c><c>    121.75000000</c><c>      5.00000000</c><c>  PAW_PBE Sb 06Sep2000                  </c></rc>
    <rc><c>   6</c><c>Se</c><c>     78.96000000</c><c>      6.00000000</c><c>  PAW_PBE Se 06Sep2000                  </c></rc>
   </set>
  </array>
 </atominfo>
 <structure name="initialpos" >
  <crystal>
   <varray name="basis" >
    <v>       7.40287169      -0.03966075      -4.21641871 </v>
    <v>      -2.36460635       7.01304616      -4.20928583 </v>
    <v>       0.17526935       0.25202737       8.91997773 </v>
   </varray>
   <i name="volume">    477.83719846 </i>
   <varray name="rec_basis" >
    <v>       0.13313545       0.04259710      -0.00381954 </v>
    <v>      -0.00148352       0.13973893      -0.00391907 </v>
    <v>       0.06223225       0.08607738       0.10845304 </v>
   </varray>
  </crystal>
  <varray name="positions" >
   <v>       0.99315651       0.51569040       0.30835219 </v>
   <v>       0.20720099       0.00635107       0.69171193 </v>
   <v>       0.00000000       0.00000000       0.00000000 </v>
   <v>       0.31509448       0.79233036       0.30787600 </v>
   <v>       0.48396808       0.68441975       0.69093477 </v>
   <v>       0.51603192       0.31558025       0.30906523 </v>
   <v>       0.68490552       0.20766964       0.69212400 </v>
   <v>       0.79279901       0.99364893       0.30828807 </v>
   <v>       0.00684349       0.48430960       0.69164781 </v>
   <v>       0.50000000       0.50000000       0.00000000 </v>
   <v>       0.27962759       0.27964126       0.55819657 </v>
   <v>       0.18550858       0.35420298       0.99985196 </v>
   <v>       0.35477974       0.81455249       0.99971218 </v>
   <v>       0.72037241       0.72035874       0.44180343 </v>
   <v>       0.64522026       0.18544751       0.00028782 </v>
   <v>       0.81449142       0.64579702       0.00014804 </v>
  </varray>
 </structure>
 <calculation>
  <scstep>
   <time name="dav">    0.35    0.35</time>
   <time name="total">    0.48    0.59</time>
   <energy>
    <i name="alphaZ">     37.70902954 </i>
    <i name="ewald">  -1248.27895205 </i>
    <i name="hartreedc">   -448.38680113 </i>
    <i name="XCdc">    -91.48796785 </i>
    <i name="pawpsdc">   1494.44577748 </i>
    <i name="pawaedc">  -1307.82147914 </i>
    <i name="eentropy">     -0.00367660 </i>
    <i name="bandstr">    -28.96233340 </i>
    <i name="atom">   1740.39794420 </i>
    <i name="e_fr_energy">    147.61154106 </i>
    <i name="e_wo_entrp">    147.61521766 </i>
    <i name="e_0_energy">    147.61337936 </i>
   </energy>
  </scstep>
  <scstep>
   <time name="dav">    0.54    0.54</time>
   <time name="total">    0.54    0.54</time>
   <energy>
    <i name="e_fr_energy">    -33.34974032 </i>
    <i name="e_wo_entrp">    -33.34974032 </i>
    <i name="e_0_energy">    -33.34974032 </i>
   </energy>
  </scstep>
  <scstep>
   <time name="dav">    0.44    0.45</time>
   <time name="total">    0.44    0.45</time>
   <energy>
    <i name="e_fr_energy">    -53.75460143 </i>
    <i name="e_wo_entrp">    -53.75460143 </i>
    <i name="e_0_energy">    -53.75460143 </i>
   </energy>
  </scstep>
  <scstep>
   <time name="dav">    0.54    0.54</time>
   <time name="total">    0.54    0.54</time>
   <energy>
    <i name="e_fr_energy">    -54.07628250 </i>
    <i name="e_wo_entrp">    -54.07628250 </i>
    <i name="e_0_energy">    -54.07628250 </i>
   </energy>
  </scstep>
  <scstep>
   <time name="dav">    0.52    0.52</time>
   <time name="total">    0.54    0.54</time>
   <energy>
    <i name="e_fr_energy">    -54.08112731 </i>
    <i name="e_wo_entrp">    -54.08112731 </i>
    <i name="e_0_energy">    -54.08112731 </i>
   </energy>
  </scstep>
  <scstep>
   <time name="dav">    0.51    0.51</time>
   <time name="total">    0.71    0.71</time>
   <energy>
    <i name="e_fr_energy">    -51.23596242 </i>
    <i name="e_wo_entrp">    -51.23596241 </i>
    <i name="e_0_energy">    -51.23596242 </i>
   </energy>
  </scstep>
  <scstep>
   <time name="dav">    0.51    0.51</time>
   <time name="total">    0.70    0.70</time>
   <energy>
    <i name="e_fr_energy">    -50.93060841 </i>
    <i name="e_wo_entrp">    -50.92925451 </i>
    <i name="e_0_energy">    -50.92993146 </i>
   </energy>
  </scstep>
  <scstep>
   <time name="dav">    0.46    0.47</time>
   <time name="total">    0.66    0.66</time>
   <energy>
    <i name="e_fr_energy">    -50.89838258 </i>
    <i name="e_wo_entrp">    -50.89557168 </i>
    <i name="e_0_energy">    -50.89697713 </i>
   </energy>
  </scstep>
  <scstep>
   <time name="dav">    0.48    0.48</time>
   <time name="total">    0.67    0.67</time>
   <energy>
    <i name="e_fr_energy">    -50.89604017 </i>
    <i name="e_wo_entrp">    -50.89259735 </i>
    <i name="e_0_energy">    -50.89431876 </i>
   </energy>
  </scstep>
  <scstep>
   <time name="dav">    0.46    0.46</time>
   <time name="total">    0.65    0.65</time>
   <energy>
    <i name="e_fr_energy">    -50.89685397 </i>
    <i name="e_wo_entrp">    -50.89349763 </i>
    <i name="e_0_energy">    -50.89517580 </i>
   </energy>
  </scstep>
  <scstep>
   <time name="dav">    0.53    0.54</time>
   <time name="total">    0.72    0.73</time>
   <energy>
    <i name="e_fr_energy">    -50.89709155 </i>
    <i name="e_wo_entrp">    -50.89369279 </i>
    <i name="e_0_energy">    -50.89539217 </i>
   </energy>
  </scstep>
  <scstep>
   <time name="dav">    0.37    0.37</time>
   <time name="total">    0.54    0.54</time>
   <energy>
    <i name="alphaZ">     37.70902954 </i>
    <i name="ewald">  -1248.27895205 </i>
    <i name="hartreedc">   -493.75856856 </i>
    <i name="XCdc">    -87.98588906 </i>
    <i name="pawpsdc">   2114.50139460 </i>
    <i name="pawaedc">  -1928.37114174 </i>
    <i name="eentropy">     -0.00342425 </i>
    <i name="bandstr">   -185.10749261 </i>
    <i name="atom">   1740.39794420 </i>
    <i name="e_fr_energy">    -50.89709993 </i>
    <i name="e_wo_entrp">    -50.89367568 </i>
    <i name="e_0_energy">    -50.89538780 </i>
   </energy>
  </scstep>
  <structure>
   <crystal>
    <varray name="basis" >
     <v>       7.40287169      -0.03966075      -4.21641871 </v>
     <v>      -2.36460635       7.01304616      -4.20928583 </v>
     <v>       0.17526935       0.25202737       8.91997773 </v>
    </varray>
    <i name="volume">    477.83719846 </i>
    <varray name="rec_basis" >
     <v>       0.13313545       0.04259710      -0.00381954 </v>
     <v>      -0.00148352       0.13973893      -0.00391907 </v>
     <v>       0.06223225       0.08607738       0.10845304 </v>
    </varray>
   </crystal>
   <varray name="positions" >
    <v>       0.99315651       0.51569040       0.30835219 </v>
    <v>       0.20720099       0.00635107       0.69171193 </v>
    <v>       0.00000000       0.00000000       0.00000000 </v>
    <v>       0.31509448       0.79233036       0.30787600 </v>
    <v>       0.48396808       0.68441975       0.69093477 </v>
    <v>       0.51603192       0.31558025       0.30906523 </v>
    <v>       0.68490552       0.20766964       0.69212400 </v>
    <v>       0.79279901       0.99364893       0.30828807 </v>
    <v>       0.00684349       0.48430960       0.69164781 </v>
    <v>       0.50000000       0.50000000       0.00000000 </v>
    <v>       0.27962759       0.27964126       0.55819657 </v>
    <v>       0.18550858       0.35420298       0.99985196 </v>
    <v>       0.35477974       0.81455249       0.99971218 </v>
    <v>       0.72037241       0.72035874       0.44180343 </v>
    <v>       0.64522026       0.18544751       0.00028782 </v>
    <v>       0.81449142       0.64579702       0.00014804 </v>
   </varray>
  </structure>
  <varray name="forces" >
   <v>      -0.72139125      -0.57132011      -0.34764366 </v>
   <v>       0.15222982       0.86441119       0.44714920 </v>
   <v>      -0.00000000      -0.00000000       0.00000000 </v>
   <v>       0.01397484      -0.41701900      -0.88816517 </v>
   <v>       0.56380110       0.11410961       0.79503923 </v>
   <v>      -0.56380110      -0.11410961      -0.79503923 </v>
   <v>      -0.01397484       0.41701900       0.88816517 </v>
   <v>      -0.15222982      -0.86441119      -0.44714920 </v>
   <v>       0.72139125       0.57132011       0.34764366 </v>
   <v>      -0.00000000      -0.00000000      -0.00000000 </v>
   <v>      -0.19787455      -0.27200270      -0.33497312 </v>
   <v>      -0.05596107      -0.21753268       0.24684089 </v>
   <v>      -0.27290437       0.12396502       0.09565635 </v>
   <v>       0.19787455       0.27200270       0.33497312 </v>
   <v>       0.27290437      -0.12396502      -0.09565635 </v>
   <v>       0.05596107       0.21753268      -0.24684089 </v>
  </varray>
  <varray name="stress" >
   <v>     -54.17343415      -1.12742437      -0.99284211 </v>
   <v>      -1.12742569     -55.09989269      -1.55322711 </v>
   <v>      -0.99284110      -1.55322761     -55.43026677 </v>
  </varray>
  <energy>
   <i name="e_fr_energy">    -50.89709993 </i>
   <i name="e_wo_entrp">    -50.89538780 </i>
   <i name="e_0_energy">     -0.00342425 </i>
  </energy>
  <time name="totalsc">    8.07    8.21</time>
 </calculation>
 <calculation>
  <scstep>
   <time name="dav">    0.55    0.56</time>
   <time name="total">    0.74    0.75</time>
   <energy>
    <i name="alphaZ">     38.84847832 </i>
    <i name="ewald">  -1261.28258152 </i>
    <i name="hartreedc">   -497.98792234 </i>
    <i name="XCdc">    -87.38937605 </i>
    <i name="pawpsdc">   2112.92717069 </i>
    <i name="pawaedc">  -1926.79736216 </i>
    <i name="eentropy">     -0.00332862 </i>
    <i name="bandstr">   -170.37918818 </i>
    <i name="atom">   1740.39794420 </i>
    <i name="e_fr_energy">    -51.66616565 </i>
    <i name="e_wo_entrp">    -51.66283704 </i>
    <i name="e_0_energy">    -51.66450135 </i>
   </energy>
  </scstep>
  <scstep>
   <time name="dav">    0.51    0.51</time>
   <time name="total">    0.69    0.69</time>
   <energy>
    <i name="e_fr_energy">    -51.46311581 </i>
    <i name="e_wo_entrp">    -51.45946627 </i>
    <i name="e_0_energy">    -51.46129104 </i>
   </energy>
  </scstep>
  <scstep>
   <time name="dav">    0.46    0.46</time>
   <time name="total">    0.64    0.64</time>
   <energy>
    <i name="e_fr_energy">    -51.45235784 </i>
    <i name="e_wo_entrp">    -51.44888215 </i>
    <i name="e_0_energy">    -51.45062000 </i>
   </energy>
  </scstep>
  <scstep>
   <time name="dav">    0.52    0.52</time>
   <time name="total">    0.71    0.71</time>
   <energy>
    <i name="e_fr_energy">    -51.45086677 </i>
    <i name="e_wo_entrp">    -51.44729390 </i>
    <i name="e_0_energy">    -51.44908033 </i>
   </energy>
  </scstep>
  <scstep>
   <time name="dav">    0.58    0.58</time>
   <time name="total">    0.77    0.77</time>
   <energy>
    <i name="e_fr_energy">    -51.45047641 </i>
    <i name="e_wo_entrp">    -51.44692139 </i>
    <i name="e_0_energy">    -51.44869890 </i>
   </energy>
  </scstep>
  <scstep>
   <time name="dav">    0.26    0.26</time>
   <time name="total">    0.43    0.43</time>
   <energy>
    <i name="alphaZ">     38.84847832 </i>
    <i name="ewald">  -1261.28258152 </i>
    <i name="hartreedc">   -486.75700596 </i>
    <i name="XCdc">    -87.61395213 </i>
    <i name="pawpsdc">   2147.37984885 </i>
    <i name="pawaedc">  -1961.28867353 </i>
    <i name="eentropy">     -0.00357596 </i>
    <i name="bandstr">   -181.13094908 </i>
    <i name="atom">   1740.39794420 </i>
    <i name="e_fr_energy">    -51.45046681 </i>
    <i name="e_wo_entrp">    -51.44689085 </i>
    <i name="e_0_energy">    -51.44867883 </i>
   </energy>
  </scstep>
  <structure>
   <crystal>
    <varray name="basis" >
     <v>       7.33150574      -0.03959094      -4.17569545 </v>
     <v>      -2.34223816       6.94520417      -4.16885973 </v>
     <v>       0.17191781       0.24700253       8.83095155 </v>
    </varray>
    <i name="volume">    463.82195159 </i>
    <varray name="rec_basis" >
     <v>       0.13445349       0.04304990      -0.00382160 </v>
     <v>      -0.00146992       0.14113616      -0.00391898 </v>
     <v>       0.06288212       0.08698271       0.10958100 </v>
    </varray>
   </crystal>
   <varray name="positions" >
    <v>       0.99200784       0.51494357       0.30708076 </v>
    <v>       0.20773533       0.00749745       0.69298915 </v>
    <v>      -0.00000000       0.00000000      -0.00000000 </v>
    <v>       0.31497377       0.79180149       0.30660866 </v>
    <v>       0.48470992       0.68453547       0.69220001 </v>
    <v>       0.51529008       0.31546453       0.30779999 </v>
    <v>       0.68502623       0.20819851       0.69339134 </v>
    <v>       0.79226467       0.99250255       0.30701085 </v>
    <v>       0.00799216       0.48505643       0.69291924 </v>
    <v>       0.50000000       0.50000000      -0.00000000 </v>
    <v>       0.27927396       0.27929002       0.55750133 </v>
    <v>       0.18533819       0.35390115       0.99989599 </v>
    <v>       0.35447660       0.81471992       0.99975137 </v>
    <v>       0.72072604       0.72070998       0.44249867 </v>
    <v>       0.64552340       0.18528008       0.00024863 </v>
    <v>       0.81466181       0.64609885       0.00010401 </v>
   </varray>
  </structure>
  <varray name="forces" >
   <v>      -0.70250073      -0.57024923      -0.34509248 </v>
   <v>       0.14597074       0.84594232       0.45011770 </v>
   <v>       0.00000000       0.00000000       0.00000000 </v>
   <v>       0.00353428      -0.40736764      -0.87697631 </v>
   <v>       0.56104876       0.12137884       0.77757804 </v>
   <v>      -0.56104876      -0.12137884      -0.77757804 </v>
   <v>      -0.00353428       0.40736764       0.87697631 </v>
   <v>      -0.14597074      -0.84594232      -0.45011770 </v>
   <v>       0.70250073       0.57024923       0.34509248 </v>
   <v>       0.00000000       0.00000000       0.00000000 </v>
   <v>      -0.23069626      -0.32539811      -0.41885527 </v>
   <v>      -0.11392869      -0.27512482       0.30334428 </v>
   <v>      -0.36358040       0.15819123       0.04198483 </v>
   <v>       0.23069626       0.32539811       0.41885527 </v>
   <v>       0.36358040      -0.15819123      -0.04198483 </v>
   <v>       0.11392869       0.27512482      -0.30334428 </v>
  </varray>
  <varray name="stress" >
   <v>     -51.76094361      -0.90866325      -1.16017937 </v>
   <v>      -0.90866466     -52.15394470      -1.57808518 </v>
   <v>      -1.16017830      -1.57808601     -53.31147604 </v>
  </varray>
  <energy>
   <i name="e_fr_energy">    -51.45046681 </i>
   <i name="e_wo_entrp">    -51.44867883 </i>
   <i name="e_0_energy">     -0.00357596 </i>
  </energy>
  <time name="totalsc">    4.91    4.93</time>
 </calculation>
 <calculation>
  <scstep>
   <time name="dav">    0.51    0.53</time>
   <time name="total">    0.70    0.72</time>
   <energy>
    <i name="alphaZ">     42.55484126 </i>
    <i name="ewald">  -1301.84237154 </i>
    <i name="hartreedc">   -499.69091984 </i>
    <i name="XCdc">    -85.76164594 </i>
    <i name="pawpsdc">   2145.01274846 </i>
    <i name="pawaedc">  -1958.92009686 </i>
    <i name="eentropy">     -0.00571796 </i>
    <i name="bandstr">   -136.64785008 </i>
    <i name="atom">   1740.39794420 </i>
    <i name="e_fr_energy">    -54.90306830 </i>
    <i name="e_wo_entrp">    -54.89735034 </i>
    <i name="e_0_energy">    -54.90020932 </i>
   </energy>
  </scstep>
  <scstep>
   <time name="dav">    0.48    0.48</time>
   <time name="total">    0.67    0.67</time>
   <energy>
    <i name="e_fr_energy">    -53.01377812 </i>
    <i name="e_wo_entrp">    -53.01044290 </i>
    <i name="e_0_energy">    -53.01211051 </i>
   </energy>
  </scstep>
  <scstep>
   <time name="dav">    0.39    0.39</time>
   <time name="total">    0.57    0.57</time>
   <energy>
    <i name="e_fr_energy">    -52.93010365 </i>
    <i name="e_wo_entrp">    -52.92645975 </i>
    <i name="e_0_energy">    -52.92828170 </i>
   </energy>
  </scstep>
  <scstep>
   <time name="dav">    0.52    0.52</time>
   <time name="total">    0.70    0.71</time>
   <energy>
    <i name="e_fr_energy">    -52.91570390 </i>
    <i name="e_wo_entrp">    -52.91215208 </i>
    <i name="e_0_energy">    -52.91392799 </i>
   </energy>
  </scstep>
  <scstep>
   <time name="dav">    0.55    0.55</time>
   <time name="total">    0.73    0.74</time>
   <energy>
    <i name="e_fr_energy">    -52.91024924 </i>
    <i name="e_wo_entrp">    -52.90676583 </i>
    <i name="e_0_energy">    -52.90850754 </i>
   </energy>
  </scstep>
  <scstep>
   <time name="dav">    0.48    0.48</time>
   <time name="total">    0.65    0.65</time>
   <energy>
    <i name="alphaZ">     42.55484126 </i>
    <i name="ewald">  -1301.84237154 </i>
    <i name="hartreedc">   -465.49559666 </i>
    <i name="XCdc">    -86.41368455 </i>
    <i name="pawpsdc">   2266.32334052 </i>
    <i name="pawaedc">  -2080.36149836 </i>
    <i name="eentropy">     -0.00347877 </i>
    <i name="bandstr">   -168.06966434 </i>
    <i name="atom">   1740.39794420 </i>
    <i name="e_fr_energy">    -52.91016825 </i>
    <i name="e_wo_entrp">    -52.90668947 </i>
    <i name="e_0_energy">    -52.90842886 </i>
   </energy>
  </scstep>
  <structure>
   <crystal>
    <varray name="basis" >
     <v>       7.11740790      -0.03938149      -4.05352568 </v>
     <v>      -2.27513360       6.74167818      -4.04758145 </v>
     <v>       0.16186318       0.23192802       8.56387302 </v>
    </varray>
    <i name="volume">    423.42484421 </i>
    <varray name="rec_basis" >
     <v>       0.13856916       0.04446787      -0.00382334 </v>
     <v>      -0.00142379       0.14550090      -0.00391357 </v>
     <v>       0.06491581       0.08981665       0.11311022 </v>
    </varray>
   </crystal>
   <varray name="positions" >
    <v>       0.98852683       0.51267971       0.30322657 </v>
    <v>       0.20935547       0.01097160       0.69686092 </v>
    <v>      -0.00000000       0.00000000      -0.00000000 </v>
    <v>       0.31460675       0.79019801       0.30276698 </v>
    <v>       0.48695838       0.68488746       0.69603530 </v>
    <v>       0.51304162       0.31511254       0.30396470 </v>
    <v>       0.68539325       0.20980199       0.69723302 </v>
    <v>       0.79064453       0.98902840       0.30313908 </v>
    <v>       0.01147317       0.48732029       0.69677343 </v>
    <v>       0.50000000       0.50000000      -0.00000000 </v>
    <v>       0.27820197       0.27822524       0.55539383 </v>
    <v>       0.18482203       0.35298685       0.00002939 </v>
    <v>       0.35355839       0.81522711       0.99987016 </v>
    <v>       0.72179803       0.72177476       0.44460617 </v>
    <v>       0.64644161       0.18477289       0.00012984 </v>
    <v>       0.81517797       0.64701315      -0.00002939 </v>
   </varray>
  </structure>
  <varray name="forces" >
   <v>      -0.62562234      -0.55385813      -0.33389904 </v>
   <v>       0.12979029       0.76800478       0.45220437 </v>
   <v>      -0.00000000       0.00000000       0.00000000 </v>
   <v>      -0.03498893      -0.36853786      -0.81976659 </v>
   <v>       0.53781906       0.14497869       0.70726041 </v>
   <v>      -0.53781906      -0.14497869      -0.70726041 </v>
   <v>       0.03498893       0.36853786       0.81976659 </v>
   <v>      -0.12979029      -0.76800478      -0.45220437 </v>
   <v>       0.62562234       0.55385813       0.33389904 </v>
   <v>      -0.00000000       0.00000000       0.00000000 </v>
   <v>      -0.42036554      -0.58340967      -0.74329804 </v>
   <v>      -0.38528212      -0.36672060       0.51487460 </v>
   <v>      -0.56481308       0.49002599      -0.04423834 </v>
   <v>       0.42036554       0.58340967       0.74329804 </v>
   <v>       0.56481308      -0.49002599       0.04423834 </v>
   <v>       0.38528212       0.36672060      -0.51487460 </v>
  </varray>
  <varray name="stress" >
   <v>     -42.00207959      -0.16240594      -0.71257823 </v>
   <v>      -0.16240785     -41.86775149      -0.95871188 </v>
   <v>      -0.71257688      -0.95871294     -42.92173857 </v>
  </varray>
  <energy>
   <i name="e_fr_energy">    -52.91016825 </i>
   <i name="e_wo_entrp">    -52.90842886 </i>
   <i name="e_0_energy">     -0.00347877 </i>
  </energy>
  <time name="totalsc">    4.94    4.96</time>
 </calculation>
 <calculation>
  <scstep>
   <time name="dav">    0.52    0.52</time>
   <time name="total">    0.71    0.71</time>
   <energy>
    <i name="alphaZ">     51.51143550 </i>
    <i name="ewald">  -1390.70666112 </i>
    <i name="hartreedc">   -491.54821226 </i>
    <i name="XCdc">    -82.44749782 </i>
    <i name="pawpsdc">   2256.38746825 </i>
    <i name="pawaedc">  -2070.42237517 </i>
    <i name="eentropy">     -0.00667652 </i>
    <i name="bandstr">    -76.04367739 </i>
    <i name="atom">   1740.39794420 </i>
    <i name="e_fr_energy">    -62.87825233 </i>
    <i name="e_wo_entrp">    -62.87157581 </i>
    <i name="e_0_energy">    -62.87491407 </i>
   </energy>
  </scstep>
  <scstep>
   <time name="dav">    0.61    0.61</time>
   <time name="total">    0.80    0.80</time>
   <energy>
    <i name="e_fr_energy">    -55.03527278 </i>
    <i name="e_wo_entrp">    -55.03194311 </i>
    <i name="e_0_energy">    -55.03360795 </i>
   </energy>
  </scstep>
  <scstep>
   <time name="dav">    0.50    0.50</time>
   <time name="total">    0.69    0.69</time>
   <energy>
    <i name="e_fr_energy">    -54.57335250 </i>
    <i name="e_wo_entrp">    -54.57002574 </i>
    <i name="e_0_energy">    -54.57168912 </i>
   </energy>
  </scstep>
  <scstep>
   <time name="dav">    0.50    0.50</time>
   <time name="total">    0.69    0.69</time>
   <energy>
    <i name="e_fr_energy">    -54.52495259 </i>
    <i name="e_wo_entrp">    -54.52162577 </i>
    <i name="e_0_energy">    -54.52328918 </i>
   </energy>
  </scstep>
  <scstep>
   <time name="dav">    0.50    0.50</time>
   <time name="total">    0.69    0.69</time>
   <energy>
    <i name="e_fr_energy">    -54.49288665 </i>
    <i name="e_wo_entrp">    -54.48955964 </i>
    <i name="e_0_energy">    -54.49122315 </i>
   </energy>
  </scstep>
  <scstep>
   <time name="dav">    0.52    0.52</time>
   <time name="total">    0.71    0.72</time>
   <energy>
    <i name="e_fr_energy">    -54.49155041 </i>
    <i name="e_wo_entrp">    -54.48822342 </i>
    <i name="e_0_energy">    -54.48988691 </i>
   </energy>
  </scstep>
  <scstep>
   <time name="dav">    0.52    0.52</time>
   <time name="total">    0.70    0.71</time>
   <energy>
    <i name="e_fr_energy">    -54.49156684 </i>
    <i name="e_wo_entrp">    -54.48823986 </i>
    <i name="e_0_energy">    -54.48990335 </i>
   </energy>
  </scstep>
  <scstep>
   <time name="dav">    0.36    0.36</time>
   <time name="total">    0.53    0.53</time>
   <energy>
    <i name="alphaZ">     51.51143550 </i>
    <i name="ewald">  -1390.70666112 </i>
    <i name="hartreedc">   -422.01019500 </i>
    <i name="XCdc">    -83.64907421 </i>
    <i name="pawpsdc">   2570.07834907 </i>
    <i name="pawaedc">  -2384.46336344 </i>
    <i name="eentropy">     -0.00332698 </i>
    <i name="bandstr">   -135.64663732 </i>
    <i name="atom">   1740.39794420 </i>
    <i name="e_fr_energy">    -54.49152930 </i>
    <i name="e_wo_entrp">    -54.48820232 </i>
    <i name="e_0_energy">    -54.48986581 </i>
   </energy>
  </scstep>
  <structure>
   <crystal>
    <varray name="basis" >
     <v>       6.68921222      -0.03896260      -3.80918615 </v>
     <v>      -2.14092448       6.33462621      -3.80502487 </v>
     <v>       0.14175392       0.20177899       8.02971596 </v>
    </varray>
    <i name="volume">    349.80149274 </i>
    <varray name="rec_basis" >
     <v>       0.14760664       0.04760311      -0.00380202 </v>
     <v>      -0.00130290       0.15509494      -0.00387438 </v>
     <v>       0.06940515       0.09607677       0.12089783 </v>
    </varray>
   </crystal>
   <varray name="positions" >
    <v>       0.98134608       0.50800558       0.29526852 </v>
    <v>       0.21270293       0.01813887       0.70485557 </v>
    <v>      -0.00000000       0.00000000      -0.00000000 </v>
    <v>       0.31384191       0.78688544       0.29483539 </v>
    <v>       0.49159894       0.68562204       0.70395340 </v>
    <v>       0.50840106       0.31437796       0.29604660 </v>
    <v>       0.68615809       0.21311456       0.70516461 </v>
    <v>       0.78729707       0.98186113       0.29514443 </v>
    <v>       0.01865392       0.49199442       0.70473148 </v>
    <v>       0.50000000       0.50000000      -0.00000000 </v>
    <v>       0.27598856       0.27602630       0.55104247 </v>
    <v>       0.18375848       0.35110322       0.00030434 </v>
    <v>       0.35166712       0.81627212       0.00011551 </v>
    <v>       0.72401144       0.72397370       0.44895753 </v>
    <v>       0.64833288       0.18372788      -0.00011551 </v>
    <v>       0.81624152       0.64889678      -0.00030434 </v>
   </varray>
  </structure>
  <varray name="forces" >
   <v>      -0.33397723      -0.45108188      -0.29051519 </v>
   <v>       0.09089992       0.46250830       0.42348568 </v>
   <v>       0.00000000       0.00000000       0.00000000 </v>
   <v>      -0.15924985      -0.23418105      -0.56099727 </v>
   <v>       0.40270767       0.21959689       0.43250083 </v>
   <v>      -0.40270767      -0.21959689      -0.43250083 </v>
   <v>       0.15924985       0.23418105       0.56099727 </v>
   <v>      -0.09089992      -0.46250830      -0.42348568 </v>
   <v>       0.33397723       0.45108188       0.29051519 </v>
   <v>       0.00000000       0.00000000      -0.00000000 </v>
   <v>      -0.92439124      -1.27054034      -1.56370576 </v>
   <v>      -1.13297489      -0.67422005       1.15374626 </v>
   <v>      -1.12811092       1.31192751      -0.39664820 </v>
   <v>       0.92439124       1.27054034       1.56370576 </v>
   <v>       1.12811092      -1.31192751       0.39664820 </v>
   <v>       1.13297489       0.67422005      -1.15374626 </v>
  </varray>
  <varray name="stress" >
   <v>       3.49046548       0.22003618       0.33905974 </v>
   <v>       0.22003263       3.87537648       0.10622133 </v>
   <v>       0.33906250       0.10621943       4.31306348 </v>
  </varray>
  <energy>
   <i name="e_fr_energy">    -54.49152930 </i>
   <i name="e_wo_entrp">    -54.48986581 </i>
   <i name="e_0_energy">     -0.00332698 </i>
  </energy>
  <time name="totalsc">    6.42    6.43</time>
 </calculation>
 <calculation>
  <scstep>
   <time name="dav">    0.55    0.56</time>
   <time name="total">    0.74    0.75</time>
   <energy>
    <i name="alphaZ">     53.22543521 </i>
    <i name="ewald">  -1406.49238801 </i>
    <i name="hartreedc">   -425.86213877 </i>
    <i name="XCdc">    -82.96220863 </i>
    <i name="pawpsdc">   2566.97614214 </i>
    <i name="pawaedc">  -2381.35555568 </i>
    <i name="eentropy">     -0.00485794 </i>
    <i name="bandstr">   -118.66361800 </i>
    <i name="atom">   1740.39794420 </i>
    <i name="e_fr_energy">    -54.74124548 </i>
    <i name="e_wo_entrp">    -54.73638754 </i>
    <i name="e_0_energy">    -54.73881651 </i>
   </energy>
  </scstep>
  <scstep>
   <time name="dav">    0.50    0.50</time>
   <time name="total">    0.68    0.69</time>
   <energy>
    <i name="e_fr_energy">    -54.52192894 </i>
    <i name="e_wo_entrp">    -54.51855874 </i>
    <i name="e_0_energy">    -54.52024384 </i>
   </energy>
  </scstep>
  <scstep>
   <time name="dav">    0.42    0.42</time>
   <time name="total">    0.61    0.61</time>
   <energy>
    <i name="e_fr_energy">    -54.50828007 </i>
    <i name="e_wo_entrp">    -54.50495239 </i>
    <i name="e_0_energy">    -54.50661623 </i>
   </energy>
  </scstep>
  <scstep>
   <time name="dav">    0.54    0.54</time>
   <time name="total">    0.73    0.73</time>
   <energy>
    <i name="e_fr_energy">    -54.50689495 </i>
    <i name="e_wo_entrp">    -54.50356589 </i>
    <i name="e_0_energy">    -54.50523042 </i>
   </energy>
  </scstep>
  <scstep>
   <time name="dav">    0.59    0.59</time>
   <time name="total">    0.77    0.78</time>
   <energy>
    <i name="e_fr_energy">    -54.50637371 </i>
    <i name="e_wo_entrp">    -54.50304134 </i>
    <i name="e_0_energy">    -54.50470752 </i>
   </energy>
  </scstep>
  <scstep>
   <time name="dav">    0.38    0.38</time>
   <time name="total">    0.55    0.55</time>
   <energy>
    <i name="alphaZ">     53.22543521 </i>
    <i name="ewald">  -1406.49238801 </i>
    <i name="hartreedc">   -414.62430006 </i>
    <i name="XCdc">    -83.14056207 </i>
    <i name="pawpsdc">   2637.83248814 </i>
    <i name="pawaedc">  -2452.29100323 </i>
    <i name="eentropy">     -0.00333268 </i>
    <i name="bandstr">   -129.41064707 </i>
    <i name="atom">   1740.39794420 </i>
    <i name="e_fr_energy">    -54.50636557 </i>
    <i name="e_wo_entrp">    -54.50303289 </i>
    <i name="e_0_energy">    -54.50469923 </i>
   </energy>
  </scstep>
  <structure>
   <crystal>
    <varray name="basis" >
     <v>       6.61853533      -0.03889346      -3.76885608 </v>
     <v>      -2.11877226       6.26743925      -3.76498910 </v>
     <v>       0.13843474       0.19680267       7.94154936 </v>
    </varray>
    <i name="volume">    338.53695997 </i>
    <varray name="rec_basis" >
     <v>       0.14921307       0.04816351      -0.00379460 </v>
     <v>      -0.00127858       0.15680168      -0.00386348 </v>
     <v>       0.07020654       0.09719489       0.12228757 </v>
    </varray>
   </crystal>
   <varray name="positions" >
    <v>       0.98008136       0.50718074       0.29386399 </v>
    <v>       0.21329458       0.01940147       0.70626666 </v>
    <v>      -0.00000000       0.00000000      -0.00000000 </v>
    <v>       0.31370420       0.78630013       0.29343579 </v>
    <v>       0.49241717       0.68575469       0.70535051 </v>
    <v>       0.50758283       0.31424531       0.29464949 </v>
    <v>       0.68629580       0.21369987       0.70656421 </v>
    <v>       0.78670542       0.98059853       0.29373334 </v>
    <v>       0.01991864       0.49281926       0.70613601 </v>
    <v>       0.50000000       0.50000000      -0.00000000 </v>
    <v>       0.27559792       0.27563806       0.55027456 </v>
    <v>       0.18357164       0.35077239       0.00035267 </v>
    <v>       0.35133512       0.81645569       0.00015883 </v>
    <v>       0.72440208       0.72436194       0.44972544 </v>
    <v>       0.64866488       0.18354431      -0.00015883 </v>
    <v>       0.81642836       0.64922761      -0.00035267 </v>
   </varray>
  </structure>
  <varray name="forces" >
   <v>      -0.25970474      -0.41653854      -0.27897212 </v>
   <v>       0.08100551       0.38034609       0.41000778 </v>
   <v>       0.00000000      -0.00000000      -0.00000000 </v>
   <v>      -0.18507420      -0.20036286      -0.48990522 </v>
   <v>       0.36173415       0.23553628       0.36308451 </v>
   <v>      -0.36173415      -0.23553628      -0.36308451 </v>
   <v>       0.18507420       0.20036286       0.48990522 </v>
   <v>      -0.08100551      -0.38034609      -0.41000778 </v>
   <v>       0.25970474       0.41653854       0.27897212 </v>
   <v>       0.00000000      -0.00000000      -0.00000000 </v>
   <v>      -1.02989609      -1.41501465      -1.79164410 </v>
   <v>      -1.33313944      -0.71903304       1.32998903 </v>
   <v>      -1.31453601       1.52816156      -0.45166555 </v>
   <v>       1.02989609       1.41501465       1.79164410 </v>
   <v>       1.31453601      -1.52816156       0.45166555 </v>
   <v>       1.33313944       0.71903304      -1.32998903 </v>
  </varray>
  <varray name="stress" >
   <v>      15.15940542       0.10304275       0.32921916 </v>
   <v>       0.10303903      15.35556573       0.36900427 </v>
   <v>       0.32922209       0.36900210      16.61746851 </v>
  </varray>
  <energy>
   <i name="e_fr_energy">    -54.50636557 </i>
   <i name="e_wo_entrp">    -54.50469923 </i>
   <i name="e_0_energy">     -0.00333268 </i>
  </energy>
  <time name="totalsc">    5.01    5.04</time>
 </calculation>
 <calculation>
  <scstep>
   <time name="dav">    0.42    0.42</time>
   <time name="total">    0.61    0.61</time>
   <energy>
    <i name="alphaZ">     55.14796412 </i>
    <i name="ewald">  -1447.68078693 </i>
    <i name="hartreedc">   -396.69980695 </i>
    <i name="XCdc">    -82.68595127 </i>
    <i name="pawpsdc">   2634.68784937 </i>
    <i name="pawaedc">  -2449.14400458 </i>
    <i name="eentropy">     -0.00332969 </i>
    <i name="bandstr">   -109.50516536 </i>
    <i name="atom">   1740.39794420 </i>
    <i name="e_fr_energy">    -55.48528709 </i>
    <i name="e_wo_entrp">    -55.48195740 </i>
    <i name="e_0_energy">    -55.48362224 </i>
   </energy>
  </scstep>
  <scstep>
   <time name="dav">    0.55    0.55</time>
   <time name="total">    0.74    0.74</time>
   <energy>
    <i name="e_fr_energy">    -55.35793388 </i>
    <i name="e_wo_entrp">    -55.35460893 </i>
    <i name="e_0_energy">    -55.35627141 </i>
   </energy>
  </scstep>
  <scstep>
   <time name="dav">    0.48    0.48</time>
   <time name="total">    0.67    0.67</time>
   <energy>
    <i name="e_fr_energy">    -55.32489563 </i>
    <i name="e_wo_entrp">    -55.32157032 </i>
    <i name="e_0_energy">    -55.32323298 </i>
   </energy>
  </scstep>
  <scstep>
   <time name="dav">    0.54    0.54</time>
   <time name="total">    0.73    0.73</time>
   <energy>
    <i name="e_fr_energy">    -55.32372360 </i>
    <i name="e_wo_entrp">    -55.32039827 </i>
    <i name="e_0_energy">    -55.32206093 </i>
   </energy>
  </scstep>
  <scstep>
   <time name="dav">    0.54    0.54</time>
   <time name="total">    0.73    0.73</time>
   <energy>
    <i name="e_fr_energy">    -55.32322267 </i>
    <i name="e_wo_entrp">    -55.31989730 </i>
    <i name="e_0_energy">    -55.32155999 </i>
   </energy>
  </scstep>
  <scstep>
   <time name="dav">    0.46    0.47</time>
   <time name="total">    0.63    0.64</time>
   <energy>
    <i name="alphaZ">     55.14796412 </i>
    <i name="ewald">  -1447.68078693 </i>
    <i name="hartreedc">   -384.01507691 </i>
    <i name="XCdc">    -82.85762966 </i>
    <i name="pawpsdc">   2621.56943635 </i>
    <i name="pawaedc">  -2436.03389115 </i>
    <i name="eentropy">     -0.00332536 </i>
    <i name="bandstr">   -121.84785215 </i>
    <i name="atom">   1740.39794420 </i>
    <i name="e_fr_energy">    -55.32321749 </i>
    <i name="e_wo_entrp">    -55.31989213 </i>
    <i name="e_0_energy">    -55.32155481 </i>
   </energy>
  </scstep>
  <structure>
   <crystal>
    <varray name="basis" >
     <v>       6.54162744      -0.03921928      -3.72648130 </v>
     <v>      -2.09521554       6.19454340      -3.72323144 </v>
     <v>       0.13519462       0.19153352       7.84946557 </v>
    </varray>
    <i name="volume">    326.73512647 </i>
    <varray name="rec_basis" >
     <v>       0.15099992       0.04879476      -0.00379137 </v>
     <v>      -0.00124228       0.15869760      -0.00385096 </v>
     <v>       0.07109696       0.09843990       0.12377066 </v>
    </varray>
   </crystal>
   <varray name="positions" >
    <v>       0.97608802       0.50381684       0.28859823 </v>
    <v>       0.21521639       0.02339668       0.71154336 </v>
    <v>       0.00000000      -0.00000000      -0.00000000 </v>
    <v>       0.31242611       0.78437738       0.28819235 </v>
    <v>       0.49576979       0.68701378       0.71059839 </v>
    <v>       0.50423021       0.31298622       0.28940161 </v>
    <v>       0.68757389       0.21562262       0.71180765 </v>
    <v>       0.78478361       0.97660332       0.28845664 </v>
    <v>       0.02391198       0.49618316       0.71140177 </v>
    <v>       0.50000000       0.50000000      -0.00000000 </v>
    <v>       0.26866014       0.26874485       0.53645605 </v>
    <v>       0.17632668       0.34680442       0.00041711 </v>
    <v>       0.34723050       0.82382319       0.00026757 </v>
    <v>       0.73133986       0.73125515       0.46354395 </v>
    <v>       0.65276950       0.17617681      -0.00026757 </v>
    <v>       0.82367332       0.65319558      -0.00041711 </v>
   </varray>
  </structure>
  <varray name="forces" >
   <v>      -0.14061766      -0.33805187      -0.24561706 </v>
   <v>       0.06960564       0.24289975       0.36490091 </v>
   <v>       0.00000000      -0.00000000       0.00000000 </v>
   <v>      -0.20836211      -0.14558382      -0.35849494 </v>
   <v>       0.27655876       0.24091935       0.24616086 </v>
   <v>      -0.27655876      -0.24091935      -0.24616086 </v>
   <v>       0.20836211       0.14558382       0.35849494 </v>
   <v>      -0.06960564      -0.24289975      -0.36490091 </v>
   <v>       0.14061766       0.33805187       0.24561706 </v>
   <v>       0.00000000      -0.00000000       0.00000000 </v>
   <v>      -0.79995446      -1.09041023      -1.34467333 </v>
   <v>      -1.11349267      -0.57093099       1.02343573 </v>
   <v>      -0.97771788       1.23033740      -0.37538909 </v>
   <v>       0.79995446       1.09041023       1.34467333 </v>
   <v>       0.97771788      -1.23033740       0.37538909 </v>
   <v>       1.11349267       0.57093099      -1.02343573 </v>
  </varray>
  <varray name="stress" >
   <v>      17.07953442       0.31881325      -0.49640620 </v>
   <v>       0.31881040      17.41131883      -0.80910275 </v>
   <v>      -0.49640392      -0.80910446      17.70410156 </v>
  </varray>
  <energy>
   <i name="e_fr_energy">    -55.32321749 </i>
   <i name="e_wo_entrp">    -55.32155481 </i>
   <i name="e_0_energy">     -0.00332536 </i>
  </energy>
  <time name="totalsc">    5.09    5.11</time>
 </calculation>
 <calculation>
  <scstep>
   <time name="dav">    0.49    0.49</time>
   <time name="total">    0.67    0.67</time>
   <energy>
    <i name="alphaZ">     61.07985968 </i>
    <i name="ewald">  -1543.31119906 </i>
    <i name="hartreedc">   -352.64168549 </i>
    <i name="XCdc">    -81.42749838 </i>
    <i name="pawpsdc">   2619.24428560 </i>
    <i name="pawaedc">  -2433.70704471 </i>
    <i name="eentropy">     -0.00332649 </i>
    <i name="bandstr">    -67.08100558 </i>
    <i name="atom">   1740.39794420 </i>
    <i name="e_fr_energy">    -57.44967024 </i>
    <i name="e_wo_entrp">    -57.44634374 </i>
    <i name="e_0_energy">    -57.44800699 </i>
   </energy>
  </scstep>
  <scstep>
   <time name="dav">    0.51    0.51</time>
   <time name="total">    0.70    0.70</time>
   <energy>
    <i name="e_fr_energy">    -56.46561928 </i>
    <i name="e_wo_entrp">    -56.46549592 </i>
    <i name="e_0_energy">    -56.46555760 </i>
   </energy>
  </scstep>
  <scstep>
   <time name="dav">    0.42    0.42</time>
   <time name="total">    0.61    0.61</time>
   <energy>
    <i name="e_fr_energy">    -56.23601999 </i>
    <i name="e_wo_entrp">    -56.23601999 </i>
    <i name="e_0_energy">    -56.23601999 </i>
   </energy>
  </scstep>
  <scstep>
   <time name="dav">    0.57    0.57</time>
   <time name="total">    0.76    0.76</time>
   <energy>
    <i name="e_fr_energy">    -56.22768013 </i>
    <i name="e_wo_entrp">    -56.22768013 </i>
    <i name="e_0_energy">    -56.22768013 </i>
   </energy>
  </scstep>
  <scstep>
   <time name="dav">    0.50    0.50</time>
   <time name="total">    0.69    0.69</time>
   <energy>
    <i name="e_fr_energy">    -56.22359080 </i>
    <i name="e_wo_entrp">    -56.22359080 </i>
    <i name="e_0_energy">    -56.22359080 </i>
   </energy>
  </scstep>
  <scstep>
   <time name="dav">    0.55    0.55</time>
   <time name="total">    0.74    0.74</time>
   <energy>
    <i name="e_fr_energy">    -56.22343222 </i>
    <i name="e_wo_entrp">    -56.22343222 </i>
    <i name="e_0_energy">    -56.22343222 </i>
   </energy>
  </scstep>
  <scstep>
   <time name="dav">    0.43    0.43</time>
   <time name="total">    0.60    0.60</time>
   <energy>
    <i name="alphaZ">     61.07985968 </i>
    <i name="ewald">  -1543.31119906 </i>
    <i name="hartreedc">   -319.93365120 </i>
    <i name="XCdc">    -81.81719622 </i>
    <i name="pawpsdc">   2635.76391953 </i>
    <i name="pawaedc">  -2450.30219888 </i>
    <i name="eentropy">     -0.00000000 </i>
    <i name="bandstr">    -98.10090424 </i>
    <i name="atom">   1740.39794420 </i>
    <i name="e_fr_energy">    -56.22342619 </i>
    <i name="e_wo_entrp">    -56.22342619 </i>
    <i name="e_0_energy">    -56.22342619 </i>
   </energy>
  </scstep>
  <structure>
   <crystal>
    <varray name="basis" >
     <v>       6.32521814      -0.04013610      -3.60724392 </v>
     <v>      -2.02892985       5.98942348      -3.60573052 </v>
     <v>       0.12607731       0.17670678       7.59035317 </v>
    </varray>
    <i name="volume">    295.00357603 </i>
    <varray name="rec_basis" >
     <v>       0.15626589       0.05066275      -0.00377506 </v>
     <v>      -0.00112804       0.16428761      -0.00380595 </v>
     <v>       0.07372803       0.10212038       0.12814413 </v>
    </varray>
   </crystal>
   <varray name="positions" >
    <v>       0.96471140       0.49423152       0.27359505 </v>
    <v>       0.22069555       0.03477864       0.72657680 </v>
    <v>       0.00000000      -0.00000000      -0.00000000 </v>
    <v>       0.30878059       0.77889589       0.27325603 </v>
    <v>       0.50532130       0.69060652       0.72554820 </v>
    <v>       0.49467870       0.30939348       0.27445180 </v>
    <v>       0.69121941       0.22110411       0.72674397 </v>
    <v>       0.77930445       0.96522136       0.27342320 </v>
    <v>       0.03528860       0.50576848       0.72640495 </v>
    <v>       0.50000000       0.50000000      -0.00000000 </v>
    <v>       0.24888943       0.24909922       0.49708875 </v>
    <v>       0.15569824       0.33550541       0.00059171 </v>
    <v>       0.33554783       0.84479695       0.00058121 </v>
    <v>       0.75111057       0.75090078       0.50291125 </v>
    <v>       0.66445217       0.15520305      -0.00058121 </v>
    <v>       0.84430176       0.66449459      -0.00059171 </v>
   </varray>
  </structure>
  <varray name="forces" >
   <v>       0.20856732      -0.01877784      -0.12315514 </v>
   <v>       0.05080099      -0.18245815       0.14656181 </v>
   <v>       0.00000000       0.00000000       0.00000000 </v>
   <v>      -0.22063622       0.00891615       0.09771139 </v>
   <v>      -0.04645166       0.20797834      -0.10764854 </v>
   <v>       0.04645166      -0.20797834       0.10764854 </v>
   <v>       0.22063622      -0.00891615      -0.09771139 </v>
   <v>      -0.05080099       0.18245815      -0.14656181 </v>
   <v>      -0.20856732       0.01877784       0.12315514 </v>
   <v>       0.00000000       0.00000000       0.00000000 </v>
   <v>      -0.18060915      -0.23103098      -0.22486710 </v>
   <v>      -0.53993174      -0.00745883       0.29349982 </v>
   <v>      -0.17019489       0.53153952      -0.27747216 </v>
   <v>       0.18060915       0.23103098       0.22486710 </v>
   <v>       0.17019489      -0.53153952       0.27747216 </v>
   <v>       0.53993174       0.00745883      -0.29349982 </v>
  </varray>
  <varray name="stress" >
   <v>      41.97421347      -1.46642793      -2.60400047 </v>
   <v>      -1.46642500      40.69332902      -3.75050289 </v>
   <v>      -2.60400307      -3.75050110      36.94371942 </v>
  </varray>
  <energy>
   <i name="e_fr_energy">    -56.22342619 </i>
   <i name="e_wo_entrp">    -56.22342619 </i>
   <i name="e_0_energy">     -0.00000000 </i>
  </energy>
  <time name="totalsc">    5.75    5.76</time>
 </calculation>
 <calculation>
  <scstep>
   <time name="dav">    0.43    0.43</time>
   <time name="total">    0.62    0.62</time>
   <energy>
    <i name="alphaZ">     60.46866663 </i>
    <i name="ewald">  -1535.28440717 </i>
    <i name="hartreedc">   -321.61576319 </i>
    <i name="XCdc">    -81.97612798 </i>
    <i name="pawpsdc">   2631.94441419 </i>
    <i name="pawaedc">  -2446.48138598 </i>
    <i name="eentropy">     -0.00000000 </i>
    <i name="bandstr">   -103.70015028 </i>
    <i name="atom">   1740.39794420 </i>
    <i name="e_fr_energy">    -56.24680958 </i>
    <i name="e_wo_entrp">    -56.24680958 </i>
    <i name="e_0_energy">    -56.24680958 </i>
   </energy>
  </scstep>
  <scstep>
   <time name="dav">    0.47    0.47</time>
   <time name="total">    0.65    0.65</time>
   <energy>
    <i name="e_fr_energy">    -56.23994868 </i>
    <i name="e_wo_entrp">    -56.23994868 </i>
    <i name="e_0_energy">    -56.23994868 </i>
   </energy>
  </scstep>
  <scstep>
   <time name="dav">    0.45    0.45</time>
   <time name="total">    0.64    0.64</time>
   <energy>
    <i name="e_fr_energy">    -56.23667430 </i>
    <i name="e_wo_entrp">    -56.23667427 </i>
    <i name="e_0_energy">    -56.23667428 </i>
   </energy>
  </scstep>
  <scstep>
   <time name="dav">    0.60    0.60</time>
   <time name="total">    0.79    0.79</time>
   <energy>
    <i name="e_fr_energy">    -56.23639704 </i>
    <i name="e_wo_entrp">    -56.23639700 </i>
    <i name="e_0_energy">    -56.23639702 </i>
   </energy>
  </scstep>
  <scstep>
   <time name="dav">    0.48    0.48</time>
   <time name="total">    0.65    0.65</time>
   <energy>
    <i name="alphaZ">     60.46866663 </i>
    <i name="ewald">  -1535.28440717 </i>
    <i name="hartreedc">   -324.93280615 </i>
    <i name="XCdc">    -81.92569778 </i>
    <i name="pawpsdc">   2621.88459498 </i>
    <i name="pawaedc">  -2436.41341535 </i>
    <i name="eentropy">     -0.00000004 </i>
    <i name="bandstr">   -100.43123265 </i>
    <i name="atom">   1740.39794420 </i>
    <i name="e_fr_energy">    -56.23635333 </i>
    <i name="e_wo_entrp">    -56.23635328 </i>
    <i name="e_0_energy">    -56.23635330 </i>
   </energy>
  </scstep>
  <structure>
   <crystal>
    <varray name="basis" >
     <v>       6.34619541      -0.04004723      -3.61880199 </v>
     <v>      -2.03535514       6.00930643      -3.61712028 </v>
     <v>       0.12696108       0.17814399       7.61546980 </v>
    </varray>
    <i name="volume">    297.98535397 </i>
    <varray name="rec_basis" >
     <v>       0.15573940       0.05047547      -0.00377715 </v>
     <v>      -0.00113995       0.16372854      -0.00381100 </v>
     <v>       0.07346450       0.10175164       0.12770669 </v>
    </varray>
   </crystal>
   <varray name="positions" >
    <v>       0.96585420       0.49519495       0.27510260 </v>
    <v>       0.22014394       0.03363531       0.72506648 </v>
    <v>       0.00000000      -0.00000000      -0.00000000 </v>
    <v>       0.30914808       0.77944763       0.27475590 </v>
    <v>       0.50436177       0.69024393       0.72404672 </v>
    <v>       0.49563823       0.30975607       0.27595328 </v>
    <v>       0.69085192       0.22055237       0.72524410 </v>
    <v>       0.77985606       0.96636469       0.27493352 </v>
    <v>       0.03414580       0.50480505       0.72489740 </v>
    <v>       0.50000000       0.50000000      -0.00000000 </v>
    <v>       0.25087711       0.25107489       0.50104318 </v>
    <v>       0.15776694       0.33663883       0.00057682 </v>
    <v>       0.33671812       0.84269468       0.00054856 </v>
    <v>       0.74912289       0.74892511       0.49895682 </v>
    <v>       0.66328188       0.15730532      -0.00054856 </v>
    <v>       0.84223306       0.66336117      -0.00057682 </v>
   </varray>
  </structure>
  <varray name="forces" >
   <v>       0.17219396      -0.05785143      -0.14137499 </v>
   <v>       0.05316509      -0.13543490       0.17648875 </v>
   <v>       0.00000000       0.00000000       0.00000000 </v>
   <v>      -0.22396367      -0.00835909       0.04427558 </v>
   <v>      -0.00765350       0.21564827      -0.07003729 </v>
   <v>       0.00765350      -0.21564827       0.07003729 </v>
   <v>       0.22396367       0.00835909      -0.04427558 </v>
   <v>      -0.05316509       0.13543490      -0.17648875 </v>
   <v>      -0.17219396       0.05785143       0.14137499 </v>
   <v>       0.00000000       0.00000000       0.00000000 </v>
   <v>      -0.23285988      -0.29048837      -0.34053256 </v>
   <v>      -0.57221577      -0.05217944       0.33691437 </v>
   <v>      -0.23989036       0.60250848      -0.29170487 </v>
   <v>       0.23285988       0.29048837       0.34053256 </v>
   <v>       0.23989036      -0.60250848       0.29170487 </v>
   <v>       0.57221577       0.05217944      -0.33691437 </v>
  </varray>
  <varray name="stress" >
   <v>      38.51250300      -1.80524830      -2.46717572 </v>
   <v>      -1.80524586      36.91472196      -3.41898783 </v>
   <v>      -2.46717721      -3.41898628      33.89624195 </v>
  </varray>
  <energy>
   <i name="e_fr_energy">    -56.23635333 </i>
   <i name="e_wo_entrp">    -56.23635330 </i>
   <i name="e_0_energy">     -0.00000004 </i>
  </energy>
  <time name="totalsc">    4.32    4.32</time>
 </calculation>
 <calculation>
  <scstep>
   <time name="dav">    0.44    0.44</time>
   <time name="total">    0.63    0.63</time>
   <energy>
    <i name="alphaZ">     57.18581245 </i>
    <i name="ewald">  -1512.33505792 </i>
    <i name="hartreedc">   -314.59466900 </i>
    <i name="XCdc">    -83.23352718 </i>
    <i name="pawpsdc">   2624.63148957 </i>
    <i name="pawaedc">  -2439.15702392 </i>
    <i name="eentropy">     -0.00000000 </i>
    <i name="bandstr">   -129.95677951 </i>
    <i name="atom">   1740.39794420 </i>
    <i name="e_fr_energy">    -57.06181131 </i>
    <i name="e_wo_entrp">    -57.06181131 </i>
    <i name="e_0_energy">    -57.06181131 </i>
   </energy>
  </scstep>
  <scstep>
   <time name="dav">    0.50    0.50</time>
   <time name="total">    0.68    0.69</time>
   <energy>
    <i name="e_fr_energy">    -56.61180223 </i>
    <i name="e_wo_entrp">    -56.61180223 </i>
    <i name="e_0_energy">    -56.61180223 </i>
   </energy>
  </scstep>
  <scstep>
   <time name="dav">    0.47    0.47</time>
   <time name="total">    0.66    0.66</time>
   <energy>
    <i name="e_fr_energy">    -56.53932493 </i>
    <i name="e_wo_entrp">    -56.53932493 </i>
    <i name="e_0_energy">    -56.53932493 </i>
   </energy>
  </scstep>
  <scstep>
   <time name="dav">    0.55    0.55</time>
   <time name="total">    0.74    0.74</time>
   <energy>
    <i name="e_fr_energy">    -56.53669710 </i>
    <i name="e_wo_entrp">    -56.53669710 </i>
    <i name="e_0_energy">    -56.53669710 </i>
   </energy>
  </scstep>
  <scstep>
   <time name="dav">    0.53    0.53</time>
   <time name="total">    0.72    0.72</time>
   <energy>
    <i name="e_fr_energy">    -56.53561697 </i>
    <i name="e_wo_entrp">    -56.53561697 </i>
    <i name="e_0_energy">    -56.53561697 </i>
   </energy>
  </scstep>
  <scstep>
   <time name="dav">    0.47    0.47</time>
   <time name="total">    0.64    0.64</time>
   <energy>
    <i name="alphaZ">     57.18581245 </i>
    <i name="ewald">  -1512.33505792 </i>
    <i name="hartreedc">   -331.24065809 </i>
    <i name="XCdc">    -82.93567937 </i>
    <i name="pawpsdc">   2491.19352712 </i>
    <i name="pawaedc">  -2305.56686562 </i>
    <i name="eentropy">     -0.00000000 </i>
    <i name="bandstr">   -113.23461214 </i>
    <i name="atom">   1740.39794420 </i>
    <i name="e_fr_energy">    -56.53558937 </i>
    <i name="e_wo_entrp">    -56.53558937 </i>
    <i name="e_0_energy">    -56.53558937 </i>
   </energy>
  </scstep>
  <structure>
   <crystal>
    <varray name="basis" >
     <v>       6.47660390      -0.04032520      -3.68992627 </v>
     <v>      -2.07666559       6.13173735      -3.68820303 </v>
     <v>       0.11982705       0.16828460       7.74818179 </v>
    </varray>
    <i name="volume">    315.09173795 </i>
    <varray name="rec_basis" >
     <v>       0.15275070       0.04966311      -0.00344096 </v>
     <v>      -0.00097911       0.16066450      -0.00347437 </v>
     <v>       0.07227859       0.10012885       0.12577001 </v>
    </varray>
   </crystal>
   <varray name="positions" >
    <v>       0.96702730       0.49488702       0.27475142 </v>
    <v>       0.22012611       0.03252863       0.72547730 </v>
    <v>       0.00000000      -0.00000000       0.00000000 </v>
    <v>       0.30763508       0.77944344       0.27438836 </v>
    <v>       0.50470619       0.69176238       0.72444843 </v>
    <v>       0.49529381       0.30823762       0.27555157 </v>
    <v>       0.69236492       0.22055656       0.72561164 </v>
    <v>       0.77987389       0.96747137       0.27452270 </v>
    <v>       0.03297270       0.50511298       0.72524858 </v>
    <v>       0.50000000       0.50000000       0.00000000 </v>
    <v>       0.24889777       0.24925339       0.49748092 </v>
    <v>       0.15390260       0.33634489       0.00038690 </v>
    <v>       0.33657286       0.84686170       0.00082605 </v>
    <v>       0.75110223       0.75074661       0.50251908 </v>
    <v>       0.66342714       0.15313830      -0.00082605 </v>
    <v>       0.84609740       0.66365511      -0.00038690 </v>
   </varray>
  </structure>
  <varray name="forces" >
   <v>       0.03205101      -0.16617382      -0.14930054 </v>
   <v>       0.03814128       0.02144453       0.22433132 </v>
   <v>       0.00000000       0.00000000       0.00000000 </v>
   <v>      -0.18570052      -0.04632970      -0.11352977 </v>
   <v>       0.11019018       0.18894323       0.05149646 </v>
   <v>      -0.11019018      -0.18894323      -0.05149646 </v>
   <v>       0.18570052       0.04632970       0.11352977 </v>
   <v>      -0.03814128      -0.02144453      -0.22433132 </v>
   <v>      -0.03205101       0.16617382       0.14930054 </v>
   <v>       0.00000000       0.00000000       0.00000000 </v>
   <v>      -0.06195229      -0.04193489      -0.06106480 </v>
   <v>      -0.15770413      -0.00480484       0.06749999 </v>
   <v>      -0.03049033       0.13197414      -0.07931269 </v>
   <v>       0.06195229       0.04193489       0.06106480 </v>
   <v>       0.03049033      -0.13197414       0.07931269 </v>
   <v>       0.15770413       0.00480484      -0.06749999 </v>
  </varray>
  <varray name="stress" >
   <v>       6.81500885       0.20744758      -1.09212907 </v>
   <v>       0.20744937       6.87840251      -1.42723164 </v>
   <v>      -1.09213023      -1.42723035       6.01553792 </v>
  </varray>
  <energy>
   <i name="e_fr_energy">    -56.53558937 </i>
   <i name="e_wo_entrp">    -56.53558937 </i>
   <i name="e_0_energy">     -0.00000000 </i>
  </energy>
  <time name="totalsc">    5.02    5.03</time>
 </calculation>
 <calculation>
  <scstep>
   <time name="dav">    0.54    0.54</time>
   <time name="total">    0.73    0.73</time>
   <energy>
    <i name="alphaZ">     56.18480507 </i>
    <i name="ewald">  -1505.00266619 </i>
    <i name="hartreedc">   -328.01982010 </i>
    <i name="XCdc">    -83.34848628 </i>
    <i name="pawpsdc">   2497.57640546 </i>
    <i name="pawaedc">  -2311.94379803 </i>
    <i name="eentropy">     -0.00000000 </i>
    <i name="bandstr">   -122.45055881 </i>
    <i name="atom">   1740.39794420 </i>
    <i name="e_fr_energy">    -56.60617467 </i>
    <i name="e_wo_entrp">    -56.60617467 </i>
    <i name="e_0_energy">    -56.60617467 </i>
   </energy>
  </scstep>
  <scstep>
   <time name="dav">    0.58    0.58</time>
   <time name="total">    0.77    0.77</time>
   <energy>
    <i name="e_fr_energy">    -56.55957533 </i>
    <i name="e_wo_entrp">    -56.55957533 </i>
    <i name="e_0_energy">    -56.55957533 </i>
   </energy>
  </scstep>
  <scstep>
   <time name="dav">    0.39    0.39</time>
   <time name="total">    0.58    0.58</time>
   <energy>
    <i name="e_fr_energy">    -56.55243925 </i>
    <i name="e_wo_entrp">    -56.55243925 </i>
    <i name="e_0_energy">    -56.55243925 </i>
   </energy>
  </scstep>
  <scstep>
   <time name="dav">    0.56    0.56</time>
   <time name="total">    0.75    0.75</time>
   <energy>
    <i name="e_fr_energy">    -56.55214902 </i>
    <i name="e_wo_entrp">    -56.55214902 </i>
    <i name="e_0_energy">    -56.55214902 </i>
   </energy>
  </scstep>
  <scstep>
   <time name="dav">    0.59    0.59</time>
   <time name="total">    0.78    0.78</time>
   <energy>
    <i name="e_fr_energy">    -56.55201989 </i>
    <i name="e_wo_entrp">    -56.55201989 </i>
    <i name="e_0_energy">    -56.55201989 </i>
   </energy>
  </scstep>
  <scstep>
   <time name="dav">    0.33    0.33</time>
   <time name="total">    0.50    0.50</time>
   <energy>
    <i name="alphaZ">     56.18480507 </i>
    <i name="ewald">  -1505.00266619 </i>
    <i name="hartreedc">   -333.39976153 </i>
    <i name="XCdc">    -83.24896527 </i>
    <i name="pawpsdc">   2459.54951071 </i>
    <i name="pawaedc">  -2273.87501565 </i>
    <i name="eentropy">     -0.00000000 </i>
    <i name="bandstr">   -117.15786692 </i>
    <i name="atom">   1740.39794420 </i>
    <i name="e_fr_energy">    -56.55201559 </i>
    <i name="e_wo_entrp">    -56.55201559 </i>
    <i name="e_0_energy">    -56.55201559 </i>
   </energy>
  </scstep>
  <structure>
   <crystal>
    <varray name="basis" >
     <v>       6.51837511      -0.04041423      -3.71270813 </v>
     <v>      -2.08989777       6.17095326      -3.71097159 </v>
     <v>       0.11754195       0.16512654       7.79069085 </v>
    </varray>
    <i name="volume">    320.70551828 </i>
    <varray name="rec_basis" >
     <v>       0.15181768       0.04940842      -0.00333778 </v>
     <v>      -0.00092986       0.15970740      -0.00337103 </v>
     <v>       0.07190685       0.09962000       0.12516195 </v>
    </varray>
   </crystal>
   <varray name="positions" >
    <v>       0.96739525       0.49479009       0.27464050 </v>
    <v>       0.22012079       0.03218149       0.72560701 </v>
    <v>       0.00000000      -0.00000000       0.00000000 </v>
    <v>       0.30715998       0.77944192       0.27427263 </v>
    <v>       0.50481454       0.69223930       0.72457494 </v>
    <v>       0.49518546       0.30776070       0.27542506 </v>
    <v>       0.69284002       0.22055808       0.72572737 </v>
    <v>       0.77987921       0.96781851       0.27439299 </v>
    <v>       0.03260475       0.50520991       0.72535950 </v>
    <v>       0.50000000       0.50000000       0.00000000 </v>
    <v>       0.24827422       0.24867931       0.49635771 </v>
    <v>       0.15268963       0.33625258       0.00032758 </v>
    <v>       0.33652743       0.84816999       0.00091316 </v>
    <v>       0.75172578       0.75132069       0.50364229 </v>
    <v>       0.66347257       0.15183001      -0.00091316 </v>
    <v>       0.84731037       0.66374742      -0.00032758 </v>
   </varray>
  </structure>
  <varray name="forces" >
   <v>      -0.00496317      -0.19656617      -0.15549830 </v>
   <v>       0.03441142       0.06420933       0.23883789 </v>
   <v>      -0.00000000      -0.00000000       0.00000000 </v>
   <v>      -0.17826444      -0.05732358      -0.15755291 </v>
   <v>       0.14207537       0.18293312       0.08358241 </v>
   <v>      -0.14207537      -0.18293312      -0.08358241 </v>
   <v>       0.17826444       0.05732358       0.15755291 </v>
   <v>      -0.03441142      -0.06420933      -0.23883789 </v>
   <v>       0.00496317       0.19656617       0.15549830 </v>
   <v>      -0.00000000      -0.00000000       0.00000000 </v>
   <v>       0.00712811       0.03450299       0.01706023 </v>
   <v>      -0.03803143       0.02041487      -0.00263254 </v>
   <v>       0.02732241       0.01735545      -0.02164594 </v>
   <v>      -0.00712811      -0.03450299      -0.01706023 </v>
   <v>      -0.02732241      -0.01735545       0.02164594 </v>
   <v>       0.03803143      -0.02041487       0.00263254 </v>
  </varray>
  <varray name="stress" >
   <v>      -1.93105539      -0.00096488      -0.78815468 </v>
   <v>      -0.00096360      -1.80143402      -1.09847459 </v>
   <v>      -0.78815626      -1.09847357      -1.76811079 </v>
  </varray>
  <energy>
   <i name="e_fr_energy">    -56.55201559 </i>
   <i name="e_wo_entrp">    -56.55201559 </i>
   <i name="e_0_energy">     -0.00000000 </i>
  </energy>
  <time name="totalsc">    5.06    5.07</time>
 </calculation>
 <calculation>
  <scstep>
   <time name="dav">    0.49    0.49</time>
   <time name="total">    0.68    0.68</time>
   <energy>
    <i name="alphaZ">     56.25296132 </i>
[...]
        <r>  0.0018  0.0214  0.0003 </r>
       </set>
       <set comment="band 17">
        <r>  0.0034  0.0066  0.0000 </r>
        <r>  0.0009  0.0051  0.0000 </r>
        <r>  0.0001  0.0002  0.0000 </r>
        <r>  0.0005  0.0041  0.0000 </r>
        <r>  0.0004  0.0088  0.0000 </r>
        <r>  0.0004  0.0088  0.0000 </r>
        <r>  0.0005  0.0041  0.0000 </r>
        <r>  0.0009  0.0051  0.0000 </r>
        <r>  0.0034  0.0066  0.0000 </r>
        <r>  0.0019  0.0026  0.0015 </r>
        <r>  0.0002  0.0872  0.0003 </r>
        <r>  0.0006  0.0772  0.0004 </r>
        <r>  0.0002  0.0467  0.0002 </r>
        <r>  0.0002  0.0872  0.0003 </r>
        <r>  0.0002  0.0467  0.0002 </r>
        <r>  0.0006  0.0772  0.0004 </r>
       </set>
       <set comment="band 18">
        <r>  0.0011  0.0059  0.0000 </r>
        <r>  0.0017  0.0042  0.0000 </r>
        <r>  0.0006  0.0049  0.0000 </r>
        <r>  0.0006  0.0042  0.0000 </r>
        <r>  0.0008  0.0036  0.0000 </r>
        <r>  0.0008  0.0036  0.0000 </r>
        <r>  0.0006  0.0042  0.0000 </r>
        <r>  0.0017  0.0042  0.0000 </r>
        <r>  0.0011  0.0059  0.0000 </r>
        <r>  0.0000  0.0022  0.0052 </r>
        <r>  0.0001  0.0512  0.0003 </r>
        <r>  0.0003  0.1012  0.0003 </r>
        <r>  0.0001  0.0685  0.0003 </r>
        <r>  0.0001  0.0512  0.0003 </r>
        <r>  0.0001  0.0685  0.0003 </r>
        <r>  0.0003  0.1012  0.0003 </r>
       </set>
       <set comment="band 19">
        <r>  0.0018  0.0062  0.0000 </r>
        <r>  0.0003  0.0020  0.0000 </r>
        <r>  0.0013  0.0018  0.0000 </r>
        <r>  0.0040  0.0017  0.0000 </r>
        <r>  0.0015  0.0068  0.0000 </r>
        <r>  0.0015  0.0068  0.0000 </r>
        <r>  0.0040  0.0017  0.0000 </r>
        <r>  0.0003  0.0020  0.0000 </r>
        <r>  0.0018  0.0062  0.0000 </r>
        <r>  0.0001  0.0087  0.0026 </r>
        <r>  0.0001  0.0749  0.0001 </r>
        <r>  0.0016  0.0399  0.0003 </r>
        <r>  0.0013  0.1113  0.0003 </r>
        <r>  0.0001  0.0749  0.0001 </r>
        <r>  0.0013  0.1113  0.0003 </r>
        <r>  0.0016  0.0399  0.0003 </r>
       </set>
       <set comment="band 20">
        <r>  0.0003  0.0059  0.0000 </r>
        <r>  0.0003  0.0024  0.0000 </r>
        <r>  0.0000  0.0012  0.0000 </r>
        <r>  0.0001  0.0056  0.0000 </r>
        <r>  0.0044  0.0065  0.0000 </r>
        <r>  0.0044  0.0065  0.0000 </r>
        <r>  0.0001  0.0056  0.0000 </r>
        <r>  0.0003  0.0024  0.0000 </r>
        <r>  0.0003  0.0059  0.0000 </r>
        <r>  0.0046  0.0020  0.0028 </r>
        <r>  0.0001  0.0581  0.0004 </r>
        <r>  0.0001  0.0797  0.0004 </r>
        <r>  0.0001  0.0885  0.0003 </r>
        <r>  0.0001  0.0581  0.0004 </r>
        <r>  0.0001  0.0885  0.0003 </r>
        <r>  0.0001  0.0797  0.0004 </r>
       </set>
       <set comment="band 21">
        <r>  0.0010  0.0042  0.0000 </r>
        <r>  0.0010  0.0013  0.0000 </r>
        <r>  0.0005  0.0009  0.0000 </r>
        <r>  0.0029  0.0075  0.0000 </r>
        <r>  0.0039  0.0008  0.0000 </r>
        <r>  0.0039  0.0008  0.0000 </r>
        <r>  0.0029  0.0075  0.0000 </r>
        <r>  0.0010  0.0013  0.0000 </r>
        <r>  0.0010  0.0042  0.0000 </r>
        <r>  0.0012  0.0030  0.0014 </r>
        <r>  0.0015  0.0915  0.0002 </r>
        <r>  0.0003  0.0713  0.0002 </r>
        <r>  0.0014  0.0711  0.0003 </r>
        <r>  0.0015  0.0915  0.0002 </r>
        <r>  0.0014  0.0711  0.0003 </r>
        <r>  0.0003  0.0713  0.0002 </r>
       </set>
       <set comment="band 22">
        <r>  0.0000  0.0017  0.0000 </r>
        <r>  0.0002  0.0011  0.0000 </r>
        <r>  0.0000  0.0017  0.0000 </r>
        <r>  0.0007  0.0086  0.0000 </r>
        <r>  0.0014  0.0054  0.0000 </r>
        <r>  0.0014  0.0054  0.0000 </r>
        <r>  0.0007  0.0086  0.0000 </r>
        <r>  0.0002  0.0011  0.0000 </r>
        <r>  0.0000  0.0017  0.0000 </r>
        <r>  0.0066  0.0056  0.0028 </r>
        <r>  0.0017  0.1025  0.0002 </r>
        <r>  0.0001  0.0680  0.0002 </r>
        <r>  0.0004  0.0679  0.0002 </r>
        <r>  0.0017  0.1025  0.0002 </r>
        <r>  0.0004  0.0679  0.0002 </r>
        <r>  0.0001  0.0680  0.0002 </r>
       </set>
       <set comment="band 23">
        <r>  0.0013  0.0016  0.0000 </r>
        <r>  0.0006  0.0037  0.0000 </r>
        <r>  0.0000  0.0020  0.0000 </r>
        <r>  0.0005  0.0055  0.0000 </r>
        <r>  0.0009  0.0033  0.0000 </r>
        <r>  0.0009  0.0033  0.0000 </r>
        <r>  0.0005  0.0055  0.0000 </r>
        <r>  0.0006  0.0037  0.0000 </r>
        <r>  0.0013  0.0016  0.0000 </r>
        <r>  0.0001  0.0092  0.0010 </r>
        <r>  0.0010  0.0503  0.0002 </r>
        <r>  0.0001  0.0551  0.0001 </r>
        <r>  0.0001  0.1439  0.0001 </r>
        <r>  0.0010  0.0503  0.0002 </r>
        <r>  0.0001  0.1439  0.0001 </r>
        <r>  0.0001  0.0551  0.0001 </r>
       </set>
       <set comment="band 24">
        <r>  0.0001  0.0038  0.0000 </r>
        <r>  0.0003  0.0016  0.0000 </r>
        <r>  0.0001  0.0019  0.0000 </r>
        <r>  0.0002  0.0047  0.0000 </r>
        <r>  0.0000  0.0027  0.0000 </r>
        <r>  0.0000  0.0027  0.0000 </r>
        <r>  0.0002  0.0047  0.0000 </r>
        <r>  0.0003  0.0016  0.0000 </r>
        <r>  0.0001  0.0038  0.0000 </r>
        <r>  0.0033  0.0077  0.0020 </r>
        <r>  0.0001  0.1129  0.0002 </r>
        <r>  0.0003  0.0744  0.0001 </r>
        <r>  0.0001  0.0684  0.0002 </r>
        <r>  0.0001  0.1129  0.0002 </r>
        <r>  0.0001  0.0684  0.0002 </r>
        <r>  0.0003  0.0744  0.0001 </r>
       </set>
       <set comment="band 25">
        <r>  0.0002  0.0055  0.0000 </r>
        <r>  0.0000  0.0006  0.0000 </r>
        <r>  0.0003  0.0022  0.0000 </r>
        <r>  0.0003  0.0029  0.0000 </r>
        <r>  0.0012  0.0033  0.0000 </r>
        <r>  0.0012  0.0033  0.0000 </r>
        <r>  0.0003  0.0029  0.0000 </r>
        <r>  0.0000  0.0006  0.0000 </r>
        <r>  0.0002  0.0055  0.0000 </r>
        <r>  0.0875  0.0007  0.0004 </r>
        <r>  0.0002  0.0895  0.0004 </r>
        <r>  0.0004  0.1014  0.0005 </r>
        <r>  0.0006  0.0442  0.0004 </r>
        <r>  0.0002  0.0895  0.0004 </r>
        <r>  0.0006  0.0442  0.0004 </r>
        <r>  0.0004  0.1014  0.0005 </r>
       </set>
       <set comment="band 26">
        <r>  0.0011  0.0009  0.0000 </r>
        <r>  0.0002  0.0007  0.0000 </r>
        <r>  0.0004  0.0213  0.0000 </r>
        <r>  0.0013  0.0041  0.0000 </r>
        <r>  0.0058  0.0102  0.0000 </r>
        <r>  0.0058  0.0102  0.0000 </r>
        <r>  0.0013  0.0041  0.0000 </r>
        <r>  0.0002  0.0007  0.0000 </r>
        <r>  0.0011  0.0009  0.0000 </r>
        <r>  0.0001  0.2222  0.0001 </r>
        <r>  0.0046  0.0063  0.0023 </r>
        <r>  0.0005  0.0085  0.0020 </r>
        <r>  0.0194  0.0512  0.0063 </r>
        <r>  0.0046  0.0063  0.0023 </r>
        <r>  0.0194  0.0512  0.0063 </r>
        <r>  0.0005  0.0085  0.0020 </r>
       </set>
       <set comment="band 27">
        <r>  0.0036  0.0126  0.0000 </r>
        <r>  0.0000  0.0033  0.0000 </r>
        <r>  0.0000  0.0151  0.0000 </r>
        <r>  0.0001  0.0014  0.0000 </r>
        <r>  0.0000  0.0022  0.0000 </r>
        <r>  0.0000  0.0022  0.0000 </r>
        <r>  0.0001  0.0014  0.0000 </r>
        <r>  0.0000  0.0033  0.0000 </r>
        <r>  0.0036  0.0126  0.0000 </r>
        <r>  0.0000  0.2427  0.0001 </r>
        <r>  0.0159  0.0562  0.0071 </r>
        <r>  0.0011  0.0080  0.0017 </r>
        <r>  0.0035  0.0078  0.0016 </r>
        <r>  0.0159  0.0562  0.0071 </r>
        <r>  0.0035  0.0078  0.0016 </r>
        <r>  0.0011  0.0080  0.0017 </r>
       </set>
       <set comment="band 28">
        <r>  0.0006  0.0027  0.0000 </r>
        <r>  0.0010  0.0007  0.0000 </r>
        <r>  0.0099  0.0032  0.0000 </r>
        <r>  0.0034  0.0102  0.0000 </r>
        <r>  0.0011  0.0011  0.0000 </r>
        <r>  0.0011  0.0011  0.0000 </r>
        <r>  0.0034  0.0102  0.0000 </r>
        <r>  0.0010  0.0007  0.0000 </r>
        <r>  0.0006  0.0027  0.0000 </r>
        <r>  0.0001  0.2394  0.0006 </r>
        <r>  0.0008  0.0118  0.0016 </r>
        <r>  0.0162  0.0633  0.0077 </r>
        <r>  0.0002  0.0168  0.0022 </r>
        <r>  0.0008  0.0118  0.0016 </r>
        <r>  0.0002  0.0168  0.0022 </r>
        <r>  0.0162  0.0633  0.0077 </r>
       </set>
       <set comment="band 29">
        <r>  0.0019  0.0145  0.0000 </r>
        <r>  0.0054  0.0082  0.0000 </r>
        <r>  0.0002  0.0021  0.0000 </r>
        <r>  0.0011  0.0122  0.0000 </r>
        <r>  0.0053  0.0069  0.0000 </r>
        <r>  0.0053  0.0069  0.0000 </r>
        <r>  0.0011  0.0122  0.0000 </r>
        <r>  0.0054  0.0082  0.0000 </r>
        <r>  0.0019  0.0145  0.0000 </r>
        <r>  0.0001  0.0040  0.0069 </r>
        <r>  0.0001  0.0118  0.0062 </r>
        <r>  0.0012  0.0183  0.0064 </r>
        <r>  0.0173  0.0127  0.0052 </r>
        <r>  0.0001  0.0118  0.0062 </r>
        <r>  0.0173  0.0127  0.0052 </r>
        <r>  0.0012  0.0183  0.0064 </r>
       </set>
       <set comment="band 30">
        <r>  0.0003  0.0126  0.0000 </r>
        <r>  0.0254  0.0061  0.0000 </r>
        <r>  0.0082  0.0038  0.0000 </r>
        <r>  0.0089  0.0072  0.0000 </r>
        <r>  0.0042  0.0119  0.0000 </r>
        <r>  0.0042  0.0119  0.0000 </r>
        <r>  0.0089  0.0072  0.0000 </r>
        <r>  0.0254  0.0061  0.0000 </r>
        <r>  0.0003  0.0126  0.0000 </r>
        <r>  0.0011  0.0039  0.0054 </r>
        <r>  0.0206  0.0094  0.0029 </r>
        <r>  0.0071  0.0084  0.0053 </r>
        <r>  0.0059  0.0169  0.0065 </r>
        <r>  0.0206  0.0094  0.0029 </r>
        <r>  0.0059  0.0169  0.0065 </r>
        <r>  0.0071  0.0084  0.0053 </r>
       </set>
       <set comment="band 31">
        <r>  0.0039  0.0134  0.0000 </r>
        <r>  0.0151  0.0151  0.0000 </r>
        <r>  0.0000  0.0075  0.0000 </r>
        <r>  0.0019  0.0167  0.0000 </r>
        <r>  0.0011  0.0097  0.0000 </r>
        <r>  0.0011  0.0097  0.0000 </r>
        <r>  0.0019  0.0167  0.0000 </r>
        <r>  0.0151  0.0151  0.0000 </r>
        <r>  0.0039  0.0134  0.0000 </r>
        <r>  0.0000  0.0153  0.0046 </r>
        <r>  0.0028  0.0116  0.0074 </r>
        <r>  0.0104  0.0123  0.0061 </r>
        <r>  0.0012  0.0130  0.0094 </r>
        <r>  0.0028  0.0116  0.0074 </r>
        <r>  0.0012  0.0130  0.0094 </r>
        <r>  0.0104  0.0123  0.0061 </r>
       </set>
       <set comment="band 32">
        <r>  0.0032  0.0075  0.0000 </r>
        <r>  0.0026  0.0131  0.0000 </r>
        <r>  0.0421  0.0145  0.0000 </r>
        <r>  0.0052  0.0016  0.0000 </r>
        <r>  0.0006  0.0165  0.0000 </r>
        <r>  0.0006  0.0165  0.0000 </r>
        <r>  0.0052  0.0016  0.0000 </r>
        <r>  0.0026  0.0131  0.0000 </r>
        <r>  0.0032  0.0075  0.0000 </r>
        <r>  0.0000  0.0070  0.0119 </r>
        <r>  0.0002  0.0139  0.0114 </r>
        <r>  0.0081  0.0136  0.0080 </r>
        <r>  0.0019  0.0103  0.0067 </r>
        <r>  0.0002  0.0139  0.0114 </r>
        <r>  0.0019  0.0103  0.0067 </r>
        <r>  0.0081  0.0136  0.0080 </r>
       </set>
       <set comment="band 33">
        <r>  0.0015  0.0044  0.0000 </r>
        <r>  0.0070  0.0198  0.0000 </r>
        <r>  0.0001  0.0260  0.0000 </r>
        <r>  0.0027  0.0158  0.0000 </r>
        <r>  0.0065  0.0255  0.0000 </r>
        <r>  0.0065  0.0255  0.0000 </r>
        <r>  0.0027  0.0158  0.0000 </r>
        <r>  0.0070  0.0198  0.0000 </r>
        <r>  0.0015  0.0044  0.0000 </r>
        <r>  0.0000  0.0226  0.0019 </r>
        <r>  0.0060  0.0059  0.0103 </r>
        <r>  0.0037  0.0111  0.0061 </r>
        <r>  0.0045  0.0100  0.0076 </r>
        <r>  0.0060  0.0059  0.0103 </r>
        <r>  0.0045  0.0100  0.0076 </r>
        <r>  0.0037  0.0111  0.0061 </r>
       </set>
       <set comment="band 34">
        <r>  0.0101  0.0104  0.0000 </r>
        <r>  0.0070  0.0152  0.0000 </r>
        <r>  0.0048  0.0288  0.0000 </r>
        <r>  0.0033  0.0129  0.0000 </r>
        <r>  0.0028  0.0117  0.0000 </r>
        <r>  0.0028  0.0117  0.0000 </r>
        <r>  0.0033  0.0129  0.0000 </r>
        <r>  0.0070  0.0152  0.0000 </r>
        <r>  0.0101  0.0104  0.0000 </r>
        <r>  0.0056  0.0081  0.0098 </r>
        <r>  0.0069  0.0264  0.0043 </r>
        <r>  0.0044  0.0091  0.0134 </r>
        <r>  0.0049  0.0012  0.0070 </r>
        <r>  0.0069  0.0264  0.0043 </r>
        <r>  0.0049  0.0012  0.0070 </r>
        <r>  0.0044  0.0091  0.0134 </r>
       </set>
       <set comment="band 35">
        <r>  0.0074  0.0079  0.0000 </r>
        <r>  0.0031  0.0375  0.0000 </r>
        <r>  0.0081  0.0110  0.0000 </r>
        <r>  0.0020  0.0134  0.0000 </r>
        <r>  0.0028  0.0043  0.0000 </r>
        <r>  0.0028  0.0043  0.0000 </r>
        <r>  0.0020  0.0134  0.0000 </r>
        <r>  0.0031  0.0375  0.0000 </r>
        <r>  0.0074  0.0079  0.0000 </r>
        <r>  0.0003  0.0270  0.0051 </r>
        <r>  0.0038  0.0082  0.0103 </r>
        <r>  0.0021  0.0126  0.0094 </r>
        <r>  0.0036  0.0138  0.0063 </r>
        <r>  0.0038  0.0082  0.0103 </r>
        <r>  0.0036  0.0138  0.0063 </r>
        <r>  0.0021  0.0126  0.0094 </r>
       </set>
       <set comment="band 36">
        <r>  0.0004  0.0033  0.0000 </r>
        <r>  0.0201  0.0085  0.0000 </r>
        <r>  0.0069  0.0036  0.0000 </r>
        <r>  0.0114  0.0218  0.0000 </r>
        <r>  0.0008  0.0108  0.0000 </r>
        <r>  0.0008  0.0108  0.0000 </r>
        <r>  0.0114  0.0218  0.0000 </r>
        <r>  0.0201  0.0085  0.0000 </r>
        <r>  0.0004  0.0033  0.0000 </r>
        <r>  0.0014  0.0016  0.0162 </r>
        <r>  0.0007  0.0080  0.0097 </r>
        <r>  0.0017  0.0163  0.0052 </r>
        <r>  0.0018  0.0061  0.0188 </r>
        <r>  0.0007  0.0080  0.0097 </r>
        <r>  0.0018  0.0061  0.0188 </r>
        <r>  0.0017  0.0163  0.0052 </r>
       </set>
       <set comment="band 37">
        <r>  0.0054  0.0242  0.0000 </r>
        <r>  0.0060  0.0226  0.0000 </r>
        <r>  0.0021  0.0191  0.0000 </r>
        <r>  0.0010  0.0166  0.0000 </r>
        <r>  0.0032  0.0060  0.0000 </r>
        <r>  0.0032  0.0060  0.0000 </r>
        <r>  0.0010  0.0166  0.0000 </r>
        <r>  0.0060  0.0226  0.0000 </r>
        <r>  0.0054  0.0242  0.0000 </r>
        <r>  0.0002  0.0132  0.0051 </r>
        <r>  0.0005  0.0027  0.0102 </r>
        <r>  0.0011  0.0190  0.0109 </r>
        <r>  0.0010  0.0053  0.0135 </r>
        <r>  0.0005  0.0027  0.0102 </r>
        <r>  0.0010  0.0053  0.0135 </r>
        <r>  0.0011  0.0190  0.0109 </r>
       </set>
       <set comment="band 38">
        <r>  0.0019  0.0198  0.0000 </r>
        <r>  0.0016  0.0192  0.0000 </r>
        <r>  0.0066  0.0244  0.0000 </r>
        <r>  0.0017  0.0116  0.0000 </r>
        <r>  0.0035  0.0139  0.0000 </r>
        <r>  0.0035  0.0139  0.0000 </r>
        <r>  0.0017  0.0116  0.0000 </r>
        <r>  0.0016  0.0192  0.0000 </r>
        <r>  0.0019  0.0198  0.0000 </r>
        <r>  0.0014  0.0037  0.0125 </r>
        <r>  0.0021  0.0125  0.0147 </r>
        <r>  0.0012  0.0080  0.0120 </r>
        <r>  0.0003  0.0056  0.0091 </r>
        <r>  0.0021  0.0125  0.0147 </r>
        <r>  0.0003  0.0056  0.0091 </r>
        <r>  0.0012  0.0080  0.0120 </r>
       </set>
       <set comment="band 39">
        <r>  0.0019  0.0247  0.0000 </r>
        <r>  0.0023  0.0224  0.0000 </r>
        <r>  0.0084  0.0140  0.0000 </r>
        <r>  0.0108  0.0144  0.0000 </r>
        <r>  0.0075  0.0093  0.0000 </r>
        <r>  0.0075  0.0093  0.0000 </r>
        <r>  0.0108  0.0144  0.0000 </r>
        <r>  0.0023  0.0224  0.0000 </r>
        <r>  0.0019  0.0247  0.0000 </r>
        <r>  0.0000  0.0131  0.0087 </r>
        <r>  0.0027  0.0042  0.0098 </r>
        <r>  0.0000  0.0076  0.0083 </r>
        <r>  0.0016  0.0096  0.0166 </r>
        <r>  0.0027  0.0042  0.0098 </r>
        <r>  0.0016  0.0096  0.0166 </r>
        <r>  0.0000  0.0076  0.0083 </r>
       </set>
       <set comment="band 40">
        <r>  0.0078  0.0162  0.0000 </r>
        <r>  0.0008  0.0195  0.0000 </r>
        <r>  0.0028  0.0259  0.0000 </r>
        <r>  0.0016  0.0138  0.0000 </r>
        <r>  0.0002  0.0100  0.0000 </r>
        <r>  0.0002  0.0100  0.0000 </r>
        <r>  0.0016  0.0138  0.0000 </r>
        <r>  0.0008  0.0195  0.0000 </r>
        <r>  0.0078  0.0162  0.0000 </r>
        <r>  0.0008  0.0064  0.0139 </r>
        <r>  0.0013  0.0169  0.0088 </r>
        <r>  0.0008  0.0109  0.0192 </r>
        <r>  0.0015  0.0256  0.0082 </r>
        <r>  0.0013  0.0169  0.0088 </r>
        <r>  0.0015  0.0256  0.0082 </r>
        <r>  0.0008  0.0109  0.0192 </r>
       </set>
       <set comment="band 41">
        <r>  0.0018  0.0104  0.0000 </r>
        <r>  0.0063  0.0051  0.0000 </r>
        <r>  0.0005  0.0446  0.0000 </r>
        <r>  0.0020  0.0091  0.0000 </r>
        <r>  0.0098  0.0166  0.0000 </r>
        <r>  0.0098  0.0166  0.0000 </r>
        <r>  0.0020  0.0091  0.0000 </r>
        <r>  0.0063  0.0051  0.0000 </r>
        <r>  0.0018  0.0104  0.0000 </r>
        <r>  0.0000  0.0022  0.0140 </r>
        <r>  0.0017  0.0167  0.0107 </r>
        <r>  0.0076  0.0177  0.0060 </r>
        <r>  0.0003  0.0193  0.0146 </r>
        <r>  0.0017  0.0167  0.0107 </r>
        <r>  0.0003  0.0193  0.0146 </r>
        <r>  0.0076  0.0177  0.0060 </r>
       </set>
       <set comment="band 42">
        <r>  0.0167  0.0070  0.0000 </r>
        <r>  0.0015  0.0198  0.0000 </r>
        <r>  0.0149  0.0202  0.0000 </r>
        <r>  0.0015  0.0134  0.0000 </r>
        <r>  0.0037  0.0157  0.0000 </r>
        <r>  0.0037  0.0157  0.0000 </r>
        <r>  0.0015  0.0134  0.0000 </r>
        <r>  0.0015  0.0198  0.0000 </r>
        <r>  0.0167  0.0070  0.0000 </r>
        <r>  0.0001  0.0078  0.0166 </r>
        <r>  0.0020  0.0175  0.0091 </r>
        <r>  0.0053  0.0117  0.0094 </r>
        <r>  0.0024  0.0121  0.0129 </r>
        <r>  0.0020  0.0175  0.0091 </r>
        <r>  0.0024  0.0121  0.0129 </r>
        <r>  0.0053  0.0117  0.0094 </r>
       </set>
      </set>
     </set>
    </set>
   </array>
  </projected>
 </calculation>
 <structure name="finalpos" >
  <crystal>
   <varray name="basis" >
    <v>       6.62341411      -0.29102368      -4.09623792 </v>
    <v>      -2.08393295       6.02181766      -3.63430653 </v>
    <v>      -0.29229197       0.16967103       7.86058443 </v>
   </varray>
   <i name="volume">    306.76565277 </i>
   <varray name="rec_basis" >
    <v>       0.15631360       0.05686168       0.00458508 </v>
    <v>       0.00519160       0.16581585      -0.00338609 </v>
    <v>       0.08385706       0.10629548       0.12804080 </v>
   </varray>
  </crystal>
  <varray name="positions" >
   <v>      -0.02782039       0.41911215       0.12349618 </v>
   <v>       0.18058729      -0.14134226       0.70647972 </v>
   <v>       0.00000000       0.00000000      -0.00000000 </v>
   <v>       0.29636835       0.02779880       0.44071639 </v>
   <v>       0.58208399       0.69584168       0.72309868 </v>
   <v>       0.41791601       0.30415832       0.27690132 </v>
   <v>       0.70363165      -0.02779880       0.55928361 </v>
   <v>       0.81941271       0.14134226       0.29352028 </v>
   <v>       0.02782039       0.58088785       0.87650382 </v>
   <v>       0.50000000       0.50000000      -0.00000000 </v>
   <v>       0.23593029       0.38850182       0.49179843 </v>
   <v>       0.10339313       0.24270179      -0.14108738 </v>
   <v>       0.39999553       0.90598074       0.14721635 </v>
   <v>       0.76406971       0.61149818       0.50820157 </v>
   <v>       0.60000447       0.09401926      -0.14721635 </v>
   <v>       0.89660687       0.75729821       0.14108738 </v>
  </varray>
 </structure>
</modeling>
