CIS                                     
           1
     7.402872   -0.039661   -4.216419
    -2.364606    7.013046   -4.209286
     0.175269    0.252027    8.919978
   Li   Sb   Se
   9   1   6
Direct configuration=     1
   0.99315651  0.51569040  0.30835219
   0.20720099  0.00635107  0.69171193
   0.00000000  0.00000000  0.00000000
   0.31509448  0.79233036  0.30787600
   0.48396808  0.68441975  0.69093477
   0.51603192  0.31558025  0.30906523
   0.68490552  0.20766964  0.69212400
   0.79279901  0.99364893  0.30828807
   0.00684349  0.48430960  0.69164781
   0.50000000  0.50000000  0.00000000
   0.27962759  0.27964126  0.55819657
   0.18550858  0.35420298  0.99985196
   0.35477974  0.81455249  0.99971218
   0.72037241  0.72035874  0.44180343
   0.64522026  0.18544751  0.00028782
   0.81449142  0.64579702  0.00014804
CIS                                     
           1
     7.331506   -0.039591   -4.175695
    -2.342238    6.945204   -4.168860
     0.171918    0.247003    8.830952
   Li   Sb   Se
   9   1   6
Direct configuration=     2
   0.99200784  0.51494357  0.30708076
   0.20773533  0.00749745  0.69298915
  -0.00000000  0.00000000 -0.00000000
   0.31497377  0.79180149  0.30660866
   0.48470992  0.68453547  0.69220001
   0.51529008  0.31546453  0.30779999
   0.68502623  0.20819851  0.69339134
   0.79226467  0.99250255  0.30701085
   0.00799216  0.48505643  0.69291924
   0.50000000  0.50000000 -0.00000000
   0.27927396  0.27929002  0.55750133
   0.18533819  0.35390115  0.99989599
   0.35447660  0.81471992  0.99975137
   0.72072604  0.72070998  0.44249867
   0.64552340  0.18528008  0.00024863
   0.81466181  0.64609885  0.00010401
CIS                                     
           1
     7.117408   -0.039381   -4.053526
    -2.275134    6.741678   -4.047581
     0.161863    0.231928    8.563873
   Li   Sb   Se
   9   1   6
Direct configuration=     3
   0.98852683  0.51267971  0.30322657
   0.20935547  0.01097160  0.69686092
  -0.00000000  0.00000000 -0.00000000
   0.31460675  0.79019801  0.30276698
   0.48695838  0.68488746  0.69603530
   0.51304162  0.31511254  0.30396470
   0.68539325  0.20980199  0.69723302
   0.79064453  0.98902840  0.30313908
   0.01147317  0.48732029  0.69677343
   0.50000000  0.50000000 -0.00000000
   0.27820197  0.27822524  0.55539383
   0.18482203  0.35298685  0.00002939
   0.35355839  0.81522711  0.99987016
   0.72179803  0.72177476  0.44460617
   0.64644161  0.18477289  0.00012984
   0.81517797  0.64701315 -0.00002939
CIS                                     
           1
     6.689212   -0.038963   -3.809186
    -2.140924    6.334626   -3.805025
     0.141754    0.201779    8.029716
   Li   Sb   Se
   9   1   6
Direct configuration=     4
   0.98134608  0.50800558  0.29526852
   0.21270293  0.01813887  0.70485557
  -0.00000000  0.00000000 -0.00000000
   0.31384191  0.78688544  0.29483539
   0.49159894  0.68562204  0.70395340
   0.50840106  0.31437796  0.29604660
   0.68615809  0.21311456  0.70516461
   0.78729707  0.98186113  0.29514443
   0.01865392  0.49199442  0.70473148
   0.50000000  0.50000000 -0.00000000
   0.27598856  0.27602630  0.55104247
   0.18375848  0.35110322  0.00030434
   0.35166712  0.81627212  0.00011551
   0.72401144  0.72397370  0.44895753
   0.64833288  0.18372788 -0.00011551
   0.81624152  0.64889678 -0.00030434
CIS                                     
           1
     6.618535   -0.038893   -3.768856
    -2.118772    6.267439   -3.764989
     0.138435    0.196803    7.941549
   Li   Sb   Se
   9   1   6
Direct configuration=     5
   0.98008136  0.50718074  0.29386399
   0.21329458  0.01940147  0.70626666
  -0.00000000  0.00000000 -0.00000000
   0.31370420  0.78630013  0.29343579
   0.49241717  0.68575469  0.70535051
   0.50758283  0.31424531  0.29464949
   0.68629580  0.21369987  0.70656421
   0.78670542  0.98059853  0.29373334
   0.01991864  0.49281926  0.70613601
   0.50000000  0.50000000 -0.00000000
   0.27559792  0.27563806  0.55027456
   0.18357164  0.35077239  0.00035267
   0.35133512  0.81645569  0.00015883
   0.72440208  0.72436194  0.44972544
   0.64866488  0.18354431 -0.00015883
   0.81642836  0.64922761 -0.00035267
CIS                                     
           1
     6.541627   -0.039219   -3.726481
    -2.095216    6.194543   -3.723231
     0.135195    0.191534    7.849466
   Li   Sb   Se
   9   1   6
Direct configuration=     6
   0.97608802  0.50381684  0.28859823
   0.21521639  0.02339668  0.71154336
   0.00000000 -0.00000000 -0.00000000
   0.31242611  0.78437738  0.28819235
   0.49576979  0.68701378  0.71059839
   0.50423021  0.31298622  0.28940161
   0.68757389  0.21562262  0.71180765
   0.78478361  0.97660332  0.28845664
   0.02391198  0.49618316  0.71140177
   0.50000000  0.50000000 -0.00000000
   0.26866014  0.26874485  0.53645605
   0.17632668  0.34680442  0.00041711
   0.34723050  0.82382319  0.00026757
   0.73133986  0.73125515  0.46354395
   0.65276950  0.17617681 -0.00026757
   0.82367332  0.65319558 -0.00041711
CIS                                     
           1
     6.325218   -0.040136   -3.607244
    -2.028930    5.989423   -3.605731
     0.126077    0.176707    7.590353
   Li   Sb   Se
   9   1   6
Direct configuration=     7
   0.96471140  0.49423152  0.27359505
   0.22069555  0.03477864  0.72657680
   0.00000000 -0.00000000 -0.00000000
   0.30878059  0.77889589  0.27325603
   0.50532130  0.69060652  0.72554820
   0.49467870  0.30939348  0.27445180
   0.69121941  0.22110411  0.72674397
   0.77930445  0.96522136  0.27342320
   0.03528860  0.50576848  0.72640495
   0.50000000  0.50000000 -0.00000000
   0.24888943  0.24909922  0.49708875
   0.15569824  0.33550541  0.00059171
   0.33554783  0.84479695  0.00058121
   0.75111057  0.75090078  0.50291125
   0.66445217  0.15520305 -0.00058121
   0.84430176  0.66449459 -0.00059171
CIS                                     
           1
     6.346195   -0.040047   -3.618802
    -2.035355    6.009306   -3.617120
     0.126961    0.178144    7.615470
   Li   Sb   Se
   9   1   6
Direct configuration=     8
   0.96585420  0.49519495  0.27510260
   0.22014394  0.03363531  0.72506648
   0.00000000 -0.00000000 -0.00000000
   0.30914808  0.77944763  0.27475590
   0.50436177  0.69024393  0.72404672
   0.49563823  0.30975607  0.27595328
   0.69085192  0.22055237  0.72524410
   0.77985606  0.96636469  0.27493352
   0.03414580  0.50480505  0.72489740
   0.50000000  0.50000000 -0.00000000
   0.25087711  0.25107489  0.50104318
   0.15776694  0.33663883  0.00057682
   0.33671812  0.84269468  0.00054856
   0.74912289  0.74892511  0.49895682
   0.66328188  0.15730532 -0.00054856
   0.84223306  0.66336117 -0.00057682
CIS                                     
           1
     6.476604   -0.040325   -3.689926
    -2.076666    6.131737   -3.688203
     0.119827    0.168285    7.748182
   Li   Sb   Se
   9   1   6
Direct configuration=     9
   0.96702730  0.49488702  0.27475142
   0.22012611  0.03252863  0.72547730
   0.00000000 -0.00000000  0.00000000
   0.30763508  0.77944344  0.27438836
   0.50470619  0.69176238  0.72444843
   0.49529381  0.30823762  0.27555157
   0.69236492  0.22055656  0.72561164
   0.77987389  0.96747137  0.27452270
   0.03297270  0.50511298  0.72524858
   0.50000000  0.50000000  0.00000000
   0.24889777  0.24925339  0.49748092
   0.15390260  0.33634489  0.00038690
   0.33657286  0.84686170  0.00082605
   0.75110223  0.75074661  0.50251908
   0.66342714  0.15313830 -0.00082605
   0.84609740  0.66365511 -0.00038690
CIS                                     
           1
     6.518375   -0.040414   -3.712708
    -2.089898    6.170953   -3.710972
     0.117542    0.165127    7.790691
   Li   Sb   Se
   9   1   6
Direct configuration=    10
   0.96739525  0.49479009  0.27464050
   0.22012079  0.03218149  0.72560701
   0.00000000 -0.00000000  0.00000000
   0.30715998  0.77944192  0.27427263
   0.50481454  0.69223930  0.72457494
   0.49518546  0.30776070  0.27542506
   0.69284002  0.22055808  0.72572737
   0.77987921  0.96781851  0.27439299
   0.03260475  0.50520991  0.72535950
   0.50000000  0.50000000  0.00000000
   0.24827422  0.24867931  0.49635771
   0.15268963  0.33625258  0.00032758
   0.33652743  0.84816999  0.00091316
   0.75172578  0.75132069  0.50364229
   0.66347257  0.15183001 -0.00091316
   0.84731037  0.66374742 -0.00032758
CIS                                     
           1
     6.515500   -0.040408   -3.711140
    -2.088987    6.168254   -3.709404
     0.117699    0.165344    7.787764
   Li   Sb   Se
   9   1   6
Direct configuration=    11
   0.96737009  0.49479673  0.27464810
   0.22012115  0.03220523  0.72559812
   0.00000000 -0.00000000  0.00000000
   0.30719248  0.77944203  0.27428056
   0.50480712  0.69220667  0.72456628
   0.49519288  0.30779333  0.27543372
   0.69280752  0.22055797  0.72571944
   0.77987885  0.96779477  0.27440188
   0.03262991  0.50520327  0.72535190
   0.50000000  0.50000000  0.00000000
   0.24831692  0.24871862  0.49643465
   0.15277260  0.33625889  0.00033163
   0.33653053  0.84808049  0.00090720
   0.75168308  0.75128138  0.50356535
   0.66346947  0.15191951 -0.00090720
   0.84722740  0.66374111 -0.00033163
CIS                                     
           1
     6.517658   -0.038153   -3.714894
    -2.087134    6.172365   -3.712482
     0.113246    0.160065    7.787714
   Li   Sb   Se
   9   1   6
Direct configuration=    12
   0.96698481  0.49336969  0.27282847
   0.22046617  0.03256611  0.72738944
   0.00000000 -0.00000000  0.00000000
   0.30576008  0.77905522  0.27251073
   0.50621399  0.69361305  0.72636798
   0.49378601  0.30638695  0.27363202
   0.69423992  0.22094478  0.72748927
   0.77953383  0.96743389  0.27261056
   0.03301519  0.50663031  0.72717153
   0.50000000  0.50000000  0.00000000
   0.24829674  0.24883023  0.49650724
   0.15233092  0.33643522  0.00034643
   0.33674348  0.84847685  0.00100510
   0.75170326  0.75116977  0.50349276
   0.66325652  0.15152315 -0.00100510
   0.84766908  0.66356478 -0.00034643
CIS                                     
           1
     6.524132   -0.031389   -3.726158
    -2.081576    6.184699   -3.721716
     0.099886    0.144227    7.787561
   Li   Sb   Se
   9   1   6
Direct configuration=    13
   0.96582647  0.48908727  0.26736547
   0.22150528  0.03365215  0.73276790
   0.00000000 -0.00000000  0.00000000
   0.30146040  0.77789270  0.26719650
   0.51043566  0.69783237  0.73177741
   0.48956434  0.30216763  0.26822259
   0.69853960  0.22210730  0.73280350
   0.77849472  0.96634785  0.26723210
   0.03417353  0.51091273  0.73263453
   0.50000000  0.50000000  0.00000000
   0.24823624  0.24916502  0.49672516
   0.15100625  0.33696439  0.00039067
   0.33738173  0.84966514  0.00129894
   0.75176376  0.75083498  0.50327484
   0.66261827  0.15033486 -0.00129894
   0.84899375  0.66303561 -0.00039067
CIS                                     
           1
     6.537080   -0.017860   -3.748686
    -2.070461    6.209366   -3.740183
     0.073166    0.112551    7.787255
   Li   Sb   Se
   9   1   6
Direct configuration=    14
   0.96349490  0.48051456  0.25641485
   0.22360771  0.03584467  0.74355196
   0.00000000 -0.00000000 -0.00000000
   0.29284623  0.77555506  0.25653954
   0.51888553  0.70627209  0.74262235
   0.48111447  0.29372791  0.25737765
   0.70715377  0.22444494  0.74346046
   0.77639229  0.96415533  0.25644804
   0.03650510  0.51948544  0.74358515
   0.50000000  0.50000000 -0.00000000
   0.24811564  0.24983451  0.49716176
   0.14835918  0.33802377  0.00047816
   0.33865465  0.85203705  0.00188733
   0.75188436  0.75016549  0.50283824
   0.66134535  0.14796295 -0.00188733
   0.85164082  0.66197623 -0.00047816
CIS                                     
           1
     6.533790   -0.021298   -3.742961
    -2.073285    6.203098   -3.735491
     0.079956    0.120600    7.787333
   Li   Sb   Se
   9   1   6
Direct configuration=    15
   0.96409499  0.48269694  0.25921003
   0.22306115  0.03527717  0.74079782
   0.00000000 -0.00000000 -0.00000000
   0.29504270  0.77615550  0.25926208
   0.51673500  0.70412692  0.73985329
   0.48326500  0.29587308  0.26014671
   0.70495730  0.22384450  0.74073792
   0.77693885  0.96472283  0.25920218
   0.03590501  0.51730306  0.74078997
   0.50000000  0.50000000 -0.00000000
   0.24814608  0.24966444  0.49705042
   0.14903066  0.33775406  0.00045644
   0.33833300  0.85143669  0.00173744
   0.75185392  0.75033556  0.50294958
   0.66166700  0.14856331 -0.00173744
   0.85096934  0.66224594 -0.00045644
CIS                                     
           1
     6.531065   -0.029456   -3.735244
    -2.082496    6.199925   -3.731837
     0.103734    0.148379    7.812948
   Li   Sb   Se
   9   1   6
Direct configuration=    16
   0.96497412  0.48035816  0.25710213
   0.22299107  0.03446250  0.74313804
   0.00000000 -0.00000000 -0.00000000
   0.29201237  0.77624013  0.25720674
   0.51885686  0.70715992  0.74209395
   0.48114314  0.29284008  0.25790605
   0.70798763  0.22375987  0.74279326
   0.77700893  0.96553750  0.25686196
   0.03502588  0.51964184  0.74289787
   0.50000000  0.50000000 -0.00000000
   0.24805815  0.24982666  0.49689902
   0.14939780  0.33841556  0.00017878
   0.33959632  0.85124889  0.00189989
   0.75194185  0.75017334  0.50310098
   0.66040368  0.14875111 -0.00189989
   0.85060220  0.66158444 -0.00017878
CIS                                     
           1
     6.526569   -0.042921   -3.722507
    -2.097696    6.194690   -3.725807
     0.142979    0.194226    7.855223
   Li   Sb   Se
   9   1   6
Direct configuration=    17
   0.96643725  0.47651322  0.25364802
   0.22285431  0.03310046  0.74696995
   0.00000000 -0.00000000  0.00000000
   0.28702377  0.77638794  0.25384053
   0.52235144  0.71215677  0.74576629
   0.47764856  0.28784323  0.25423371
   0.71297623  0.22361206  0.74615947
   0.77714569  0.96689954  0.25303005
   0.03356275  0.52348678  0.74635198
   0.50000000  0.50000000  0.00000000
   0.24791456  0.25009541  0.49665119
   0.15000819  0.33951064 -0.00027536
   0.34168126  0.85094037  0.00216585
   0.75208544  0.74990459  0.50334881
   0.65831874  0.14905963 -0.00216585
   0.84999181  0.66048936  0.00027536
CIS                                     
           1
     6.525380   -0.046481   -3.719140
    -2.101715    6.193305   -3.724213
     0.153354    0.206347    7.866399
   Li   Sb   Se
   9   1   6
Direct configuration=    18
   0.96682930  0.47550315  0.25274543
   0.22280906  0.03273283  0.74797003
   0.00000000 -0.00000000  0.00000000
   0.28571028  0.77643046  0.25296166
   0.52327225  0.71347410  0.74672620
   0.47672775  0.28652590  0.25327380
   0.71428972  0.22356954  0.74703834
   0.77719094  0.96726717  0.25202997
   0.03317070  0.52449685  0.74725457
   0.50000000  0.50000000  0.00000000
   0.24787725  0.25016690  0.49658655
   0.15017149  0.33980160 -0.00039366
   0.34223247  0.85085945  0.00223525
   0.75212275  0.74983310  0.50341345
   0.65776753  0.14914055 -0.00223525
   0.84982851  0.66019840  0.00039366
CIS                                     
           1
     6.496379   -0.040826   -3.711111
    -2.086924    6.168209   -3.715714
     0.163109    0.220488    7.867240
   Li   Sb   Se
   9   1   6
Direct configuration=    19
   0.96926785  0.47339410  0.25248874
   0.22094277  0.03000404  0.74820144
   0.00000000 -0.00000000  0.00000000
   0.28291075  0.77794016  0.25256112
   0.52504099  0.71601457  0.74695846
   0.47495901  0.28398543  0.25304154
   0.71708925  0.22205984  0.74743888
   0.77905723  0.96999596  0.25179856
   0.03073215  0.52660590  0.74751126
   0.50000000  0.50000000  0.00000000
   0.24914396  0.25173575  0.49906830
   0.15132939  0.33942690 -0.00079130
   0.34223237  0.84905402  0.00261251
   0.75085604  0.74826425  0.50093170
   0.65776763  0.15094598 -0.00261251
   0.84867061  0.66057310  0.00079130
CIS                                     
           1
     6.470564   -0.035793   -3.703965
    -2.073758    6.145870   -3.708148
     0.171792    0.233076    7.867988
   Li   Sb   Se
   9   1   6
Direct configuration=    20
   0.97144988  0.47150768  0.25226116
   0.21927654  0.02756624  0.74840523
   0.00000000 -0.00000000  0.00000000
   0.28040784  0.77929250  0.25220457
   0.52661930  0.71828321  0.74716639
   0.47338070  0.28171679  0.25283361
   0.71959216  0.22070750  0.74779543
   0.78072346  0.97243376  0.25159477
   0.02855012  0.52849232  0.74773884
   0.50000000  0.50000000  0.00000000
   0.25027006  0.25313195  0.50127370
   0.15236546  0.33909187 -0.00114408
   0.34223314  0.84743967  0.00294700
   0.74972994  0.74686805  0.49872630
   0.65776686  0.15256033 -0.00294700
   0.84763454  0.66090813  0.00114408
CIS                                     
           1
     6.469634   -0.035319   -3.707802
    -2.072567    6.146128   -3.711219
     0.173002    0.235781    7.878240
   Li   Sb   Se
   9   1   6
Direct configuration=    21
   0.97327830  0.47046531  0.25265411
   0.21786081  0.02553154  0.74803008
   0.00000000 -0.00000000  0.00000000
   0.27892124  0.78048798  0.25247810
   0.52748341  0.71957604  0.74682107
   0.47251659  0.28042396  0.25317893
   0.72107876  0.21951202  0.74752190
   0.78213919  0.97446846  0.25196992
   0.02672170  0.52953469  0.74734589
   0.50000000  0.50000000  0.00000000
   0.25071316  0.25382774  0.50223985
   0.15251548  0.33859785 -0.00121504
   0.34178189  0.84747717  0.00321479
   0.74928684  0.74617226  0.49776015
   0.65821811  0.15252283 -0.00321479
   0.84748452  0.66140215  0.00121504
CIS                                     
           1
     6.466841   -0.033896   -3.719313
    -2.068993    6.146904   -3.720431
     0.176632    0.243897    7.908993
   Li   Sb   Se
   9   1   6
Direct configuration=    22
   0.97876443  0.46733740  0.25383289
   0.21361477  0.01942858  0.74690273
   0.00000000 -0.00000000  0.00000000
   0.27446001  0.78407433  0.25329616
   0.53007547  0.72345445  0.74578906
   0.46992453  0.27654555  0.25421094
   0.72553999  0.21592567  0.74670384
   0.78638523  0.98057142  0.25309727
   0.02123557  0.53266260  0.74616711
   0.50000000  0.50000000  0.00000000
   0.25204140  0.25591377  0.50513486
   0.15296596  0.33711591 -0.00142776
   0.34042776  0.84758949  0.00401623
   0.74795860  0.74408623  0.49486514
   0.65957224  0.15241051 -0.00401623
   0.84703404  0.66288409  0.00142776
CIS                                     
           1
     6.461257   -0.031051   -3.742334
    -2.061847    6.148455   -3.738856
     0.183892    0.260129    7.970501
   Li   Sb   Se
   9   1   6
Direct configuration=    23
   0.98974203  0.46107674  0.25619020
   0.20512957  0.00722965  0.74463672
   0.00000000  0.00000000  0.00000000
   0.26552910  0.79124660  0.25491708
   0.53525791  0.73121087  0.74374868
   0.46474209  0.26878913  0.25625132
   0.73447090  0.20875340  0.74508292
   0.79487043  0.99277035  0.25536328
   0.01025797  0.53892326  0.74380980
   0.50000000  0.50000000  0.00000000
   0.25469148  0.26007783  0.51090432
   0.15386938  0.33415275 -0.00185219
   0.33771728  0.84781305  0.00560766
   0.74530852  0.73992217  0.48909568
   0.66228272  0.15218695 -0.00560766
   0.84613062  0.66584725  0.00185219
CIS                                     
           1
     6.451592   -0.043603   -3.731513
    -2.069832    6.137575   -3.726445
     0.185370    0.264350    7.951319
   Li   Sb   Se
   9   1   6
Direct configuration=    24
   0.99253188  0.45849614  0.25699315
   0.20203026  0.00409241  0.74434900
   0.00000000  0.00000000  0.00000000
   0.26362886  0.79394046  0.25540476
   0.53734887  0.73268615  0.74319710
   0.46265113  0.26731385  0.25680290
   0.73637114  0.20605954  0.74459524
   0.79796974  0.99590759  0.25565100
   0.00746812  0.54150386  0.74300685
   0.50000000  0.50000000  0.00000000
   0.25307348  0.25974331  0.50843281
   0.15344390  0.33324798 -0.00201755
   0.33732090  0.84951919  0.00616762
   0.74692652  0.74025669  0.49156719
   0.66267910  0.15048081 -0.00616762
   0.84655610  0.66675202  0.00201755
CIS                                     
           1
     6.422597   -0.081259   -3.699052
    -2.093787    6.104934   -3.689213
     0.189804    0.277014    7.893775
   Li   Sb   Se
   9   1   6
Direct configuration=    25
   0.00090406  0.45075573  0.25941039
   0.19269593 -0.00535430  0.74347760
   0.00000000  0.00000000  0.00000000
   0.25792979  0.80202369  0.25686805
   0.54364397  0.73713393  0.74154364
   0.45635603  0.26286607  0.25845636
   0.74207021  0.19797631  0.74313195
   0.80730407  0.00535430  0.25652240
  -0.00090406  0.54924427  0.74058961
   0.50000000  0.50000000  0.00000000
   0.24821122  0.25873380  0.50100190
   0.15216011  0.33052662 -0.00251562
   0.33613758  0.85464299  0.00785044
   0.75178878  0.74126620  0.49899810
   0.66386242  0.14535701 -0.00785044
   0.84783989  0.66947338  0.00251562
CIS                                     
           1
     6.428552   -0.073525   -3.705719
    -2.088867    6.111638   -3.696860
     0.188893    0.274413    7.905594
   Li   Sb   Se
   9   1   6
Direct configuration=    26
  -0.00081713  0.45234467  0.25890871
   0.19463586 -0.00339214  0.74366174
   0.00000000  0.00000000  0.00000000
   0.25909929  0.80036243  0.25656736
   0.54233709  0.73620669  0.74188242
   0.45766291  0.26379331  0.25811758
   0.74090071  0.19963757  0.74343264
   0.80536414  0.00339214  0.25633826
   0.00081713  0.54765533  0.74109129
   0.50000000  0.50000000  0.00000000
   0.24921502  0.25894485  0.50253832
   0.15242839  0.33108997 -0.00241208
   0.33637699  0.85358724  0.00750297
   0.75078498  0.74105515  0.49746168
   0.66362301  0.14641276 -0.00750297
   0.84757161  0.66891003  0.00241208
CIS                                     
           1
     6.437381   -0.074448   -3.713590
    -2.090218    6.112314   -3.700569
     0.179078    0.265977    7.905144
   Li   Sb   Se
   9   1   6
Direct configuration=    27
   0.00119027  0.45006523  0.25969327
   0.19172960 -0.00576628  0.74316190
   0.00000000  0.00000000  0.00000000
   0.25804742  0.80277756  0.25711223
   0.54394852  0.73664310  0.74096232
   0.45605148  0.26335690  0.25903768
   0.74195258  0.19722244  0.74288777
   0.80827040  0.00576628  0.25683810
  -0.00119027  0.54993477  0.74030673
   0.50000000  0.50000000  0.00000000
   0.24765703  0.25868663  0.50000170
   0.15240959  0.33100447 -0.00248704
   0.33683968  0.85368087  0.00856735
   0.75234297  0.74131337  0.49999830
   0.66316032  0.14631913 -0.00856735
   0.84759041  0.66899553  0.00248704
CIS                                     
           1
     6.463867   -0.077219   -3.737201
    -2.094272    6.114343   -3.711697
     0.149634    0.240669    7.903794
   Li   Sb   Se
   9   1   6
Direct configuration=    28
   0.00720780  0.44323163  0.26204990
   0.18301857 -0.01289079  0.74165292
   0.00000000  0.00000000  0.00000000
   0.25490032  0.81002380  0.25875160
   0.54877124  0.73794903  0.73820032
   0.45122876  0.26205097  0.26179968
   0.74509968  0.18997620  0.74124840
   0.81698143  0.01289079  0.25834708
  -0.00720780  0.55676837  0.73795010
   0.50000000  0.50000000  0.00000000
   0.24297467  0.25790136  0.49237746
   0.15235278  0.33074768 -0.00271243
   0.33823205  0.85396616  0.01176626
   0.75702533  0.74209864  0.50762254
   0.66176795  0.14603384 -0.01176626
   0.84764722  0.66925232  0.00271243
CIS                                     
           1
     6.516839   -0.082761   -3.784423
    -2.102378    6.118402   -3.733952
     0.090746    0.190052    7.901093
   Li   Sb   Se
   9   1   6
Direct configuration=    29
   0.01921525  0.42959287  0.26678098
   0.16564236 -0.02715265  0.73857801
   0.00000000  0.00000000  0.00000000
   0.24865702  0.82452171  0.26205910
   0.55834743  0.74054108  0.73266581
   0.44165257  0.25945892  0.26733419
   0.75134298  0.17547829  0.73794090
   0.83435764  0.02715265  0.26142199
  -0.01921525  0.57040713  0.73321902
   0.50000000  0.50000000  0.00000000
   0.23355913  0.25626676  0.47704209
   0.15223678  0.33023244 -0.00316625
   0.34104265  0.85456325  0.01819897
   0.76644087  0.74373324  0.52295791
   0.65895735  0.14543675 -0.01819897
   0.84776322  0.66976756  0.00316625
CIS                                     
           1
     6.483413   -0.079264   -3.754626
    -2.097263    6.115841   -3.719909
     0.127905    0.221992    7.902797
   Li   Sb   Se
   9   1   6
Direct configuration=    30
   0.01167246  0.43816291  0.26377279
   0.17655093 -0.01813634  0.74059108
   0.00000000  0.00000000  0.00000000
   0.25253246  0.81536610  0.25993493
   0.55239138  0.73893073  0.73617199
   0.44760862  0.26106927  0.26382801
   0.74746754  0.18463390  0.74006507
   0.82344907  0.01813634  0.25940892
  -0.01167246  0.56183709  0.73622721
   0.50000000  0.50000000  0.00000000
   0.23956577  0.25738036  0.48683067
   0.15231301  0.33055970 -0.00287597
   0.33923607  0.85415249  0.01409494
   0.76043423  0.74261964  0.51316933
   0.66076393  0.14584751 -0.01409494
   0.84768699  0.66944030  0.00287597
CIS                                     
           1
     6.520786   -0.082621   -3.788460
    -2.116396    6.147719   -3.760798
     0.105780    0.182260    7.935572
   Li   Sb   Se
   9   1   6
Direct configuration=    31
   0.01402147  0.43456953  0.26485487
   0.17168551 -0.02152079  0.73960037
   0.00000000  0.00000000  0.00000000
   0.25143417  0.81963028  0.26157346
   0.55466454  0.73811901  0.73363988
   0.44533546  0.26188099  0.26636012
   0.74856583  0.18036972  0.73842654
   0.82831449  0.02152079  0.26039963
  -0.01402147  0.56543047  0.73514513
   0.50000000  0.50000000  0.00000000
   0.23946040  0.25922951  0.48653367
   0.15457499  0.33223783 -0.00309895
   0.34266196  0.85215009  0.01714445
   0.76053960  0.74077049  0.51346633
   0.65733804  0.14784991 -0.01714445
   0.84542501  0.66776217  0.00309895
CIS                                     
           1
     6.553170   -0.085531   -3.817777
    -2.132975    6.175341   -3.796228
     0.086609    0.147833    7.963971
   Li   Sb   Se
   9   1   6
Direct configuration=    32
   0.01604688  0.43147925  0.26578752
   0.16748525 -0.02444526  0.73872366
   0.00000000  0.00000000  0.00000000
   0.25049998  0.82331450  0.26300564
   0.55661029  0.73740595  0.73144365
   0.44338971  0.26259405  0.26855635
   0.74950002  0.17668550  0.73699436
   0.83251475  0.02444526  0.26127634
  -0.01604688  0.56852075  0.73421248
   0.50000000  0.50000000  0.00000000
   0.23937009  0.26082162  0.48628092
   0.15652459  0.33368382 -0.00328430
   0.34562619  0.85044257  0.01979062
   0.76062991  0.73917838  0.51371908
   0.65437381  0.14955743 -0.01979062
   0.84347541  0.66631618  0.00328430
CIS                                     
           1
     6.617937   -0.091349   -3.876411
    -2.166132    6.230584   -3.867087
     0.048267    0.078980    8.020769
   Li   Sb   Se
   9   1   6
Direct configuration=    33
   0.02008061  0.42533859  0.26764444
   0.15911117 -0.03028065  0.73693868
   0.00000000  0.00000000  0.00000000
   0.24866171  0.83066498  0.26589156
   0.56046070  0.73596308  0.72704715
   0.43953930  0.26403692  0.27295285
   0.75133829  0.16933502  0.73410844
   0.84088883  0.03028065  0.26306132
  -0.02008061  0.57466141  0.73235556
   0.50000000  0.50000000  0.00000000
   0.23919119  0.26398853  0.48578329
   0.16040610  0.33656205 -0.00364147
   0.35154749  0.84707482  0.02508984
   0.76080881  0.73601147  0.51421671
   0.64845251  0.15292518 -0.02508984
   0.83959390  0.66343795  0.00364147
CIS                                     
           1
     6.581755   -0.088098   -3.843655
    -2.147609    6.199722   -3.827501
     0.069687    0.117445    7.989038
   Li   Sb   Se
   9   1   6
Direct configuration=    34
   0.01784597  0.42872528  0.26661621
   0.16376076 -0.02703506  0.73797104
   0.00000000  0.00000000  0.00000000
   0.24965522  0.82657796  0.26425514
   0.55835502  0.73678773  0.72950817
   0.44164498  0.26321227  0.27049183
   0.75034478  0.17342204  0.73574486
   0.83623924  0.02703506  0.26202896
  -0.01784597  0.57127472  0.73338379
   0.50000000  0.50000000  0.00000000
   0.23928916  0.26223825  0.48605260
   0.15825698  0.33496902 -0.00345688
   0.34824712  0.84890396  0.02212128
   0.76071084  0.73776175  0.51394740
   0.65175288  0.15109604 -0.02212128
   0.84174302  0.66503098  0.00345688
CIS                                     
           1
     6.583674   -0.109267   -3.841634
    -2.174296    6.203244   -3.836052
     0.060039    0.090813    7.969539
   Li   Sb   Se
   9   1   6
Direct configuration=    35
   0.01747907  0.42725446  0.26560923
   0.16249475 -0.02833403  0.73901186
   0.00000000  0.00000000  0.00000000
   0.24856456  0.82879213  0.26531775
   0.55963274  0.73595550  0.72827263
   0.44036726  0.26404450  0.27172737
   0.75143544  0.17120787  0.73468225
   0.83750525  0.02833403  0.26098814
  -0.01747907  0.57274554  0.73439077
   0.50000000  0.50000000  0.00000000
   0.24072729  0.26460210  0.48760243
   0.15906917  0.33506489 -0.00431698
   0.35095426  0.85123930  0.02566193
   0.75927271  0.73539790  0.51239757
   0.64904574  0.14876070 -0.02566193
   0.84093083  0.66493511  0.00431698
CIS                                     
           1
     6.586347   -0.138746   -3.838820
    -2.211462    6.208148   -3.847960
     0.046602    0.053723    7.942383
   Li   Sb   Se
   9   1   6
Direct configuration=    36
   0.01695587  0.42519959  0.26419231
   0.16072739 -0.03014182  0.74046183
   0.00000000  0.00000000  0.00000000
   0.24706051  0.83187506  0.26681176
   0.56140424  0.73479588  0.72654200
   0.43859576  0.26520412  0.27345800
   0.75293949  0.16812494  0.73318824
   0.83927261  0.03014182  0.25953817
  -0.01695587  0.57480041  0.73580769
   0.50000000  0.50000000  0.00000000
   0.24275042  0.26790823  0.48978572
   0.16019829  0.33519707 -0.00551939
   0.35475374  0.85452357  0.03063692
   0.75724958  0.73209177  0.51021428
   0.64524626  0.14547643 -0.03063692
   0.83980171  0.66480293  0.00551939