  16  16   1   0
  0.3327462E+02  0.6579862E-09  0.6549772E-09  0.1245574E-08  0.1000000E-15
  1.000000000000000E-004
  CAR 
 CIS                                     
     11.24355265    -10.75129066  301      3.98983662      1.00000000
    -10.751  0.0000E+00  0.0000E+00
    -10.678  0.0000E+00  0.0000E+00
    -10.605  0.0000E+00  0.0000E+00
    -10.531  0.0000E+00  0.0000E+00
    -10.458  0.0000E+00  0.0000E+00
    -10.385  0.0000E+00  0.0000E+00
    -10.311  0.0000E+00  0.0000E+00
    -10.238  0.0000E+00  0.0000E+00
    -10.165  0.0000E+00  0.0000E+00
    -10.091  0.0000E+00  0.0000E+00
    -10.018  0.7155E-15  0.5246E-16
     -9.945  0.7006E-09  0.5137E-10
     -9.871  0.1057E-04  0.7750E-06
     -9.798  0.2851E-02  0.2098E-03
     -9.725  0.2085E-01  0.1739E-02
     -9.652  0.6829E-02  0.2239E-02
     -9.578  0.8170E-04  0.2245E-02
     -9.505  0.5575E-02  0.2654E-02
     -9.432  0.8483E-01  0.8874E-02
     -9.358  0.6078E-01  0.1333E-01
     -9.285  0.2672E-02  0.1353E-01
     -9.212  0.3296E-01  0.1594E-01
     -9.138  0.1174E+00  0.2455E-01
     -9.065  0.8826E-01  0.3102E-01
     -8.992  0.6870E-02  0.3152E-01
     -8.918  0.5538E-01  0.3558E-01
     -8.845  0.8988E-01  0.4217E-01
     -8.772  0.1894E-01  0.4356E-01
     -8.698  0.7926E-01  0.4937E-01
     -8.625  0.3493E-01  0.5193E-01
     -8.552  0.6921E-01  0.5701E-01
     -8.478  0.4802E-01  0.6053E-01
     -8.405  0.4096E-01  0.6353E-01
     -8.332  0.3077E+00  0.8609E-01
     -8.259  0.3422E+00  0.1112E+00
     -8.185  0.1919E+00  0.1252E+00
     -8.112  0.1854E+00  0.1388E+00
     -8.039  0.9740E-01  0.1460E+00
     -7.965  0.1511E+00  0.1571E+00
     -7.892  0.5994E-01  0.1615E+00
     -7.819  0.2151E-02  0.1616E+00
     -7.745  0.3201E-05  0.1616E+00
     -7.672  0.9821E-10  0.1616E+00
     -7.599  0.4759E-16  0.1616E+00
     -7.525  0.0000E+00  0.1616E+00
     -7.452  0.0000E+00  0.1616E+00
     -7.379  0.0000E+00  0.1616E+00
     -7.305  0.0000E+00  0.1616E+00
     -7.232  0.0000E+00  0.1616E+00
     -7.159  0.0000E+00  0.1616E+00
     -7.085  0.0000E+00  0.1616E+00
     -7.012  0.0000E+00  0.1616E+00
     -6.939  0.0000E+00  0.1616E+00
     -6.866  0.0000E+00  0.1616E+00
     -6.792  0.0000E+00  0.1616E+00
     -6.719  0.0000E+00  0.1616E+00
     -6.646  0.0000E+00  0.1616E+00
     -6.572  0.0000E+00  0.1616E+00
     -6.499  0.0000E+00  0.1616E+00
     -6.426  0.0000E+00  0.1616E+00
     -6.352  0.0000E+00  0.1616E+00
     -6.279  0.0000E+00  0.1616E+00
     -6.206  0.0000E+00  0.1616E+00
     -6.132  0.0000E+00  0.1616E+00
     -6.059  0.0000E+00  0.1616E+00
     -5.986  0.0000E+00  0.1616E+00
     -5.912  0.0000E+00  0.1616E+00
     -5.839  0.1898E-14  0.1616E+00
     -5.766  0.2034E-08  0.1616E+00
     -5.692  0.3392E-04  0.1616E+00
     -5.619  0.1017E-01  0.1624E+00
     -5.546  0.8214E-01  0.1684E+00
     -5.473  0.2976E-01  0.1706E+00
     -5.399  0.7673E-03  0.1706E+00
     -5.326  0.3122E-01  0.1729E+00
     -5.253  0.8119E-01  0.1789E+00
     -5.179  0.9618E-02  0.1796E+00
     -5.106  0.6476E-04  0.1796E+00
     -5.033  0.1017E-01  0.1803E+00
     -4.959  0.9489E-01  0.1873E+00
     -4.886  0.1209E+00  0.1961E+00
     -4.813  0.1176E+00  0.2048E+00
     -4.739  0.2415E-01  0.2065E+00
     -4.666  0.2804E-01  0.2086E+00
     -4.593  0.7584E-01  0.2142E+00
     -4.519  0.1799E-01  0.2155E+00
     -4.446  0.2074E-03  0.2155E+00
     -4.373  0.1015E-05  0.2155E+00
     -4.299  0.8232E-03  0.2155E+00
     -4.226  0.1626E-01  0.2167E+00
     -4.153  0.1592E-01  0.2179E+00
     -4.080  0.5983E-01  0.2223E+00
     -4.006  0.7596E-01  0.2279E+00
     -3.933  0.8800E-01  0.2343E+00
     -3.860  0.1975E-01  0.2358E+00
     -3.786  0.1770E-01  0.2371E+00
     -3.713  0.1164E-01  0.2379E+00
     -3.640  0.2837E-03  0.2379E+00
     -3.566  0.1454E-06  0.2379E+00
     -3.493  0.1237E-08  0.2379E+00
     -3.420  0.1524E-04  0.2379E+00
     -3.346  0.3401E-02  0.2382E+00
     -3.273  0.2120E-01  0.2397E+00
     -3.200  0.6351E-02  0.2402E+00
     -3.126  0.1312E-01  0.2412E+00
     -3.053  0.1631E-01  0.2424E+00
     -2.980  0.8339E-03  0.2424E+00
     -2.906  0.9851E-06  0.2424E+00
     -2.833  0.1959E-10  0.2424E+00
     -2.760  0.6798E-17  0.2424E+00
     -2.687  0.0000E+00  0.2424E+00
     -2.613  0.0000E+00  0.2424E+00
     -2.540  0.0000E+00  0.2424E+00
     -2.467  0.0000E+00  0.2424E+00
     -2.393  0.0000E+00  0.2424E+00
     -2.320  0.0000E+00  0.2424E+00
     -2.247  0.0000E+00  0.2424E+00
     -2.173  0.0000E+00  0.2424E+00
     -2.100  0.0000E+00  0.2424E+00
     -2.027  0.0000E+00  0.2424E+00
     -1.953  0.0000E+00  0.2424E+00
     -1.880  0.0000E+00  0.2424E+00
     -1.807  0.0000E+00  0.2424E+00
     -1.733  0.0000E+00  0.2424E+00
     -1.660  0.4463E-12  0.2424E+00
     -1.587  0.7284E-07  0.2424E+00
     -1.513  0.1991E-03  0.2424E+00
     -1.440  0.1294E-01  0.2434E+00
     -1.367  0.3977E-01  0.2463E+00
     -1.294  0.8454E-02  0.2469E+00
     -1.220  0.1779E-01  0.2482E+00
     -1.147  0.8242E-01  0.2543E+00
     -1.074  0.6660E-01  0.2592E+00
     -1.000  0.6947E-01  0.2642E+00
     -0.927  0.8162E-01  0.2702E+00
     -0.854  0.1849E-01  0.2716E+00
     -0.780  0.2588E-03  0.2716E+00
     -0.707  0.4794E-02  0.2720E+00
     -0.634  0.6970E-01  0.2771E+00
     -0.560  0.4667E-01  0.2805E+00
     -0.487  0.5877E-02  0.2809E+00
     -0.414  0.3957E-01  0.2838E+00
     -0.340  0.6134E-01  0.2883E+00
     -0.267  0.1260E+00  0.2976E+00
     -0.194  0.6931E-01  0.3026E+00
     -0.120  0.5418E-02  0.3030E+00
     -0.047  0.1553E-01  0.3042E+00
      0.026  0.1720E+00  0.3168E+00
      0.099  0.2087E+00  0.3321E+00
      0.173  0.6139E-01  0.3366E+00
      0.246  0.1658E-02  0.3367E+00
      0.319  0.2297E-02  0.3369E+00
      0.393  0.7232E-01  0.3422E+00
      0.466  0.1464E+00  0.3529E+00
      0.539  0.2368E-01  0.3546E+00
      0.613  0.5659E-02  0.3551E+00
      0.686  0.7268E-01  0.3604E+00
      0.759  0.1387E+00  0.3706E+00
      0.833  0.1451E+00  0.3812E+00
      0.906  0.1615E+00  0.3930E+00
      0.979  0.1898E+00  0.4069E+00
      1.053  0.5383E-01  0.4109E+00
      1.126  0.7230E-01  0.4162E+00
      1.199  0.7695E-01  0.4218E+00
      1.273  0.8833E-01  0.4283E+00
      1.346  0.6312E-01  0.4329E+00
      1.419  0.7636E-01  0.4385E+00
      1.493  0.9129E-01  0.4452E+00
      1.566  0.9300E-01  0.4521E+00
      1.639  0.9408E-01  0.4590E+00
      1.712  0.2547E+00  0.4776E+00
      1.786  0.2219E+00  0.4939E+00
      1.859  0.1589E+00  0.5055E+00
      1.932  0.1288E+00  0.5150E+00
      2.006  0.1563E+00  0.5264E+00
      2.079  0.5600E-01  0.5306E+00
      2.152  0.2980E-01  0.5327E+00
      2.226  0.4970E-01  0.5364E+00
      2.299  0.1404E+00  0.5467E+00
      2.372  0.1025E+00  0.5542E+00
      2.446  0.1183E+00  0.5629E+00
      2.519  0.1006E+00  0.5702E+00
      2.592  0.1724E+00  0.5829E+00
      2.666  0.2298E+00  0.5997E+00
      2.739  0.1805E+00  0.6130E+00
      2.812  0.1282E+00  0.6224E+00
      2.886  0.1344E+00  0.6322E+00
      2.959  0.1691E+00  0.6446E+00
      3.032  0.1968E+00  0.6590E+00
      3.105  0.4337E-01  0.6622E+00
      3.179  0.7338E-01  0.6676E+00
      3.252  0.2018E+00  0.6824E+00
      3.325  0.1531E+00  0.6936E+00
      3.399  0.1075E+00  0.7015E+00
      3.472  0.9808E-01  0.7087E+00
      3.545  0.2550E-01  0.7106E+00
      3.619  0.8586E-01  0.7169E+00
      3.692  0.4077E-01  0.7198E+00
      3.765  0.8546E-01  0.7261E+00
      3.839  0.1570E-01  0.7273E+00
      3.912  0.8415E-04  0.7273E+00
      3.985  0.8440E-08  0.7273E+00
      4.059  0.1347E-13  0.7273E+00
      4.132  0.0000E+00  0.7273E+00
      4.205  0.0000E+00  0.7273E+00
      4.279  0.0000E+00  0.7273E+00
      4.352  0.0000E+00  0.7273E+00
      4.425  0.0000E+00  0.7273E+00
      4.498  0.0000E+00  0.7273E+00
      4.572  0.0000E+00  0.7273E+00
      4.645  0.0000E+00  0.7273E+00
      4.718  0.0000E+00  0.7273E+00
      4.792  0.0000E+00  0.7273E+00
      4.865  0.0000E+00  0.7273E+00
      4.938  0.0000E+00  0.7273E+00
      5.012  0.0000E+00  0.7273E+00
      5.085  0.0000E+00  0.7273E+00
      5.158  0.0000E+00  0.7273E+00
      5.232  0.0000E+00  0.7273E+00
      5.305  0.0000E+00  0.7273E+00
      5.378  0.4025E-14  0.7273E+00
      5.452  0.3095E-08  0.7273E+00
      5.525  0.3893E-04  0.7273E+00
      5.598  0.9890E-02  0.7280E+00
      5.672  0.8412E-01  0.7342E+00
      5.745  0.1138E+00  0.7425E+00
      5.818  0.1662E+00  0.7547E+00
      5.891  0.2136E+00  0.7704E+00
      5.965  0.1657E+00  0.7825E+00
      6.038  0.6024E-01  0.7869E+00
      6.111  0.1790E+00  0.8001E+00
      6.185  0.8843E-01  0.8065E+00
      6.258  0.4959E-01  0.8102E+00
      6.331  0.4643E-01  0.8136E+00
      6.405  0.7478E-01  0.8191E+00
      6.478  0.9858E-01  0.8263E+00
      6.551  0.1550E+00  0.8376E+00
      6.625  0.1201E+00  0.8464E+00
      6.698  0.5922E-01  0.8508E+00
      6.771  0.1644E+00  0.8628E+00
      6.845  0.7866E-01  0.8686E+00
      6.918  0.1188E+00  0.8773E+00
      6.991  0.9435E-01  0.8842E+00
      7.065  0.8901E-01  0.8908E+00
      7.138  0.1135E+00  0.8991E+00
      7.211  0.1001E+00  0.9064E+00
      7.284  0.6450E-01  0.9111E+00
      7.358  0.6078E-01  0.9156E+00
      7.431  0.3039E-02  0.9158E+00
      7.504  0.4047E-05  0.9158E+00
      7.578  0.1002E-09  0.9158E+00
      7.651  0.4079E-16  0.9158E+00
      7.724  0.0000E+00  0.9158E+00
      7.798  0.8092E-12  0.9158E+00
      7.871  0.1270E-06  0.9158E+00
      7.944  0.3396E-03  0.9158E+00
      8.018  0.2079E-01  0.9174E+00
      8.091  0.5823E-01  0.9216E+00
      8.164  0.1234E-01  0.9225E+00
      8.238  0.1424E-03  0.9226E+00
      8.311  0.1254E-04  0.9226E+00
      8.384  0.5884E-02  0.9230E+00
      8.458  0.7381E-01  0.9284E+00
      8.531  0.5192E-01  0.9322E+00
      8.604  0.1989E-01  0.9337E+00
      8.677  0.1849E-02  0.9338E+00
      8.751  0.1161E-01  0.9347E+00
      8.824  0.1768E-01  0.9359E+00
      8.897  0.8397E-02  0.9366E+00
      8.971  0.5348E-01  0.9405E+00
      9.044  0.1457E+00  0.9512E+00
      9.117  0.8070E-01  0.9571E+00
      9.191  0.1218E+00  0.9660E+00
      9.264  0.2379E+00  0.9835E+00
      9.337  0.3534E+00  0.1009E+01
      9.411  0.2674E+00  0.1029E+01
      9.484  0.2550E+00  0.1048E+01
      9.557  0.8517E-01  0.1054E+01
      9.631  0.4233E-01  0.1057E+01
      9.704  0.6688E-01  0.1062E+01
      9.777  0.2130E+00  0.1078E+01
      9.851  0.1924E+00  0.1092E+01
      9.924  0.2577E-01  0.1094E+01
      9.997  0.1278E+00  0.1103E+01
     10.070  0.2028E+00  0.1118E+01
     10.144  0.6096E-01  0.1122E+01
     10.217  0.3901E-01  0.1125E+01
     10.290  0.7671E-01  0.1131E+01
     10.364  0.8035E-02  0.1131E+01
     10.437  0.2436E-04  0.1131E+01
     10.510  0.1386E-08  0.1131E+01
     10.584  0.1247E-14  0.1131E+01
     10.657  0.0000E+00  0.1131E+01
     10.730  0.0000E+00  0.1131E+01
     10.804  0.0000E+00  0.1131E+01
     10.877  0.0000E+00  0.1131E+01
     10.950  0.0000E+00  0.1131E+01
     11.024  0.0000E+00  0.1131E+01
     11.097  0.0000E+00  0.1131E+01
     11.170  0.0000E+00  0.1131E+01
     11.244  0.0000E+00  0.1131E+01
     11.24355265    -10.75129066  301      3.98983662      1.00000000
    -10.751  0.0000E+00  0.0000E+00  0.0000E+00
    -10.678  0.0000E+00  0.0000E+00  0.0000E+00
    -10.605  0.0000E+00  0.0000E+00  0.0000E+00
    -10.531  0.0000E+00  0.0000E+00  0.0000E+00
    -10.458  0.0000E+00  0.0000E+00  0.0000E+00
    -10.385  0.0000E+00  0.0000E+00  0.0000E+00
    -10.311  0.0000E+00  0.0000E+00  0.0000E+00
    -10.238  0.0000E+00  0.0000E+00  0.0000E+00
    -10.165  0.0000E+00  0.0000E+00  0.0000E+00
    -10.091  0.0000E+00  0.0000E+00  0.0000E+00
    -10.018  0.4676E-16  0.9835E-18  0.0000E+00
     -9.945  0.4579E-10  0.9631E-12  0.0000E+00
     -9.871  0.6908E-06  0.1453E-07  0.0000E+00
     -9.798  0.1864E-03  0.3919E-05  0.0000E+00
     -9.725  0.1363E-02  0.2866E-04  0.0000E+00
     -9.652  0.4463E-03  0.9387E-05  0.0000E+00
     -9.578  0.5116E-05  0.2551E-06  0.0000E+00
     -9.505  0.2422E-03  0.8525E-04  0.0000E+00
     -9.432  0.3733E-02  0.1274E-02  0.0000E+00
     -9.358  0.2705E-02  0.9069E-03  0.0000E+00
     -9.285  0.9931E-04  0.4989E-04  0.0000E+00
     -9.212  0.6478E-03  0.8951E-03  0.0000E+00
     -9.138  0.2919E-02  0.3120E-02  0.0000E+00
     -9.065  0.2614E-02  0.2356E-02  0.0000E+00
     -8.992  0.1879E-03  0.1921E-03  0.0000E+00
     -8.918  0.7819E-03  0.1724E-02  0.0000E+00
     -8.845  0.1327E-02  0.2691E-02  0.0000E+00
     -8.772  0.2718E-03  0.4569E-03  0.0000E+00
     -8.698  0.1175E-02  0.1698E-02  0.0000E+00
     -8.625  0.4759E-03  0.7971E-03  0.0000E+00
     -8.552  0.2850E-04  0.2316E-02  0.0000E+00
     -8.478  0.2057E-04  0.1606E-02  0.0000E+00
     -8.405  0.7802E-03  0.7857E-03  0.0000E+00
     -8.332  0.5474E-02  0.8441E-02  0.0000E+00
     -8.259  0.5959E-02  0.1120E-01  0.0000E+00
     -8.185  0.2553E-02  0.5402E-02  0.0000E+00
     -8.112  0.1137E-02  0.5609E-02  0.0000E+00
     -8.039  0.5080E-03  0.3018E-02  0.0000E+00
     -7.965  0.1201E-02  0.2807E-02  0.0000E+00
     -7.892  0.7742E-03  0.7417E-03  0.0000E+00
     -7.819  0.4108E-04  0.1626E-04  0.0000E+00
     -7.745  0.7201E-07  0.1843E-07  0.0000E+00
     -7.672  0.2336E-11  0.5101E-12  0.0000E+00
     -7.599  0.1167E-17  0.2326E-18  0.0000E+00
     -7.525  0.0000E+00  0.0000E+00  0.0000E+00
     -7.452  0.0000E+00  0.0000E+00  0.0000E+00
     -7.379  0.0000E+00  0.0000E+00  0.0000E+00
     -7.305  0.0000E+00  0.0000E+00  0.0000E+00
     -7.232  0.0000E+00  0.0000E+00  0.0000E+00
     -7.159  0.0000E+00  0.0000E+00  0.0000E+00
     -7.085  0.0000E+00  0.0000E+00  0.0000E+00
     -7.012  0.0000E+00  0.0000E+00  0.0000E+00
     -6.939  0.0000E+00  0.0000E+00  0.0000E+00
     -6.866  0.0000E+00  0.0000E+00  0.0000E+00
     -6.792  0.0000E+00  0.0000E+00  0.0000E+00
     -6.719  0.0000E+00  0.0000E+00  0.0000E+00
     -6.646  0.0000E+00  0.0000E+00  0.0000E+00
     -6.572  0.0000E+00  0.0000E+00  0.0000E+00
     -6.499  0.0000E+00  0.0000E+00  0.0000E+00
     -6.426  0.0000E+00  0.0000E+00  0.0000E+00
     -6.352  0.0000E+00  0.0000E+00  0.0000E+00
     -6.279  0.0000E+00  0.0000E+00  0.0000E+00
     -6.206  0.0000E+00  0.0000E+00  0.0000E+00
     -6.132  0.0000E+00  0.0000E+00  0.0000E+00
     -6.059  0.0000E+00  0.0000E+00  0.0000E+00
     -5.986  0.0000E+00  0.0000E+00  0.0000E+00
     -5.912  0.0000E+00  0.0000E+00  0.0000E+00
     -5.839  0.7938E-18  0.4058E-17  0.0000E+00
     -5.766  0.8462E-12  0.4382E-11  0.0000E+00
     -5.692  0.1404E-07  0.7366E-07  0.0000E+00
     -5.619  0.4188E-05  0.2227E-04  0.0000E+00
     -5.546  0.3366E-04  0.1811E-03  0.0000E+00
     -5.473  0.1214E-04  0.6603E-04  0.0000E+00
     -5.399  0.5333E-06  0.2208E-05  0.0000E+00
     -5.326  0.2990E-04  0.1079E-03  0.0000E+00
     -5.253  0.7861E-04  0.2820E-03  0.0000E+00
     -5.179  0.9418E-05  0.3360E-04  0.0000E+00
     -5.106  0.5151E-07  0.3933E-06  0.0000E+00
     -5.033  0.6353E-05  0.8564E-04  0.0000E+00
     -4.959  0.8653E-04  0.7321E-03  0.0000E+00
     -4.886  0.5485E-03  0.5599E-03  0.0000E+00
     -4.813  0.2013E-02  0.6147E-03  0.0000E+00
     -4.739  0.5223E-03  0.1432E-03  0.0000E+00
     -4.666  0.1094E-03  0.6957E-04  0.0000E+00
     -4.593  0.3080E-03  0.1757E-03  0.0000E+00
     -4.519  0.7802E-04  0.3936E-04  0.0000E+00
     -4.446  0.9213E-06  0.4455E-06  0.0000E+00
     -4.373  0.9048E-08  0.1690E-08  0.0000E+00
     -4.299  0.7539E-05  0.1349E-05  0.0000E+00
     -4.226  0.1489E-03  0.2667E-04  0.0000E+00
     -4.153  0.1305E-03  0.4588E-04  0.0000E+00
     -4.080  0.2180E-03  0.5112E-03  0.0000E+00
     -4.006  0.9071E-03  0.5957E-03  0.0000E+00
     -3.933  0.3345E-02  0.5229E-03  0.0000E+00
     -3.860  0.7297E-03  0.1097E-03  0.0000E+00
     -3.786  0.7544E-04  0.1495E-04  0.0000E+00
     -3.713  0.4676E-04  0.9423E-05  0.0000E+00
     -3.640  0.1140E-05  0.2297E-06  0.0000E+00
     -3.566  0.5841E-09  0.1177E-09  0.0000E+00
     -3.493  0.2340E-10  0.8152E-11  0.0000E+00
     -3.420  0.2884E-06  0.1005E-06  0.0000E+00
     -3.346  0.6438E-04  0.2243E-04  0.0000E+00
     -3.273  0.4012E-03  0.1398E-03  0.0000E+00
     -3.200  0.1445E-03  0.4105E-04  0.0000E+00
     -3.126  0.1042E-02  0.5892E-04  0.0000E+00
     -3.053  0.1299E-02  0.7312E-04  0.0000E+00
     -2.980  0.6641E-04  0.3738E-05  0.0000E+00
     -2.906  0.7846E-07  0.4416E-08  0.0000E+00
     -2.833  0.1560E-11  0.8780E-13  0.0000E+00
     -2.760  0.5415E-18  0.3047E-19  0.0000E+00
     -2.687  0.0000E+00  0.0000E+00  0.0000E+00
     -2.613  0.0000E+00  0.0000E+00  0.0000E+00
     -2.540  0.0000E+00  0.0000E+00  0.0000E+00
     -2.467  0.0000E+00  0.0000E+00  0.0000E+00
     -2.393  0.0000E+00  0.0000E+00  0.0000E+00
     -2.320  0.0000E+00  0.0000E+00  0.0000E+00
     -2.247  0.0000E+00  0.0000E+00  0.0000E+00
     -2.173  0.0000E+00  0.0000E+00  0.0000E+00
     -2.100  0.0000E+00  0.0000E+00  0.0000E+00
     -2.027  0.0000E+00  0.0000E+00  0.0000E+00
     -1.953  0.0000E+00  0.0000E+00  0.0000E+00
     -1.880  0.0000E+00  0.0000E+00  0.0000E+00
     -1.807  0.0000E+00  0.0000E+00  0.0000E+00
     -1.733  0.0000E+00  0.0000E+00  0.0000E+00
     -1.660  0.2354E-18  0.6489E-13  0.0000E+00
     -1.587  0.7640E-13  0.1060E-07  0.0000E+00
     -1.513  0.7581E-09  0.2907E-04  0.0000E+00
     -1.440  0.1833E-06  0.1912E-02  0.0000E+00
     -1.367  0.1292E-05  0.6005E-02  0.0000E+00
     -1.294  0.4138E-06  0.1286E-02  0.0000E+00
     -1.220  0.1004E-06  0.1318E-02  0.0000E+00
     -1.147  0.1651E-05  0.6527E-02  0.0000E+00
     -1.074  0.6906E-05  0.6051E-02  0.0000E+00
     -1.000  0.2033E-03  0.5169E-02  0.0000E+00
     -0.927  0.3104E-03  0.5173E-02  0.0000E+00
     -0.854  0.2007E-04  0.6964E-03  0.0000E+00
     -0.780  0.3400E-06  0.8541E-05  0.0000E+00
     -0.707  0.1709E-03  0.7887E-03  0.0000E+00
     -0.634  0.2488E-02  0.1152E-01  0.0000E+00
     -0.560  0.1667E-02  0.7757E-02  0.0000E+00
     -0.487  0.4717E-04  0.7717E-03  0.0000E+00
     -0.414  0.9490E-04  0.4820E-02  0.0000E+00
     -0.340  0.4402E-02  0.7974E-02  0.0000E+00
     -0.267  0.7999E-02  0.1464E-01  0.0000E+00
     -0.194  0.6770E-03  0.6171E-02  0.0000E+00
     -0.120  0.7706E-05  0.4447E-03  0.0000E+00
     -0.047  0.1146E-02  0.5374E-03  0.0000E+00
      0.026  0.1007E-01  0.5909E-02  0.0000E+00
      0.099  0.2888E-01  0.8385E-02  0.0000E+00
      0.173  0.1633E-01  0.2898E-02  0.0000E+00
      0.246  0.5003E-03  0.8452E-04  0.0000E+00
      0.319  0.8819E-03  0.2612E-03  0.0000E+00
      0.393  0.2420E-01  0.9015E-02  0.0000E+00
      0.466  0.3866E-01  0.2065E-01  0.0000E+00
      0.539  0.4707E-02  0.3720E-02  0.0000E+00
      0.613  0.2747E-02  0.4487E-03  0.0000E+00
      0.686  0.3473E-01  0.5666E-02  0.0000E+00
      0.759  0.2651E-01  0.1338E-01  0.0000E+00
      0.833  0.5578E-02  0.1564E-01  0.0000E+00
      0.906  0.3050E-01  0.1576E-01  0.0000E+00
      0.979  0.6879E-01  0.2368E-01  0.0000E+00
      1.053  0.1302E-01  0.7874E-02  0.0000E+00
      1.126  0.2368E-02  0.9948E-02  0.0000E+00
      1.199  0.1911E-02  0.7777E-02  0.0000E+00
      1.273  0.1964E-02  0.5958E-02  0.0000E+00
      1.346  0.1667E-01  0.5522E-02  0.0000E+00
      1.419  0.2325E-01  0.6633E-02  0.0000E+00
      1.493  0.3069E-01  0.6346E-02  0.0000E+00
      1.566  0.3564E-01  0.7722E-02  0.0000E+00
      1.639  0.2446E-01  0.2184E-01  0.0000E+00
      1.712  0.3404E-01  0.9164E-01  0.0000E+00
      1.786  0.2015E-01  0.3855E-01  0.0000E+00
      1.859  0.4857E-02  0.5790E-01  0.0000E+00
      1.932  0.2367E-01  0.4963E-01  0.0000E+00
      2.006  0.3748E-01  0.2639E-01  0.0000E+00
      2.079  0.4765E-02  0.3378E-01  0.0000E+00
      2.152  0.2179E-02  0.1645E-01  0.0000E+00
      2.226  0.6142E-02  0.7464E-02  0.0000E+00
      2.299  0.8461E-02  0.4701E-01  0.0000E+00
      2.372  0.2025E-02  0.6667E-01  0.0000E+00
      2.446  0.6044E-02  0.6848E-01  0.0000E+00
      2.519  0.8109E-02  0.3577E-01  0.0000E+00
      2.592  0.1916E-01  0.4935E-01  0.0000E+00
      2.666  0.4286E-01  0.5571E-01  0.0000E+00
      2.739  0.2094E-01  0.4617E-01  0.0000E+00
      2.812  0.1610E-01  0.3288E-01  0.0000E+00
      2.886  0.3472E-01  0.1855E-01  0.0000E+00
      2.959  0.4364E-02  0.5254E-01  0.0000E+00
      3.032  0.3155E-03  0.5611E-01  0.0000E+00
      3.105  0.4741E-04  0.1437E-01  0.0000E+00
      3.179  0.1897E-02  0.9277E-02  0.0000E+00
      3.252  0.5330E-02  0.3163E-01  0.0000E+00
      3.325  0.1080E-02  0.2551E-01  0.0000E+00
      3.399  0.6192E-03  0.1397E-01  0.0000E+00
      3.472  0.1138E-02  0.1308E-01  0.0000E+00
      3.545  0.1472E-02  0.3100E-02  0.0000E+00
      3.619  0.6943E-02  0.9914E-02  0.0000E+00
      3.692  0.2877E-02  0.3969E-02  0.0000E+00
      3.765  0.5199E-02  0.6860E-02  0.0000E+00
      3.839  0.9519E-03  0.1254E-02  0.0000E+00
      3.912  0.5081E-05  0.6682E-05  0.0000E+00
      3.985  0.5075E-09  0.6663E-09  0.0000E+00
      4.059  0.8061E-15  0.1057E-14  0.0000E+00
      4.132  0.0000E+00  0.0000E+00  0.0000E+00
      4.205  0.0000E+00  0.0000E+00  0.0000E+00
      4.279  0.0000E+00  0.0000E+00  0.0000E+00
      4.352  0.0000E+00  0.0000E+00  0.0000E+00
      4.425  0.0000E+00  0.0000E+00  0.0000E+00
      4.498  0.0000E+00  0.0000E+00  0.0000E+00
      4.572  0.0000E+00  0.0000E+00  0.0000E+00
      4.645  0.0000E+00  0.0000E+00  0.0000E+00
      4.718  0.0000E+00  0.0000E+00  0.0000E+00
      4.792  0.0000E+00  0.0000E+00  0.0000E+00
      4.865  0.0000E+00  0.0000E+00  0.0000E+00
      4.938  0.0000E+00  0.0000E+00  0.0000E+00
      5.012  0.0000E+00  0.0000E+00  0.0000E+00
      5.085  0.0000E+00  0.0000E+00  0.0000E+00
      5.158  0.0000E+00  0.0000E+00  0.0000E+00
      5.232  0.0000E+00  0.0000E+00  0.0000E+00
      5.305  0.0000E+00  0.0000E+00  0.0000E+00
      5.378  0.1765E-15  0.1063E-14  0.0000E+00
      5.452  0.1355E-09  0.8175E-09  0.0000E+00
      5.525  0.1701E-05  0.1028E-04  0.0000E+00
      5.598  0.4365E-03  0.2608E-02  0.0000E+00
      5.672  0.5039E-02  0.2119E-01  0.0000E+00
      5.745  0.1245E-01  0.1454E-01  0.0000E+00
      5.818  0.7028E-02  0.1685E-01  0.0000E+00
      5.891  0.2401E-01  0.3480E-01  0.0000E+00
      5.965  0.1201E-01  0.3462E-01  0.0000E+00
      6.038  0.1009E-02  0.1275E-01  0.0000E+00
      6.111  0.2757E-02  0.3494E-01  0.0000E+00
      6.185  0.5082E-02  0.1810E-01  0.0000E+00
      6.258  0.4361E-02  0.1120E-01  0.0000E+00
      6.331  0.1994E-02  0.1780E-01  0.0000E+00
      6.405  0.2891E-02  0.2700E-01  0.0000E+00
      6.478  0.6858E-02  0.2091E-01  0.0000E+00
      6.551  0.1681E-01  0.6529E-01  0.0000E+00
      6.625  0.7881E-02  0.3891E-01  0.0000E+00
      6.698  0.5857E-02  0.1754E-01  0.0000E+00
      6.771  0.1653E-01  0.4580E-01  0.0000E+00
      6.845  0.1417E-01  0.3110E-01  0.0000E+00
      6.918  0.3181E-01  0.5695E-01  0.0000E+00
      6.991  0.8736E-02  0.2585E-01  0.0000E+00
      7.065  0.2725E-01  0.2873E-01  0.0000E+00
      7.138  0.5164E-01  0.2796E-01  0.0000E+00
      7.211  0.3983E-01  0.5046E-02  0.0000E+00
      7.284  0.2907E-01  0.1874E-01  0.0000E+00
      7.358  0.2853E-01  0.1995E-01  0.0000E+00
      7.431  0.1421E-02  0.9965E-03  0.0000E+00
      7.504  0.1886E-05  0.1325E-05  0.0000E+00
      7.578  0.4659E-10  0.3276E-10  0.0000E+00
      7.651  0.1893E-16  0.1332E-16  0.0000E+00
      7.724  0.0000E+00  0.0000E+00  0.0000E+00
      7.798  0.4078E-14  0.6258E-14  0.0000E+00
      7.871  0.6039E-09  0.9243E-09  0.0000E+00
      7.944  0.1477E-05  0.2255E-05  0.0000E+00
      8.018  0.7615E-04  0.1171E-03  0.0000E+00
      8.091  0.1428E-03  0.2314E-03  0.0000E+00
      8.164  0.1190E-04  0.2491E-04  0.0000E+00
      8.238  0.2604E-07  0.1463E-06  0.0000E+00
      8.311  0.1219E-07  0.9518E-07  0.0000E+00
      8.384  0.5215E-05  0.4127E-04  0.0000E+00
      8.458  0.5832E-04  0.4700E-03  0.0000E+00
      8.531  0.2943E-04  0.2512E-03  0.0000E+00
      8.604  0.1071E-05  0.2157E-04  0.0000E+00
      8.677  0.9897E-03  0.2154E-04  0.0000E+00
      8.751  0.4082E-01  0.8307E-03  0.0000E+00
      8.824  0.6226E-01  0.1277E-02  0.0000E+00
      8.897  0.3478E-01  0.1645E-02  0.0000E+00
      8.971  0.9329E-01  0.6521E-02  0.0000E+00
      9.044  0.1272E-01  0.9724E-02  0.0000E+00
      9.117  0.1249E-01  0.3741E-01  0.0000E+00
      9.191  0.9040E-01  0.2354E+00  0.0000E+00
      9.264  0.1858E+00  0.3641E+00  0.0000E+00
      9.337  0.3329E+00  0.4483E+00  0.0000E+00
      9.411  0.1888E+00  0.1540E+00  0.0000E+00
      9.484  0.1465E+00  0.1743E+00  0.0000E+00
      9.557  0.7324E-01  0.6513E-01  0.0000E+00
      9.631  0.5107E-01  0.1078E-01  0.0000E+00
      9.704  0.4125E-01  0.1187E+00  0.0000E+00
      9.777  0.3138E+00  0.3737E+00  0.0000E+00
      9.851  0.3980E+00  0.3573E+00  0.0000E+00
      9.924  0.5599E-01  0.5121E-01  0.0000E+00
      9.997  0.1432E+00  0.2326E+00  0.0000E+00
     10.070  0.1544E+00  0.4466E+00  0.0000E+00
     10.144  0.1340E-01  0.1748E+00  0.0000E+00
     10.217  0.2819E-03  0.7844E-02  0.0000E+00
     10.290  0.4935E-04  0.3083E-02  0.0000E+00
     10.364  0.5450E-05  0.3252E-03  0.0000E+00
     10.437  0.1820E-07  0.9932E-06  0.0000E+00
     10.510  0.1147E-11  0.5681E-10  0.0000E+00
     10.584  0.1135E-17  0.5135E-16  0.0000E+00
     10.657  0.0000E+00  0.0000E+00  0.0000E+00
     10.730  0.0000E+00  0.0000E+00  0.0000E+00
     10.804  0.0000E+00  0.0000E+00  0.0000E+00
     10.877  0.0000E+00  0.0000E+00  0.0000E+00
     10.950  0.0000E+00  0.0000E+00  0.0000E+00
     11.024  0.0000E+00  0.0000E+00  0.0000E+00
     11.097  0.0000E+00  0.0000E+00  0.0000E+00
     11.170  0.0000E+00  0.0000E+00  0.0000E+00
     11.244  0.0000E+00  0.0000E+00  0.0000E+00
     11.24355265    -10.75129066  301      3.98983662      1.00000000
    -10.751  0.0000E+00  0.0000E+00  0.0000E+00
    -10.678  0.0000E+00  0.0000E+00  0.0000E+00
    -10.605  0.0000E+00  0.0000E+00  0.0000E+00
    -10.531  0.0000E+00  0.0000E+00  0.0000E+00
    -10.458  0.0000E+00  0.0000E+00  0.0000E+00
    -10.385  0.0000E+00  0.0000E+00  0.0000E+00
    -10.311  0.0000E+00  0.0000E+00  0.0000E+00
    -10.238  0.0000E+00  0.0000E+00  0.0000E+00
    -10.165  0.0000E+00  0.0000E+00  0.0000E+00
    -10.091  0.0000E+00  0.0000E+00  0.0000E+00
    -10.018  0.4676E-16  0.9835E-18  0.0000E+00
     -9.945  0.4579E-10  0.9631E-12  0.0000E+00
     -9.871  0.6908E-06  0.1453E-07  0.0000E+00
     -9.798  0.1864E-03  0.3919E-05  0.0000E+00
     -9.725  0.1363E-02  0.2866E-04  0.0000E+00
     -9.652  0.4463E-03  0.9387E-05  0.0000E+00
     -9.578  0.5116E-05  0.2551E-06  0.0000E+00
     -9.505  0.2422E-03  0.8525E-04  0.0000E+00
     -9.432  0.3733E-02  0.1274E-02  0.0000E+00
     -9.358  0.2705E-02  0.9069E-03  0.0000E+00
     -9.285  0.9931E-04  0.4989E-04  0.0000E+00
     -9.212  0.6478E-03  0.8951E-03  0.0000E+00
     -9.138  0.2919E-02  0.3120E-02  0.0000E+00
     -9.065  0.2614E-02  0.2356E-02  0.0000E+00
     -8.992  0.1879E-03  0.1921E-03  0.0000E+00
     -8.918  0.7819E-03  0.1724E-02  0.0000E+00
     -8.845  0.1327E-02  0.2691E-02  0.0000E+00
     -8.772  0.2718E-03  0.4569E-03  0.0000E+00
     -8.698  0.1175E-02  0.1698E-02  0.0000E+00
     -8.625  0.4759E-03  0.7971E-03  0.0000E+00
     -8.552  0.2850E-04  0.2316E-02  0.0000E+00
     -8.478  0.2057E-04  0.1606E-02  0.0000E+00
     -8.405  0.7802E-03  0.7857E-03  0.0000E+00
     -8.332  0.5474E-02  0.8441E-02  0.0000E+00
     -8.259  0.5959E-02  0.1120E-01  0.0000E+00
     -8.185  0.2553E-02  0.5402E-02  0.0000E+00
     -8.112  0.1137E-02  0.5609E-02  0.0000E+00
     -8.039  0.5080E-03  0.3018E-02  0.0000E+00
     -7.965  0.1201E-02  0.2807E-02  0.0000E+00
     -7.892  0.7742E-03  0.7417E-03  0.0000E+00
     -7.819  0.4108E-04  0.1626E-04  0.0000E+00
     -7.745  0.7201E-07  0.1843E-07  0.0000E+00
     -7.672  0.2336E-11  0.5101E-12  0.0000E+00
     -7.599  0.1167E-17  0.2326E-18  0.0000E+00
     -7.525  0.0000E+00  0.0000E+00  0.0000E+00
     -7.452  0.0000E+00  0.0000E+00  0.0000E+00
     -7.379  0.0000E+00  0.0000E+00  0.0000E+00
     -7.305  0.0000E+00  0.0000E+00  0.0000E+00
     -7.232  0.0000E+00  0.0000E+00  0.0000E+00
     -7.159  0.0000E+00  0.0000E+00  0.0000E+00
     -7.085  0.0000E+00  0.0000E+00  0.0000E+00
     -7.012  0.0000E+00  0.0000E+00  0.0000E+00
     -6.939  0.0000E+00  0.0000E+00  0.0000E+00
     -6.866  0.0000E+00  0.0000E+00  0.0000E+00
     -6.792  0.0000E+00  0.0000E+00  0.0000E+00
     -6.719  0.0000E+00  0.0000E+00  0.0000E+00
     -6.646  0.0000E+00  0.0000E+00  0.0000E+00
     -6.572  0.0000E+00  0.0000E+00  0.0000E+00
     -6.499  0.0000E+00  0.0000E+00  0.0000E+00
     -6.426  0.0000E+00  0.0000E+00  0.0000E+00
     -6.352  0.0000E+00  0.0000E+00  0.0000E+00
     -6.279  0.0000E+00  0.0000E+00  0.0000E+00
     -6.206  0.0000E+00  0.0000E+00  0.0000E+00
     -6.132  0.0000E+00  0.0000E+00  0.0000E+00
     -6.059  0.0000E+00  0.0000E+00  0.0000E+00
     -5.986  0.0000E+00  0.0000E+00  0.0000E+00
     -5.912  0.0000E+00  0.0000E+00  0.0000E+00
     -5.839  0.7938E-18  0.4058E-17  0.0000E+00
     -5.766  0.8462E-12  0.4382E-11  0.0000E+00
     -5.692  0.1404E-07  0.7366E-07  0.0000E+00
     -5.619  0.4188E-05  0.2227E-04  0.0000E+00
     -5.546  0.3366E-04  0.1811E-03  0.0000E+00
     -5.473  0.1214E-04  0.6603E-04  0.0000E+00
     -5.399  0.5333E-06  0.2208E-05  0.0000E+00
     -5.326  0.2990E-04  0.1079E-03  0.0000E+00
     -5.253  0.7861E-04  0.2820E-03  0.0000E+00
     -5.179  0.9418E-05  0.3360E-04  0.0000E+00
     -5.106  0.5151E-07  0.3933E-06  0.0000E+00
     -5.033  0.6353E-05  0.8564E-04  0.0000E+00
     -4.959  0.8653E-04  0.7321E-03  0.0000E+00
     -4.886  0.5485E-03  0.5599E-03  0.0000E+00
     -4.813  0.2013E-02  0.6147E-03  0.0000E+00
     -4.739  0.5223E-03  0.1432E-03  0.0000E+00
     -4.666  0.1094E-03  0.6957E-04  0.0000E+00
     -4.593  0.3080E-03  0.1757E-03  0.0000E+00
     -4.519  0.7802E-04  0.3936E-04  0.0000E+00
     -4.446  0.9213E-06  0.4455E-06  0.0000E+00
     -4.373  0.9048E-08  0.1690E-08  0.0000E+00
     -4.299  0.7539E-05  0.1349E-05  0.0000E+00
     -4.226  0.1489E-03  0.2667E-04  0.0000E+00