 vasp.5.4.4.18Apr17-6-g9f103f2a35 (build Oct 27 2022 13:04:57) complex          
  
 executed on             LinuxIFC date 2024.07.04  02:01:25
 running on   14 total cores
 distrk:  each k-point on   14 cores,    1 groups
 distr:  one band on NCORES_PER_BAND=   1 cores,   14 groups


--------------------------------------------------------------------------------------------------------


 INCAR:
 POTCAR:    PAW_PBE Li 17Jan2003                  
 POTCAR:    PAW_PBE Sb 06Sep2000                  
 POTCAR:    PAW_PBE Se 06Sep2000                  

 ----------------------------------------------------------------------------- 
|                                                                             |
|           W    W    AA    RRRRR   N    N  II  N    N   GGGG   !!!           |
|           W    W   A  A   R    R  NN   N  II  NN   N  G    G  !!!           |
|           W    W  A    A  R    R  N N  N  II  N N  N  G       !!!           |
|           W WW W  AAAAAA  RRRRR   N  N N  II  N  N N  G  GGG   !            |
|           WW  WW  A    A  R   R   N   NN  II  N   NN  G    G                |
|           W    W  A    A  R    R  N    N  II  N    N   GGGG   !!!           |
|                                                                             |
|      For optimal performance we recommend to set                            |
|        NCORE= 4 - approx SQRT( number of cores)                             |
|      NCORE specifies how many cores store one orbital (NPAR=cpu/NCORE).     |
|      This setting can  greatly improve the performance of VASP for DFT.     |
|      The default,   NCORE=1            might be grossly inefficient         |
|      on modern multi-core architectures or massively parallel machines.     |
|      Do your own testing !!!!                                               |
|      Unfortunately you need to use the default for GW and RPA calculations. |
|      (for HF NCORE is supported but not extensively tested yet)             |
|                                                                             |
 ----------------------------------------------------------------------------- 

 POTCAR:    PAW_PBE Li 17Jan2003                  
   VRHFIN =Li: s1p0                                                             
   LEXCH  = PE                                                                  
   EATOM  =     5.3001 eV,    0.3895 Ry                                         
                                                                                
   TITEL  = PAW_PBE Li 17Jan2003                                                
   LULTRA =        F    use ultrasoft PP ?                                      
   IUNSCR =        1    unscreen: 0-lin 1-nonlin 2-no                           
   RPACOR =    1.500    partial core radius                                     
   POMASS =    7.010; ZVAL   =    1.000    mass and valenz                      
   RCORE  =    2.050    outmost cutoff radius                                   
   RWIGS  =    2.600; RWIGS  =    1.376    wigner-seitz radius (au A)           
   ENMAX  =  140.000; ENMIN  =  100.000 eV                                      
   ICORE  =        2    local potential                                         
   LCOR   =        T    correct aug charges                                     
   LPAW   =        T    paw PP                                                  
   EAUG   =  331.638                                                            
   DEXC   =    0.000                                                            
   RMAX   =    2.098    core radius for proj-oper                               
   RAUG   =    1.300    factor for augmentation sphere                          
   RDEP   =    2.094    radius for radial grids                                 
   RDEPT  =    1.810    core radius for aug-charge                              
                                                                                
   Atomic configuration                                                         
    4 entries                                                                   
     n  l   j            E        occ.                                          
     1  0  0.50       -51.8549   2.0000                                         
     2  0  0.50        -2.8742   1.0000                                         
     2  1  0.50        -1.3606   0.0000                                         
     3  2  1.50        -1.3606   0.0000                                         
   Description                                                                  
     l       E           TYP  RCUT    TYP  RCUT                                 
     0     -2.8742052     23  2.050                                             
     0     27.2116520     23  2.050                                             
     1     -1.3605826     23  2.050                                             
     2     -1.3605826     23  2.050                                             
  local pseudopotential read in
  partial core-charges read in
  partial kinetic energy density read in
  atomic valenz-charges read in
  non local Contribution for L=           0  read in
    real space projection operators read in
  non local Contribution for L=           0  read in
    real space projection operators read in
  non local Contribution for L=           1  read in
    real space projection operators read in
    PAW grid and wavefunctions read in
 
   number of l-projection  operators is LMAX  =           3
   number of lm-projection operators is LMMAX =           5
 
 POTCAR:    PAW_PBE Sb 06Sep2000                  
   VRHFIN =Sb: s2p3                                                             
   LEXCH  = PE                                                                  
   EATOM  =   149.9515 eV,   11.0211 Ry                                         
                                                                                
   TITEL  = PAW_PBE Sb 06Sep2000                                                
   LULTRA =        F    use ultrasoft PP ?                                      
   IUNSCR =        1    unscreen: 0-lin 1-nonlin 2-no                           
   RPACOR =    2.200    partial core radius                                     
   POMASS =  121.750; ZVAL   =    5.000    mass and valenz                      
   RCORE  =    2.300    outmost cutoff radius                                   
   RWIGS  =    2.980; RWIGS  =    1.577    wigner-seitz radius (au A)           
   ENMAX  =  172.069; ENMIN  =  129.052 eV                                      
   ICORE  =        3    local potential                                         
   LCOR   =        T    correct aug charges                                     
   LPAW   =        T    paw PP                                                  
   EAUG   =  380.513                                                            
   DEXC   =    0.000                                                            
   RMAX   =    2.346    core radius for proj-oper                               
   RAUG   =    1.300    factor for augmentation sphere                          
   RDEP   =    2.360    radius for radial grids                                 
   RDEPT  =    2.192    core radius for aug-charge                              
                                                                                
   Atomic configuration                                                         
   13 entries                                                                   
     n  l   j            E        occ.                                          
     1  0  0.50    -30298.2797   2.0000                                         
     2  0  0.50     -4610.2252   2.0000                                         
     2  1  1.50     -4138.3407   6.0000                                         
     3  0  0.50      -903.8815   2.0000                                         
     3  1  1.50      -750.1337   6.0000                                         
     3  2  2.50      -515.7092  10.0000                                         
     4  0  0.50      -148.8034   2.0000                                         
     4  1  1.50      -101.7581   6.0000                                         
     4  2  2.50       -33.5048  10.0000                                         
     5  0  0.50       -12.8298   2.0000                                         
     5  1  0.50        -4.8276   3.0000                                         
     5  2  1.50        -4.0817   0.0000                                         
     4  3  2.50        -4.0817   0.0000                                         
   Description                                                                  
     l       E           TYP  RCUT    TYP  RCUT                                 
     0    -12.8297861     23  2.300                                             
     0     13.6058260     23  2.300                                             
     1     -4.8275512     23  2.300                                             
     1     -0.7245443     23  2.300                                             
     2     -4.0817478     23  2.300                                             
     3     -1.3605826     23  2.300                                             
  local pseudopotential read in
  partial core-charges read in
  partial kinetic energy density read in
  atomic valenz-charges read in
  non local Contribution for L=           0  read in
    real space projection operators read in
  non local Contribution for L=           0  read in
    real space projection operators read in
  non local Contribution for L=           1  read in
    real space projection operators read in
  non local Contribution for L=           1  read in
    real space projection operators read in
  non local Contribution for L=           2  read in
    real space projection operators read in
    PAW grid and wavefunctions read in
 
   number of l-projection  operators is LMAX  =           5
   number of lm-projection operators is LMMAX =          13
 
 POTCAR:    PAW_PBE Se 06Sep2000                  
   VRHFIN =Se: s2p4                                                             
   LEXCH  = PE                                                                  
   EATOM  =   257.1286 eV,   18.8984 Ry                                         
                                                                                
   TITEL  = PAW_PBE Se 06Sep2000                                                
   LULTRA =        F    use ultrasoft PP ?                                      
   IUNSCR =        1    unscreen: 0-lin 1-nonlin 2-no                           
   RPACOR =    1.900    partial core radius                                     
   POMASS =   78.960; ZVAL   =    6.000    mass and valenz                      
   RCORE  =    2.100    outmost cutoff radius                                   
   RWIGS  =    2.200; RWIGS  =    1.164    wigner-seitz radius (au A)           
   ENMAX  =  211.555; ENMIN  =  158.666 eV                                      
   ICORE  =        3    local potential                                         
   LCOR   =        T    correct aug charges                                     
   LPAW   =        T    paw PP                                                  
   EAUG   =  446.842                                                            
   DEXC   =    0.000                                                            
   RMAX   =    2.147    core radius for proj-oper                               
   RAUG   =    1.300    factor for augmentation sphere                          
   RDEP   =    2.177    radius for radial grids                                 
   RDEPT  =    1.928    core radius for aug-charge                              
                                                                                
   Atomic configuration                                                         
   10 entries                                                                   
     n  l   j            E        occ.                                          
     1  0  0.50    -12503.4787   2.0000                                         
     2  0  0.50     -1606.9547   2.0000                                         
     2  1  1.50     -1413.3140   6.0000                                         
     3  0  0.50      -213.4885   2.0000                                         
     3  1  1.50      -152.9538   6.0000                                         
     3  2  2.50       -53.1221  10.0000                                         
     4  0  0.50       -17.2865   2.0000                                         
     4  1  0.50        -6.5110   4.0000                                         
     4  2  2.50        -6.8029   0.0000                                         
     4  3  2.50        -6.8029   0.0000                                         
   Description                                                                  
     l       E           TYP  RCUT    TYP  RCUT                                 
     0    -17.2865377     23  2.100                                             
     0    -15.3094411     23  2.100                                             
     1     -6.5110275     23  2.100                                             
     1     -0.0695192     23  2.100                                             
     2     -6.8029130     23  2.100                                             
     3     -1.3605826      7  2.100                                             
  local pseudopotential read in
  partial core-charges read in
  partial kinetic energy density read in
  atomic valenz-charges read in
  non local Contribution for L=           0  read in
    real space projection operators read in
  non local Contribution for L=           0  read in
    real space projection operators read in
  non local Contribution for L=           1  read in
    real space projection operators read in
  non local Contribution for L=           1  read in
    real space projection operators read in
  non local Contribution for L=           2  read in
    real space projection operators read in
    PAW grid and wavefunctions read in
 
   number of l-projection  operators is LMAX  =           5
   number of lm-projection operators is LMMAX =          13
 
 Optimization of the real space projectors (new method)

 maximal supplied QI-value         = 18.33
 optimisation between [QCUT,QGAM] = [  8.80, 17.60] = [ 21.68, 86.71] Ry 
 Optimized for a Real-space Cutoff    1.15 Angstroem

   l    n(q)    QCUT    max X(q) W(low)/X(q) W(high)/X(q)  e(spline) 
   0      6     8.799    33.825    0.11E-02    0.11E-02    0.82E-07
   0      6     8.799     8.944    0.75E-03    0.85E-03    0.59E-07
   1      5     8.799     4.214    0.92E-03    0.27E-03    0.41E-07
 Optimization of the real space projectors (new method)

 maximal supplied QI-value         = 16.25
 optimisation between [QCUT,QGAM] = [  8.78, 17.71] = [ 21.57, 87.87] Ry 
 Optimized for a Real-space Cutoff    1.26 Angstroem

   l    n(q)    QCUT    max X(q) W(low)/X(q) W(high)/X(q)  e(spline) 
   0      7     8.776    19.000    0.12E-02    0.42E-03    0.95E-07
   0      7     8.776     9.057    0.14E-02    0.54E-03    0.11E-06
   1      6     8.776   125.345    0.45E-03    0.22E-02    0.77E-07
   1      6     8.776    79.963    0.45E-03    0.21E-02    0.76E-07
   2      6     8.776     6.963    0.11E-02    0.51E-03    0.39E-07
 Optimization of the real space projectors (new method)

 maximal supplied QI-value         = 17.95
 optimisation between [QCUT,QGAM] = [  8.80, 17.59] = [ 21.67, 86.68] Ry 
 Optimized for a Real-space Cutoff    1.19 Angstroem

   l    n(q)    QCUT    max X(q) W(low)/X(q) W(high)/X(q)  e(spline) 
   0      6     8.797   133.320    0.14E-02    0.11E-02    0.95E-07
   0      6     8.797   111.601    0.15E-02    0.12E-02    0.10E-06
   1      6     8.797    47.222    0.19E-02    0.96E-03    0.11E-06
   1      6     8.797    33.775    0.19E-02    0.99E-03    0.11E-06
   2      5     8.797     3.720    0.16E-02    0.14E-02    0.40E-07
  PAW_PBE Li 17Jan2003                  :
 energy of atom  1       EATOM=   -5.3001
 kinetic energy error for atom=    0.0000 (will be added to EATOM!!)
  PAW_PBE Sb 06Sep2000                  :
 energy of atom  2       EATOM= -149.9515
 kinetic energy error for atom=    0.0018 (will be added to EATOM!!)
  PAW_PBE Se 06Sep2000                  :
 energy of atom  3       EATOM= -257.1286
 kinetic energy error for atom=    0.0040 (will be added to EATOM!!)
 
 
 POSCAR: Li4 Sb4 Se8                             
  positions in direct lattice
  No initial velocities read in
 exchange correlation table for  LEXCH =        8
   RHO(1)=    0.500       N(1)  =     2000
   RHO(2)=  100.500       N(2)  =     4000
 


--------------------------------------------------------------------------------------------------------


 ion  position               nearest neighbor table
   1  0.517  0.738  0.881-
   2  0.483  0.262  0.119-
   3  0.984  0.737  0.619-
   4  0.016  0.263  0.381-
   5  0.037  0.796  0.121-  11 2.58  16 2.58  14 2.90  12 2.93
   6  0.963  0.204  0.879-  12 2.58  15 2.58  13 2.90  11 2.93
   7  0.463  0.795  0.379-   9 2.58  14 2.58  16 2.90  10 2.93
   8  0.537  0.205  0.621-  10 2.58  13 2.58  15 2.90   9 2.93
   9  0.517  0.186  0.384-   7 2.58   8 2.93
  10  0.483  0.814  0.616-   8 2.58   7 2.93
  11  0.983  0.186  0.115-   5 2.58   6 2.93
  12  0.017  0.814  0.885-   6 2.58   5 2.93
  13  0.932  0.230  0.645-   8 2.58   6 2.90
  14  0.068  0.770  0.355-   7 2.58   5 2.90
  15  0.568  0.231  0.855-   6 2.58   8 2.90
  16  0.432  0.769  0.145-   5 2.58   7 2.90
 
  LATTYP: Found a triclinic cell.
 ALAT       =     6.5798618772
 B/A-ratio  =     2.2511181413
 C/A-ratio  =     0.9954268990
 COS(alpha) =     0.0001051169
 COS(beta)  =     0.0013766762
 COS(gamma) =     0.5517367503
  
  Lattice vectors:
  
 A1 = (   6.4569994200,   0.7907541400,  -0.9881541900)
 A2 = (   6.3097297400,  -0.2637628100, -13.3983006200)
 A3 = (  -0.8651498400,   6.4702543800,  -0.5355658400)


Analysis of symmetry for initial positions (statically):
=====================================================================
 Subroutine PRICEL returns:
 Original cell was already a primitive cell.
 

 Routine SETGRP: Setting up the symmetry group for a 
 triclinic supercell.


 Subroutine GETGRP returns: Found  2 space group operations
 (whereof  2 operations were pure point group operations)
 out of a pool of  2 trial point group operations.


The static configuration has the point symmetry S_2 .


Analysis of symmetry for dynamics (positions and initial velocities):
=====================================================================
 Subroutine PRICEL returns:
 Original cell was already a primitive cell.
 

 Routine SETGRP: Setting up the symmetry group for a 
 triclinic supercell.


 Subroutine GETGRP returns: Found  2 space group operations
 (whereof  2 operations were pure point group operations)
 out of a pool of  2 trial point group operations.


The dynamic configuration has the point symmetry S_2 .


 Subroutine INISYM returns: Found  2 space group operations
 (whereof  2 operations are pure point group operations),
 and found     1 'primitive' translations

 
 
 KPOINTS: pymatgen with grid density = 807 / numbe

Automatic generation of k-mesh.
Space group operators:
 irot       det(A)        alpha          n_x          n_y          n_z        tau_x        tau_y        tau_z
    1     1.000000     0.000000     1.000000     0.000000     0.000000     0.000000     0.000000     0.000000
    2    -1.000000     0.000000     1.000000     0.000000     0.000000     0.000000     0.000000     0.000000
 
 Subroutine IBZKPT returns following result:
 ===========================================
 
 Found      9 irreducible k-points:
 
 Following reciprocal coordinates:
            Coordinates               Weight
  0.000000  0.000000  0.250000      2.000000
  0.333333 -0.000000  0.250000      2.000000
 -0.333333 -0.000000  0.250000      2.000000
 -0.000000  0.333333  0.250000      2.000000
  0.333333  0.333333  0.250000      2.000000
 -0.333333  0.333333  0.250000      2.000000
 -0.000000 -0.333333  0.250000      2.000000
  0.333333 -0.333333  0.250000      2.000000
 -0.333333 -0.333333  0.250000      2.000000
 
 Following cartesian coordinates:
            Coordinates               Weight
  0.002803  0.002025  0.019939      2.000000
  0.053431  0.008698  0.018772      2.000000
 -0.047824 -0.004648  0.021107      2.000000
 -0.003993  0.052287  0.015749      2.000000
  0.046634  0.058960  0.014581      2.000000
 -0.054621  0.045615  0.016917      2.000000
  0.009600 -0.048237  0.024130      2.000000
  0.060228 -0.041564  0.022962      2.000000
 -0.041028 -0.054910  0.025297      2.000000
 


--------------------------------------------------------------------------------------------------------




 Dimension of arrays:
   k-points           NKPTS =      9   k-points in BZ     NKDIM =      9   number of bands    NBANDS=     56
   number of dos      NEDOS =    301   number of ions     NIONS =     16
   non local maximal  LDIM  =      5   non local SUM 2l+1 LMDIM =     13
   total plane-waves  NPLWV =  42336
   max r-space proj   IRMAX =    713   max aug-charges    IRDMAX=   2901
   dimension x,y,z NGX =    28 NGY =   28 NGZ =   54
   dimension x,y,z NGXF=    48 NGYF=   48 NGZF=   90
   support grid    NGXF=    48 NGYF=   48 NGZF=   90
   ions per type =               4   4   8
   NGX,Y,Z   is equivalent  to a cutoff of   7.07,  7.11,  7.21 a.u.
   NGXF,Y,Z  is equivalent  to a cutoff of  12.13, 12.18, 12.01 a.u.

 SYSTEM =  CIS                                     
 POSCAR =  Li4 Sb4 Se8                             

 Startparameter for this run:
   NWRITE =      2    write-flag & timer
   PREC   = medium    normal or accurate (medium, high low for compatibility)
   ISTART =      0    job   : 0-new  1-cont  2-samecut
   ICHARG =      2    charge: 1-file 2-atom 10-const
   ISPIN  =      1    spin polarized calculation?
   LNONCOLLINEAR =      F non collinear calculations
   LSORBIT =      F    spin-orbit coupling
   INIWAV =      1    electr: 0-lowe 1-rand  2-diag
   LASPH  =      T    aspherical Exc in radial PAW
   METAGGA=      F    non-selfconsistent MetaGGA calc.

 Electronic Relaxation 1
   ENCUT  =  300.0 eV  22.05 Ry    4.70 a.u.   9.29  9.25 17.59*2*pi/ulx,y,z
   ENINI  =  300.0     initial cutoff
   ENAUG  =  446.8 eV  augmentation charge cutoff
   NELM   =     60;   NELMIN=  2; NELMDL= -5     # of ELM steps 
   EDIFF  = 0.1E-03   stopping-criterion for ELM
   LREAL  =      T    real-space projection
   NLSPLINE    = F    spline interpolate recip. space projectors
   LCOMPAT=      F    compatible to vasp.4.4
   GGA_COMPAT  = T    GGA compatible to vasp.4.4-vasp.4.6
   LMAXPAW     = -100 max onsite density
   LMAXMIX     =    4 max onsite mixed and CHGCAR
   VOSKOWN=      0    Vosko Wilk Nusair interpolation
   ROPT   =   -0.00200  -0.00200  -0.00200
 Ionic relaxation
   EDIFFG = -.5E-01   stopping-criterion for IOM
   NSW    =     99    number of steps for IOM
   NBLOCK =      1;   KBLOCK =     99    inner block; outer block 
   IBRION =      2    ionic relax: 0-MD 1-quasi-New 2-CG
   NFREE  =      1    steps in history (QN), initial steepest desc. (CG)
   ISIF   =      3    stress and relaxation
   IWAVPR =     11    prediction:  0-non 1-charg 2-wave 3-comb
   ISYM   =      2    0-nonsym 1-usesym 2-fastsym
   LCORR  =      T    Harris-Foulkes like correction to forces

   POTIM  = 0.1000    time-step for ionic-motion
   TEIN   =    0.0    initial temperature
   TEBEG  =    0.0;   TEEND  =   0.0 temperature during run
   SMASS  =  -3.00    Nose mass-parameter (am)
   estimated Nose-frequenzy (Omega)   =  0.10E-29 period in steps =****** mass=  -0.989E-27a.u.
   SCALEE = 1.0000    scale energy and forces
   NPACO  =    256;   APACO  = 16.0  distance and # of slots for P.C.
   PSTRESS=    0.0 pullay stress

  Mass of Ions in am
   POMASS =   7.01121.75 78.96
  Ionic Valenz
   ZVAL   =   1.00  5.00  6.00
  Atomic Wigner-Seitz radii
   RWIGS  =  -1.00 -1.00 -1.00
  virtual crystal weights 
   VCA    =   1.00  1.00  1.00
   NELECT =      72.0000    total number of electrons
   NUPDOWN=      -1.0000    fix difference up-down

 DOS related values:
   EMIN   =  10.00;   EMAX   =-10.00  energy-range for DOS
   EFERMI =   0.00
   ISMEAR =     0;   SIGMA  =   0.05  broadening in eV -4-tet -1-fermi 0-gaus

 Electronic relaxation 2 (details)
   IALGO  =     38    algorithm
   LDIAG  =      T    sub-space diagonalisation (order eigenvalues)
   LSUBROT=      F    optimize rotation matrix (better conditioning)
   TURBO    =      0    0=normal 1=particle mesh
   IRESTART =      0    0=no restart 2=restart with 2 vectors
   NREBOOT  =      0    no. of reboots
   NMIN     =      0    reboot dimension
   EREF     =   0.00    reference energy to select bands
   IMIX   =      4    mixing-type and parameters
     AMIX     =   0.40;   BMIX     =  1.00
     AMIX_MAG =   1.60;   BMIX_MAG =  1.00
     AMIN     =   0.10
     WC   =   100.;   INIMIX=   1;  MIXPRE=   1;  MAXMIX= -45

 Intra band minimization:
   WEIMIN = 0.0010     energy-eigenvalue tresh-hold
   EBREAK =  0.45E-06  absolut break condition
   DEPER  =   0.30     relativ break condition  

   TIME   =   0.40     timestep for ELM

  volume/ion in A,a.u.               =      33.27       224.55
  Fermi-wavevector in a.u.,A,eV,Ry     =   0.840313  1.587962  9.607437  0.706127
  Thomas-Fermi vector in A             =   1.954675
 
 Write flags
   LWAVE        =      F    write WAVECAR
   LDOWNSAMPLE  =      F    k-point downsampling of WAVECAR
   LCHARG       =      F    write CHGCAR
   LVTOT        =      F    write LOCPOT, total local potential
   LVHAR        =      F    write LOCPOT, Hartree potential only
   LELF         =      F    write electronic localiz. function (ELF)
   LORBIT       =     10    0 simple, 1 ext, 2 COOP (PROOUT), +10 PAW based schemes


 Dipole corrections
   LMONO  =      F    monopole corrections only (constant potential shift)
   LDIPOL =      F    correct potential (dipole corrections)
   IDIPOL =      0    1-x, 2-y, 3-z, 4-all directions 
   EPSILON=  1.0000000 bulk dielectric constant

 Exchange correlation treatment:
   GGA     =    --    GGA type
   LEXCH   =     8    internal setting for exchange type
   VOSKOWN=      0    Vosko Wilk Nusair interpolation
   LHFCALC =     F    Hartree Fock is set to
   LHFONE  =     F    Hartree Fock one center treatment
   AEXX    =    0.0000 exact exchange contribution

 Linear response parameters
   LEPSILON=     F    determine dielectric tensor
   LRPA    =     F    only Hartree local field effects (RPA)
   LNABLA  =     F    use nabla operator in PAW spheres
   LVEL    =     F    velocity operator in full k-point grid
   LINTERFAST=   F  fast interpolation
   KINTER  =     0    interpolate to denser k-point grid
   CSHIFT  =0.1000    complex shift for real part using Kramers Kronig
   OMEGAMAX=  -1.0    maximum frequency
   DEG_THRESHOLD= 0.2000000E-02 threshold for treating states as degnerate
   RTIME   =   -0.100 relaxation time in fs
  (WPLASMAI=    0.000 imaginary part of plasma frequency in eV, 0.658/RTIME)
   DFIELD  = 0.0000000 0.0000000 0.0000000 field for delta impulse in time
 
 Orbital magnetization related:
   ORBITALMAG=     F  switch on orbital magnetization
   LCHIMAG   =     F  perturbation theory with respect to B field
   DQ        =  0.001000  dq finite difference perturbation B field
   LLRAUG    =     F  two centre corrections for induced B field



--------------------------------------------------------------------------------------------------------


 conjugate gradient relaxation of ions
 charge density and potential will be updated during run
 non-spin polarized calculation
 Variant of blocked Davidson
 Davidson routine will perform the subspace rotation
 perform sub-space diagonalisation
    after iterative eigenvector-optimisation
 modified Broyden-mixing scheme, WC =      100.0
 initial mixing is a Kerker type mixing with AMIX =  0.4000 and BMIX =      1.0000
 Hartree-type preconditioning will be used
 using additional bands           20
 real space projection scheme for non local part
 use partial core corrections
 calculate Harris-corrections to forces 
   (improved forces if not selfconsistent)
 use gradient corrections 
 use of overlap-Matrix (Vanderbilt PP)
 Gauss-broadening in eV      SIGMA  =   0.05


--------------------------------------------------------------------------------------------------------


  energy-cutoff  :      300.00
  volume of cell :      532.39
      direct lattice vectors                 reciprocal lattice vectors
     6.456999420  0.790754140 -0.988154190     0.151882983  0.020018570 -0.003503398
    -0.865149840  6.470254380 -0.535565840    -0.020389792  0.150786551 -0.012570696
     0.147269680  1.054516950 12.410146430     0.011213706  0.008101239  0.079757775

  length of vectors
     6.579861877  6.549771504 12.455738789     0.153236607  0.152677274  0.080948625


 
 k-points in units of 2pi/SCALE and weight: pymatgen with grid density = 807 / numbe
   0.00280343  0.00202531  0.01993944       0.111
   0.05343109  0.00869817  0.01877164       0.111
  -0.04782423 -0.00464755  0.02110724       0.111
  -0.00399317  0.05228749  0.01574921       0.111
   0.04663449  0.05896035  0.01458141       0.111
  -0.05462083  0.04561464  0.01691701       0.111
   0.00960002 -0.04823687  0.02412968       0.111
   0.06022768 -0.04156402  0.02296188       0.111
  -0.04102764 -0.05490973  0.02529747       0.111
 
 k-points in reciprocal lattice and weights: pymatgen with grid density = 807 / numbe
   0.00000000  0.00000000  0.25000000       0.111
   0.33333333 -0.00000000  0.25000000       0.111
  -0.33333333 -0.00000000  0.25000000       0.111
  -0.00000000  0.33333333  0.25000000       0.111
   0.33333333  0.33333333  0.25000000       0.111
  -0.33333333  0.33333333  0.25000000       0.111
  -0.00000000 -0.33333333  0.25000000       0.111
   0.33333333 -0.33333333  0.25000000       0.111
  -0.33333333 -0.33333333  0.25000000       0.111
 
 position of ions in fractional coordinates (direct lattice) 
   0.51696127  0.73781771  0.88080757
   0.48303873  0.26218229  0.11919243
   0.98367476  0.73743148  0.61946244
   0.01632524  0.26256852  0.38053756
   0.03733388  0.79571282  0.12119584
   0.96266612  0.20428718  0.87880416
   0.46308368  0.79527065  0.37915100
   0.53691632  0.20472935  0.62084900
   0.51656990  0.18558520  0.38446004
   0.48343010  0.81441480  0.61553996
   0.98260466  0.18602253  0.11531716
   0.01739534  0.81397747  0.88468284
   0.93178840  0.23024954  0.64474581
   0.06821160  0.76975046  0.35525419
   0.56779112  0.23067466  0.85497141
   0.43220888  0.76932534  0.14502859
 
 position of ions in cartesian coordinates  (Angst):
   2.82941200  6.11148405 10.02496351
   2.90970726  2.20404142  0.86146289
   5.80482666  6.20244780  6.32065414
  -0.06570740  2.11307767  4.56577226
  -0.42949750  5.30578935  1.04100989
   6.16861676  3.00973612  9.84541651
   2.35794022  5.91160990  3.82180156
   3.38117904  2.40391557  7.06462484
   3.23155185  2.01468287  4.16136159
   2.50756741  6.30084260  6.72506481
   6.20072308  2.10221569  0.36051062
  -0.46160382  6.21330978 10.52591578
   5.91230831  2.90648401  6.95732551
  -0.17318905  5.40904146  3.92910089
   3.59257015  2.84308875  9.92571375
   2.14654911  5.47243672  0.96071265
 


--------------------------------------------------------------------------------------------------------


 k-point  1 :   0.0000 0.0000 0.2500  plane waves:    6296
 k-point  2 :   0.3333-0.0000 0.2500  plane waves:    6289
 k-point  3 :  -0.3333-0.0000 0.2500  plane waves:    6291
 k-point  4 :  -0.0000 0.3333 0.2500  plane waves:    6292
 k-point  5 :   0.3333 0.3333 0.2500  plane waves:    6277
 k-point  6 :  -0.3333 0.3333 0.2500  plane waves:    6276
 k-point  7 :  -0.0000-0.3333 0.2500  plane waves:    6293
 k-point  8 :   0.3333-0.3333 0.2500  plane waves:    6281
 k-point  9 :  -0.3333-0.3333 0.2500  plane waves:    6270

 maximum and minimum number of plane-waves per node :      6296     6270

 maximum number of plane-waves:      6296
 maximum index in each direction: 
   IXMAX=    9   IYMAX=    9   IZMAX=   17
   IXMIN=   -9   IYMIN=   -9   IZMIN=  -17


 serial   3D FFT for wavefunctions
 parallel 3D FFT for charge:
    minimum data exchange during FFTs selected (reduces bandwidth)


 total amount of memory used by VASP MPI-rank0    38510. kBytes
=======================================================================

   base      :      30000. kBytes
   nonlr-proj:       1059. kBytes
   fftplans  :        759. kBytes
   grid      :       2830. kBytes
   one-center:        129. kBytes
   wavefun   :       3733. kBytes
 
     INWAV:  cpu time    0.0000: real time    0.0001
 Broyden mixing: mesh for mixing (old mesh)
   NGX = 19   NGY = 19   NGZ = 35
  (NGX  = 48   NGY  = 48   NGZ  = 90)
  gives a total of  12635 points

 initial charge density was supplied:
 charge density of overlapping atoms calculated
 number of electron      72.0000000 magnetization 
 keeping initial charge density in first step


--------------------------------------------------------------------------------------------------------


 Maximum index for non-local projection operator          645
 Maximum index for augmentation-charges          390 (set IRDMAX)


--------------------------------------------------------------------------------------------------------


 First call to EWALD:  gamma=   0.219
 Maximum number of real-space cells 3x 3x 2
 Maximum number of reciprocal cells 2x 2x 4

    FEWALD:  cpu time    0.0019: real time    0.0019


--------------------------------------- Iteration      1(   1)  ---------------------------------------


    POTLOK:  cpu time    0.0185: real time    0.0185
    SETDIJ:  cpu time    0.3182: real time    0.3183
     EDDAV:  cpu time    0.6195: real time    0.6197
       DOS:  cpu time    0.0005: real time    0.0006
    --------------------------------------------
      LOOP:  cpu time    0.9567: real time    0.9571

 eigenvalue-minimisations  :  1008
 total energy-change (2. order) : 0.2657279E+03  (-0.1848944E+04)
 number of electron      72.0000000 magnetization 
 augmentation part       72.0000000 magnetization 

 Free energy of the ion-electron system (eV)
  ---------------------------------------------------
  alpha Z        PSCENC =        57.84903835
  Ewald energy   TEWEN  =     -2086.23039101
  -Hartree energ DENC   =      -561.92121560
  -exchange      EXHF   =         0.00000000
  -V(xc)+E(xc)   XCENC  =      -209.42478440
  PAW double counting   =      2367.77203219    -2019.52408218
  entropy T*S    EENTRO =        -0.00612135
  eigenvalues    EBANDS =        39.21764737
  atomic energy  EATOM  =      2677.99578058
  Solvation  Ediel_sol  =         0.00000000
  ---------------------------------------------------
  free energy    TOTEN  =       265.72790394 eV

  energy without entropy =      265.73402530  energy(sigma->0) =      265.73096462


--------------------------------------------------------------------------------------------------------




--------------------------------------- Iteration      1(   2)  ---------------------------------------


     EDDAV:  cpu time    0.3895: real time    0.3895
       DOS:  cpu time    0.0002: real time    0.0002
    --------------------------------------------
      LOOP:  cpu time    0.3897: real time    0.3897

 eigenvalue-minimisations  :  1302
 total energy-change (2. order) :-0.2974945E+03  (-0.2870558E+03)
 number of electron      72.0000000 magnetization 
 augmentation part       72.0000000 magnetization 

 Free energy of the ion-electron system (eV)
  ---------------------------------------------------
  alpha Z        PSCENC =        57.84903835
  Ewald energy   TEWEN  =     -2086.23039101
  -Hartree energ DENC   =      -561.92121560
  -exchange      EXHF   =         0.00000000
  -V(xc)+E(xc)   XCENC  =      -209.42478440
  PAW double counting   =      2367.77203219    -2019.52408218
  entropy T*S    EENTRO =        -0.00000000
  eigenvalues    EBANDS =      -258.28295533
  atomic energy  EATOM  =      2677.99578058
  Solvation  Ediel_sol  =         0.00000000
  ---------------------------------------------------
  free energy    TOTEN  =       -31.76657741 eV

  energy without entropy =      -31.76657741  energy(sigma->0) =      -31.76657741


--------------------------------------------------------------------------------------------------------




--------------------------------------- Iteration      1(   3)  ---------------------------------------


     EDDAV:  cpu time    0.3322: real time    0.3323
       DOS:  cpu time    0.0002: real time    0.0001
    --------------------------------------------
      LOOP:  cpu time    0.3324: real time    0.3325

 eigenvalue-minimisations  :  1260
 total energy-change (2. order) :-0.2993188E+02  (-0.2965815E+02)
 number of electron      72.0000000 magnetization 
 augmentation part       72.0000000 magnetization 

 Free energy of the ion-electron system (eV)
  ---------------------------------------------------
  alpha Z        PSCENC =        57.84903835
  Ewald energy   TEWEN  =     -2086.23039101
  -Hartree energ DENC   =      -561.92121560
  -exchange      EXHF   =         0.00000000
  -V(xc)+E(xc)   XCENC  =      -209.42478440
  PAW double counting   =      2367.77203219    -2019.52408218
  entropy T*S    EENTRO =        -0.00000000
  eigenvalues    EBANDS =      -288.21483356
  atomic energy  EATOM  =      2677.99578058
  Solvation  Ediel_sol  =         0.00000000
  ---------------------------------------------------
  free energy    TOTEN  =       -61.69845564 eV

  energy without entropy =      -61.69845564  energy(sigma->0) =      -61.69845564


--------------------------------------------------------------------------------------------------------




--------------------------------------- Iteration      1(   4)  ---------------------------------------


     EDDAV:  cpu time    0.4233: real time    0.4233
       DOS:  cpu time    0.0002: real time    0.0002
    --------------------------------------------
      LOOP:  cpu time    0.4235: real time    0.4236

 eigenvalue-minimisations  :  1288
 total energy-change (2. order) :-0.4870264E+00  (-0.4863939E+00)
 number of electron      72.0000000 magnetization 
 augmentation part       72.0000000 magnetization 

 Free energy of the ion-electron system (eV)
  ---------------------------------------------------
  alpha Z        PSCENC =        57.84903835
  Ewald energy   TEWEN  =     -2086.23039101
  -Hartree energ DENC   =      -561.92121560
  -exchange      EXHF   =         0.00000000
  -V(xc)+E(xc)   XCENC  =      -209.42478440
  PAW double counting   =      2367.77203219    -2019.52408218
  entropy T*S    EENTRO =        -0.00000000
  eigenvalues    EBANDS =      -288.70185992
  atomic energy  EATOM  =      2677.99578058
  Solvation  Ediel_sol  =         0.00000000
  ---------------------------------------------------
  free energy    TOTEN  =       -62.18548200 eV

  energy without entropy =      -62.18548200  energy(sigma->0) =      -62.18548200


--------------------------------------------------------------------------------------------------------




--------------------------------------- Iteration      1(   5)  ---------------------------------------


     EDDAV:  cpu time    0.4343: real time    0.4361
       DOS:  cpu time    0.0002: real time    0.0002
    CHARGE:  cpu time    0.0170: real time    0.0170
    MIXING:  cpu time    0.0006: real time    0.0006
    --------------------------------------------
      LOOP:  cpu time    0.4521: real time    0.4540

 eigenvalue-minimisations  :  1288
 total energy-change (2. order) :-0.5828654E-02  (-0.5827937E-02)
 number of electron      72.0000126 magnetization 
 augmentation part      -12.4579450 magnetization 

 Broyden mixing:
  rms(total) = 0.94621E+00    rms(broyden)= 0.94618E+00
  rms(prec ) = 0.11664E+01
  weight for this iteration     100.00

 Free energy of the ion-electron system (eV)
  ---------------------------------------------------
  alpha Z        PSCENC =        57.84903835
  Ewald energy   TEWEN  =     -2086.23039101
  -Hartree energ DENC   =      -561.92121560
  -exchange      EXHF   =         0.00000000
  -V(xc)+E(xc)   XCENC  =      -209.42478440
  PAW double counting   =      2367.77203219    -2019.52408218
  entropy T*S    EENTRO =        -0.00000000
  eigenvalues    EBANDS =      -288.70768858
  atomic energy  EATOM  =      2677.99578058
  Solvation  Ediel_sol  =         0.00000000
  ---------------------------------------------------
  free energy    TOTEN  =       -62.19131065 eV

  energy without entropy =      -62.19131065  energy(sigma->0) =      -62.19131065


--------------------------------------------------------------------------------------------------------




--------------------------------------- Iteration      1(   6)  ---------------------------------------


    POTLOK:  cpu time    0.0095: real time    0.0096
    SETDIJ:  cpu time    0.1628: real time    0.1628
     EDDAV:  cpu time    0.4315: real time    0.4315
       DOS:  cpu time    0.0002: real time    0.0002
    CHARGE:  cpu time    0.0168: real time    0.0168
    MIXING:  cpu time    0.0006: real time    0.0006
    --------------------------------------------
      LOOP:  cpu time    0.6214: real time    0.6215

 eigenvalue-minimisations  :  1204
 total energy-change (2. order) : 0.2208075E+01  (-0.3953371E+00)
 number of electron      72.0000122 magnetization 
 augmentation part      -12.2332243 magnetization 

 Broyden mixing:
  rms(total) = 0.64689E+00    rms(broyden)= 0.64689E+00
  rms(prec ) = 0.68676E+00
  weight for this iteration     100.00

 eigenvalues of (default mixing * dielectric matrix)
  average eigenvalue GAMMA=   1.6227
  1.6227

 Free energy of the ion-electron system (eV)
  ---------------------------------------------------
  alpha Z        PSCENC =        57.84903835
  Ewald energy   TEWEN  =     -2086.23039101
  -Hartree energ DENC   =      -584.37737646
  -exchange      EXHF   =         0.00000000
  -V(xc)+E(xc)   XCENC  =      -207.45648964
  PAW double counting   =      2902.68746380    -2554.99370619
  entropy T*S    EENTRO =        -0.00000000
  eigenvalues    EBANDS =      -265.45755541
  atomic energy  EATOM  =      2677.99578058
  Solvation  Ediel_sol  =         0.00000000
  ---------------------------------------------------
  free energy    TOTEN  =       -59.98323599 eV

  energy without entropy =      -59.98323599  energy(sigma->0) =      -59.98323599


--------------------------------------------------------------------------------------------------------




--------------------------------------- Iteration      1(   7)  ---------------------------------------


    POTLOK:  cpu time    0.0083: real time    0.0084
    SETDIJ:  cpu time    0.1625: real time    0.1639
     EDDAV:  cpu time    0.4071: real time    0.4071
       DOS:  cpu time    0.0002: real time    0.0002
    CHARGE:  cpu time    0.0158: real time    0.0158
    MIXING:  cpu time    0.0004: real time    0.0004
    --------------------------------------------
      LOOP:  cpu time    0.5944: real time    0.5958

 eigenvalue-minimisations  :  1204
 total energy-change (2. order) : 0.4538152E-01  (-0.1163362E+00)
 number of electron      72.0000121 magnetization 
 augmentation part      -12.1626756 magnetization 

 Broyden mixing:
  rms(total) = 0.23993E+00    rms(broyden)= 0.23993E+00
  rms(prec ) = 0.26118E+00
  weight for this iteration     100.00

 eigenvalues of (default mixing * dielectric matrix)
  average eigenvalue GAMMA=   1.3637
  1.0530  1.6743

 Free energy of the ion-electron system (eV)
  ---------------------------------------------------
  alpha Z        PSCENC =        57.84903835
  Ewald energy   TEWEN  =     -2086.23039101
  -Hartree energ DENC   =      -594.62074109
  -exchange      EXHF   =         0.00000000
  -V(xc)+E(xc)   XCENC  =      -206.32841591
  PAW double counting   =      3533.68697904    -3186.28686981
  entropy T*S    EENTRO =        -0.00000000
  eigenvalues    EBANDS =      -256.00323461
  atomic energy  EATOM  =      2677.99578058
  Solvation  Ediel_sol  =         0.00000000
  ---------------------------------------------------
  free energy    TOTEN  =       -59.93785447 eV

  energy without entropy =      -59.93785447  energy(sigma->0) =      -59.93785447


--------------------------------------------------------------------------------------------------------




--------------------------------------- Iteration      1(   8)  ---------------------------------------


    POTLOK:  cpu time    0.0086: real time    0.0105
    SETDIJ:  cpu time    0.1617: real time    0.1617
     EDDAV:  cpu time    0.4612: real time    0.4612
       DOS:  cpu time    0.0001: real time    0.0001
    CHARGE:  cpu time    0.0141: real time    0.0141
    MIXING:  cpu time    0.0004: real time    0.0004
    --------------------------------------------
      LOOP:  cpu time    0.6461: real time    0.6480

 eigenvalue-minimisations  :  1288
 total energy-change (2. order) :-0.1657820E-02  (-0.4865300E-02)
 number of electron      72.0000122 magnetization 
 augmentation part      -12.1745884 magnetization 

 Broyden mixing:
  rms(total) = 0.10977E+00    rms(broyden)= 0.10977E+00
  rms(prec ) = 0.12188E+00
  weight for this iteration     100.00

 eigenvalues of (default mixing * dielectric matrix)
  average eigenvalue GAMMA=   1.6391
  2.5697  1.1738  1.1738

 Free energy of the ion-electron system (eV)
  ---------------------------------------------------
  alpha Z        PSCENC =        57.84903835
  Ewald energy   TEWEN  =     -2086.23039101
  -Hartree energ DENC   =      -595.99934513
  -exchange      EXHF   =         0.00000000
  -V(xc)+E(xc)   XCENC  =      -206.01133533
  PAW double counting   =      3723.31750970    -3376.00636496
  entropy T*S    EENTRO =        -0.00000000
  eigenvalues    EBANDS =      -254.85440448
  atomic energy  EATOM  =      2677.99578058
  Solvation  Ediel_sol  =         0.00000000
  ---------------------------------------------------
  free energy    TOTEN  =       -59.93951229 eV

  energy without entropy =      -59.93951229  energy(sigma->0) =      -59.93951229


--------------------------------------------------------------------------------------------------------




--------------------------------------- Iteration      1(   9)  ---------------------------------------


    POTLOK:  cpu time    0.0074: real time    0.0074
    SETDIJ:  cpu time    0.1612: real time    0.1618
     EDDAV:  cpu time    0.2825: real time    0.2826
       DOS:  cpu time    0.0002: real time    0.0002
    CHARGE:  cpu time    0.0150: real time    0.0150
    MIXING:  cpu time    0.0004: real time    0.0004
    --------------------------------------------
      LOOP:  cpu time    0.4667: real time    0.4674

 eigenvalue-minimisations  :  1092
 total energy-change (2. order) :-0.1198710E-01  (-0.2923078E-02)
 number of electron      72.0000122 magnetization 
 augmentation part      -12.1723113 magnetization 

 Broyden mixing:
  rms(total) = 0.23644E-01    rms(broyden)= 0.23644E-01
  rms(prec ) = 0.25844E-01
  weight for this iteration     100.00

 eigenvalues of (default mixing * dielectric matrix)
  average eigenvalue GAMMA=   1.4576
  2.3277  1.1709  1.1709  1.1609

 Free energy of the ion-electron system (eV)
  ---------------------------------------------------
  alpha Z        PSCENC =        57.84903835
  Ewald energy   TEWEN  =     -2086.23039101
  -Hartree energ DENC   =      -598.86592768
  -exchange      EXHF   =         0.00000000
  -V(xc)+E(xc)   XCENC  =      -205.57726067
  PAW double counting   =      3874.87885384    -3527.65719396
  entropy T*S    EENTRO =        -0.00000000
  eigenvalues    EBANDS =      -252.34439883
  atomic energy  EATOM  =      2677.99578058
  Solvation  Ediel_sol  =         0.00000000
  ---------------------------------------------------
  free energy    TOTEN  =       -59.95149939 eV

  energy without entropy =      -59.95149939  energy(sigma->0) =      -59.95149939


--------------------------------------------------------------------------------------------------------




--------------------------------------- Iteration      1(  10)  ---------------------------------------


    POTLOK:  cpu time    0.0082: real time    0.0083
    SETDIJ:  cpu time    0.1646: real time    0.1651
     EDDAV:  cpu time    0.4989: real time    0.5001
       DOS:  cpu time    0.0003: real time    0.0003
    CHARGE:  cpu time    0.0161: real time    0.0161
    MIXING:  cpu time    0.0008: real time    0.0008
    --------------------------------------------
      LOOP:  cpu time    0.6890: real time    0.6907

 eigenvalue-minimisations  :  1372
 total energy-change (2. order) :-0.1059141E-02  (-0.9418211E-04)
 number of electron      72.0000122 magnetization 
 augmentation part      -12.1725323 magnetization 

 Broyden mixing:
  rms(total) = 0.11226E-01    rms(broyden)= 0.11226E-01
  rms(prec ) = 0.14237E-01
  weight for this iteration     100.00

 eigenvalues of (default mixing * dielectric matrix)
  average eigenvalue GAMMA=   1.7343
  2.9144  2.4447  1.1745  1.1745  0.9633

 Free energy of the ion-electron system (eV)
  ---------------------------------------------------
  alpha Z        PSCENC =        57.84903835
  Ewald energy   TEWEN  =     -2086.23039101
  -Hartree energ DENC   =      -598.87213507
  -exchange      EXHF   =         0.00000000
  -V(xc)+E(xc)   XCENC  =      -205.58795278
  PAW double counting   =      3843.01471990    -3495.77508899
  entropy T*S    EENTRO =        -0.00000000
  eigenvalues    EBANDS =      -252.34652951
  atomic energy  EATOM  =      2677.99578058
  Solvation  Ediel_sol  =         0.00000000
  ---------------------------------------------------
  free energy    TOTEN  =       -59.95255853 eV

  energy without entropy =      -59.95255853  energy(sigma->0) =      -59.95255853


--------------------------------------------------------------------------------------------------------




--------------------------------------- Iteration      1(  11)  ---------------------------------------


    POTLOK:  cpu time    0.0087: real time    0.0088
    SETDIJ:  cpu time    0.1618: real time    0.1618
     EDDAV:  cpu time    0.4386: real time    0.4391
       DOS:  cpu time    0.0002: real time    0.0002
    CHARGE:  cpu time    0.0153: real time    0.0153
    MIXING:  cpu time    0.0006: real time    0.0006
    --------------------------------------------
      LOOP:  cpu time    0.6251: real time    0.6257

 eigenvalue-minimisations  :  1106
 total energy-change (2. order) :-0.1653113E-02  (-0.2360093E-03)
 number of electron      72.0000122 magnetization 
 augmentation part      -12.1725308 magnetization 

 Broyden mixing:
  rms(total) = 0.27226E-02    rms(broyden)= 0.27225E-02
  rms(prec ) = 0.32701E-02
  weight for this iteration     100.00

 eigenvalues of (default mixing * dielectric matrix)
  average eigenvalue GAMMA=   1.6190
  3.0205  2.4237  1.1787  1.1787  1.0963  0.8163

 Free energy of the ion-electron system (eV)
  ---------------------------------------------------
  alpha Z        PSCENC =        57.84903835
  Ewald energy   TEWEN  =     -2086.23039101
  -Hartree energ DENC   =      -599.35148911
  -exchange      EXHF   =         0.00000000
  -V(xc)+E(xc)   XCENC  =      -205.53093123
  PAW double counting   =      3828.75412185    -3481.50352336
  entropy T*S    EENTRO =        -0.00000000
  eigenvalues    EBANDS =      -251.93681771
  atomic energy  EATOM  =      2677.99578058
  Solvation  Ediel_sol  =         0.00000000
  ---------------------------------------------------
  free energy    TOTEN  =       -59.95421164 eV

  energy without entropy =      -59.95421164  energy(sigma->0) =      -59.95421164


--------------------------------------------------------------------------------------------------------




--------------------------------------- Iteration      1(  12)  ---------------------------------------


    POTLOK:  cpu time    0.0085: real time    0.0086
    SETDIJ:  cpu time    0.1621: real time    0.1621
     EDDAV:  cpu time    0.4062: real time    0.4063
       DOS:  cpu time    0.0002: real time    0.0002
    --------------------------------------------
      LOOP:  cpu time    0.5770: real time    0.5771

 eigenvalue-minimisations  :  1078
 total energy-change (2. order) :-0.3266092E-04  (-0.4835479E-05)
 number of electron      72.0000122 magnetization 
 augmentation part      -12.1725308 magnetization 

 Free energy of the ion-electron system (eV)
  ---------------------------------------------------
  alpha Z        PSCENC =        57.84903835
  Ewald energy   TEWEN  =     -2086.23039101
  -Hartree energ DENC   =      -599.41296604
  -exchange      EXHF   =         0.00000000
  -V(xc)+E(xc)   XCENC  =      -205.52738303
  PAW double counting   =      3828.83377010    -3481.58304274
  entropy T*S    EENTRO =        -0.00000000
  eigenvalues    EBANDS =      -251.87905050
  atomic energy  EATOM  =      2677.99578058
  Solvation  Ediel_sol  =         0.00000000
  ---------------------------------------------------
  free energy    TOTEN  =       -59.95424430 eV

  energy without entropy =      -59.95424430  energy(sigma->0) =      -59.95424430


--------------------------------------------------------------------------------------------------------




 average (electrostatic) potential at core
  the test charge radii are     0.9748  1.1712  1.0808
  (the norm of the test charge is              1.0000)
       1 -30.1585       2 -30.1585       3 -30.1600       4 -30.1600       5 -91.4490
       6 -91.4490       7 -91.4506       8 -91.4506       9 -56.0056      10 -56.0056
      11 -56.0041      12 -56.0041      13 -56.0799      14 -56.0799      15 -56.0787
      16 -56.0787
 
 
 
 E-fermi :   1.4583     XC(G=0):  -7.4850     alpha+bet : -7.0196


 k-point     1 :       0.0000    0.0000    0.2500
  band No.  band energies     occupation 
      1     -11.7187      2.00000
      2     -11.4831      2.00000
      3     -11.0599      2.00000
      4     -10.6248      2.00000
      5     -10.4064      2.00000
      6     -10.3630      2.00000
      7     -10.3466      2.00000
      8     -10.3073      2.00000
      9      -7.1780      2.00000
     10      -6.7423      2.00000
     11      -6.2225      2.00000
     12      -5.9343      2.00000
     13      -2.7385      2.00000
     14      -2.4656      2.00000
     15      -2.4602      2.00000
     16      -2.1993      2.00000
     17      -2.1005      2.00000
     18      -2.0805      2.00000
     19      -1.6478      2.00000
     20      -1.5648      2.00000
     21      -1.1255      2.00000
     22      -1.0737      2.00000
     23      -1.0432      2.00000
     24      -0.3389      2.00000
     25      -0.0204      2.00000
     26       0.0202      2.00000
     27       0.0440      2.00000
     28       0.1626      2.00000
     29       0.2307      2.00000
     30       0.3124      2.00000
     31       0.3415      2.00000
     32       0.4761      2.00000
     33       0.7555      2.00000
     34       0.7720      2.00000
     35       0.9381      2.00000
     36       1.0500      2.00000
     37       3.1034      0.00000
     38       3.7083      0.00000
     39       4.3596      0.00000
     40       4.4002      0.00000
     41       4.6805      0.00000
     42       4.7502      0.00000
     43       4.7737      0.00000
     44       4.8620      0.00000
     45       5.0322      0.00000
     46       5.1544      0.00000
     47       5.3797      0.00000
     48       5.4396      0.00000
     49       5.7923      0.00000
     50       5.8197      0.00000
     51       5.9386      0.00000
     52       6.0500      0.00000
     53       6.3832      0.00000
     54       6.3920      0.00000
     55       7.0263      0.00000
     56       7.0548      0.00000

 k-point     2 :       0.3333   -0.0000    0.2500
  band No.  band energies     occupation 
      1     -11.6023      2.00000
      2     -11.5562      2.00000
      3     -10.8812      2.00000
      4     -10.7709      2.00000
      5     -10.4633      2.00000
      6     -10.4147      2.00000
      7     -10.3134      2.00000
      8     -10.3101      2.00000
      9      -7.1567      2.00000
     10      -7.0379      2.00000
     11      -6.2172      2.00000
     12      -6.1091      2.00000
     13      -2.4564      2.00000
     14      -2.4438      2.00000
     15      -2.3091      2.00000
     16      -2.3018      2.00000
     17      -1.7836      2.00000
     18      -1.7118      2.00000
     19      -1.5119      2.00000
     20      -1.5037      2.00000
     21      -0.7855      2.00000
     22      -0.7270      2.00000
     23      -0.6334      2.00000
     24      -0.5860      2.00000
     25      -0.2073      2.00000
     26      -0.1792      2.00000
     27      -0.0126      2.00000
     28       0.0875      2.00000
     29       0.1526      2.00000
     30       0.2573      2.00000
     31       0.3596      2.00000
     32       0.4964      2.00000
     33       0.8558      2.00000
     34       0.9421      2.00000
     35       0.9960      2.00000
     36       1.0823      2.00000
     37       3.2466      0.00000
     38       3.4214      0.00000
     39       3.4629      0.00000
     40       3.6410      0.00000
     41       4.2059      0.00000
     42       4.3563      0.00000
     43       4.6073      0.00000
     44       4.8069      0.00000
     45       4.9776      0.00000
     46       5.0490      0.00000
     47       5.3856      0.00000
     48       5.4513      0.00000
     49       5.7153      0.00000
     50       5.8193      0.00000
     51       5.8513      0.00000
     52       5.9985      0.00000
     53       6.5395      0.00000
     54       6.6176      0.00000
     55       6.8745      0.00000
     56       6.9070      0.00000

 k-point     3 :      -0.3333   -0.0000    0.2500
  band No.  band energies     occupation 
      1     -11.6942      2.00000
      2     -11.3144      2.00000
      3     -11.2012      2.00000
      4     -10.5156      2.00000
      5     -10.4698      2.00000
      6     -10.4023      2.00000
      7     -10.3968      2.00000
      8     -10.3136      2.00000
      9      -7.3374      2.00000
     10      -6.6647      2.00000
     11      -6.5156      2.00000
     12      -6.0072      2.00000
     13      -2.7084      2.00000
     14      -2.3849      2.00000
     15      -2.2019      2.00000
     16      -2.0038      2.00000
     17      -1.8781      2.00000
     18      -1.7749      2.00000
     19      -1.5110      2.00000
     20      -1.3091      2.00000
     21      -1.2766      2.00000
     22      -0.9750      2.00000
     23      -0.4381      2.00000
     24      -0.2600      2.00000
     25      -0.1353      2.00000
     26      -0.1098      2.00000
     27       0.0521      2.00000
     28       0.0979      2.00000
     29       0.2004      2.00000
     30       0.3059      2.00000
     31       0.3928      2.00000
     32       0.4032      2.00000
     33       0.7162      2.00000
     34       0.7938      2.00000
     35       0.9290      2.00000
     36       1.0193      2.00000
     37       3.2040      0.00000
     38       3.2843      0.00000
     39       3.7359      0.00000
     40       4.0411      0.00000
     41       4.1887      0.00000
     42       4.3220      0.00000
     43       4.6402      0.00000
     44       4.7462      0.00000
     45       4.9314      0.00000
     46       5.0634      0.00000
     47       5.0708      0.00000
     48       5.4835      0.00000
     49       5.6728      0.00000
     50       5.7934      0.00000
     51       5.8370      0.00000
     52       6.1734      0.00000
     53       6.4998      0.00000
     54       6.5539      0.00000
     55       6.7106      0.00000
     56       6.9493      0.00000

 k-point     4 :      -0.0000    0.3333    0.2500
  band No.  band energies     occupation 
      1     -11.6746      2.00000
      2     -11.4507      2.00000
      3     -11.0401      2.00000
      4     -10.6313      2.00000
      5     -10.4225      2.00000
      6     -10.3812      2.00000
      7     -10.3616      2.00000
      8     -10.3309      2.00000
      9      -7.3018      2.00000
     10      -6.8693      2.00000
     11      -6.3439      2.00000
     12      -6.0472      2.00000
     13      -2.6431      2.00000
     14      -2.4519      2.00000
     15      -2.3093      2.00000
     16      -2.1170      2.00000
     17      -1.7905      2.00000
     18      -1.6914      2.00000
     19      -1.4861      2.00000
     20      -1.4313      2.00000
     21      -0.9720      2.00000
     22      -0.8441      2.00000
     23      -0.7458      2.00000
     24      -0.3734      2.00000
     25      -0.1892      2.00000
     26      -0.0967      2.00000
     27      -0.0286      2.00000
     28       0.1413      2.00000
     29       0.1766      2.00000
     30       0.2815      2.00000
     31       0.3782      2.00000
     32       0.4681      2.00000
     33       0.7735      2.00000
     34       0.9000      2.00000
     35       1.1379      2.00000
     36       1.1653      2.00000
     37       3.0356      0.00000
     38       3.5940      0.00000
     39       3.6410      0.00000
     40       3.8527      0.00000
     41       4.3421      0.00000
     42       4.4237      0.00000
     43       4.4679      0.00000
     44       4.6631      0.00000
     45       4.8325      0.00000
     46       4.9400      0.00000
     47       5.2136      0.00000
     48       5.3533      0.00000
     49       5.5434      0.00000
     50       5.6466      0.00000
     51       6.0620      0.00000
     52       6.1975      0.00000
     53       6.3376      0.00000
     54       6.6082      0.00000
     55       6.7468      0.00000
     56       6.8565      0.00000

 k-point     5 :       0.3333    0.3333    0.2500
  band No.  band energies     occupation 
      1     -11.5661      2.00000
      2     -11.5179      2.00000
      3     -10.8713      2.00000
      4     -10.7644      2.00000
      5     -10.4634      2.00000
      6     -10.4254      2.00000
      7     -10.3364      2.00000
      8     -10.3352      2.00000
      9      -7.2856      2.00000
     10      -7.1669      2.00000
     11      -6.3414      2.00000
     12      -6.2418      2.00000
     13      -2.4086      2.00000
     14      -2.3638      2.00000
     15      -1.9722      2.00000
     16      -1.8604      2.00000
     17      -1.6879      2.00000
     18      -1.5576      2.00000
     19      -1.4109      2.00000
     20      -1.2620      2.00000
     21      -0.8087      2.00000
     22      -0.6800      2.00000
     23      -0.6248      2.00000
     24      -0.5710      2.00000
     25      -0.3474      2.00000
     26      -0.1123      2.00000
     27      -0.0305      2.00000
     28       0.2042      2.00000
     29       0.3731      2.00000
     30       0.4724      2.00000
     31       0.5781      2.00000
     32       0.5866      2.00000
     33       0.9603      2.00000
     34       1.0329      2.00000
     35       1.0990      2.00000
     36       1.1442      2.00000
     37       2.9914      0.00000
     38       3.1809      0.00000
     39       3.2597      0.00000
     40       3.3795      0.00000
     41       3.6937      0.00000
     42       3.8163      0.00000
     43       4.1035      0.00000
     44       4.2257      0.00000
     45       4.2785      0.00000
     46       4.4658      0.00000
     47       4.7383      0.00000
     48       4.8638      0.00000
     49       5.7546      0.00000
     50       5.8126      0.00000
     51       5.9708      0.00000
     52       6.1758      0.00000
     53       6.2910      0.00000
     54       6.6182      0.00000
     55       6.8402      0.00000
     56       6.9304      0.00000

 k-point     6 :      -0.3333    0.3333    0.2500
  band No.  band energies     occupation 
      1     -11.6529      2.00000
      2     -11.2945      2.00000
      3     -11.1672      2.00000
      4     -10.5289      2.00000
      5     -10.4855      2.00000
      6     -10.3995      2.00000
      7     -10.3992      2.00000
      8     -10.3483      2.00000
      9      -7.4659      2.00000
     10      -6.7902      2.00000
     11      -6.6478      2.00000
     12      -6.1357      2.00000
     13      -2.6326      2.00000
     14      -2.0610      2.00000
     15      -1.9284      2.00000
     16      -1.8744      2.00000
     17      -1.7260      2.00000
     18      -1.5618      2.00000
     19      -1.4078      2.00000
     20      -1.2045      2.00000
     21      -1.1631      2.00000
     22      -0.7996      2.00000
     23      -0.4782      2.00000
     24      -0.3482      2.00000
     25      -0.1741      2.00000
     26      -0.0757      2.00000
     27       0.0605      2.00000
     28       0.1606      2.00000
     29       0.2951      2.00000
     30       0.4675      2.00000
     31       0.5128      2.00000
     32       0.6469      2.00000
     33       0.7254      2.00000
     34       0.8599      2.00000
     35       1.1494      2.00000
     36       1.2058      2.00000
     37       2.8557      0.00000
     38       3.1597      0.00000
     39       3.3395      0.00000
     40       3.5257      0.00000
     41       3.8128      0.00000
     42       3.8819      0.00000
     43       4.0242      0.00000
     44       4.2984      0.00000
     45       4.4512      0.00000
     46       4.4662      0.00000
     47       4.6264      0.00000
     48       4.8611      0.00000
     49       5.4190      0.00000
     50       5.9408      0.00000
     51       6.0564      0.00000
     52       6.1147      0.00000
     53       6.4188      0.00000
     54       6.5812      0.00000
     55       6.6898      0.00000
     56       6.8692      0.00000

 k-point     7 :      -0.0000   -0.3333    0.2500
  band No.  band energies     occupation 
      1     -11.6745      2.00000
      2     -11.4509      2.00000
      3     -11.0399      2.00000
      4     -10.6314      2.00000
      5     -10.4226      2.00000
      6     -10.3810      2.00000
      7     -10.3618      2.00000
      8     -10.3307      2.00000
      9      -7.3020      2.00000
     10      -6.8688      2.00000
     11      -6.3444      2.00000
     12      -6.0470      2.00000
     13      -2.6431      2.00000
     14      -2.4521      2.00000
     15      -2.3086      2.00000
     16      -2.1173      2.00000
     17      -1.7917      2.00000
     18      -1.6916      2.00000
     19      -1.4873      2.00000
     20      -1.4294      2.00000
     21      -0.9728      2.00000
     22      -0.8420      2.00000
     23      -0.7459      2.00000
     24      -0.3735      2.00000
     25      -0.1885      2.00000
     26      -0.0979      2.00000
     27      -0.0289      2.00000
     28       0.1411      2.00000
     29       0.1758      2.00000
     30       0.2818      2.00000
     31       0.3794      2.00000
     32       0.4680      2.00000
     33       0.7724      2.00000
     34       0.9004      2.00000
     35       1.1379      2.00000
     36       1.1653      2.00000
     37       3.0350      0.00000
     38       3.5988      0.00000
     39       3.6379      0.00000
     40       3.8521      0.00000
     41       4.3429      0.00000
     42       4.4253      0.00000
     43       4.4689      0.00000
     44       4.6595      0.00000
     45       4.8318      0.00000
     46       4.9403      0.00000
     47       5.2138      0.00000
     48       5.3543      0.00000
     49       5.5437      0.00000
     50       5.6460      0.00000
     51       6.0635      0.00000
     52       6.1898      0.00000
     53       6.3417      0.00000
     54       6.6076      0.00000
     55       6.7461      0.00000
     56       6.8618      0.00000

 k-point     8 :       0.3333   -0.3333    0.2500
  band No.  band energies     occupation 
      1     -11.5663      2.00000
      2     -11.5176      2.00000
      3     -10.8716      2.00000
      4     -10.7641      2.00000
      5     -10.4634      2.00000
      6     -10.4255      2.00000
      7     -10.3363      2.00000
      8     -10.3354      2.00000
      9      -7.2852      2.00000
     10      -7.1673      2.00000
     11      -6.3409      2.00000
     12      -6.2421      2.00000
     13      -2.4094      2.00000
     14      -2.3630      2.00000
     15      -1.9729      2.00000
     16      -1.8603      2.00000
     17      -1.6872      2.00000
     18      -1.5571      2.00000
     19      -1.4113      2.00000
     20      -1.2624      2.00000
     21      -0.8077      2.00000
     22      -0.6816      2.00000
     23      -0.6269      2.00000
     24      -0.5692      2.00000
     25      -0.3429      2.00000
     26      -0.1145      2.00000
     27      -0.0293      2.00000
     28       0.2034      2.00000
     29       0.3721      2.00000
     30       0.4728      2.00000
     31       0.5769      2.00000
     32       0.5857      2.00000
     33       0.9586      2.00000
     34       1.0334      2.00000
     35       1.0979      2.00000
     36       1.1443      2.00000
     37       2.9917      0.00000
     38       3.1797      0.00000
     39       3.2639      0.00000
     40       3.3770      0.00000
     41       3.6925      0.00000
     42       3.8196      0.00000
     43       4.1029      0.00000
     44       4.2254      0.00000
     45       4.2801      0.00000
     46       4.4681      0.00000
     47       4.7370      0.00000
     48       4.8630      0.00000
     49       5.7550      0.00000
     50       5.8125      0.00000
     51       5.9692      0.00000
     52       6.1768      0.00000
     53       6.2871      0.00000
     54       6.6196      0.00000
     55       6.8460      0.00000
     56       6.9330      0.00000

 k-point     9 :      -0.3333   -0.3333    0.2500
  band No.  band energies     occupation 
      1     -11.6530      2.00000
      2     -11.2944      2.00000
      3     -11.1674      2.00000
      4     -10.5288      2.00000
      5     -10.4853      2.00000
      6     -10.4001      2.00000
      7     -10.3988      2.00000
      8     -10.3482      2.00000
      9      -7.4659      2.00000
     10      -6.7909      2.00000
     11      -6.6473      2.00000
     12      -6.1358      2.00000
     13      -2.6328      2.00000
     14      -2.0612      2.00000
     15      -1.9277      2.00000
     16      -1.8742      2.00000
     17      -1.7261      2.00000
     18      -1.5613      2.00000
     19      -1.4062      2.00000
     20      -1.2061      2.00000
     21      -1.1646      2.00000
     22      -0.7992      2.00000
     23      -0.4796      2.00000
     24      -0.3485      2.00000
     25      -0.1750      2.00000
     26      -0.0739      2.00000
     27       0.0605      2.00000
     28       0.1588      2.00000
     29       0.2961      2.00000
     30       0.4662      2.00000
     31       0.5143      2.00000
     32       0.6489      2.00000
     33       0.7263      2.00000
     34       0.8604      2.00000
     35       1.1506      2.00000
     36       1.2061      2.00000
     37       2.8571      0.00000
     38       3.1583      0.00000
     39       3.3402      0.00000
     40       3.5235      0.00000
     41       3.8115      0.00000
     42       3.8809      0.00000
     43       4.0238      0.00000
     44       4.3004      0.00000
     45       4.4531      0.00000
     46       4.4672      0.00000
     47       4.6231      0.00000
     48       4.8603      0.00000
     49       5.4191      0.00000
     50       5.9421      0.00000
     51       6.0565      0.00000
     52       6.1156      0.00000
     53       6.4210      0.00000
     54       6.5789      0.00000
     55       6.6885      0.00000
     56       6.8649      0.00000


--------------------------------------------------------------------------------------------------------


 soft charge-density along one line, spin component           1
         0         1         2         3         4         5         6         7         8         9
 total charge-density along one line
 
 pseudopotential strength for first ion, spin component:           1
  1.145   5.239  -0.002   0.001   0.000
  5.239  22.801  -0.005   0.005   0.000
 -0.002  -0.005  -0.503  -0.000  -0.000
  0.001   0.005  -0.000  -0.504  -0.001
  0.000   0.000  -0.000  -0.001  -0.503
 total augmentation occupancy for first ion, spin component:           1
  0.298  -0.004   0.007  -0.006   0.001
 -0.004   0.000  -0.000   0.000  -0.000
  0.007  -0.000   0.018  -0.001  -0.000
 -0.006   0.000  -0.001   0.015  -0.002
  0.001  -0.000  -0.000  -0.002   0.018


------------------------ aborting loop because EDIFF is reached ----------------------------------------


 


 total charge     
 
# of ion       s       p       d       tot
------------------------------------------
    1        0.031   0.037   0.000   0.068
    2        0.031   0.037   0.000   0.068
    3        0.031   0.037   0.000   0.068
    4        0.031   0.037   0.000   0.068
    5        1.259   0.992   0.057   2.308
    6        1.259   0.992   0.057   2.308
    7        1.259   0.992   0.057   2.308
    8        1.259   0.992   0.057   2.308
    9        1.467   2.318   0.018   3.803
   10        1.467   2.318   0.018   3.803
   11        1.467   2.318   0.018   3.803
   12        1.467   2.318   0.018   3.803
   13        1.467   2.318   0.018   3.804
   14        1.467   2.318   0.018   3.804
   15        1.467   2.318   0.018   3.804
   16        1.467   2.318   0.018   3.804
--------------------------------------------------
tot         16.895  22.659   0.375  39.929
 
    CHARGE:  cpu time    0.0145: real time    0.0145
    FORLOC:  cpu time    0.0013: real time    0.0013
    FORNL :  cpu time    0.0623: real time    0.0623
    STRESS:  cpu time    0.1769: real time    0.1770
    FORCOR:  cpu time    0.0081: real time    0.0081
    FORHAR:  cpu time    0.0025: real time    0.0025
    MIXING:  cpu time    0.0005: real time    0.0005
    OFIELD:  cpu time    0.0000: real time    0.0000

  FORCE on cell =-STRESS in cart. coord.  units (eV):
  Direction    XX          YY          ZZ          XY          YZ          ZX
  --------------------------------------------------------------------------------------
  Alpha Z    57.84904    57.84904    57.84904
  Ewald    -742.84985  -822.69610  -520.68897    22.29353    43.41950   130.66655
  Hartree   172.14151   113.69239   313.68641    15.93104    29.23307    89.90890
  E(xc)    -264.38990  -264.45416  -261.87637     0.02984     0.24772     0.21456
  Local    -495.33649  -359.21809  -856.74506   -37.75572   -71.92069  -217.97170
  n-local   673.60322   673.63627   657.05817    -0.03513    -1.50260    -0.56642
  augment  -103.04478  -103.26417  -100.32157     0.05455     0.29008     0.30218
  Kinetic   696.13442   696.94896   705.40160    -0.06878     0.66203    -0.34218
  Fock        0.00000     0.00000     0.00000     0.00000     0.00000     0.00000
  -------------------------------------------------------------------------------------
  Total      -5.89283    -7.50586    -5.63675     0.44933     0.42911     2.21189
  in kB     -17.73378   -22.58800   -16.96315     1.35220     1.29137     6.65642
  external pressure =      -19.09 kB  Pullay stress =        0.00 kB


 VOLUME and BASIS-vectors are now :
 -----------------------------------------------------------------------------
  energy-cutoff  :      300.00
  volume of cell :      532.39
      direct lattice vectors                 reciprocal lattice vectors
     6.456999420  0.790754140 -0.988154190     0.151882983  0.020018570 -0.003503398
    -0.865149840  6.470254380 -0.535565840    -0.020389792  0.150786551 -0.012570696
     0.147269680  1.054516950 12.410146430     0.011213706  0.008101239  0.079757775

  length of vectors
     6.579861877  6.549771504 12.455738789     0.153236607  0.152677274  0.080948625


 FORCES acting on ions
    electron-ion (+dipol)            ewald-force                    non-local-force                 convergence-correction
 -----------------------------------------------------------------------------------------------
   0.131E+01 0.480E+01 -.188E+01   -.131E+01 -.454E+01 0.165E+01   -.136E-01 -.883E-01 0.719E-01   -.189E-03 -.483E-03 0.216E-03
   -.131E+01 -.480E+01 0.188E+01   0.131E+01 0.454E+01 -.165E+01   0.136E-01 0.883E-01 -.719E-01   0.189E-03 0.483E-03 -.216E-03
   -.261E+01 0.454E+01 0.107E+01   0.252E+01 -.425E+01 -.893E+00   0.415E-01 -.932E-01 -.571E-01   0.309E-03 -.446E-03 -.140E-03
   0.261E+01 -.454E+01 -.107E+01   -.252E+01 0.425E+01 0.893E+00   -.415E-01 0.932E-01 0.571E-01   -.309E-03 0.446E-03 0.140E-03
   0.250E+02 0.395E+02 -.239E+01   -.314E+02 -.484E+02 0.294E+01   0.626E+01 0.857E+01 -.500E+00   -.170E-02 -.412E-02 -.376E-03
   -.250E+02 -.395E+02 0.239E+01   0.314E+02 0.484E+02 -.294E+01   -.626E+01 -.857E+01 0.500E+00   0.170E-02 0.412E-02 0.376E-03
   -.346E+02 0.315E+02 -.342E+01   0.431E+02 -.383E+02 0.417E+01   -.821E+01 0.654E+01 -.674E+00   0.272E-02 -.349E-02 0.988E-03
   0.346E+02 -.315E+02 0.342E+01   -.431E+02 0.383E+02 -.417E+01   0.821E+01 -.654E+01 0.674E+00   -.272E-02 0.349E-02 -.988E-03
   -.530E+01 -.561E+02 0.377E+02   0.501E+01 0.580E+02 -.388E+02   0.190E+00 -.154E+01 0.666E+00   0.338E-02 0.921E-02 0.539E-04
   0.530E+01 0.561E+02 -.377E+02   -.501E+01 -.580E+02 0.388E+02   -.190E+00 0.154E+01 -.666E+00   -.338E-02 -.921E-02 -.539E-04
   0.208E+02 -.581E+02 -.280E+02   -.210E+02 0.602E+02 0.287E+02   0.229E+00 -.161E+01 -.407E+00   -.564E-02 0.788E-02 -.148E-02
   -.208E+02 0.581E+02 0.280E+02   0.210E+02 -.602E+02 -.287E+02   -.229E+00 0.161E+01 0.407E+00   0.564E-02 -.788E-02 0.148E-02
   -.483E+02 -.287E+02 0.417E+02   0.501E+02 0.288E+02 -.427E+02   -.151E+01 -.240E-01 0.625E+00   0.625E-02 0.880E-02 -.395E-02
   0.483E+02 0.287E+02 -.417E+02   -.501E+02 -.288E+02 0.427E+02   0.151E+01 0.240E-01 -.625E+00   -.625E-02 -.880E-02 0.395E-02
   0.550E+02 -.215E+02 -.377E+02   -.568E+02 0.212E+02 0.387E+02   0.147E+01 0.259E+00 -.650E+00   -.838E-02 0.731E-02 0.260E-02
   -.550E+02 0.215E+02 0.377E+02   0.568E+02 -.212E+02 -.387E+02   -.147E+01 -.259E+00 0.650E+00   0.838E-02 -.731E-02 -.260E-02
 -----------------------------------------------------------------------------------------------
   0.322E-14 0.352E-11 0.361E-10   0.284E-13 0.142E-13 -.426E-13   0.178E-14 0.000E+00 0.000E+00   0.206E-13 0.626E-13 -.325E-13
 
 
 POSITION                                       TOTAL-FORCE (eV/Angst)
 -----------------------------------------------------------------------------------
      2.82941      6.11148     10.02496        -0.013585      0.172980     -0.152806
      2.90971      2.20404      0.86146         0.013585     -0.172980      0.152806
      5.80483      6.20245      6.32065        -0.039730      0.193903      0.121324
     -0.06571      2.11308      4.56577         0.039730     -0.193903     -0.121324
     -0.42950      5.30579      1.04101        -0.163486     -0.307710      0.050180
      6.16862      3.00974      9.84542         0.163486      0.307710     -0.050180
      2.35794      5.91161      3.82180         0.317874     -0.305129      0.076776
      3.38118      2.40392      7.06462        -0.317874      0.305129     -0.076776
      3.23155      2.01468      4.16136        -0.102978      0.414193     -0.388642
[...]
     50       9.2444      0.00000
     51       9.2960      0.00000
     52       9.4572      0.00000
     53       9.6989      0.00000
     54       9.7578      0.00000
     55      10.0047      0.00000
     56      10.0795      0.00000

 k-point     6 :      -0.3333    0.3333    0.2500
  band No.  band energies     occupation 
      1      -9.1274      2.00000
      2      -8.9017      2.00000
      3      -8.5689      2.00000
      4      -8.3293      2.00000
      5      -8.3247      2.00000
      6      -8.3130      2.00000
      7      -8.2579      2.00000
      8      -8.1705      2.00000
      9      -5.5724      2.00000
     10      -5.2986      2.00000
     11      -4.9862      2.00000
     12      -4.8429      2.00000
     13      -0.3322      2.00000
     14       0.1011      2.00000
     15       0.3857      2.00000
     16       0.6892      2.00000
     17       0.7448      2.00000
     18       0.7932      2.00000
     19       0.9026      2.00000
     20       0.9413      2.00000
     21       1.2124      2.00000
     22       1.4674      2.00000
     23       1.5618      2.00000
     24       1.7500      2.00000
     25       1.8003      2.00000
     26       1.9599      2.00000
     27       2.2585      2.00000
     28       2.5444      2.00000
     29       2.7299      2.00000
     30       2.9097      2.00000
     31       2.9598      2.00000
     32       2.9898      2.00000
     33       3.2645      2.00000
     34       3.3240      2.00000
     35       3.4190      2.00000
     36       3.5838      2.00000
     37       5.6394      0.00000
     38       5.7545      0.00000
     39       5.8011      0.00000
     40       5.9000      0.00000
     41       6.0667      0.00000
     42       6.0758      0.00000
     43       6.4673      0.00000
     44       6.5119      0.00000
     45       6.5923      0.00000
     46       6.7530      0.00000
     47       7.0541      0.00000
     48       7.1530      0.00000
     49       9.1620      0.00000
     50       9.2462      0.00000
     51       9.2822      0.00000
     52       9.4710      0.00000
     53       9.7072      0.00000
     54       9.7604      0.00000
     55       9.9975      0.00000
     56      10.0696      0.00000

 k-point     7 :      -0.0000   -0.3333    0.2500
  band No.  band energies     occupation 
      1      -9.4279      2.00000
      2      -9.1735      2.00000
      3      -8.7236      2.00000
      4      -8.3754      2.00000
      5      -8.3628      2.00000
      6      -8.2261      2.00000
      7      -8.1019      2.00000
      8      -7.9968      2.00000
      9      -4.8921      2.00000
     10      -4.6173      2.00000
     11      -4.0883      2.00000
     12      -3.9730      2.00000
     13      -1.1522      2.00000
     14      -0.9522      2.00000
     15      -0.6314      2.00000
     16      -0.2729      2.00000
     17       0.0059      2.00000
     18       0.0143      2.00000
     19       0.4211      2.00000
     20       0.8747      2.00000
     21       1.0636      2.00000
     22       1.3505      2.00000
     23       1.6664      2.00000
     24       1.6750      2.00000
     25       1.6990      2.00000
     26       1.8588      2.00000
     27       1.9607      2.00000
     28       2.3453      2.00000
     29       2.4668      2.00000
     30       2.5686      2.00000
     31       2.6152      2.00000
     32       2.6522      2.00000
     33       2.8322      2.00000
     34       3.1980      2.00000
     35       3.2138      2.00000
     36       3.7250      2.00000
     37       5.8691      0.00000
     38       5.8981      0.00000
     39       6.1393      0.00000
     40       6.3256      0.00000
     41       6.7322      0.00000
     42       6.8667      0.00000
     43       6.9348      0.00000
     44       7.2746      0.00000
     45       8.4525      0.00000
     46       9.0358      0.00000
     47       9.0561      0.00000
     48       9.3007      0.00000
     49       9.3171      0.00000
     50       9.3285      0.00000
     51       9.3919      0.00000
     52       9.4333      0.00000
     53       9.7606      0.00000
     54       9.8065      0.00000
     55      10.0048      0.00000
     56      10.2438      0.00000

 k-point     8 :       0.3333   -0.3333    0.2500
  band No.  band energies     occupation 
      1      -9.1230      2.00000
      2      -8.9136      2.00000
      3      -8.5529      2.00000
      4      -8.3381      2.00000
      5      -8.3309      2.00000
      6      -8.3090      2.00000
      7      -8.2531      2.00000
      8      -8.1730      2.00000
      9      -5.5679      2.00000
     10      -5.3068      2.00000
     11      -4.9804      2.00000
     12      -4.8449      2.00000
     13      -0.3187      2.00000
     14       0.0772      2.00000
     15       0.4120      2.00000
     16       0.6634      2.00000
     17       0.7609      2.00000
     18       0.7827      2.00000
     19       0.9039      2.00000
     20       0.9462      2.00000
     21       1.2233      2.00000
     22       1.4562      2.00000
     23       1.5524      2.00000
     24       1.7539      2.00000
     25       1.7889      2.00000
     26       1.9550      2.00000
     27       2.2540      2.00000
     28       2.5415      2.00000
     29       2.7497      2.00000
     30       2.9103      2.00000
     31       2.9671      2.00000
     32       3.0091      2.00000
     33       3.2627      2.00000
     34       3.3178      2.00000
     35       3.4149      2.00000
     36       3.5830      2.00000
     37       5.6597      0.00000
     38       5.7464      0.00000
     39       5.7987      0.00000
     40       5.8981      0.00000
     41       6.0654      0.00000
     42       6.0669      0.00000
     43       6.4723      0.00000
     44       6.5081      0.00000
     45       6.5799      0.00000
     46       6.7472      0.00000
     47       7.0549      0.00000
     48       7.1567      0.00000
     49       9.1604      0.00000
     50       9.2446      0.00000
     51       9.2883      0.00000
     52       9.4493      0.00000
     53       9.7101      0.00000
     54       9.7862      0.00000
     55      10.0066      0.00000
     56      10.0630      0.00000

 k-point     9 :      -0.3333   -0.3333    0.2500
  band No.  band energies     occupation 
      1      -9.1236      2.00000
      2      -8.9135      2.00000
      3      -8.5537      2.00000
      4      -8.3371      2.00000
      5      -8.3293      2.00000
      6      -8.3089      2.00000
      7      -8.2536      2.00000
      8      -8.1733      2.00000
      9      -5.5684      2.00000
     10      -5.3063      2.00000
     11      -4.9814      2.00000
     12      -4.8446      2.00000
     13      -0.3198      2.00000
     14       0.0787      2.00000
     15       0.4093      2.00000
     16       0.6649      2.00000
     17       0.7621      2.00000
     18       0.7808      2.00000
     19       0.9040      2.00000
     20       0.9458      2.00000
     21       1.2206      2.00000
     22       1.4575      2.00000
     23       1.5543      2.00000
     24       1.7540      2.00000
     25       1.7886      2.00000
     26       1.9552      2.00000
     27       2.2537      2.00000
     28       2.5430      2.00000
     29       2.7456      2.00000
     30       2.9118      2.00000
     31       2.9662      2.00000
     32       3.0090      2.00000
     33       3.2659      2.00000
     34       3.3212      2.00000
     35       3.4161      2.00000
     36       3.5832      2.00000
     37       5.6571      0.00000
     38       5.7469      0.00000
     39       5.7974      0.00000
     40       5.8979      0.00000
     41       6.0630      0.00000
     42       6.0697      0.00000
     43       6.4682      0.00000
     44       6.5117      0.00000
     45       6.5793      0.00000
     46       6.7520      0.00000
     47       7.0554      0.00000
     48       7.1578      0.00000
     49       9.1608      0.00000
     50       9.2471      0.00000
     51       9.2732      0.00000
     52       9.4621      0.00000
     53       9.7165      0.00000
     54       9.7880      0.00000
     55       9.9993      0.00000
     56      10.0519      0.00000


--------------------------------------------------------------------------------------------------------


 soft charge-density along one line, spin component           1
         0         1         2         3         4         5         6         7         8         9
 total charge-density along one line
 
 pseudopotential strength for first ion, spin component:           1
  1.167   5.235   0.000  -0.000  -0.000
  5.235  22.426   0.000  -0.000  -0.000
  0.000   0.000  -0.376  -0.000  -0.000
 -0.000  -0.000  -0.000  -0.381  -0.000
 -0.000  -0.000  -0.000  -0.000  -0.376
 total augmentation occupancy for first ion, spin component:           1
  0.602  -0.011   0.000   0.005   0.003
 -0.011   0.000  -0.000  -0.000  -0.000
  0.000  -0.000   0.050  -0.001  -0.000
  0.005  -0.000  -0.001   0.035  -0.001
  0.003  -0.000  -0.000  -0.001   0.050


------------------------ aborting loop because EDIFF is reached ----------------------------------------


 


 total charge     
 
# of ion       s       p       d       tot
------------------------------------------
    1        0.061   0.098   0.000   0.160
    2        0.061   0.098   0.000   0.160
    3        0.061   0.098   0.000   0.160
    4        0.061   0.098   0.000   0.160
    5        1.290   0.925   0.059   2.274
    6        1.290   0.925   0.059   2.274
    7        1.290   0.925   0.059   2.274
    8        1.290   0.925   0.059   2.274
    9        1.472   2.325   0.024   3.820
   10        1.472   2.325   0.024   3.820
   11        1.472   2.326   0.024   3.821
   12        1.472   2.326   0.024   3.821
   13        1.471   2.327   0.023   3.820
   14        1.471   2.327   0.023   3.820
   15        1.471   2.327   0.023   3.820
   16        1.471   2.327   0.023   3.820
--------------------------------------------------
tot         17.175  22.702   0.422  40.299
 
    CHARGE:  cpu time    0.0143: real time    0.0143
    FORLOC:  cpu time    0.0012: real time    0.0012
    FORNL :  cpu time    0.0675: real time    0.0675
    STRESS:  cpu time    0.2140: real time    0.2140
    FORCOR:  cpu time    0.0079: real time    0.0079
    FORHAR:  cpu time    0.0024: real time    0.0024
    MIXING:  cpu time    0.0003: real time    0.0003
    OFIELD:  cpu time    0.0000: real time    0.0000

  FORCE on cell =-STRESS in cart. coord.  units (eV):
  Direction    XX          YY          ZZ          XY          YZ          ZX
  --------------------------------------------------------------------------------------
  Alpha Z    82.72052    82.72052    82.72052
  Ewald    -843.79756  -843.59054  -880.66134    -0.26640    -4.21263    -2.80037
  Hartree    99.69259    99.81205   104.59529    -0.07123    -0.33331     0.46053
  E(xc)    -265.95490  -265.92141  -265.43959     0.00179     0.05179     0.03843
  Local    -347.98245  -347.80966  -315.86561     0.30384     4.57872     2.17260
  n-local   672.59950   671.97110   663.64220     0.00457    -0.51288    -0.53715
  augment  -103.68644  -103.60311  -102.23167     0.00469     0.15505     0.10726
  Kinetic   706.52925   706.33227   713.03234    -0.01786     0.29442     0.57532
  Fock        0.00000     0.00000     0.00000     0.00000     0.00000     0.00000
  -------------------------------------------------------------------------------------
  Total       0.12051    -0.08878    -0.20785    -0.04061     0.02116     0.01662
  in kB       0.51857    -0.38204    -0.89444    -0.17476     0.09106     0.07152
  external pressure =       -0.25 kB  Pullay stress =        0.00 kB


 VOLUME and BASIS-vectors are now :
 -----------------------------------------------------------------------------
  energy-cutoff  :      300.00
  volume of cell :      372.32
      direct lattice vectors                 reciprocal lattice vectors
     5.567498255  0.708936849 -0.495303142     0.175395303  0.022255901 -0.015564058
    -0.747190966  5.571864033 -0.452769542    -0.023616668  0.175100159 -0.014841014
     0.891693870  1.106018336 11.630280241     0.006550224  0.007764511  0.084741854

  length of vectors
     5.634266011  5.639943564 11.716732181     0.177485429  0.177307835  0.085348550


 FORCES acting on ions
    electron-ion (+dipol)            ewald-force                    non-local-force                 convergence-correction
 -----------------------------------------------------------------------------------------------
   0.225E+00 0.917E-01 0.666E+00   -.199E+00 -.908E-01 -.604E+00   -.391E-01 -.326E-02 -.560E-01   -.992E-04 -.853E-04 -.232E-03
   -.225E+00 -.917E-01 -.666E+00   0.199E+00 0.908E-01 0.604E+00   0.391E-01 0.326E-02 0.560E-01   0.992E-04 0.853E-04 0.232E-03
   -.268E+00 -.602E-01 -.520E+00   0.231E+00 0.616E-01 0.468E+00   0.518E-01 0.392E-03 0.430E-01   0.116E-03 -.954E-04 0.217E-04
   0.268E+00 0.602E-01 0.520E+00   -.231E+00 -.616E-01 -.468E+00   -.518E-01 -.392E-03 -.430E-01   -.116E-03 0.954E-04 -.217E-04
   -.431E-01 0.320E+00 -.202E+01   -.927E-01 -.547E+00 0.250E+01   0.174E+00 0.234E+00 -.464E+00   -.967E-03 -.535E-03 -.665E-03
   0.431E-01 -.320E+00 0.202E+01   0.927E-01 0.547E+00 -.250E+01   -.174E+00 -.234E+00 0.464E+00   0.967E-03 0.535E-03 0.665E-03
   0.311E+00 -.291E+00 0.178E+01   -.562E+00 0.475E+00 -.224E+01   0.253E+00 -.208E+00 0.429E+00   0.895E-03 -.728E-03 0.166E-02
   -.311E+00 0.291E+00 -.178E+01   0.562E+00 -.475E+00 0.224E+01   -.253E+00 0.208E+00 -.429E+00   -.895E-03 0.728E-03 -.166E-02
   0.148E+01 0.323E+01 0.232E+02   -.154E+01 -.339E+01 -.243E+02   0.431E-01 0.153E+00 0.104E+01   0.181E-02 0.224E-02 -.251E-03
   -.148E+01 -.323E+01 -.232E+02   0.154E+01 0.339E+01 0.243E+02   -.431E-01 -.153E+00 -.104E+01   -.181E-02 -.224E-02 0.251E-03
   -.138E+01 -.326E+01 -.235E+02   0.143E+01 0.341E+01 0.246E+02   -.260E-01 -.149E+00 -.104E+01   -.170E-02 -.158E-03 -.115E-02
   0.138E+01 0.326E+01 0.235E+02   -.143E+01 -.341E+01 -.246E+02   0.260E-01 0.149E+00 0.104E+01   0.170E-02 0.158E-03 0.115E-02
   0.191E+01 0.205E+01 0.188E+02   -.203E+01 -.215E+01 -.197E+02   0.154E+00 0.993E-01 0.850E+00   0.126E-02 0.201E-02 0.480E-03
   -.191E+01 -.205E+01 -.188E+02   0.203E+01 0.215E+01 0.197E+02   -.154E+00 -.993E-01 -.850E+00   -.126E-02 -.201E-02 -.480E-03
   -.768E+00 -.191E+01 -.185E+02   0.781E+00 0.199E+01 0.193E+02   -.120E-01 -.946E-01 -.872E+00   -.179E-02 0.311E-03 -.135E-02
   0.768E+00 0.191E+01 0.185E+02   -.781E+00 -.199E+01 -.193E+02   0.120E-01 0.946E-01 0.872E+00   0.179E-02 -.311E-03 0.135E-02
 -----------------------------------------------------------------------------------------------
   0.885E-12 0.336E-11 0.336E-10   -.366E-14 -.244E-14 0.213E-13   0.000E+00 -.139E-16 -.444E-15   0.231E-13 0.637E-13 0.953E-13
 
 
 POSITION                                       TOTAL-FORCE (eV/Angst)
 -----------------------------------------------------------------------------------
      3.02109      5.50283      9.62071        -0.012983     -0.002444      0.005094
      2.69091      1.88398      1.06150         0.012983      0.002444     -0.005094
      5.54318      5.57704      6.41047         0.015248      0.001706     -0.008111
      0.16882      1.80978      4.27174        -0.015248     -0.001706      0.008111
     -0.44151      4.33021      1.09368         0.037392      0.006773      0.012458
      6.15351      3.05661      9.58852        -0.037392     -0.006773     -0.012458
      2.57199      4.93879      3.79156         0.001834     -0.024657     -0.026620
      3.14002      2.44803      6.89065        -0.001834      0.024657      0.026620
      2.93537      2.16430      4.01876        -0.013747     -0.003882     -0.004342
      2.77663      5.22252      6.66345         0.013747      0.003882      0.004342
      5.48773      2.23935      0.82709         0.012787      0.003154      0.007590
      0.22427      5.14747      9.85512        -0.012787     -0.003154     -0.007590
      0.36915      2.08308      7.16222         0.034096      0.000168     -0.015146
     -0.22465      4.59480      4.01529        -0.034096     -0.000168      0.015146
      3.37628      2.71464      9.81286        -0.000838     -0.010965     -0.003455
      2.33572      4.67218      0.86935         0.000838      0.010965      0.003455
 -----------------------------------------------------------------------------------
    total drift:                                0.000000      0.000000      0.000000


--------------------------------------------------------------------------------------------------------



  FREE ENERGIE OF THE ION-ELECTRON SYSTEM (eV)
  ---------------------------------------------------
  free  energy   TOTEN  =       -63.39329871 eV

  energy  without entropy=      -63.39329871  energy(sigma->0) =      -63.39329871
 
 d Force = 0.7946157E-04[-0.413E-05, 0.163E-03]  d Energy = 0.4352736E-04 0.359E-04
 d Force =-0.1178819E-01[-0.119E-01,-0.117E-01]  d Ewald  = 0.1022595E+00-0.114E+00


--------------------------------------------------------------------------------------------------------


    POTLOK:  cpu time    0.1681: real time    0.1681


--------------------------------------------------------------------------------------------------------


 Conjugate gradient step on ions:
 trial-energy change:   -0.000044  1 .order   -0.000066   -0.000151    0.000019
  (g-gl).g = 0.206E-03      g.g   = 0.240E-03  gl.gl    = 0.255E-03
 g(Force)  = 0.225E-03   g(Stress)= 0.158E-04 ortho     =-0.344E-04
 gamma     =   0.80677
 trial     =   0.71134
 opt step  =   0.63143  (harmonic =   0.63143) maximal distance =0.00042764
 next E    =   -63.393322   (d E  =  -0.00007)


--------------------------------------------------------------------------------------------------------


  
 reached required accuracy - stopping structural energy minimisation
     LOOP+:  cpu time    1.5253: real time    1.5259
    4ORBIT:  cpu time    0.0000: real time    0.0000
 


 total charge     
 
# of ion       s       p       d       tot
------------------------------------------
    1        0.061   0.098   0.000   0.160
    2        0.061   0.098   0.000   0.160
    3        0.061   0.098   0.000   0.160
    4        0.061   0.098   0.000   0.160
    5        1.290   0.925   0.059   2.274
    6        1.290   0.925   0.059   2.274
    7        1.290   0.925   0.059   2.274
    8        1.290   0.925   0.059   2.274
    9        1.472   2.325   0.024   3.820
   10        1.472   2.325   0.024   3.820
   11        1.472   2.326   0.024   3.821
   12        1.472   2.326   0.024   3.821
   13        1.471   2.327   0.023   3.820
   14        1.471   2.327   0.023   3.820
   15        1.471   2.327   0.023   3.820
   16        1.471   2.327   0.023   3.820
--------------------------------------------------
tot         17.175  22.702   0.422  40.299
 

 total amount of memory used by VASP MPI-rank0    38993. kBytes
=======================================================================

   base      :      30000. kBytes
   nonlr-proj:       1542. kBytes
   fftplans  :        759. kBytes
   grid      :       2830. kBytes
   one-center:        129. kBytes
   wavefun   :       3733. kBytes
 
  
  
 General timing and accounting informations for this job:
 ========================================================
  
                  Total CPU time used (sec):      213.423
                            User time (sec):      210.039
                          System time (sec):        3.384
                         Elapsed time (sec):      213.976
  
                   Maximum memory used (kb):       77224.
                   Average memory used (kb):           0.
  
                          Minor page faults:        53413
                          Major page faults:            0
                 Voluntary context switches:          969
