PROCAR new format
# of k-points:    9         # of bands:   56         # of ions:   16

 k-point     1 :    0.00000000 0.00000000 0.25000000     weight = 0.11111111

band     1 # energy   -9.75152505 # occ.  2.00000000
 
ion      s      p      d    tot
    1  0.001  0.000  0.000  0.001
    2  0.001  0.000  0.000  0.001
    3  0.001  0.000  0.000  0.001
    4  0.001  0.000  0.000  0.001
    5  0.031  0.000  0.000  0.031
    6  0.031  0.000  0.000  0.031
    7  0.031  0.000  0.000  0.031
    8  0.031  0.000  0.000  0.031
    9  0.065  0.000  0.000  0.065
   10  0.065  0.000  0.000  0.065
   11  0.066  0.000  0.000  0.066
   12  0.066  0.000  0.000  0.066
   13  0.058  0.000  0.000  0.058
   14  0.058  0.000  0.000  0.058
   15  0.058  0.000  0.000  0.058
   16  0.058  0.000  0.000  0.058
tot    0.619  0.002  0.001  0.622
 
band     2 # energy   -9.44239739 # occ.  2.00000000
 
ion      s      p      d    tot
    1  0.000  0.000  0.000  0.001
    2  0.000  0.000  0.000  0.001
    3  0.000  0.000  0.000  0.001
    4  0.000  0.000  0.000  0.001
    5  0.028  0.001  0.000  0.029
    6  0.028  0.001  0.000  0.029
    7  0.029  0.001  0.000  0.029
    8  0.029  0.001  0.000  0.029
    9  0.072  0.000  0.000  0.072
   10  0.072  0.000  0.000  0.072
   11  0.071  0.000  0.000  0.072
   12  0.071  0.000  0.000  0.072
   13  0.058  0.000  0.000  0.058
   14  0.058  0.000  0.000  0.058
   15  0.057  0.000  0.000  0.057
   16  0.057  0.000  0.000  0.057
tot    0.631  0.005  0.001  0.637
 
band     3 # energy   -8.90143004 # occ.  2.00000000
 
ion      s      p      d    tot
    1  0.000  0.000  0.000  0.000
    2  0.000  0.000  0.000  0.000
    3  0.000  0.000  0.000  0.000
    4  0.000  0.000  0.000  0.000
    5  0.023  0.001  0.000  0.024
    6  0.023  0.001  0.000  0.024
    7  0.023  0.001  0.000  0.024
    8  0.023  0.001  0.000  0.024
    9  0.068  0.000  0.000  0.069
   10  0.068  0.000  0.000  0.069
   11  0.068  0.000  0.000  0.069
   12  0.068  0.000  0.000  0.069
   13  0.074  0.000  0.000  0.074
   14  0.074  0.000  0.000  0.074
   15  0.074  0.000  0.000  0.074
   16  0.074  0.000  0.000  0.074
tot    0.659  0.007  0.002  0.668
 
band     4 # energy   -8.38629029 # occ.  2.00000000
 
ion      s      p      d    tot
    1  0.000  0.000  0.000  0.000
    2  0.000  0.000  0.000  0.000
    3  0.000  0.000  0.000  0.000
    4  0.000  0.000  0.000  0.000
    5  0.015  0.001  0.000  0.016
    6  0.015  0.001  0.000  0.016
    7  0.015  0.001  0.000  0.016
    8  0.015  0.001  0.000  0.016
    9  0.086  0.000  0.000  0.086
   10  0.086  0.000  0.000  0.086
   11  0.086  0.000  0.000  0.086
   12  0.086  0.000  0.000  0.086
   13  0.074  0.000  0.000  0.075
   14  0.074  0.000  0.000  0.075
   15  0.074  0.000  0.000  0.075
   16  0.074  0.000  0.000  0.075
tot    0.702  0.003  0.003  0.708
 
band     5 # energy   -7.99336460 # occ.  2.00000000
 
ion      s      p      d    tot
    1  0.000  0.000  0.000  0.000
    2  0.000  0.000  0.000  0.000
    3  0.000  0.000  0.000  0.000
    4  0.000  0.000  0.000  0.000
    5  0.001  0.001  0.001  0.003
    6  0.001  0.001  0.001  0.003
    7  0.001  0.000  0.000  0.001
    8  0.001  0.000  0.000  0.001
    9  0.035  0.000  0.000  0.035
   10  0.035  0.000  0.000  0.035
   11  0.218  0.000  0.000  0.218
   12  0.218  0.000  0.000  0.218
   13  0.009  0.000  0.000  0.009
   14  0.009  0.000  0.000  0.009
   15  0.102  0.000  0.000  0.102
   16  0.102  0.000  0.000  0.102
tot    0.733  0.002  0.003  0.738
 
band     6 # energy   -7.99170573 # occ.  2.00000000
 
ion      s      p      d    tot
    1  0.000  0.000  0.000  0.000
    2  0.000  0.000  0.000  0.000
    3  0.000  0.000  0.000  0.000
    4  0.000  0.000  0.000  0.000
    5  0.000  0.001  0.000  0.001
    6  0.000  0.001  0.000  0.001
    7  0.000  0.001  0.001  0.002
    8  0.000  0.001  0.001  0.002
    9  0.210  0.000  0.000  0.210
   10  0.210  0.000  0.000  0.210
   11  0.027  0.000  0.000  0.027
   12  0.027  0.000  0.000  0.027
   13  0.110  0.000  0.000  0.110
   14  0.110  0.000  0.000  0.110
   15  0.018  0.000  0.000  0.018
   16  0.018  0.000  0.000  0.018
tot    0.731  0.004  0.002  0.738
 
band     7 # energy   -7.96874052 # occ.  2.00000000
 
ion      s      p      d    tot
    1  0.000  0.000  0.000  0.000
    2  0.000  0.000  0.000  0.000
    3  0.000  0.000  0.000  0.000
    4  0.000  0.000  0.000  0.000
    5  0.000  0.001  0.001  0.002
    6  0.000  0.001  0.001  0.002
    7  0.000  0.001  0.001  0.002
    8  0.000  0.001  0.001  0.002
    9  0.056  0.000  0.000  0.056
   10  0.056  0.000  0.000  0.056
   11  0.060  0.000  0.000  0.060
   12  0.060  0.000  0.000  0.060
   13  0.121  0.000  0.000  0.121
   14  0.121  0.000  0.000  0.121
   15  0.129  0.000  0.000  0.129
   16  0.129  0.000  0.000  0.129
tot    0.732  0.004  0.002  0.739
 
band     8 # energy   -7.95084138 # occ.  2.00000000
 
ion      s      p      d    tot
    1  0.000  0.000  0.000  0.000
    2  0.000  0.000  0.000  0.000
    3  0.000  0.000  0.000  0.000
    4  0.000  0.000  0.000  0.000
    5  0.000  0.000  0.001  0.001
    6  0.000  0.000  0.001  0.001
    7  0.000  0.000  0.001  0.001
    8  0.000  0.000  0.001  0.001
    9  0.051  0.000  0.000  0.052
   10  0.051  0.000  0.000  0.052
   11  0.047  0.000  0.000  0.047
   12  0.047  0.000  0.000  0.047
   13  0.138  0.000  0.000  0.138
   14  0.138  0.000  0.000  0.138
   15  0.130  0.000  0.000  0.130
   16  0.130  0.000  0.000  0.130
tot    0.735  0.001  0.003  0.739
 
band     9 # energy   -4.23130044 # occ.  2.00000000
 
ion      s      p      d    tot
    1  0.000  0.000  0.000  0.000
    2  0.000  0.000  0.000  0.000
    3  0.000  0.000  0.000  0.000
    4  0.000  0.000  0.000  0.000
    5  0.138  0.000  0.000  0.138
    6  0.138  0.000  0.000  0.138
    7  0.138  0.000  0.000  0.138
    8  0.138  0.000  0.000  0.138
    9  0.011  0.003  0.001  0.015
   10  0.011  0.003  0.001  0.015
   11  0.011  0.003  0.001  0.015
   12  0.011  0.003  0.001  0.015
   13  0.013  0.003  0.001  0.016
   14  0.013  0.003  0.001  0.016
   15  0.013  0.003  0.001  0.016
   16  0.013  0.003  0.001  0.016
tot    0.645  0.022  0.009  0.677
 
band    10 # energy   -3.79618923 # occ.  2.00000000
 
ion      s      p      d    tot
    1  0.000  0.000  0.000  0.000
    2  0.000  0.000  0.000  0.000
    3  0.000  0.000  0.000  0.000
    4  0.000  0.000  0.000  0.000
    5  0.129  0.000  0.000  0.129
    6  0.129  0.000  0.000  0.129
    7  0.129  0.000  0.000  0.129
    8  0.129  0.000  0.000  0.129
    9  0.019  0.003  0.001  0.023
   10  0.019  0.003  0.001  0.023
   11  0.019  0.003  0.001  0.023
   12  0.019  0.003  0.001  0.023
   13  0.023  0.002  0.001  0.026
   14  0.023  0.002  0.001  0.026
   15  0.023  0.002  0.001  0.026
   16  0.023  0.002  0.001  0.026
tot    0.681  0.021  0.007  0.710
 
band    11 # energy   -3.30329333 # occ.  2.00000000
 
ion      s      p      d    tot
    1  0.000  0.000  0.000  0.000
    2  0.000  0.000  0.000  0.000
    3  0.000  0.000  0.000  0.000
    4  0.000  0.000  0.000  0.000
    5  0.123  0.000  0.000  0.124
    6  0.123  0.000  0.000  0.124
    7  0.123  0.000  0.000  0.123
    8  0.123  0.000  0.000  0.123
    9  0.029  0.002  0.001  0.032
   10  0.029  0.002  0.001  0.032
   11  0.029  0.002  0.001  0.033
   12  0.029  0.002  0.001  0.033
   13  0.026  0.002  0.001  0.029
   14  0.026  0.002  0.001  0.029
   15  0.026  0.002  0.001  0.029
   16  0.026  0.002  0.001  0.029
tot    0.715  0.018  0.006  0.739
 
band    12 # energy   -3.12106797 # occ.  2.00000000
 
ion      s      p      d    tot
    1  0.001  0.000  0.000  0.001
    2  0.001  0.000  0.000  0.001
    3  0.001  0.000  0.000  0.001
    4  0.001  0.000  0.000  0.001
    5  0.118  0.000  0.000  0.118
    6  0.118  0.000  0.000  0.118
    7  0.119  0.000  0.000  0.119
    8  0.119  0.000  0.000  0.119
    9  0.029  0.004  0.001  0.033
   10  0.029  0.004  0.001  0.033
   11  0.029  0.004  0.001  0.033
   12  0.029  0.004  0.001  0.033
   13  0.027  0.003  0.001  0.030
   14  0.027  0.003  0.001  0.030
   15  0.027  0.003  0.001  0.030
   16  0.027  0.003  0.001  0.030
tot    0.703  0.025  0.005  0.732
 
band    13 # energy   -1.42493893 # occ.  2.00000000
 
ion      s      p      d    tot
    1  0.000  0.001  0.000  0.001
    2  0.000  0.001  0.000  0.001
    3  0.000  0.001  0.000  0.001
    4  0.000  0.001  0.000  0.001
    5  0.000  0.037  0.000  0.037
    6  0.000  0.037  0.000  0.037
    7  0.000  0.036  0.000  0.036
    8  0.000  0.036  0.000  0.036
    9  0.000  0.054  0.000  0.054
   10  0.000  0.054  0.000  0.054
   11  0.000  0.055  0.000  0.055
   12  0.000  0.055  0.000  0.055
   13  0.000  0.011  0.000  0.011
   14  0.000  0.011  0.000  0.011
   15  0.000  0.011  0.000  0.011
   16  0.000  0.011  0.000  0.011
tot    0.000  0.415  0.000  0.416
 
band    14 # energy   -1.39391792 # occ.  2.00000000
 
ion      s      p      d    tot
    1  0.000  0.002  0.000  0.002
    2  0.000  0.002  0.000  0.002
    3  0.000  0.002  0.000  0.002
    4  0.000  0.002  0.000  0.002
    5  0.000  0.036  0.000  0.037
    6  0.000  0.036  0.000  0.037
    7  0.000  0.036  0.000  0.036
    8  0.000  0.036  0.000  0.036
    9  0.000  0.012  0.000  0.012
   10  0.000  0.012  0.000  0.012
   11  0.000  0.012  0.000  0.012
   12  0.000  0.012  0.000  0.012
   13  0.000  0.054  0.000  0.054
   14  0.000  0.054  0.000  0.054
   15  0.000  0.054  0.000  0.054
   16  0.000  0.054  0.000  0.054
tot    0.000  0.415  0.000  0.415
 
band    15 # energy   -1.12228890 # occ.  2.00000000
 
ion      s      p      d    tot
    1  0.000  0.001  0.000  0.001
    2  0.000  0.001  0.000  0.001
    3  0.000  0.001  0.000  0.001
    4  0.000  0.001  0.000  0.001
    5  0.000  0.038  0.000  0.038
    6  0.000  0.038  0.000  0.038
    7  0.000  0.039  0.000  0.039
    8  0.000  0.039  0.000  0.039
    9  0.000  0.061  0.000  0.061
   10  0.000  0.061  0.000  0.061
   11  0.000  0.060  0.000  0.060
   12  0.000  0.060  0.000  0.060
   13  0.000  0.008  0.000  0.008
   14  0.000  0.008  0.000  0.008
   15  0.000  0.008  0.000  0.008
   16  0.000  0.008  0.000  0.008
tot    0.000  0.430  0.001  0.432
 
band    16 # energy   -1.07161155 # occ.  2.00000000
 
ion      s      p      d    tot
    1  0.000  0.001  0.000  0.001
    2  0.000  0.001  0.000  0.001
    3  0.000  0.001  0.000  0.001
    4  0.000  0.001  0.000  0.001
    5  0.000  0.038  0.000  0.038
    6  0.000  0.038  0.000  0.038
    7  0.000  0.038  0.000  0.038
    8  0.000  0.038  0.000  0.038
    9  0.000  0.009  0.000  0.009
   10  0.000  0.009  0.000  0.009
   11  0.000  0.009  0.000  0.009
   12  0.000  0.009  0.000  0.009
   13  0.000  0.060  0.000  0.060
   14  0.000  0.060  0.000  0.060
   15  0.000  0.059  0.000  0.059
   16  0.000  0.059  0.000  0.059
tot    0.000  0.430  0.001  0.431
 
band    17 # energy   -0.98997569 # occ.  2.00000000
 
ion      s      p      d    tot
    1  0.000  0.002  0.000  0.002
    2  0.000  0.002  0.000  0.002
    3  0.000  0.002  0.000  0.002
    4  0.000  0.002  0.000  0.002
    5  0.001  0.031  0.000  0.031
    6  0.001  0.031  0.000  0.031
    7  0.001  0.030  0.000  0.031
    8  0.001  0.030  0.000  0.031
    9  0.001  0.031  0.000  0.033
   10  0.001  0.031  0.000  0.033
   11  0.001  0.032  0.000  0.033
   12  0.001  0.032  0.000  0.033
   13  0.002  0.031  0.000  0.033
   14  0.002  0.031  0.000  0.033
   15  0.002  0.031  0.000  0.033
   16  0.002  0.031  0.000  0.033
tot    0.015  0.380  0.001  0.397
 
band    18 # energy   -0.44443413 # occ.  2.00000000
 
ion      s      p      d    tot
    1  0.000  0.001  0.000  0.001
    2  0.000  0.001  0.000  0.001
    3  0.000  0.001  0.000  0.001
    4  0.000  0.001  0.000  0.001
    5  0.000  0.038  0.000  0.039
    6  0.000  0.038  0.000  0.039
    7  0.000  0.039  0.000  0.039
    8  0.000  0.039  0.000  0.039
    9  0.000  0.011  0.000  0.011
   10  0.000  0.011  0.000  0.011
   11  0.000  0.011  0.000  0.011
   12  0.000  0.011  0.000  0.011
   13  0.000  0.064  0.000  0.064
   14  0.000  0.064  0.000  0.064
   15  0.000  0.063  0.000  0.063
   16  0.000  0.063  0.000  0.063
tot    0.000  0.455  0.002  0.457
 
band    19 # energy   -0.42320081 # occ.  2.00000000
 
ion      s      p      d    tot
    1  0.000  0.001  0.000  0.001
    2  0.000  0.001  0.000  0.001
    3  0.000  0.001  0.000  0.001
    4  0.000  0.001  0.000  0.001
    5  0.000  0.038  0.000  0.038
    6  0.000  0.038  0.000  0.038
    7  0.000  0.038  0.000  0.038
    8  0.000  0.038  0.000  0.038
    9  0.000  0.063  0.000  0.064
   10  0.000  0.063  0.000  0.064
   11  0.000  0.064  0.000  0.064
   12  0.000  0.064  0.000  0.064
   13  0.000  0.011  0.000  0.011
   14  0.000  0.011  0.000  0.011
   15  0.000  0.011  0.000  0.011
   16  0.000  0.011  0.000  0.011
tot    0.000  0.455  0.002  0.457
 
band    20 # energy    0.02934318 # occ.  2.00000000
 
ion      s      p      d    tot
    1  0.000  0.000  0.000  0.000
    2  0.000  0.000  0.000  0.000
    3  0.000  0.001  0.000  0.001
    4  0.000  0.001  0.000  0.001
    5  0.000  0.042  0.000  0.042
    6  0.000  0.042  0.000  0.042
    7  0.000  0.042  0.000  0.042
    8  0.000  0.042  0.000  0.042
    9  0.000  0.005  0.000  0.005
   10  0.000  0.005  0.000  0.005
   11  0.000  0.005  0.000  0.005
   12  0.000  0.005  0.000  0.005
   13  0.000  0.075  0.000  0.075
   14  0.000  0.075  0.000  0.075
   15  0.000  0.076  0.000  0.076
   16  0.000  0.076  0.000  0.076
tot    0.000  0.492  0.001  0.493
 
band    21 # energy    0.03183837 # occ.  2.00000000
 
ion      s      p      d    tot
    1  0.000  0.001  0.000  0.001
    2  0.000  0.001  0.000  0.001
    3  0.000  0.001  0.000  0.001
    4  0.000  0.001  0.000  0.001
    5  0.000  0.042  0.000  0.042
    6  0.000  0.042  0.000  0.042
    7  0.000  0.042  0.000  0.042
    8  0.000  0.042  0.000  0.042
    9  0.000  0.076  0.000  0.076
   10  0.000  0.076  0.000  0.076
   11  0.000  0.076  0.000  0.076
   12  0.000  0.076  0.000  0.076
   13  0.000  0.005  0.000  0.005
   14  0.000  0.005  0.000  0.005
   15  0.000  0.005  0.000  0.005
   16  0.000  0.005  0.000  0.005
tot    0.000  0.492  0.001  0.493
 
band    22 # energy    0.08497803 # occ.  2.00000000
 
ion      s      p      d    tot
    1  0.001  0.000  0.000  0.001
    2  0.001  0.000  0.000  0.001
    3  0.001  0.000  0.000  0.001
    4  0.001  0.000  0.000  0.001
    5  0.003  0.035  0.000  0.038
    6  0.003  0.035  0.000  0.038
    7  0.003  0.035  0.000  0.038
    8  0.003  0.035  0.000  0.038
    9  0.002  0.035  0.000  0.038
   10  0.002  0.035  0.000  0.038
   11  0.002  0.035  0.000  0.038
   12  0.002  0.035  0.000  0.038
   13  0.002  0.032  0.000  0.034
   14  0.002  0.032  0.000  0.034
   15  0.002  0.032  0.000  0.034
   16  0.002  0.032  0.000  0.034
tot    0.032  0.407  0.004  0.443
 
band    23 # energy    1.17857664 # occ.  2.00000000
 
ion      s      p      d    tot
    1  0.000  0.001  0.000  0.002
    2  0.000  0.001  0.000  0.002
    3  0.000  0.001  0.000  0.002
    4  0.000  0.001  0.000  0.002
    5  0.001  0.033  0.000  0.035
    6  0.001  0.033  0.000  0.035
    7  0.001  0.033  0.000  0.035
    8  0.001  0.033  0.000  0.035
    9  0.001  0.042  0.000  0.043
   10  0.001  0.042  0.000  0.043
   11  0.001  0.042  0.000  0.043
   12  0.001  0.042  0.000  0.043
   13  0.000  0.042  0.000  0.042
   14  0.000  0.042  0.000  0.042
   15  0.000  0.042  0.000  0.042
   16  0.000  0.042  0.000  0.042
tot    0.010  0.474  0.004  0.488
 
band    24 # energy    2.04469087 # occ.  2.00000000
 
ion      s      p      d    tot
    1  0.000  0.008  0.000  0.008
    2  0.000  0.008  0.000  0.008
    3  0.000  0.008  0.000  0.008
    4  0.000  0.008  0.000  0.008
    5  0.000  0.002  0.000  0.002
    6  0.000  0.002  0.000  0.002
    7  0.000  0.002  0.000  0.002
    8  0.000  0.002  0.000  0.002
    9  0.000  0.103  0.000  0.103
   10  0.000  0.103  0.000  0.103
   11  0.000  0.104  0.000  0.104
   12  0.000  0.104  0.000  0.104
   13  0.000  0.008  0.000  0.008
   14  0.000  0.008  0.000  0.008
   15  0.000  0.008  0.000  0.008
   16  0.000  0.008  0.000  0.008
tot    0.000  0.488  0.001  0.489
 
band    25 # energy    2.07709748 # occ.  2.00000000
 
ion      s      p      d    tot
    1  0.000  0.009  0.000  0.009
    2  0.000  0.009  0.000  0.009
    3  0.000  0.008  0.000  0.008
    4  0.000  0.008  0.000  0.008
    5  0.000  0.002  0.000  0.002
    6  0.000  0.002  0.000  0.002
    7  0.000  0.002  0.000  0.002
    8  0.000  0.002  0.000  0.002
    9  0.000  0.008  0.000  0.009
   10  0.000  0.008  0.000  0.009
   11  0.000  0.009  0.000  0.009
   12  0.000  0.009  0.000  0.009
   13  0.000  0.101  0.000  0.101
   14  0.000  0.101  0.000  0.101
   15  0.000  0.104  0.000  0.104
   16  0.000  0.104  0.000  0.104
tot    0.000  0.487  0.001  0.488
 
band    26 # energy    2.16666719 # occ.  2.00000000
 
ion      s      p      d    tot
    1  0.002  0.000  0.000  0.002
    2  0.002  0.000  0.000  0.002
    3  0.002  0.000  0.000  0.002
    4  0.002  0.000  0.000  0.002
    5  0.004  0.024  0.000  0.028
    6  0.004  0.024  0.000  0.028
    7  0.004  0.023  0.000  0.028
    8  0.004  0.023  0.000  0.028
    9  0.002  0.051  0.000  0.053
   10  0.002  0.051  0.000  0.053
   11  0.002  0.054  0.000  0.056
   12  0.002  0.054  0.000  0.056
   13  0.002  0.045  0.000  0.047
   14  0.002  0.045  0.000  0.047
   15  0.002  0.048  0.000  0.050
   16  0.002  0.048  0.000  0.050
tot    0.038  0.490  0.004  0.533
 
band    27 # energy    2.25744014 # occ.  2.00000000
 
ion      s      p      d    tot
    1  0.000  0.005  0.000  0.006
    2  0.000  0.005  0.000  0.006
    3  0.000  0.006  0.000  0.006
    4  0.000  0.006  0.000  0.006
    5  0.010  0.002  0.001  0.013
    6  0.010  0.002  0.001  0.013
    7  0.010  0.002  0.001  0.013
    8  0.010  0.002  0.001  0.013
    9  0.000  0.053  0.000  0.053
   10  0.000  0.053  0.000  0.053
   11  0.000  0.049  0.000  0.050
   12  0.000  0.049  0.000  0.050
   13  0.000  0.059  0.000  0.059
   14  0.000  0.059  0.000  0.059
   15  0.000  0.055  0.000  0.055
   16  0.000  0.055  0.000  0.055
tot    0.042  0.460  0.006  0.509
 
band    28 # energy    2.29524480 # occ.  2.00000000
 
ion      s      p      d    tot
    1  0.000  0.008  0.000  0.008
    2  0.000  0.008  0.000  0.008
    3  0.000  0.008  0.000  0.008
    4  0.000  0.008  0.000  0.008
    5  0.000  0.004  0.000  0.004
    6  0.000  0.004  0.000  0.004
    7  0.000  0.004  0.000  0.004
    8  0.000  0.004  0.000  0.004
    9  0.000  0.099  0.000  0.099
   10  0.000  0.099  0.000  0.099
   11  0.000  0.098  0.000  0.098
   12  0.000  0.098  0.000  0.098
   13  0.000  0.017  0.000  0.017
   14  0.000  0.017  0.000  0.017
   15  0.000  0.017  0.000  0.017
   16  0.000  0.017  0.000  0.017
tot    0.000  0.509  0.001  0.510
 
band    29 # energy    2.30710022 # occ.  2.00000000
 
ion      s      p      d    tot
    1  0.000  0.007  0.000  0.007
    2  0.000  0.007  0.000  0.007
    3  0.000  0.008  0.000  0.008
    4  0.000  0.008  0.000  0.008
    5  0.000  0.004  0.000  0.004
    6  0.000  0.004  0.000  0.004
    7  0.000  0.004  0.000  0.004
    8  0.000  0.004  0.000  0.004
    9  0.000  0.020  0.000  0.020
   10  0.000  0.020  0.000  0.020
   11  0.000  0.019  0.000  0.019
   12  0.000  0.019  0.000  0.019
   13  0.000  0.097  0.000  0.097
   14  0.000  0.097  0.000  0.097
   15  0.000  0.094  0.000  0.094
   16  0.000  0.094  0.000  0.094
tot    0.002  0.506  0.001  0.509
 
band    30 # energy    2.69043858 # occ.  2.00000000
 
ion      s      p      d    tot
    1  0.003  0.001  0.000  0.005
    2  0.003  0.001  0.000  0.005
    3  0.003  0.001  0.000  0.005
    4  0.003  0.001  0.000  0.005
    5  0.009  0.002  0.001  0.012
    6  0.009  0.002  0.001  0.012
    7  0.008  0.002  0.001  0.012
    8  0.008  0.002  0.001  0.012
    9  0.001  0.059  0.001  0.060
   10  0.001  0.059  0.001  0.060
   11  0.001  0.061  0.001  0.062
   12  0.001  0.061  0.001  0.062
   13  0.001  0.050  0.001  0.052
   14  0.001  0.050  0.001  0.052
   15  0.001  0.050  0.001  0.051
   16  0.001  0.050  0.001  0.051
tot    0.054  0.453  0.010  0.517
 
band    31 # energy    2.69471082 # occ.  2.00000000
 
ion      s      p      d    tot
    1  0.000  0.006  0.000  0.007
    2  0.000  0.006  0.000  0.007
    3  0.001  0.006  0.000  0.007
    4  0.001  0.006  0.000  0.007
    5  0.001  0.002  0.001  0.004
    6  0.001  0.002  0.001  0.004
    7  0.001  0.002  0.001  0.004
    8  0.001  0.002  0.001  0.004
    9  0.000  0.103  0.000  0.103
   10  0.000  0.103  0.000  0.103
   11  0.000  0.102  0.000  0.102
   12  0.000  0.102  0.000  0.102
   13  0.000  0.019  0.000  0.019
   14  0.000  0.019  0.000  0.019
   15  0.000  0.019  0.000  0.019
   16  0.000  0.019  0.000  0.019
tot    0.008  0.520  0.004  0.531
 
band    32 # energy    2.75356698 # occ.  2.00000000
 
ion      s      p      d    tot
    1  0.000  0.007  0.000  0.007
    2  0.000  0.007  0.000  0.007
    3  0.000  0.007  0.000  0.007
    4  0.000  0.007  0.000  0.007
    5  0.000  0.002  0.000  0.002
    6  0.000  0.002  0.000  0.002
    7  0.000  0.002  0.000  0.002
    8  0.000  0.002  0.000  0.002
    9  0.000  0.013  0.000  0.013
   10  0.000  0.013  0.000  0.013
   11  0.000  0.012  0.000  0.013
   12  0.000  0.012  0.000  0.013
   13  0.000  0.112  0.000  0.112
   14  0.000  0.112  0.000  0.112
   15  0.000  0.110  0.000  0.110
   16  0.000  0.110  0.000  0.110
tot    0.000  0.530  0.002  0.533
 
band    33 # energy    2.83389840 # occ.  2.00000000
 
ion      s      p      d    tot
    1  0.003  0.002  0.000  0.004
    2  0.003  0.002  0.000  0.004
    3  0.002  0.002  0.000  0.004
    4  0.002  0.002  0.000  0.004
    5  0.012  0.001  0.001  0.014
    6  0.012  0.001  0.001  0.014
    7  0.012  0.001  0.001  0.014
    8  0.012  0.001  0.001  0.014
    9  0.001  0.058  0.000  0.059
   10  0.001  0.058  0.000  0.059
   11  0.001  0.056  0.000  0.057
   12  0.001  0.056  0.000  0.057
   13  0.001  0.059  0.000  0.060
   14  0.001  0.059  0.000  0.060
   15  0.001  0.060  0.000  0.061
   16  0.001  0.060  0.000  0.061
tot    0.066  0.475  0.008  0.548
 
band    34 # energy    2.98796271 # occ.  2.00000000
 
ion      s      p      d    tot
    1  0.000  0.006  0.000  0.006
    2  0.000  0.006  0.000  0.006
    3  0.000  0.006  0.000  0.006
    4  0.000  0.006  0.000  0.006
    5  0.000  0.005  0.000  0.005
    6  0.000  0.005  0.000  0.005
    7  0.000  0.005  0.000  0.005
    8  0.000  0.005  0.000  0.005
    9  0.000  0.101  0.000  0.101
   10  0.000  0.101  0.000  0.101
   11  0.000  0.102  0.000  0.102
   12  0.000  0.102  0.000  0.102
   13  0.000  0.029  0.000  0.029
   14  0.000  0.029  0.000  0.029
   15  0.000  0.029  0.000  0.030
   16  0.000  0.029  0.000  0.030
tot    0.000  0.563  0.001  0.565
 
band    35 # energy    3.02474141 # occ.  2.00000000
 
ion      s      p      d    tot
    1  0.000  0.006  0.000  0.006
    2  0.000  0.006  0.000  0.006
    3  0.000  0.006  0.000  0.006
    4  0.000  0.006  0.000  0.006
    5  0.000  0.004  0.000  0.004
    6  0.000  0.004  0.000  0.004
    7  0.000  0.004  0.000  0.004
    8  0.000  0.004  0.000  0.004
    9  0.000  0.028  0.000  0.028
   10  0.000  0.028  0.000  0.028
   11  0.000  0.029  0.000  0.029
   12  0.000  0.029  0.000  0.029
   13  0.000  0.101  0.000  0.101
   14  0.000  0.101  0.000  0.101
   15  0.000  0.103  0.000  0.103
   16  0.000  0.103  0.000  0.103
tot    0.000  0.562  0.001  0.563
 
band    36 # energy    3.41153871 # occ.  2.00000000
 
ion      s      p      d    tot
    1  0.000  0.001  0.000  0.002
    2  0.000  0.001  0.000  0.002
    3  0.000  0.001  0.000  0.002
    4  0.000  0.001  0.000  0.002
    5  0.010  0.002  0.002  0.014
    6  0.010  0.002  0.002  0.014
    7  0.010  0.002  0.002  0.014
    8  0.010  0.002  0.002  0.014
    9  0.001  0.063  0.000  0.064
   10  0.001  0.063  0.000  0.064
   11  0.001  0.063  0.000  0.064
   12  0.001  0.063  0.000  0.064
   13  0.001  0.071  0.000  0.072
   14  0.001  0.071  0.000  0.072
   15  0.001  0.070  0.000  0.071
   16  0.001  0.070  0.000  0.071
tot    0.048  0.549  0.008  0.604
 
band    37 # energy    5.71610166 # occ.  0.00000000
 
ion      s      p      d    tot
    1  0.005  0.000  0.000  0.005
    2  0.005  0.000  0.000  0.005
    3  0.005  0.000  0.000  0.005
    4  0.005  0.000  0.000  0.005
    5  0.000  0.080  0.000  0.080
    6  0.000  0.080  0.000  0.080
    7  0.000  0.081  0.000  0.081
    8  0.000  0.081  0.000  0.081
    9  0.007  0.011  0.002  0.020
   10  0.007  0.011  0.002  0.020
   11  0.007  0.011  0.002  0.020
   12  0.007  0.011  0.002  0.020
   13  0.007  0.009  0.002  0.018
   14  0.007  0.009  0.002  0.018
   15  0.007  0.010  0.002  0.018
   16  0.007  0.010  0.002  0.018
tot    0.074  0.407  0.015  0.496
 
band    38 # energy    6.60982011 # occ.  0.00000000
 
ion      s      p      d    tot
    1  0.001  0.005  0.000  0.005
    2  0.001  0.005  0.000  0.005
    3  0.001  0.005  0.000  0.005
    4  0.001  0.005  0.000  0.005
    5  0.001  0.069  0.000  0.070
    6  0.001  0.069  0.000  0.070
    7  0.001  0.068  0.000  0.069
    8  0.001  0.068  0.000  0.069
    9  0.006  0.024  0.002  0.032
   10  0.006  0.024  0.002  0.032
   11  0.006  0.024  0.002  0.032
   12  0.006  0.024  0.002  0.032
   13  0.006  0.029  0.001  0.037
   14  0.006  0.029  0.001  0.037
   15  0.006  0.029  0.001  0.036
   16  0.006  0.029  0.001  0.036
tot    0.052  0.507  0.014  0.572
 
band    39 # energy    7.07587493 # occ.  0.00000000
 
ion      s      p      d    tot
    1  0.011  0.008  0.000  0.018
    2  0.011  0.008  0.000  0.018
    3  0.010  0.008  0.000  0.018
    4  0.010  0.008  0.000  0.018
    5  0.000  0.060  0.000  0.060
    6  0.000  0.060  0.000  0.060
    7  0.000  0.062  0.000  0.062
    8  0.000  0.062  0.000  0.062
    9  0.004  0.015  0.004  0.023
   10  0.004  0.015  0.004  0.023
   11  0.004  0.014  0.004  0.022
   12  0.004  0.014  0.004  0.022
   13  0.004  0.013  0.004  0.020
   14  0.004  0.013  0.004  0.020
   15  0.003  0.013  0.004  0.020
   16  0.003  0.013  0.004  0.020
tot    0.072  0.385  0.031  0.487
 
band    40 # energy    7.14934121 # occ.  0.00000000
 
ion      s      p      d    tot
    1  0.021  0.001  0.000  0.021
    2  0.021  0.001  0.000  0.021
    3  0.021  0.001  0.000  0.022
    4  0.021  0.001  0.000  0.022
    5  0.000  0.053  0.000  0.053
    6  0.000  0.053  0.000  0.053
    7  0.000  0.052  0.000  0.052
    8  0.000  0.052  0.000  0.052
    9  0.001  0.020  0.005  0.026
   10  0.001  0.020  0.005  0.026
   11  0.002  0.021  0.005  0.027
   12  0.002  0.021  0.005  0.027
   13  0.001  0.015  0.005  0.021
   14  0.001  0.015  0.005  0.021
   15  0.001  0.015  0.005  0.021
   16  0.001  0.015  0.005  0.021
tot    0.095  0.355  0.038  0.488
 
band    41 # energy    8.03060932 # occ.  0.00000000
 
ion      s      p      d    tot
    1  0.000  0.000  0.000  0.000
    2  0.000  0.000  0.000  0.000
    3  0.000  0.000  0.000  0.000
    4  0.000  0.000  0.000  0.000
    5  0.000  0.000  0.017  0.017
    6  0.000  0.000  0.017  0.017
    7  0.000  0.000  0.017  0.017
    8  0.000  0.000  0.017  0.017
    9  0.000  0.003  0.012  0.015
   10  0.000  0.003  0.012  0.015
   11  0.000  0.003  0.012  0.015
   12  0.000  0.003  0.012  0.015
   13  0.000  0.003  0.007  0.010
   14  0.000  0.003  0.007  0.010
   15  0.000  0.003  0.007  0.010
   16  0.000  0.003  0.007  0.010
tot    0.000  0.021  0.145  0.167
 
band    42 # energy    8.03933364 # occ.  0.00000000
 
ion      s      p      d    tot
    1  0.000  0.000  0.000  0.000
    2  0.000  0.000  0.000  0.000
    3  0.000  0.000  0.000  0.000
    4  0.000  0.000  0.000  0.000
    5  0.000  0.000  0.017  0.017
    6  0.000  0.000  0.017  0.017
    7  0.000  0.001  0.017  0.017
    8  0.000  0.001  0.017  0.017
    9  0.000  0.003  0.008  0.010
   10  0.000  0.003  0.008  0.010
   11  0.000  0.003  0.008  0.010
   12  0.000  0.003  0.008  0.010
   13  0.000  0.002  0.012  0.014
   14  0.000  0.002  0.012  0.014
   15  0.000  0.002  0.012  0.014
   16  0.000  0.002  0.012  0.014
tot    0.000  0.021  0.144  0.166
 
band    43 # energy    8.07157125 # occ.  0.00000000
 
ion      s      p      d    tot
    1  0.000  0.000  0.000  0.000
    2  0.000  0.000  0.000  0.000
    3  0.000  0.000  0.000  0.000
    4  0.000  0.000  0.000  0.000
    5  0.000  0.000  0.017  0.018
    6  0.000  0.000  0.017  0.018
    7  0.000  0.000  0.017  0.017
    8  0.000  0.000  0.017  0.017
    9  0.000  0.000  0.010  0.011
   10  0.000  0.000  0.010  0.011
   11  0.000  0.000  0.011  0.011
   12  0.000  0.000  0.011  0.011
   13  0.000  0.000  0.010  0.010
   14  0.000  0.000  0.010  0.010
   15  0.000  0.000  0.010  0.011
   16  0.000  0.000  0.010  0.011
tot    0.000  0.002  0.152  0.154
 
band    44 # energy    8.54645365 # occ.  0.00000000
 
ion      s      p      d    tot
    1  0.000  0.000  0.000  0.000
    2  0.000  0.000  0.000  0.000
    3  0.000  0.000  0.000  0.000
    4  0.000  0.000  0.000  0.000
    5  0.000  0.000  0.018  0.018
    6  0.000  0.000  0.018  0.018
    7  0.000  0.000  0.018  0.018
    8  0.000  0.000  0.018  0.018
    9  0.000  0.000  0.011  0.011
   10  0.000  0.000  0.011  0.011
   11  0.000  0.000  0.011  0.011
   12  0.000  0.000  0.011  0.011
   13  0.000  0.000  0.011  0.011
   14  0.000  0.000  0.011  0.011
   15  0.000  0.000  0.011  0.011
   16  0.000  0.000  0.011  0.011
tot    0.000  0.003  0.158  0.161
 
band    45 # energy    8.76084503 # occ.  0.00000000
 
ion      s      p      d    tot
    1  0.036  0.001  0.000  0.036
    2  0.036  0.001  0.000  0.036
    3  0.035  0.001  0.000  0.036
    4  0.035  0.001  0.000  0.036
    5  0.003  0.009  0.001  0.014
    6  0.003  0.009  0.001  0.014
    7  0.003  0.009  0.001  0.014
    8  0.003  0.009  0.001  0.014
    9  0.011  0.014  0.003  0.028
   10  0.011  0.014  0.003  0.028
   11  0.011  0.014  0.003  0.028