<?xml version="1.0" encoding="ISO-8859-1"?>
<modeling>
 <generator>
  <i name="program" type="string">vasp </i>
  <i name="version" type="string">5.4.4.18Apr17-6-g9f103f2a35  </i>
  <i name="subversion" type="string">(build Oct 27 2022 13:04:57) complex            parallel </i>
  <i name="platform" type="string">LinuxIFC </i>
  <i name="date" type="string">2024 07 04 </i>
  <i name="time" type="string">02:01:25 </i>
 </generator>
 <incar>
  <i type="string" name="SYSTEM"> CIS</i>
  <i type="int" name="ISTART">     0</i>
  <i type="string" name="PREC">medium</i>
  <i type="int" name="ICHARG">     2</i>
  <i type="int" name="IBRION">     2</i>
  <i name="EDIFF">      0.00010000</i>
  <i name="EDIFFG">     -0.05000000</i>
  <i type="int" name="NSW">    99</i>
  <i type="int" name="ISIF">     3</i>
  <i name="ENCUT">    300.00000000</i>
  <i name="POTIM">      0.10000000</i>
  <i type="string" name="LREAL"> Auto</i>
  <i type="int" name="ISMEAR">     0</i>
  <i name="SIGMA">      0.05000000</i>
  <i type="int" name="LMAXMIX">     4</i>
  <i type="logical" name="LWAVE"> F  </i>
  <i type="logical" name="LCHARG"> F  </i>
  <i type="int" name="LORBIT">    10</i>
  <i type="logical" name="LASPH"> T  </i>
  <v type="int" name="KPOINT_BSE">    -1     0     0     0</v>
  <i type="logical" name="LASPH"> T  </i>
 </incar>
 <structure name="primitive_cell" >
  <crystal>
   <varray name="basis" >
    <v>       6.45699942       0.79075414      -0.98815419 </v>
    <v>      -0.86514984       6.47025438      -0.53556584 </v>
    <v>       0.14726968       1.05451695      12.41014643 </v>
   </varray>
   <i name="volume">    532.39385827 </i>
   <varray name="rec_basis" >
    <v>       0.15188298       0.02001857      -0.00350340 </v>
    <v>      -0.02038979       0.15078655      -0.01257070 </v>
    <v>       0.01121371       0.00810124       0.07975778 </v>
   </varray>
  </crystal>
  <varray name="positions" >
   <v>      -0.48303873      -0.26218229      -0.11919243 </v>
   <v>      -0.43220888       0.23067466      -0.14502859 </v>
   <v>       0.48343010      -0.18558520      -0.38446004 </v>
   <v>       0.01739534      -0.18602253      -0.11531716 </v>
   <v>       0.43220888      -0.23067466       0.14502859 </v>
   <v>      -0.03733388       0.20428718      -0.12119584 </v>
   <v>       0.03733388      -0.20428718       0.12119584 </v>
   <v>       0.48303873       0.26218229       0.11919243 </v>
   <v>      -0.46308368       0.20472935      -0.37915100 </v>
   <v>      -0.01632524      -0.26256852      -0.38053756 </v>
   <v>      -0.01739534       0.18602253       0.11531716 </v>
   <v>      -0.06821160       0.23024954      -0.35525419 </v>
   <v>       0.46308368      -0.20472935       0.37915100 </v>
   <v>       0.06821160      -0.23024954       0.35525419 </v>
   <v>      -0.48343010       0.18558520       0.38446004 </v>
   <v>       0.01632524       0.26256852       0.38053756 </v>
  </varray>
 </structure>
 <varray name="primitive_index" >
  <v type="int" >        1 </v>
  <v type="int" >       15 </v>
  <v type="int" >       10 </v>
  <v type="int" >       12 </v>
  <v type="int" >       16 </v>
  <v type="int" >        6 </v>
  <v type="int" >        5 </v>
  <v type="int" >        2 </v>
  <v type="int" >        8 </v>
  <v type="int" >        3 </v>
  <v type="int" >       11 </v>
  <v type="int" >       13 </v>
  <v type="int" >        7 </v>
  <v type="int" >       14 </v>
  <v type="int" >        9 </v>
  <v type="int" >        4 </v>
 </varray>
 <kpoints>
  <generation param="Monkhorst-Pack">
   <v type="int" name="divisions">       3        3        2 </v>
   <v name="usershift">      0.00000000       0.00000000       0.00000000 </v>
   <v name="genvec1">      0.33333333       0.00000000      -0.00000000 </v>
   <v name="genvec2">      0.00000000       0.33333333       0.00000000 </v>
   <v name="genvec3">      0.00000000       0.00000000       0.50000000 </v>
   <v name="shift">      0.00000000       0.00000000       0.50000000 </v>
  </generation>
  <varray name="kpointlist" >
   <v>       0.00000000       0.00000000       0.25000000 </v>
   <v>       0.33333333      -0.00000000       0.25000000 </v>
   <v>      -0.33333333      -0.00000000       0.25000000 </v>
   <v>      -0.00000000       0.33333333       0.25000000 </v>
   <v>       0.33333333       0.33333333       0.25000000 </v>
   <v>      -0.33333333       0.33333333       0.25000000 </v>
   <v>      -0.00000000      -0.33333333       0.25000000 </v>
   <v>       0.33333333      -0.33333333       0.25000000 </v>
   <v>      -0.33333333      -0.33333333       0.25000000 </v>
  </varray>
  <varray name="weights" >
   <v>       0.11111111 </v>
   <v>       0.11111111 </v>
   <v>       0.11111111 </v>
   <v>       0.11111111 </v>
   <v>       0.11111111 </v>
   <v>       0.11111111 </v>
   <v>       0.11111111 </v>
   <v>       0.11111111 </v>
   <v>       0.11111111 </v>
  </varray>
 </kpoints>
 <parameters>
  <separator name="general" >
   <i type="string" name="SYSTEM">CIS</i>
   <i type="logical" name="LCOMPAT"> F  </i>
  </separator>
  <separator name="electronic" >
   <i type="string" name="PREC">medium</i>
   <i name="ENMAX">    300.00000000</i>
   <i name="ENAUG">    446.84200000</i>
   <i name="EDIFF">      0.00010000</i>
   <i type="int" name="IALGO">    38</i>
   <i type="int" name="IWAVPR">    11</i>
   <i type="int" name="NBANDS">    56</i>
   <i name="NELECT">     72.00000000</i>
   <i type="int" name="TURBO">     0</i>
   <i type="int" name="IRESTART">     0</i>
   <i type="int" name="NREBOOT">     0</i>
   <i type="int" name="NMIN">     0</i>
   <i name="EREF">      0.00000000</i>
   <separator name="electronic smearing" >
    <i type="int" name="ISMEAR">     0</i>
    <i name="SIGMA">      0.05000000</i>
    <i name="KSPACING">      0.50000000</i>
    <i type="logical" name="KGAMMA"> T  </i>
   </separator>
   <separator name="electronic projectors" >
    <i type="logical" name="LREAL"> T  </i>
    <v name="ROPT">     -0.00200000     -0.00200000     -0.00200000</v>
    <i type="int" name="LMAXPAW">  -100</i>
    <i type="int" name="LMAXMIX">     4</i>
    <i type="logical" name="NLSPLINE"> F  </i>
   </separator>
   <separator name="electronic startup" >
    <i type="int" name="ISTART">     0</i>
    <i type="int" name="ICHARG">     2</i>
    <i type="int" name="INIWAV">     1</i>
   </separator>
   <separator name="electronic spin" >
    <i type="int" name="ISPIN">     1</i>
    <i type="logical" name="LNONCOLLINEAR"> F  </i>
    <v name="MAGMOM">      1.00000000      1.00000000      1.00000000      1.00000000      1.00000000      1.00000000      1.00000000      1.00000000      1.00000000      1.00000000      1.00000000      1.00000000      1.00000000      1.00000000      1.00000000      1.00000000</v>
    <i name="NUPDOWN">     -1.00000000</i>
    <i type="logical" name="LSORBIT"> F  </i>
    <v name="SAXIS">      0.00000000      0.00000000      1.00000000</v>
    <i type="logical" name="LSPIRAL"> F  </i>
    <v name="QSPIRAL">      0.00000000      0.00000000      0.00000000</v>
    <i type="logical" name="LZEROZ"> F  </i>
   </separator>
   <separator name="electronic exchange-correlation" >
    <i type="logical" name="LASPH"> T  </i>
    <i type="logical" name="LMETAGGA"> F  </i>
   </separator>
   <separator name="electronic convergence" >
    <i type="int" name="NELM">    60</i>
    <i type="int" name="NELMDL">    -5</i>
    <i type="int" name="NELMIN">     2</i>
    <i name="ENINI">    300.00000000</i>
    <separator name="electronic convergence detail" >
     <i type="logical" name="LDIAG"> T  </i>
     <i type="logical" name="LSUBROT"> F  </i>
     <i name="WEIMIN">      0.00100000</i>
     <i name="EBREAK">      0.00000045</i>
     <i name="DEPER">      0.30000000</i>
     <i type="int" name="NRMM">     4</i>
     <i name="TIME">      0.40000000</i>
    </separator>
   </separator>
   <separator name="electronic mixer" >
    <i name="AMIX">      0.40000000</i>
    <i name="BMIX">      1.00000000</i>
    <i name="AMIN">      0.10000000</i>
    <i name="AMIX_MAG">      1.60000000</i>
    <i name="BMIX_MAG">      1.00000000</i>
    <separator name="electronic mixer details" >
     <i type="int" name="IMIX">     4</i>
     <i type="logical" name="MIXFIRST"> F  </i>
     <i type="int" name="MAXMIX">   -45</i>
     <i name="WC">    100.00000000</i>
     <i type="int" name="INIMIX">     1</i>
     <i type="int" name="MIXPRE">     1</i>
     <i type="int" name="MREMOVE">     5</i>
    </separator>
   </separator>
   <separator name="electronic dipolcorrection" >
    <i type="logical" name="LDIPOL"> F  </i>
    <i type="logical" name="LMONO"> F  </i>
    <i type="int" name="IDIPOL">     0</i>
    <i name="EPSILON">      1.00000000</i>
    <v name="DIPOL">   -100.00000000   -100.00000000   -100.00000000</v>
    <i name="EFIELD">      0.00000000</i>
   </separator>
  </separator>
  <separator name="grids" >
   <i type="int" name="NGX">    28</i>
   <i type="int" name="NGY">    28</i>
   <i type="int" name="NGZ">    54</i>
   <i type="int" name="NGXF">    48</i>
   <i type="int" name="NGYF">    48</i>
   <i type="int" name="NGZF">    90</i>
   <i type="logical" name="ADDGRID"> F  </i>
  </separator>
  <separator name="ionic" >
   <i type="int" name="NSW">    99</i>
   <i type="int" name="IBRION">     2</i>
   <i type="int" name="MDALGO">     0</i>
   <i type="int" name="ISIF">     3</i>
   <i name="PSTRESS">      0.00000000</i>
   <i name="EDIFFG">     -0.05000000</i>
   <i type="int" name="NFREE">     1</i>
   <i name="POTIM">      0.10000000</i>
   <i name="SMASS">     -3.00000000</i>
   <i name="SCALEE">      1.00000000</i>
  </separator>
  <separator name="ionic md" >
   <i name="TEBEG">      0.00010000</i>
   <i name="TEEND">      0.00010000</i>
   <i type="int" name="NBLOCK">     1</i>
   <i type="int" name="KBLOCK">    99</i>
   <i type="int" name="NPACO">   256</i>
   <i name="APACO">     16.00000000</i>
  </separator>
  <separator name="symmetry" >
   <i type="int" name="ISYM">     2</i>
   <i name="SYMPREC">      0.00001000</i>
  </separator>
  <separator name="dos" >
   <i type="int" name="LORBIT">    10</i>
   <v name="RWIGS">     -1.00000000     -1.00000000     -1.00000000</v>
   <i type="int" name="NEDOS">   301</i>
   <i name="EMIN">     10.00000000</i>
   <i name="EMAX">    -10.00000000</i>
   <i name="EFERMI">      0.00000000</i>
  </separator>
  <separator name="writing" >
   <i type="int" name="NWRITE">     2</i>
   <i type="logical" name="LWAVE"> F  </i>
   <i type="logical" name="LDOWNSAMPLE"> F  </i>
   <i type="logical" name="LCHARG"> F  </i>
   <i type="logical" name="LPARD"> F  </i>
   <i type="logical" name="LVTOT"> F  </i>
   <i type="logical" name="LVHAR"> F  </i>
   <i type="logical" name="LELF"> F  </i>
   <i type="logical" name="LOPTICS"> F  </i>
   <v name="STM">      0.00000000      0.00000000      0.00000000      0.00000000      0.00000000      0.00000000      0.00000000</v>
  </separator>
  <separator name="performance" >
   <i type="int" name="NPAR">    14</i>
   <i type="int" name="NSIM">     4</i>
   <i type="int" name="NBLK">    -1</i>
   <i type="logical" name="LPLANE"> T  </i>
   <i type="logical" name="LSCALAPACK"> T  </i>
   <i type="logical" name="LSCAAWARE"> F  </i>
   <i type="logical" name="LSCALU"> F  </i>
   <i type="logical" name="LASYNC"> F  </i>
   <i type="logical" name="LORBITALREAL"> F  </i>
  </separator>
  <separator name="miscellaneous" >
   <i type="int" name="IDIOT">     3</i>
   <i type="int" name="ISPECIAL">     0</i>
   <i type="logical" name="LMUSIC"> F  </i>
   <v name="POMASS">      7.01000000    121.75000000     78.96000000</v>
   <v name="DARWINR">      0.00000000      0.00000000      0.00000000</v>
   <v name="DARWINV">      1.00000000      1.00000000      1.00000000</v>
   <i type="logical" name="LCORR"> T  </i>
  </separator>
  <i type="logical" name="GGA_COMPAT"> T  </i>
  <i type="logical" name="LBERRY"> F  </i>
  <i type="int" name="ICORELEVEL">     0</i>
  <i type="logical" name="LDAU"> F  </i>
  <i type="int" name="I_CONSTRAINED_M">     0</i>
  <separator name="electronic exchange-correlation" >
   <i type="string" name="GGA">--</i>
   <i type="int" name="VOSKOWN">     0</i>
   <i type="logical" name="LHFCALC"> F  </i>
   <i type="string" name="PRECFOCK"></i>
   <i type="logical" name="LSYMGRAD"> F  </i>
   <i type="logical" name="LHFONE"> F  </i>
   <i type="logical" name="LRHFCALC"> F  </i>
   <i type="logical" name="LTHOMAS"> F  </i>
   <i type="logical" name="LMODELHF"> F  </i>
   <i name="ENCUT4O">     -1.00000000</i>
   <i type="int" name="EXXOEP">     0</i>
   <i type="int" name="FOURORBIT">     0</i>
   <i name="AEXX">      0.00000000</i>
   <i name="HFALPHA">      0.00000000</i>
   <i name="MCALPHA">      0.00000000</i>
   <i name="ALDAX">      1.00000000</i>
   <i name="AGGAX">      1.00000000</i>
   <i name="ALDAC">      1.00000000</i>
   <i name="AGGAC">      1.00000000</i>
   <i type="int" name="NKREDX">     1</i>
   <i type="int" name="NKREDY">     1</i>
   <i type="int" name="NKREDZ">     1</i>
   <i type="logical" name="SHIFTRED"> F  </i>
   <i type="logical" name="ODDONLY"> F  </i>
   <i type="logical" name="EVENONLY"> F  </i>
   <i type="int" name="LMAXFOCK">     0</i>
   <i type="int" name="NMAXFOCKAE">     0</i>
   <i type="logical" name="LFOCKAEDFT"> F  </i>
   <i name="HFSCREEN">      0.00000000</i>
   <i name="HFSCREENC">      0.00000000</i>
   <i type="int" name="NBANDSGWLOW">     0</i>
  </separator>
  <separator name="vdW DFT" >
   <i type="logical" name="LUSE_VDW"> F  </i>
   <i name="Zab_VDW">     -0.84910000</i>
   <i name="PARAM1">      0.12340000</i>
   <i name="PARAM2">      1.00000000</i>
   <i name="PARAM3">      0.00000000</i>
  </separator>
  <separator name="model GW" >
   <i type="int" name="MODEL_GW">     0</i>
   <i name="MODEL_EPS0">     19.96476968</i>
   <i name="MODEL_ALPHA">      1.00000000</i>
  </separator>
  <separator name="linear response parameters" >
   <i type="logical" name="LEPSILON"> F  </i>
   <i type="logical" name="LRPA"> F  </i>
   <i type="logical" name="LNABLA"> F  </i>
   <i type="logical" name="LVEL"> F  </i>
   <i type="int" name="KINTER">     0</i>
   <i name="CSHIFT">      0.10000000</i>
   <i name="OMEGAMAX">     -1.00000000</i>
   <i name="DEG_THRESHOLD">      0.00200000</i>
   <i name="RTIME">     -0.10000000</i>
   <i name="WPLASMAI">      0.00000000</i>
   <v name="DFIELD">      0.00000000      0.00000000      0.00000000</v>
   <v name="WPLASMA">      0.00000000      0.00000000      0.00000000      0.00000000      0.00000000      0.00000000      0.00000000      0.00000000      0.00000000</v>
  </separator>
  <separator name="orbital magnetization" >
   <i type="logical" name="NUCIND"> F  </i>
   <v name="MAGPOS">      0.00000000      0.00000000      0.00000000</v>
   <i type="logical" name="LNICSALL"> T  </i>
   <i type="logical" name="ORBITALMAG"> F  </i>
   <i type="logical" name="LMAGBLOCH"> F  </i>
   <i type="logical" name="LCHIMAG"> F  </i>
   <i type="logical" name="LGAUGE"> T  </i>
   <i type="int" name="MAGATOM">     0</i>
   <v name="MAGDIPOL">      0.00000000      0.00000000      0.00000000</v>
   <v name="AVECCONST">      0.00000000      0.00000000      0.00000000</v>
  </separator>
  <separator name="response functions" >
   <i type="logical" name="LADDER"> F  </i>
   <i type="logical" name="LRPAFORCE"> F  </i>
   <i type="logical" name="LFXC"> F  </i>
   <i type="logical" name="LHARTREE"> T  </i>
   <i type="int" name="IBSE">     0</i>
   <v type="int" name="KPOINT">    -1     0     0     0</v>
   <i type="logical" name="LTCTE"> F  </i>
   <i type="logical" name="LTETE"> F  </i>
   <i type="logical" name="LTRIPLET"> F  </i>
   <i type="logical" name="LFXCEPS"> F  </i>
   <i type="logical" name="LFXHEG"> F  </i>
   <i type="int" name="NATURALO">     2</i>
   <i type="logical" name="L2ORDER"> F  </i>
   <i type="logical" name="LMP2LT"> F  </i>
   <i type="logical" name="LUSEW"> F  </i>
   <i name="ENCUTGW">     -2.00000000</i>
   <i name="ENCUTGWSOFT">     -2.00000000</i>
   <i name="ENCUTLF">     -1.00000000</i>
   <i type="int" name="LMAXMP2">    -1</i>
   <i name="SCISSOR">      0.00000000</i>
   <i type="int" name="NOMEGA">     0</i>
   <i type="int" name="NOMEGAR">     0</i>
   <i type="int" name="NBANDSGW">    -1</i>
   <i type="int" name="NBANDSO">    -1</i>
   <i type="int" name="NBANDSV">    -1</i>
   <i type="int" name="NELM">     1</i>
   <i type="int" name="NELMHF">     1</i>
   <i type="int" name="DIM">     3</i>
   <i type="int" name="ANTIRES">     0</i>
   <i name="OMEGAMAX">    -30.00000000</i>
   <i name="OMEGAMIN">    -30.00000000</i>
   <i name="OMEGATL">   -200.00000000</i>
   <i type="int" name="OMEGAGRID">   140</i>
   <i name="CSHIFT">     -0.10000000</i>
   <i type="logical" name="SELFENERGY"> F  </i>
   <i type="logical" name="LSPECTRAL"> F  </i>
   <i type="logical" name="LSPECTRALGW"> F  </i>
   <i type="logical" name="LSINGLES"> F  </i>
   <i type="logical" name="LFERMIGW"> F  </i>
   <i type="logical" name="ODDONLYGW"> F  </i>
   <i type="logical" name="EVENONLYGW"> F  </i>
   <i type="int" name="NKREDLFX">     1</i>
   <i type="int" name="NKREDLFY">     1</i>
   <i type="int" name="NKREDLFZ">     1</i>
   <i type="int" name="MAXMEM">  2800</i>
   <i type="int" name="TELESCOPE">     0</i>
   <i type="int" name="TAUPAR">     1</i>
   <i type="int" name="OMEGAPAR">    -1</i>
   <i name="LAMBDA">      1.00000000</i>
  </separator>
  <separator name="External order field" >
   <i name="OFIELD_KAPPA">      0.00000000</i>
   <v name="OFIELD_K">      0.00000000      0.00000000      0.00000000</v>
   <i name="OFIELD_Q6_NEAR">      0.00000000</i>
   <i name="OFIELD_Q6_FAR">      0.00000000</i>
   <i name="OFIELD_A">      0.00000000</i>
  </separator>
 </parameters>
 <atominfo>
  <atoms>      16 </atoms>
  <types>       3 </types>
  <array name="atoms" >
   <dimension dim="1">ion</dimension>
   <field type="string">element</field>
   <field type="int">atomtype</field>
   <set>
    <rc><c>Li</c><c>   1</c></rc>
    <rc><c>Li</c><c>   1</c></rc>
    <rc><c>Li</c><c>   1</c></rc>
    <rc><c>Li</c><c>   1</c></rc>
    <rc><c>Sb</c><c>   2</c></rc>
    <rc><c>Sb</c><c>   2</c></rc>
    <rc><c>Sb</c><c>   2</c></rc>
    <rc><c>Sb</c><c>   2</c></rc>
    <rc><c>Se</c><c>   3</c></rc>
    <rc><c>Se</c><c>   3</c></rc>
    <rc><c>Se</c><c>   3</c></rc>
    <rc><c>Se</c><c>   3</c></rc>
    <rc><c>Se</c><c>   3</c></rc>
    <rc><c>Se</c><c>   3</c></rc>
    <rc><c>Se</c><c>   3</c></rc>
    <rc><c>Se</c><c>   3</c></rc>
   </set>
  </array>
  <array name="atomtypes" >
   <dimension dim="1">type</dimension>
   <field type="int">atomspertype</field>
   <field type="string">element</field>
   <field>mass</field>
   <field>valence</field>
   <field type="string">pseudopotential</field>
   <set>
    <rc><c>   4</c><c>Li</c><c>      7.01000000</c><c>      1.00000000</c><c>  PAW_PBE Li 17Jan2003                  </c></rc>
    <rc><c>   4</c><c>Sb</c><c>    121.75000000</c><c>      5.00000000</c><c>  PAW_PBE Sb 06Sep2000                  </c></rc>
    <rc><c>   8</c><c>Se</c><c>     78.96000000</c><c>      6.00000000</c><c>  PAW_PBE Se 06Sep2000                  </c></rc>
   </set>
  </array>
 </atominfo>
 <structure name="initialpos" >
  <crystal>
   <varray name="basis" >
    <v>       6.45699942       0.79075414      -0.98815419 </v>
    <v>      -0.86514984       6.47025438      -0.53556584 </v>
    <v>       0.14726968       1.05451695      12.41014643 </v>
   </varray>
   <i name="volume">    532.39385827 </i>
   <varray name="rec_basis" >
    <v>       0.15188298       0.02001857      -0.00350340 </v>
    <v>      -0.02038979       0.15078655      -0.01257070 </v>
    <v>       0.01121371       0.00810124       0.07975778 </v>
   </varray>
  </crystal>
  <varray name="positions" >
   <v>       0.51696127       0.73781771       0.88080757 </v>
   <v>       0.48303873       0.26218229       0.11919243 </v>
   <v>       0.98367476       0.73743148       0.61946244 </v>
   <v>       0.01632524       0.26256852       0.38053756 </v>
   <v>       0.03733388       0.79571282       0.12119584 </v>
   <v>       0.96266612       0.20428718       0.87880416 </v>
   <v>       0.46308368       0.79527065       0.37915100 </v>
   <v>       0.53691632       0.20472935       0.62084900 </v>
   <v>       0.51656990       0.18558520       0.38446004 </v>
   <v>       0.48343010       0.81441480       0.61553996 </v>
   <v>       0.98260466       0.18602253       0.11531716 </v>
   <v>       0.01739534       0.81397747       0.88468284 </v>
   <v>       0.93178840       0.23024954       0.64474581 </v>
   <v>       0.06821160       0.76975046       0.35525419 </v>
   <v>       0.56779112       0.23067466       0.85497141 </v>
   <v>       0.43220888       0.76932534       0.14502859 </v>
  </varray>
 </structure>
 <calculation>
  <scstep>
   <time name="dav">    0.62    0.62</time>
   <time name="total">    0.96    0.96</time>
   <energy>
    <i name="alphaZ">     57.84903835 </i>
    <i name="ewald">  -2086.23039101 </i>
    <i name="hartreedc">   -561.92121560 </i>
    <i name="XCdc">   -209.42478440 </i>
    <i name="pawpsdc">   2367.77203219 </i>
    <i name="pawaedc">  -2019.52408218 </i>
    <i name="eentropy">     -0.00612135 </i>
    <i name="bandstr">     39.21764737 </i>
    <i name="atom">   2677.99578058 </i>
    <i name="e_fr_energy">    265.72790394 </i>
    <i name="e_wo_entrp">    265.73402530 </i>
    <i name="e_0_energy">    265.73096462 </i>
   </energy>
  </scstep>
  <scstep>
   <time name="dav">    0.39    0.39</time>
   <time name="total">    0.39    0.39</time>
   <energy>
    <i name="e_fr_energy">    -31.76657741 </i>
    <i name="e_wo_entrp">    -31.76657741 </i>
    <i name="e_0_energy">    -31.76657741 </i>
   </energy>
  </scstep>
  <scstep>
   <time name="dav">    0.33    0.33</time>
   <time name="total">    0.33    0.33</time>
   <energy>
    <i name="e_fr_energy">    -61.69845564 </i>
    <i name="e_wo_entrp">    -61.69845564 </i>
    <i name="e_0_energy">    -61.69845564 </i>
   </energy>
  </scstep>
  <scstep>
   <time name="dav">    0.42    0.42</time>
   <time name="total">    0.42    0.42</time>
   <energy>
    <i name="e_fr_energy">    -62.18548200 </i>
    <i name="e_wo_entrp">    -62.18548200 </i>
    <i name="e_0_energy">    -62.18548200 </i>
   </energy>
  </scstep>
  <scstep>
   <time name="dav">    0.43    0.44</time>
   <time name="total">    0.45    0.45</time>
   <energy>
    <i name="e_fr_energy">    -62.19131065 </i>
    <i name="e_wo_entrp">    -62.19131065 </i>
    <i name="e_0_energy">    -62.19131065 </i>
   </energy>
  </scstep>
  <scstep>
   <time name="dav">    0.43    0.43</time>
   <time name="total">    0.62    0.62</time>
   <energy>
    <i name="e_fr_energy">    -59.98323599 </i>
    <i name="e_wo_entrp">    -59.98323599 </i>
    <i name="e_0_energy">    -59.98323599 </i>
   </energy>
  </scstep>
  <scstep>
   <time name="dav">    0.41    0.41</time>
   <time name="total">    0.59    0.60</time>
   <energy>
    <i name="e_fr_energy">    -59.93785447 </i>
    <i name="e_wo_entrp">    -59.93785447 </i>
    <i name="e_0_energy">    -59.93785447 </i>
   </energy>
  </scstep>
  <scstep>
   <time name="dav">    0.46    0.46</time>
   <time name="total">    0.65    0.65</time>
   <energy>
    <i name="e_fr_energy">    -59.93951229 </i>
    <i name="e_wo_entrp">    -59.93951229 </i>
    <i name="e_0_energy">    -59.93951229 </i>
   </energy>
  </scstep>
  <scstep>
   <time name="dav">    0.28    0.28</time>
   <time name="total">    0.47    0.47</time>
   <energy>
    <i name="e_fr_energy">    -59.95149939 </i>
    <i name="e_wo_entrp">    -59.95149939 </i>
    <i name="e_0_energy">    -59.95149939 </i>
   </energy>
  </scstep>
  <scstep>
   <time name="dav">    0.50    0.50</time>
   <time name="total">    0.69    0.69</time>
   <energy>
    <i name="e_fr_energy">    -59.95255853 </i>
    <i name="e_wo_entrp">    -59.95255853 </i>
    <i name="e_0_energy">    -59.95255853 </i>
   </energy>
  </scstep>
  <scstep>
   <time name="dav">    0.44    0.44</time>
   <time name="total">    0.63    0.63</time>
   <energy>
    <i name="e_fr_energy">    -59.95421164 </i>
    <i name="e_wo_entrp">    -59.95421164 </i>
    <i name="e_0_energy">    -59.95421164 </i>
   </energy>
  </scstep>
  <scstep>
   <time name="dav">    0.41    0.41</time>
   <time name="total">    0.58    0.58</time>
   <energy>
    <i name="alphaZ">     57.84903835 </i>
    <i name="ewald">  -2086.23039101 </i>
    <i name="hartreedc">   -599.41296604 </i>
    <i name="XCdc">   -205.52738303 </i>
    <i name="pawpsdc">   3828.83377010 </i>
    <i name="pawaedc">  -3481.58304274 </i>
    <i name="eentropy">     -0.00000000 </i>
    <i name="bandstr">   -251.87905050 </i>
    <i name="atom">   2677.99578058 </i>
    <i name="e_fr_energy">    -59.95424430 </i>
    <i name="e_wo_entrp">    -59.95424430 </i>
    <i name="e_0_energy">    -59.95424430 </i>
   </energy>
  </scstep>
  <structure>
   <crystal>
    <varray name="basis" >
     <v>       6.45699942       0.79075414      -0.98815419 </v>
     <v>      -0.86514984       6.47025438      -0.53556584 </v>
     <v>       0.14726968       1.05451695      12.41014643 </v>
    </varray>
    <i name="volume">    532.39385827 </i>
    <varray name="rec_basis" >
     <v>       0.15188298       0.02001857      -0.00350340 </v>
     <v>      -0.02038979       0.15078655      -0.01257070 </v>
     <v>       0.01121371       0.00810124       0.07975778 </v>
    </varray>
   </crystal>
   <varray name="positions" >
    <v>       0.51696127       0.73781771       0.88080757 </v>
    <v>       0.48303873       0.26218229       0.11919243 </v>
    <v>       0.98367476       0.73743148       0.61946244 </v>
    <v>       0.01632524       0.26256852       0.38053756 </v>
    <v>       0.03733388       0.79571282       0.12119584 </v>
    <v>       0.96266612       0.20428718       0.87880416 </v>
    <v>       0.46308368       0.79527065       0.37915100 </v>
    <v>       0.53691632       0.20472935       0.62084900 </v>
    <v>       0.51656990       0.18558520       0.38446004 </v>
    <v>       0.48343010       0.81441480       0.61553996 </v>
    <v>       0.98260466       0.18602253       0.11531716 </v>
    <v>       0.01739534       0.81397747       0.88468284 </v>
    <v>       0.93178840       0.23024954       0.64474581 </v>
    <v>       0.06821160       0.76975046       0.35525419 </v>
    <v>       0.56779112       0.23067466       0.85497141 </v>
    <v>       0.43220888       0.76932534       0.14502859 </v>
   </varray>
  </structure>
  <varray name="forces" >
   <v>      -0.01358529       0.17297994      -0.15280614 </v>
   <v>       0.01358529      -0.17297994       0.15280614 </v>
   <v>      -0.03973042       0.19390330       0.12132414 </v>
   <v>       0.03973042      -0.19390330      -0.12132414 </v>
   <v>      -0.16348604      -0.30771041       0.05018037 </v>
   <v>       0.16348604       0.30771041      -0.05018037 </v>
   <v>       0.31787418      -0.30512858       0.07677603 </v>
   <v>      -0.31787418       0.30512858      -0.07677603 </v>
   <v>      -0.10297796       0.41419261      -0.38864193 </v>
   <v>       0.10297796      -0.41419261       0.38864193 </v>
   <v>      -0.02897505       0.49250539       0.30276350 </v>
   <v>       0.02897505      -0.49250539      -0.30276350 </v>
   <v>       0.32171190       0.04017324      -0.35601182 </v>
   <v>      -0.32171190      -0.04017324       0.35601182 </v>
   <v>      -0.33171496       0.00517701       0.34569331 </v>
   <v>       0.33171496      -0.00517701      -0.34569331 </v>
  </varray>
  <varray name="stress" >
   <v>     -17.73377872       1.35220365       6.65641958 </v>
   <v>       1.35220358     -22.58800066       1.29136849 </v>
   <v>       6.65641994       1.29136823     -16.96315403 </v>
  </varray>
  <energy>
   <i name="e_fr_energy">    -59.95424430 </i>
   <i name="e_wo_entrp">    -59.95424430 </i>
   <i name="e_0_energy">     -0.00000000 </i>
  </energy>
  <time name="totalsc">    7.43    7.44</time>
 </calculation>
 <calculation>
  <scstep>
   <time name="dav">    0.27    0.27</time>
   <time name="total">    0.46    0.46</time>
   <energy>
    <i name="alphaZ">     58.51833696 </i>
    <i name="ewald">  -2098.36476383 </i>
    <i name="hartreedc">   -598.31572683 </i>
    <i name="XCdc">   -205.29997683 </i>
    <i name="pawpsdc">   3828.34677696 </i>
    <i name="pawaedc">  -3481.09558645 </i>
    <i name="eentropy">     -0.00000000 </i>
    <i name="bandstr">   -241.88403935 </i>
    <i name="atom">   2677.99578058 </i>
    <i name="e_fr_energy">    -60.09919879 </i>
    <i name="e_wo_entrp">    -60.09919879 </i>
    <i name="e_0_energy">    -60.09919879 </i>
   </energy>
  </scstep>
  <scstep>
   <time name="dav">    0.45    0.45</time>
   <time name="total">    0.63    0.63</time>
   <energy>
    <i name="e_fr_energy">    -60.07058460 </i>
    <i name="e_wo_entrp">    -60.07058460 </i>
    <i name="e_0_energy">    -60.07058460 </i>
   </energy>
  </scstep>
  <scstep>
   <time name="dav">    0.39    0.39</time>
   <time name="total">    0.58    0.58</time>
   <energy>
    <i name="e_fr_energy">    -60.06401909 </i>
    <i name="e_wo_entrp">    -60.06401909 </i>
    <i name="e_0_energy">    -60.06401909 </i>
   </energy>
  </scstep>
  <scstep>
   <time name="dav">    0.46    0.46</time>
   <time name="total">    0.65    0.65</time>
   <energy>
    <i name="e_fr_energy">    -60.06373374 </i>
    <i name="e_wo_entrp">    -60.06373374 </i>
    <i name="e_0_energy">    -60.06373374 </i>
   </energy>
  </scstep>
  <scstep>
   <time name="dav">    0.37    0.37</time>
   <time name="total">    0.56    0.56</time>
   <energy>
    <i name="e_fr_energy">    -60.06362499 </i>
    <i name="e_wo_entrp">    -60.06362499 </i>
    <i name="e_0_energy">    -60.06362499 </i>
   </energy>
  </scstep>
  <scstep>
   <time name="dav">    0.27    0.27</time>
   <time name="total">    0.44    0.44</time>
   <energy>
    <i name="alphaZ">     58.51833696 </i>
    <i name="ewald">  -2098.36476383 </i>
    <i name="hartreedc">   -592.04030018 </i>
    <i name="XCdc">   -205.37374657 </i>
    <i name="pawpsdc">   3852.56047027 </i>
    <i name="pawaedc">  -3505.32704764 </i>
    <i name="eentropy">     -0.00000000 </i>
    <i name="bandstr">   -248.03235710 </i>
    <i name="atom">   2677.99578058 </i>
    <i name="e_fr_energy">    -60.06362751 </i>
    <i name="e_wo_entrp">    -60.06362751 </i>
    <i name="e_0_energy">    -60.06362751 </i>
   </energy>
  </scstep>
  <structure>
   <crystal>
    <varray name="basis" >
     <v>       6.43295024       0.78866885      -0.97597807 </v>
     <v>      -0.86103665       6.44059518      -0.53322504 </v>
     <v>       0.16358525       1.05299519      12.36843180 </v>
    </varray>
    <i name="volume">    526.30464779 </i>
    <varray name="rec_basis" >
     <v>       0.15242416       0.02006907      -0.00372456 </v>
     <v>      -0.02048680       0.15148101      -0.01262548 </v>
     <v>       0.01114439       0.00811424       0.08001279 </v>
    </varray>
   </crystal>
   <varray name="positions" >
    <v>       0.51697994       0.73809058       0.88070203 </v>
    <v>       0.48302006       0.26190942       0.11929797 </v>
    <v>       0.98364989       0.73770668       0.61956666 </v>
    <v>       0.01635011       0.26229332       0.38043334 </v>
    <v>       0.03703317       0.79529122       0.12119272 </v>
    <v>       0.96296683       0.20470878       0.87880728 </v>
    <v>       0.46348798       0.79475488       0.37922062 </v>
    <v>       0.53651202       0.20524512       0.62077938 </v>
    <v>       0.51651213       0.18625519       0.38418220 </v>
    <v>       0.48348787       0.81374481       0.61581780 </v>
    <v>       0.98264709       0.18670804       0.11558551 </v>
    <v>       0.01735291       0.81329196       0.88441449 </v>
    <v>       0.93227965       0.23028788       0.64450979 </v>
    <v>       0.06772035       0.76971212       0.35549021 </v>
    <v>       0.56729432       0.23070552       0.85520195 </v>
    <v>       0.43270568       0.76929448       0.14479805 </v>
   </varray>
  </structure>
  <varray name="forces" >
   <v>      -0.01592886       0.16941230      -0.14959447 </v>
   <v>       0.01592886      -0.16941230       0.14959447 </v>
   <v>      -0.03706727       0.19060705       0.11987525 </v>
   <v>       0.03706727      -0.19060705      -0.11987525 </v>
   <v>      -0.24668287      -0.41752672       0.04559550 </v>
   <v>       0.24668287       0.41752672      -0.04559550 </v>
   <v>       0.33397866      -0.37976171       0.03760226 </v>
   <v>      -0.33397866       0.37976171      -0.03760226 </v>
   <v>      -0.08561553       0.42586698      -0.40255637 </v>
   <v>       0.08561553      -0.42586698       0.40255637 </v>
   <v>      -0.04563139       0.51330381       0.30649899 </v>
   <v>       0.04563139      -0.51330381      -0.30649899 </v>
   <v>       0.38001270      -0.00666526      -0.41195077 </v>
   <v>      -0.38001270       0.00666526       0.41195077 </v>
   <v>      -0.39431889      -0.04238134       0.39997822 </v>
   <v>       0.39431889       0.04238134      -0.39997822 </v>
  </varray>
  <varray name="stress" >
   <v>     -17.27784443       1.18272866       7.19022273 </v>
   <v>       1.18272852     -21.17709755       1.36649943 </v>
   <v>       7.19022277       1.36649960     -15.66704436 </v>
  </varray>
  <energy>
   <i name="e_fr_energy">    -60.06362751 </i>
   <i name="e_wo_entrp">    -60.06362751 </i>
   <i name="e_0_energy">     -0.00000000 </i>
  </energy>
  <time name="totalsc">    4.04    4.05</time>
 </calculation>
 <calculation>
  <scstep>
   <time name="dav">    0.38    0.38</time>
   <time name="total">    0.57    0.57</time>
   <energy>
    <i name="alphaZ">     60.59095282 </i>
    <i name="ewald">  -2135.12774608 </i>
    <i name="hartreedc">   -588.69662856 </i>
    <i name="XCdc">   -204.68910469 </i>
    <i name="pawpsdc">   3848.80626082 </i>
    <i name="pawaedc">  -3501.57513872 </i>
    <i name="eentropy">     -0.00000000 </i>
    <i name="bandstr">   -218.00518287 </i>
    <i name="atom">   2677.99578058 </i>
    <i name="e_fr_energy">    -60.70080671 </i>
    <i name="e_wo_entrp">    -60.70080671 </i>
    <i name="e_0_energy">    -60.70080671 </i>
   </energy>
  </scstep>
  <scstep>
   <time name="dav">    0.43    0.43</time>
   <time name="total">    0.62    0.62</time>
   <energy>
    <i name="e_fr_energy">    -60.43816704 </i>
    <i name="e_wo_entrp">    -60.43816704 </i>
    <i name="e_0_energy">    -60.43816704 </i>
   </energy>
  </scstep>
  <scstep>
   <time name="dav">    0.38    0.38</time>
   <time name="total">    0.57    0.57</time>
   <energy>
    <i name="e_fr_energy">    -60.37881677 </i>
    <i name="e_wo_entrp">    -60.37881677 </i>
    <i name="e_0_energy">    -60.37881677 </i>
   </energy>
  </scstep>
  <scstep>
   <time name="dav">    0.40    0.40</time>
   <time name="total">    0.59    0.59</time>
   <energy>
    <i name="e_fr_energy">    -60.37637896 </i>
    <i name="e_wo_entrp">    -60.37637896 </i>
    <i name="e_0_energy">    -60.37637896 </i>
   </energy>
  </scstep>
  <scstep>
   <time name="dav">    0.47    0.47</time>
   <time name="total">    0.66    0.66</time>
   <energy>
    <i name="e_fr_energy">    -60.37520871 </i>
    <i name="e_wo_entrp">    -60.37520871 </i>
    <i name="e_0_energy">    -60.37520871 </i>
   </energy>
  </scstep>
  <scstep>
   <time name="dav">    0.46    0.46</time>
   <time name="total">    0.63    0.63</time>
   <energy>
    <i name="alphaZ">     60.59095282 </i>
    <i name="ewald">  -2135.12774608 </i>
    <i name="hartreedc">   -569.85261550 </i>
    <i name="XCdc">   -204.90356215 </i>
    <i name="pawpsdc">   3920.61263406 </i>
    <i name="pawaedc">  -3573.43772584 </i>
    <i name="eentropy">     -0.00000000 </i>
    <i name="bandstr">   -236.25295182 </i>
    <i name="atom">   2677.99578058 </i>
    <i name="e_fr_energy">    -60.37523393 </i>
    <i name="e_wo_entrp">    -60.37523393 </i>
    <i name="e_0_energy">    -60.37523393 </i>
   </energy>
  </scstep>
  <structure>
   <crystal>
    <varray name="basis" >
     <v>       6.36080269       0.78241299      -0.93944970 </v>
     <v>      -0.84869707       6.35161760      -0.52620263 </v>
     <v>       0.21253197       1.04842990      12.24328790 </v>
    </varray>
    <i name="volume">    508.30150856 </i>
    <varray name="rec_basis" >
     <v>       0.15407464       0.02022226      -0.00440628 </v>
     <v>      -0.02078344       0.15360332      -0.01279274 </v>
     <v>       0.01092918       0.00815339       0.08078949 </v>
    </varray>
   </crystal>
   <varray name="positions" >
    <v>       0.51703696       0.73891295       0.88038437 </v>
    <v>       0.48296304       0.26108705       0.11961563 </v>
    <v>       0.98357416       0.73853612       0.61988038 </v>
    <v>       0.01642584       0.26146388       0.38011962 </v>
    <v>       0.03612771       0.79402061       0.12118392 </v>
    <v>       0.96387229       0.20597939       0.87881608 </v>
    <v>       0.46470491       0.79320042       0.37942931 </v>
    <v>       0.53529509       0.20679958       0.62057069 </v>
    <v>       0.51634030       0.18827440       0.38334616 </v>
    <v>       0.48365970       0.81172560       0.61665384 </v>
    <v>       0.98277271       0.18877407       0.11639305 </v>
    <v>       0.01722729       0.81122593       0.88360695 </v>
    <v>       0.93376076       0.23040335       0.64379847 </v>
    <v>       0.06623924       0.76959665       0.35620153 </v>
    <v>       0.56579653       0.23079860       0.85589679 </v>
    <v>       0.43420347       0.76920140       0.14410321 </v>
   </varray>
  </structure>
  <varray name="forces" >
   <v>      -0.02172962       0.15754233      -0.14016705 </v>
   <v>       0.02172962      -0.15754233       0.14016705 </v>
   <v>      -0.02701915       0.17981002       0.11378321 </v>
   <v>       0.02701915      -0.17981002      -0.11378321 </v>
   <v>      -0.28511538      -0.72932278      -0.01750170 </v>
   <v>       0.28511538       0.72932278       0.01750170 </v>
   <v>       0.42960855      -0.49960647       0.07866153 </v>
   <v>      -0.42960855       0.49960647      -0.07866153 </v>
   <v>      -0.09367116       0.57699575      -0.43793448 </v>
   <v>       0.09367116      -0.57699575       0.43793448 </v>
   <v>      -0.07899942       0.65878220       0.34451796 </v>
   <v>       0.07899942      -0.65878220      -0.34451796 </v>
   <v>       0.45282183       0.03976037      -0.51416318 </v>
   <v>      -0.45282183      -0.03976037       0.51416318 </v>
   <v>      -0.48917926      -0.00425574       0.49078384 </v>
   <v>       0.48917926       0.00425574      -0.49078384 </v>
  </varray>
  <varray name="stress" >
   <v>     -13.67979420       1.25579395       6.65052765 </v>
   <v>       1.25579379     -16.73005212       1.91629731 </v>
   <v>       6.65052820       1.91629722     -10.02963538 </v>
  </varray>
  <energy>
   <i name="e_fr_energy">    -60.37523393 </i>
   <i name="e_wo_entrp">    -60.37523393 </i>
   <i name="e_0_energy">     -0.00000000 </i>
  </energy>
  <time name="totalsc">    4.30    4.30</time>
 </calculation>
 <calculation>
  <scstep>
   <time name="dav">    0.32    0.32</time>
   <time name="total">    0.50    0.51</time>
   <energy>
    <i name="alphaZ">     65.04810714 </i>
    <i name="ewald">  -2210.40082659 </i>
    <i name="hartreedc">   -563.48732487 </i>
    <i name="XCdc">   -203.49219993 </i>
    <i name="pawpsdc">   3910.17131171 </i>
    <i name="pawaedc">  -3563.00192184 </i>
    <i name="eentropy">     -0.00000000 </i>
    <i name="bandstr">   -175.01768536 </i>
    <i name="atom">   2677.99578058 </i>
    <i name="e_fr_energy">    -62.18475917 </i>
    <i name="e_wo_entrp">    -62.18475917 </i>
    <i name="e_0_energy">    -62.18475917 </i>
   </energy>
  </scstep>
  <scstep>
   <time name="dav">    0.38    0.38</time>
   <time name="total">    0.56    0.57</time>
   <energy>
    <i name="e_fr_energy">    -61.10661336 </i>
    <i name="e_wo_entrp">    -61.10661336 </i>
    <i name="e_0_energy">    -61.10661336 </i>
   </energy>
  </scstep>
  <scstep>
   <time name="dav">    0.40    0.40</time>
   <time name="total">    0.59    0.59</time>
   <energy>
    <i name="e_fr_energy">    -60.86471550 </i>
    <i name="e_wo_entrp">    -60.86471550 </i>
    <i name="e_0_energy">    -60.86471550 </i>
   </energy>
  </scstep>
  <scstep>
   <time name="dav">    0.46    0.46</time>
   <time name="total">    0.65    0.65</time>
   <energy>
    <i name="e_fr_energy">    -60.85594086 </i>
    <i name="e_wo_entrp">    -60.85594086 </i>
    <i name="e_0_energy">    -60.85594086 </i>
   </energy>
  </scstep>
  <scstep>
   <time name="dav">    0.43    0.43</time>
   <time name="total">    0.62    0.62</time>
   <energy>
    <i name="e_fr_energy">    -60.85015849 </i>
    <i name="e_wo_entrp">    -60.85015849 </i>
    <i name="e_0_energy">    -60.85015849 </i>
   </energy>
  </scstep>
  <scstep>
   <time name="dav">    0.37    0.37</time>
   <time name="total">    0.55    0.55</time>
   <energy>
    <i name="e_fr_energy">    -60.85021401 </i>
    <i name="e_wo_entrp">    -60.85021401 </i>
    <i name="e_0_energy">    -60.85021401 </i>
   </energy>
  </scstep>
  <scstep>
   <time name="dav">    0.37    0.37</time>
   <time name="total">    0.54    0.54</time>
   <energy>
    <i name="alphaZ">     65.04810714 </i>
    <i name="ewald">  -2210.40082659 </i>
    <i name="hartreedc">   -525.90764129 </i>
    <i name="XCdc">   -203.87979436 </i>
    <i name="pawpsdc">   4052.89717890 </i>
    <i name="pawaedc">  -3705.86459457 </i>
    <i name="eentropy">     -0.00000000 </i>
    <i name="bandstr">   -210.73843032 </i>
    <i name="atom">   2677.99578058 </i>
    <i name="e_fr_energy">    -60.85022052 </i>
    <i name="e_wo_entrp">    -60.85022052 </i>
    <i name="e_0_energy">    -60.85022052 </i>
   </energy>
  </scstep>
  <structure>
   <crystal>
    <varray name="basis" >
     <v>       6.21650760       0.76990125      -0.86639296 </v>
     <v>      -0.82401791       6.17366243      -0.51215781 </v>
     <v>       0.31042541       1.03929932      11.99300012 </v>
    </varray>
    <i name="volume">    473.47223583 </i>
    <varray name="rec_basis" >
     <v>       0.15750241       0.02053649      -0.00585644 </v>
     <v>      -0.02140330       0.15803150      -0.01314082 </v>
     <v>       0.01046420       0.00823228       0.08239772 </v>
    </varray>
   </crystal>
   <varray name="positions" >
    <v>       0.51715727       0.74058064       0.87974275 </v>
    <v>       0.48284273       0.25941936       0.12025725 </v>
    <v>       0.98341583       0.74021831       0.62051420 </v>
    <v>       0.01658417       0.25978169       0.37948580 </v>
    <v>       0.03429645       0.79144390       0.12116994 </v>
    <v>       0.96570355       0.20855610       0.87883006 </v>
    <v>       0.46716341       0.79004782       0.37984549 </v>
    <v>       0.53283659       0.20995218       0.62015451 </v>
    <v>       0.51600581       0.19236924       0.38165883 </v>
    <v>       0.48399419       0.80763076       0.61834117 </v>
    <v>       0.98301361       0.19296420       0.11802321 </v>
    <v>       0.01698639       0.80703580       0.88197679 </v>
    <v>       0.93676813       0.23063717       0.64235592 </v>
    <v>       0.06323187       0.76936283       0.35764408 </v>
    <v>       0.56275566       0.23098773       0.85730617 </v>
    <v>       0.43724434       0.76901227       0.14269383 </v>
   </varray>
  </structure>
  <varray name="forces" >
   <v>      -0.03317559       0.12644203      -0.11640410 </v>
   <v>       0.03317559      -0.12644203       0.11640410 </v>
   <v>      -0.00707482       0.15071297       0.09958730 </v>
   <v>       0.00707482      -0.15071297      -0.09958730 </v>
   <v>      -0.57434457      -0.90474270       0.04236218 </v>
   <v>       0.57434457       0.90474270      -0.04236218 </v>
   <v>       0.87731374      -0.72104367       0.00370537 </v>
   <v>      -0.87731374       0.72104367      -0.00370537 </v>
   <v>      -0.06705593       0.90427800      -0.58862535 </v>
   <v>       0.06705593      -0.90427800       0.58862535 </v>
   <v>      -0.16338273       1.01025789       0.42502292 </v>
   <v>       0.16338273      -1.01025789      -0.42502292 </v>
   <v>       0.71960445       0.18359506      -0.74117873 </v>
   <v>      -0.71960445      -0.18359506       0.74117873 </v>
   <v>      -0.83998746       0.08733007       0.69211831 </v>
   <v>       0.83998746      -0.08733007      -0.69211831 </v>
  </varray>
  <varray name="stress" >
   <v>       0.24117136       0.47876621       7.72468646 </v>
   <v>       0.47876661      -0.66460929       1.68683428 </v>
   <v>       7.72468667       1.68683432       7.07174534 </v>
  </varray>
  <energy>
   <i name="e_fr_energy">    -60.85022052 </i>
   <i name="e_wo_entrp">    -60.85022052 </i>
   <i name="e_0_energy">     -0.00000000 </i>
  </energy>
  <time name="totalsc">    4.76    4.78</time>
 </calculation>
 <calculation>
  <scstep>
   <time name="dav">    0.37    0.37</time>
   <time name="total">    0.55    0.56</time>
   <energy>
    <i name="alphaZ">     75.41053275 </i>
    <i name="ewald">  -2368.45034726 </i>
    <i name="hartreedc">   -514.78882087 </i>
    <i name="XCdc">   -200.85286768 </i>
    <i name="pawpsdc">   4057.41133086 </i>
    <i name="pawaedc">  -3710.37558872 </i>
    <i name="eentropy">     -0.00000000 </i>
    <i name="bandstr">    -82.84056372 </i>
    <i name="atom">   2677.99578058 </i>
    <i name="e_fr_energy">    -66.49054406 </i>
    <i name="e_wo_entrp">    -66.49054406 </i>
    <i name="e_0_energy">    -66.49054406 </i>
   </energy>
  </scstep>
  <scstep>
   <time name="dav">    0.40    0.41</time>
   <time name="total">    0.59    0.59</time>
   <energy>
    <i name="e_fr_energy">    -62.05326929 </i>
    <i name="e_wo_entrp">    -62.05326929 </i>
    <i name="e_0_energy">    -62.05326929 </i>
   </energy>
  </scstep>
  <scstep>
   <time name="dav">    0.38    0.39</time>
   <time name="total">    0.57    0.57</time>
   <energy>
    <i name="e_fr_energy">    -61.03228117 </i>
    <i name="e_wo_entrp">    -61.03228117 </i>
    <i name="e_0_energy">    -61.03228117 </i>
   </energy>
  </scstep>
  <scstep>
   <time name="dav">    0.47    0.47</time>
   <time name="total">    0.66    0.66</time>
   <energy>
    <i name="e_fr_energy">    -61.00626231 </i>
    <i name="e_wo_entrp">    -61.00626231 </i>
    <i name="e_0_energy">    -61.00626231 </i>
   </energy>
  </scstep>
  <scstep>
   <time name="dav">    0.50    0.50</time>
   <time name="total">    0.69    0.70</time>
   <energy>
    <i name="e_fr_energy">    -60.97259729 </i>
    <i name="e_wo_entrp">    -60.97259729 </i>
    <i name="e_0_energy">    -60.97259729 </i>
   </energy>
  </scstep>
  <scstep>
   <time name="dav">    0.30    0.30</time>
   <time name="total">    0.49    0.49</time>
   <energy>
    <i name="e_fr_energy">    -60.97243794 </i>
    <i name="e_wo_entrp">    -60.97243794 </i>
    <i name="e_0_energy">    -60.97243794 </i>
   </energy>
  </scstep>
  <scstep>
   <time name="dav">    0.44    0.44</time>
   <time name="total">    0.61    0.61</time>
   <energy>
    <i name="alphaZ">     75.41053275 </i>
    <i name="ewald">  -2368.45034726 </i>
    <i name="hartreedc">   -440.91088205 </i>
    <i name="XCdc">   -201.44409359 </i>
    <i name="pawpsdc">   4440.40336084 </i>
    <i name="pawaedc">  -4093.70685136 </i>
    <i name="eentropy">     -0.00000000 </i>
    <i name="bandstr">   -150.26996207 </i>
    <i name="atom">   2677.99578058 </i>
    <i name="e_fr_energy">    -60.97246217 </i>
    <i name="e_wo_entrp">    -60.97246217 </i>
    <i name="e_0_energy">    -60.97246217 </i>
   </energy>
  </scstep>
  <structure>
   <crystal>
    <varray name="basis" >
     <v>       5.92791742       0.74487779      -0.72027947 </v>
     <v>      -0.77465959       5.81775209      -0.48406818 </v>
     <v>       0.50621229       1.02103817      11.49242454 </v>
    </varray>
    <i name="volume">    408.41075642 </i>
    <varray name="rec_basis" >
     <v>       0.16491811       0.02119845      -0.00914759 </v>
     <v>      -0.02276112       0.16770067      -0.01389670 </v>
     <v>       0.00937741       0.00839226       0.08585518 </v>
    </varray>
   </crystal>
   <varray name="positions" >
    <v>       0.51742445       0.74401186       0.87843337 </v>
    <v>       0.48257555       0.25598814       0.12156663 </v>
    <v>       0.98307010       0.74368007       0.62180834 </v>
    <v>       0.01692990       0.25631993       0.37819166 </v>
    <v>       0.03054943       0.78614243       0.12115730 </v>
    <v>       0.96945057       0.21385757       0.87884270 </v>
    <v>       0.47218258       0.78356025       0.38067224 </v>
    <v>       0.52781742       0.21643975       0.61932776 </v>
    <v>       0.51537628       0.20079433       0.37822113 </v>
    <v>       0.48462372       0.79920567       0.62177887 </v>
    <v>       0.98345099       0.20158686       0.12134596 </v>
    <v>       0.01654901       0.79841314       0.87865404 </v>
    <v>       0.94297180       0.23111665       0.63938756 </v>
    <v>       0.05702820       0.76888335       0.36061244 </v>
    <v>       0.55648441       0.23137852       0.86020719 </v>
    <v>       0.44351559       0.76862148       0.13979281 </v>
   </varray>
  </structure>
  <varray name="forces" >
   <v>      -0.05231230       0.04667086      -0.04806601 </v>
   <v>       0.05231230      -0.04667086       0.04806601 </v>
   <v>       0.03578991       0.06952256       0.05720542 </v>
   <v>      -0.03578991      -0.06952256      -0.05720542 </v>
   <v>      -1.06913722      -1.80939446       0.25805928 </v>
   <v>       1.06913722       1.80939446      -0.25805928 </v>
   <v>       1.40576005      -1.56543223      -0.02958736 </v>
   <v>      -1.40576005       1.56543223       0.02958736 </v>
   <v>      -0.04768829       1.70998493      -0.90265729 </v>
   <v>       0.04768829      -1.70998493       0.90265729 </v>
   <v>      -0.44141914       1.92448885       0.58733126 </v>
   <v>       0.44141914      -1.92448885      -0.58733126 </v>
   <v>       1.28583297       0.34276329      -1.21617629 </v>
   <v>      -1.28583297      -0.34276329       1.21617629 </v>
   <v>      -1.53415252       0.15964315       1.10724707 </v>
   <v>       1.53415252      -0.15964315      -1.10724707 </v>
  </varray>
  <varray name="stress" >
   <v>      40.85017900      -0.53670995       6.91957680 </v>
   <v>      -0.53670998      46.31677761       1.68373830 </v>
   <v>       6.91957654       1.68373851      56.40308365 </v>
  </varray>
  <energy>
   <i name="e_fr_energy">    -60.97246217 </i>
   <i name="e_wo_entrp">    -60.97246217 </i>
   <i name="e_0_energy">     -0.00000000 </i>
  </energy>
  <time name="totalsc">    4.88    4.90</time>
 </calculation>
 <calculation>
  <scstep>
   <time name="dav">    0.41    0.41</time>
   <time name="total">    0.60    0.60</time>
   <energy>
    <i name="alphaZ">     72.18957880 </i>
    <i name="ewald">  -2321.07902065 </i>
    <i name="hartreedc">   -444.65041451 </i>
    <i name="XCdc">   -202.37093809 </i>
    <i name="pawpsdc">   4427.72552402 </i>
    <i name="pawaedc">  -4081.03310180 </i>
    <i name="eentropy">     -0.00000000 </i>
    <i name="bandstr">   -190.29135595 </i>
    <i name="atom">   2677.99578058 </i>
    <i name="e_fr_energy">    -61.51394760 </i>
    <i name="e_wo_entrp">    -61.51394760 </i>
    <i name="e_0_energy">    -61.51394760 </i>
   </energy>
  </scstep>
  <scstep>
   <time name="dav">    0.41    0.42</time>
   <time name="total">    0.60    0.60</time>
   <energy>
    <i name="e_fr_energy">    -61.15765389 </i>
    <i name="e_wo_entrp">    -61.15765389 </i>
    <i name="e_0_energy">    -61.15765389 </i>
   </energy>
  </scstep>
  <scstep>
   <time name="dav">    0.37    0.37</time>
   <time name="total">    0.56    0.56</time>
   <energy>
    <i name="e_fr_energy">    -61.06362773 </i>
    <i name="e_wo_entrp">    -61.06362773 </i>
    <i name="e_0_energy">    -61.06362773 </i>
   </energy>
  </scstep>
  <scstep>
   <time name="dav">    0.40    0.40</time>
   <time name="total">    0.59    0.59</time>
   <energy>
    <i name="e_fr_energy">    -61.05999872 </i>
    <i name="e_wo_entrp">    -61.05999872 </i>
    <i name="e_0_energy">    -61.05999872 </i>
   </energy>
  </scstep>
  <scstep>
   <time name="dav">    0.49    0.49</time>
   <time name="total">    0.68    0.68</time>
   <energy>
    <i name="e_fr_energy">    -61.05849373 </i>
    <i name="e_wo_entrp">    -61.05849373 </i>
    <i name="e_0_energy">    -61.05849373 </i>
   </energy>
  </scstep>
  <scstep>
   <time name="dav">    0.44    0.44</time>
   <time name="total">    0.61    0.61</time>
   <energy>
    <i name="alphaZ">     72.18957880 </i>
    <i name="ewald">  -2321.07902065 </i>
    <i name="hartreedc">   -465.38710419 </i>
    <i name="XCdc">   -202.20525094 </i>
    <i name="pawpsdc">   4297.64501934 </i>
    <i name="pawaedc">  -3950.84950858 </i>
    <i name="eentropy">     -0.00000000 </i>
    <i name="bandstr">   -169.36796396 </i>
    <i name="atom">   2677.99578058 </i>
    <i name="e_fr_energy">    -61.05846961 </i>
    <i name="e_wo_entrp">    -61.05846961 </i>
    <i name="e_0_energy">    -61.05846961 </i>
   </energy>
  </scstep>
  <structure>
   <crystal>
    <varray name="basis" >
     <v>       6.01149606       0.75212484      -0.76259542 </v>
     <v>      -0.78895426       5.92082733      -0.49220322 </v>
     <v>       0.44951043       1.02632678      11.63739630 </v>
    </varray>
    <i name="volume">    426.63322371 </i>
    <varray name="rec_basis" >
     <v>       0.16268816       0.02100193      -0.00813626 </v>
     <v>      -0.02235046       0.16478078      -0.01366905 </v>
     <v>       0.00971560       0.00834565       0.08481858 </v>
    </varray>
   </crystal>
   <varray name="positions" >
    <v>       0.51732974       0.74295757       0.87882887 </v>
    <v>       0.48267026       0.25704243       0.12117113 </v>
    <v>       0.98318919       0.74261591       0.62141699 </v>
    <v>       0.01681081       0.25738409       0.37858301 </v>
    <v>       0.03168762       0.78777139       0.12115083 </v>
    <v>       0.96831238       0.21222861       0.87884917 </v>
    <v>       0.47066518       0.78555447       0.38043713 </v>
    <v>       0.52933482       0.21444553       0.61956287 </v>
    <v>       0.51553212       0.19820551       0.37925580 </v>
    <v>       0.48446788       0.80179449       0.62074420 </v>
    <v>       0.98335400       0.19893632       0.12034486 </v>
    <v>       0.01664600       0.80106368       0.87965514 </v>
    <v>       0.94105497       0.23097038       0.64030001 </v>
    <v>       0.05894503       0.76902962       0.35969999 </v>
    <v>       0.55842115       0.23125732       0.85931483 </v>
    <v>       0.44157885       0.76874268       0.14068517 </v>
   </varray>
  </structure>
  <varray name="forces" >
   <v>      -0.04739974       0.07340749      -0.07101671 </v>
   <v>       0.04739974      -0.07340749       0.07101671 </v>
   <v>       0.02237864       0.09795466       0.07155332 </v>
   <v>      -0.02237864      -0.09795466      -0.07155332 </v>
   <v>      -0.95578278      -1.54372574       0.16875660 </v>
   <v>       0.95578278       1.54372574      -0.16875660 </v>
   <v>       1.23737924      -1.18409224       0.17842576 </v>
   <v>      -1.23737924       1.18409224      -0.17842576 </v>
   <v>      -0.07351146       1.42568032      -0.81207810 </v>
   <v>       0.07351146      -1.42568032       0.81207810 </v>
   <v>      -0.33571303       1.57244320       0.56251727 </v>
   <v>       0.33571303      -1.57244320      -0.56251727 </v>
   <v>       1.16299237       0.27671131      -1.04509326 </v>
   <v>      -1.16299237      -0.27671131       1.04509326 </v>
   <v>      -1.34132444       0.11141458       0.99607706 </v>
   <v>       1.34132444      -0.11141458      -0.99607706 </v>
  </varray>
  <varray name="stress" >
   <v>      28.59248537      -0.42053956       6.93082635 </v>
   <v>      -0.42054032      30.69234999       1.53704475 </v>
   <v>       6.93082582       1.53704536      40.01398000 </v>
  </varray>
  <energy>
   <i name="e_fr_energy">    -61.05846961 </i>
   <i name="e_wo_entrp">    -61.05846961 </i>
   <i name="e_0_energy">     -0.00000000 </i>
  </energy>
  <time name="totalsc">    4.38    4.40</time>
 </calculation>
 <calculation>
  <scstep>
   <time name="dav">    0.29    0.29</time>
   <time name="total">    0.48    0.48</time>
   <energy>
    <i name="alphaZ">     72.66852011 </i>
    <i name="ewald">  -2331.74580298 </i>
    <i name="hartreedc">   -462.02171008 </i>
    <i name="XCdc">   -202.13566345 </i>
    <i name="pawpsdc">   4313.66262221 </i>
    <i name="pawaedc">  -3966.85918767 </i>
    <i name="eentropy">     -0.00000000 </i>
    <i name="bandstr">   -162.72341497 </i>
    <i name="atom">   2677.99578058 </i>
    <i name="e_fr_energy">    -61.15885624 </i>
    <i name="e_wo_entrp">    -61.15885624 </i>
    <i name="e_0_energy">    -61.15885624 </i>
   </energy>
  </scstep>
  <scstep>
   <time name="dav">    0.46    0.46</time>
   <time name="total">    0.64    0.65</time>
   <energy>
    <i name="e_fr_energy">    -61.15154945 </i>
    <i name="e_wo_entrp">    -61.15154945 </i>
    <i name="e_0_energy">    -61.15154945 </i>
   </energy>
  </scstep>
  <scstep>
   <time name="dav">    0.48    0.49</time>
   <time name="total">    0.67    0.67</time>
   <energy>
    <i name="e_fr_energy">    -61.14879603 </i>
    <i name="e_wo_entrp">    -61.14879603 </i>
    <i name="e_0_energy">    -61.14879603 </i>
   </energy>
  </scstep>
  <scstep>
   <time name="dav">    0.46    0.46</time>
   <time name="total">    0.65    0.65</time>
   <energy>
    <i name="e_fr_energy">    -61.14838085 </i>
    <i name="e_wo_entrp">    -61.14838085 </i>
    <i name="e_0_energy">    -61.14838085 </i>
   </energy>
  </scstep>
  <scstep>
   <time name="dav">    0.26    0.26</time>
   <time name="total">    0.43    0.44</time>
   <energy>
    <i name="alphaZ">     72.66852011 </i>
    <i name="ewald">  -2331.74580298 </i>
    <i name="hartreedc">   -458.46317891 </i>
    <i name="XCdc">   -202.16684257 </i>
    <i name="pawpsdc">   4311.53027414 </i>
    <i name="pawaedc">  -3964.71827571 </i>
    <i name="eentropy">     -0.00000000 </i>
    <i name="bandstr">   -166.24881209 </i>
    <i name="atom">   2677.99578058 </i>
    <i name="e_fr_energy">    -61.14833742 </i>
    <i name="e_wo_entrp">    -61.14833742 </i>
    <i name="e_0_energy">    -61.14833742 </i>
   </energy>
  </scstep>
  <structure>
   <crystal>
    <varray name="basis" >
     <v>       5.99794537       0.75106218      -0.75308959 </v>
     <v>      -0.78667219       5.90355192      -0.49088519 </v>
     <v>       0.46439784       1.02658042      11.61935933 </v>
    </varray>
    <i name="volume">    423.82138338 </i>
    <varray name="rec_basis" >
     <v>       0.16303902       0.02102929      -0.00837423 </v>
     <v>      -0.02241503       0.16526305      -0.01370526 </v>
     <v>       0.00962013       0.00834488       0.08494149 </v>
    </varray>
   </crystal>
   <varray name="positions" >
    <v>       0.51734101       0.74323567       0.87872300 </v>
    <v>       0.48265899       0.25676433       0.12127700 </v>
    <v>       0.98317123       0.74289733       0.62152413 </v>
    <v>       0.01682877       0.25710267       0.37847587 </v>
    <v>       0.03106117       0.78694266       0.12113696 </v>
    <v>       0.96893883       0.21305734       0.87886304 </v>
    <v>       0.47135625       0.78465749       0.38052688 </v>
    <v>       0.52864375       0.21534251       0.61947312 </v>
    <v>       0.51553823       0.19928647       0.37889943 </v>
    <v>       0.48446177       0.80071353       0.62110057 </v>
    <v>       0.98333089       0.20005297       0.12069286 </v>
    <v>       0.01666911       0.79994703       0.87930714 </v>
    <v>       0.94189222       0.23106872       0.63994196 </v>
    <v>       0.05810778       0.76893128       0.36005804 </v>
    <v>       0.55754084       0.23135108       0.85966309 </v>
    <v>       0.44245916       0.76864892       0.14033691 </v>
   </varray>
  </structure>
  <varray name="forces" >
   <v>      -0.04858141       0.06837574      -0.06611647 </v>
   <v>       0.04858141      -0.06837574       0.06611647 </v>
   <v>       0.02524234       0.09257725       0.06878328 </v>
   <v>      -0.02524234      -0.09257725      -0.06878328 </v>
   <v>      -0.83958697      -1.48258999       0.15165963 </v>
   <v>       0.83958697       1.48258999      -0.15165963 </v>
   <v>       1.17178186      -1.20453171       0.11179376 </v>
   <v>      -1.17178186       1.20453171      -0.11179376 </v>
   <v>      -0.08299438       1.36159351      -0.80097942 </v>
   <v>       0.08299438      -1.36159351       0.80097942 </v>
   <v>      -0.31482045       1.53312878       0.54730225 </v>
   <v>       0.31482045      -1.53312878      -0.54730225 </v>
   <v>       1.14078131       0.30184345      -1.05539572 </v>
   <v>      -1.14078131      -0.30184345       1.05539572 </v>
   <v>      -1.32084739       0.12520539       0.96842983 </v>
   <v>       1.32084739      -0.12520539      -0.96842983 </v>
  </varray>
  <varray name="stress" >
   <v>      28.71455725      -0.29398167       6.52614499 </v>
   <v>      -0.29398176      30.66356588       1.68352711 </v>
   <v>       6.52614400       1.68352763      41.09798855 </v>
  </varray>
  <energy>
   <i name="e_fr_energy">    -61.14833742 </i>
   <i name="e_wo_entrp">    -61.14833742 </i>
   <i name="e_0_energy">     -0.00000000 </i>
  </energy>
  <time name="totalsc">    3.58    3.59</time>
 </calculation>
 <calculation>
  <scstep>
   <time name="dav">    0.38    0.39</time>
   <time name="total">    0.57    0.58</time>
   <energy>
    <i name="alphaZ">     74.13309969 </i>
    <i name="ewald">  -2363.39275002 </i>
    <i name="hartreedc">   -448.77292250 </i>
    <i name="XCdc">   -201.95297689 </i>
    <i name="pawpsdc">   4308.87112876 </i>
    <i name="pawaedc">  -3962.06087610 </i>
    <i name="eentropy">     -0.00000000 </i>
    <i name="bandstr">   -146.31930530 </i>
    <i name="atom">   2677.99578058 </i>
    <i name="e_fr_energy">    -61.49882178 </i>
    <i name="e_wo_entrp">    -61.49882178 </i>
    <i name="e_0_energy">    -61.49882178 </i>
   </energy>
  </scstep>
  <scstep>
   <time name="dav">    0.47    0.48</time>
   <time name="total">    0.66    0.66</time>
   <energy>
    <i name="e_fr_energy">    -61.43307941 </i>
    <i name="e_wo_entrp">    -61.43307941 </i>
    <i name="e_0_energy">    -61.43307941 </i>
   </energy>
  </scstep>
  <scstep>
   <time name="dav">    0.45    0.45</time>
   <time name="total">    0.64    0.64</time>
   <energy>
    <i name="e_fr_energy">    -61.40865143 </i>
    <i name="e_wo_entrp">    -61.40865143 </i>
    <i name="e_0_energy">    -61.40865143 </i>
   </energy>
  </scstep>
  <scstep>
   <time name="dav">    0.37    0.37</time>
   <time name="total">    0.56    0.56</time>
   <energy>
    <i name="e_fr_energy">    -61.40540187 </i>
    <i name="e_wo_entrp">    -61.40540187 </i>
    <i name="e_0_energy">    -61.40540187 </i>
   </energy>
  </scstep>
  <scstep>
   <time name="dav">    0.47    0.47</time>
   <time name="total">    0.66    0.66</time>
   <energy>
    <i name="e_fr_energy">    -61.40499186 </i>
    <i name="e_wo_entrp">    -61.40499186 </i>
    <i name="e_0_energy">    -61.40499186 </i>
   </energy>
  </scstep>
  <scstep>
   <time name="dav">    0.38    0.38</time>
   <time name="total">    0.55    0.56</time>
   <energy>
    <i name="alphaZ">     74.13309969 </i>
    <i name="ewald">  -2363.39275002 </i>
    <i name="hartreedc">   -438.30278748 </i>
    <i name="XCdc">   -202.04817171 </i>
    <i name="pawpsdc">   4282.98612405 </i>
    <i name="pawaedc">  -3936.15330710 </i>
    <i name="eentropy">     -0.00000000 </i>
    <i name="bandstr">   -156.62298408 </i>
    <i name="atom">   2677.99578058 </i>
    <i name="e_fr_energy">    -61.40499607 </i>
    <i name="e_wo_entrp">    -61.40499607 </i>
    <i name="e_0_energy">    -61.40499607 </i>
   </energy>
  </scstep>
  <structure>
   <crystal>
    <varray name="basis" >
     <v>       5.95729329       0.74787418      -0.72457210 </v>
     <v>      -0.77982600       5.85172568      -0.48693108 </v>
     <v>       0.50906007       1.02734133      11.56524845 </v>
    </varray>
    <i name="volume">    415.44833350 </i>
    <varray name="rec_basis" >
     <v>       0.16410442       0.02111214      -0.00909867 </v>
     <v>      -0.02261108       0.16672694      -0.01381510 </v>
     <v>       0.00932928       0.00834239       0.08531424 </v>
    </varray>
   </crystal>
   <varray name="positions" >
    <v>       0.51737571       0.74407238       0.87840492 </v>
    <v>       0.48262429       0.25592762       0.12159508 </v>
    <v>       0.98311640       0.74374408       0.62184607 </v>
    <v>       0.01688360       0.25625592       0.37815393 </v>
    <v>       0.02917757       0.78444919       0.12109653 </v>
    <v>       0.97082243       0.21555081       0.87890347 </v>
    <v>       0.47343355       0.78195872       0.38079509 </v>
    <v>       0.52656645       0.21804128       0.61920491 </v>
    <v>       0.51555936       0.20253876       0.37782886 </v>
    <v>       0.48444064       0.79746124       0.62217114 </v>
    <v>       0.98325868       0.20341277       0.12173840 </v>
    <v>       0.01674132       0.79658723       0.87826160 </v>
    <v>       0.94441256       0.23136455       0.63886465 </v>
    <v>       0.05558744       0.76863545       0.36113535 </v>
    <v>       0.55489110       0.23163320       0.86071107 </v>
    <v>       0.44510890       0.76836680       0.13928893 </v>
   </varray>
  </structure>
  <varray name="forces" >
   <v>      -0.05005352       0.05432127      -0.05091069 </v>
   <v>       0.05005352      -0.05432127       0.05091069 </v>
   <v>       0.03238880       0.07678592       0.05934614 </v>
   <v>      -0.03238880      -0.07678592      -0.05934614 </v>
   <v>      -0.85494254      -1.48388709       0.07081705 </v>
   <v>       0.85494254       1.48388709      -0.07081705 </v>
   <v>       1.15072565      -1.19439640      -0.00674534 </v>
   <v>      -1.15072565       1.19439640       0.00674534 </v>
   <v>      -0.04530523       1.31729376      -0.73471310 </v>
   <v>       0.04530523      -1.31729376       0.73471310 </v>
   <v>      -0.29804658       1.46253765       0.51213894 </v>
   <v>       0.29804658      -1.46253765      -0.51213894 </v>
   <v>       0.97652821       0.34027422      -1.02528207 </v>
   <v>      -0.97652821      -0.34027422       1.02528207 </v>
   <v>      -1.20072021       0.21603474       0.92892692 </v>
   <v>       1.20072021      -0.21603474      -0.92892692 </v>
  </varray>
  <varray name="stress" >
   <v>      25.98903281      -0.25796956       6.18198440 </v>
   <v>      -0.25797006      29.47991664       1.97136176 </v>
   <v>       6.18198332       1.97136157      42.46116395 </v>
  </varray>
  <energy>
   <i name="e_fr_energy">    -61.40499607 </i>
   <i name="e_wo_entrp">    -61.40499607 </i>
   <i name="e_0_energy">     -0.00000000 </i>
  </energy>
  <time name="totalsc">    4.39    4.41</time>
 </calculation>
 <calculation>
  <scstep>
   <time name="dav">    0.37    0.37</time>
   <time name="total">    0.57    0.57</time>
   <energy>
    <i name="alphaZ">     77.19256658 </i>
    <i name="ewald">  -2425.13895549 </i>
    <i name="hartreedc">   -420.69581492 </i>
    <i name="XCdc">   -201.57579388 </i>
    <i name="pawpsdc">   4275.56835685 </i>
    <i name="pawaedc">  -3928.73788983 </i>
    <i name="eentropy">     -0.00000000 </i>
    <i name="bandstr">   -116.82434069 </i>
    <i name="atom">   2677.99578058 </i>
    <i name="e_fr_energy">    -62.21609081 </i>
    <i name="e_wo_entrp">    -62.21609081 </i>
    <i name="e_0_energy">    -62.21609081 </i>
   </energy>
  </scstep>
  <scstep>
   <time name="dav">    0.34    0.34</time>
   <time name="total">    0.53    0.53</time>
   <energy>
    <i name="e_fr_energy">    -61.94931570 </i>
    <i name="e_wo_entrp">    -61.94931570 </i>
    <i name="e_0_energy">    -61.94931570 </i>
   </energy>
  </scstep>
  <scstep>
   <time name="dav">    0.49    0.49</time>
   <time name="total">    0.67    0.67</time>
   <energy>
    <i name="e_fr_energy">    -61.85156846 </i>
    <i name="e_wo_entrp">    -61.85156846 </i>
    <i name="e_0_energy">    -61.85156846 </i>
   </energy>
  </scstep>
  <scstep>
   <time name="dav">    0.50    0.50</time>
   <time name="total">    0.69    0.69</time>
   <energy>
    <i name="e_fr_energy">    -61.84057071 </i>
    <i name="e_wo_entrp">    -61.84057071 </i>
    <i name="e_0_energy">    -61.84057071 </i>
   </energy>
  </scstep>
  <scstep>
   <time name="dav">    0.38    0.38</time>
   <time name="total">    0.57    0.57</time>
   <energy>
    <i name="e_fr_energy">    -61.83872472 </i>
    <i name="e_wo_entrp">    -61.83872472 </i>
    <i name="e_0_energy">    -61.83872472 </i>
   </energy>
  </scstep>
  <scstep>
   <time name="dav">    0.36    0.36</time>
   <time name="total">    0.53    0.53</time>
   <energy>
    <i name="alphaZ">     77.19256658 </i>
    <i name="ewald">  -2425.13895549 </i>
    <i name="hartreedc">   -400.34938735 </i>
    <i name="XCdc">   -201.73771213 </i>
    <i name="pawpsdc">   4240.79406515 </i>
    <i name="pawaedc">  -3893.92785113 </i>
    <i name="eentropy">     -0.00000000 </i>
    <i name="bandstr">   -136.66726041 </i>
    <i name="atom">   2677.99578058 </i>
    <i name="e_fr_energy">    -61.83875420 </i>
    <i name="e_wo_entrp">    -61.83875420 </i>
    <i name="e_0_energy">    -61.83875420 </i>
   </energy>
  </scstep>
  <structure>
   <crystal>
    <varray name="basis" >
     <v>       5.87598914       0.74149820      -0.66753713 </v>
     <v>      -0.76613361       5.74807322      -0.47902286 </v>
     <v>       0.59838453       1.02886315      11.45702667 </v>
    </varray>
    <i name="volume">    398.98236434 </i>
    <varray name="rec_basis" >
     <v>       0.16629476       0.02128158      -0.01059647 </v>
     <v>      -0.02301397       0.16973384      -0.01404044 </v>
     <v>       0.00872685       0.00833660       0.08607825 </v>
    </varray>
   </crystal>
   <varray name="positions" >
    <v>       0.51745059       0.74576054       0.87776602 </v>
    <v>       0.48254941       0.25423946       0.12223398 </v>
    <v>       0.98300093       0.74545265       0.62249291 </v>
    <v>       0.01699907       0.25454735       0.37750709 </v>
    <v>       0.02538462       0.77941809       0.12102279 </v>
    <v>       0.97461538       0.22058191       0.87897721 </v>
    <v>       0.47761297       0.77651351       0.38132518 </v>
    <v>       0.52238703       0.22348649       0.61867482 </v>
    <v>       0.51561874       0.20910063       0.37567885 </v>
    <v>       0.48438126       0.79089937       0.62432115 </v>
    <v>       0.98309691       0.21019211       0.12383874 </v>
    <v>       0.01690309       0.78980789       0.87616126 </v>
    <v>       0.94950538       0.23196119       0.63669079 </v>
    <v>       0.05049462       0.76803881       0.36330921 </v>
    <v>       0.54953812       0.23220270       0.86282659 </v>
    <v>       0.45046188       0.76779730       0.13717341 </v>
   </varray>
  </structure>
  <varray name="forces" >
   <v>      -0.05211444       0.01940185      -0.01816818 </v>
   <v>       0.05211444      -0.01940185       0.01816818 </v>
   <v>       0.04424875       0.03959216       0.03864325 </v>
   <v>      -0.04424875      -0.03959216      -0.03864325 </v>
   <v>      -0.74265093      -1.36343123       0.19685567 </v>
   <v>       0.74265093       1.36343123      -0.19685567 </v>
   <v>       0.87879000      -1.01474101      -0.14935350 </v>
   <v>      -0.87879000       1.01474101       0.14935350 </v>
   <v>      -0.00486314       1.13499894      -0.60395522 </v>
   <v>       0.00486314      -1.13499894       0.60395522 </v>
   <v>      -0.30496325       1.27709260       0.40852061 </v>
   <v>       0.30496325      -1.27709260      -0.40852061 </v>
   <v>       0.83990416       0.32855201      -1.00051354 </v>
   <v>      -0.83990416      -0.32855201       1.00051354 </v>
   <v>      -1.04728917       0.23525351       0.84618006 </v>
   <v>       1.04728917      -0.23525351      -0.84618006 </v>
  </varray>
  <varray name="stress" >
   <v>      23.52459040      -0.00015309       6.22048703 </v>
   <v>      -0.00015385      29.63837436       1.74215200 </v>
   <v>       6.22048674       1.74215260      46.22024279 </v>
  </varray>
  <energy>
   <i name="e_fr_energy">    -61.83875420 </i>
   <i name="e_wo_entrp">    -61.83875420 </i>
   <i name="e_0_energy">     -0.00000000 </i>
  </energy>
  <time name="totalsc">    4.29    4.29</time>
 </calculation>
 <calculation>
  <scstep>
   <time name="dav">    0.37    0.38</time>
   <time name="total">    0.56    0.57</time>
   <energy>
    <i name="alphaZ">     83.88237132 </i>
    <i name="ewald">  -2542.23416980 </i>
    <i name="hartreedc">   -372.54701428 </i>
    <i name="XCdc">   -200.57432312 </i>
    <i name="pawpsdc">   4226.45389215 </i>
    <i name="pawaedc">  -3879.59148932 </i>
    <i name="eentropy">     -0.00000000 </i>
    <i name="bandstr">    -57.15357505 </i>
    <i name="atom">   2677.99578058 </i>
    <i name="e_fr_energy">    -63.76852751 </i>
    <i name="e_wo_entrp">    -63.76852751 </i>
    <i name="e_0_energy">    -63.76852751 </i>
   </energy>
  </scstep>
  <scstep>
   <time name="dav">    0.46    0.47</time>
   <time name="total">    0.65    0.66</time>
   <energy>
    <i name="e_fr_energy">    -62.71794208 </i>
    <i name="e_wo_entrp">    -62.71794208 </i>
    <i name="e_0_energy">    -62.71794208 </i>
   </energy>
  </scstep>
  <scstep>
   <time name="dav">    0.45    0.46</time>
   <time name="total">    0.63    0.64</time>
   <energy>
    <i name="e_fr_energy">    -62.33822707 </i>
    <i name="e_wo_entrp">    -62.33822707 </i>
    <i name="e_0_energy">    -62.33822707 </i>
   </energy>
  </scstep>
  <scstep>
   <time name="dav">    0.40    0.40</time>
   <time name="total">    0.58    0.59</time>
   <energy>
    <i name="e_fr_energy">    -62.29959797 </i>
    <i name="e_wo_entrp">    -62.29959797 </i>
    <i name="e_0_energy">    -62.29959797 </i>
   </energy>
  </scstep>
  <scstep>
   <time name="dav">    0.48    0.49</time>
   <time name="total">    0.67    0.68</time>
   <energy>
    <i name="e_fr_energy">    -62.28990926 </i>
    <i name="e_wo_entrp">    -62.28990926 </i>
    <i name="e_0_energy">    -62.28990926 </i>
   </energy>
  </scstep>
  <scstep>
   <time name="dav">    0.46    0.46</time>
   <time name="total">    0.64    0.64</time>
   <energy>
    <i name="e_fr_energy">    -62.29003476 </i>
    <i name="e_wo_entrp">    -62.29003476 </i>
    <i name="e_0_energy">    -62.29003476 </i>
   </energy>
  </scstep>
  <scstep>
   <time name="dav">    0.37    0.37</time>
   <time name="total">    0.54    0.54</time>
   <energy>
    <i name="alphaZ">     83.88237132 </i>
    <i name="ewald">  -2542.23416980 </i>
    <i name="hartreedc">   -334.34593769 </i>
    <i name="XCdc">   -200.78133340 </i>
    <i name="pawpsdc">   4224.65269082 </i>
    <i name="pawaedc">  -3877.78626454 </i>
    <i name="eentropy">     -0.00000000 </i>
    <i name="bandstr">    -93.67316916 </i>
    <i name="atom">   2677.99578058 </i>
    <i name="e_fr_energy">    -62.29003187 </i>
    <i name="e_wo_entrp">    -62.29003187 </i>
    <i name="e_0_energy">    -62.29003187 </i>
   </energy>
  </scstep>
  <structure>
   <crystal>
    <varray name="basis" >
     <v>       5.71338083       0.72874624      -0.55346719 </v>
     <v>      -0.73874884       5.54076829      -0.46320642 </v>
     <v>       0.77703345       1.03190679      11.24058312 </v>
    </varray>
    <i name="volume">    367.16263785 </i>
    <varray name="rec_basis" >
     <v>       0.17093093       0.02163630      -0.01380228 </v>
     <v>      -0.02386588       0.17608490      -0.01451514 </v>
     <v>       0.00743287       0.00832151       0.08768561 </v>
    </varray>
   </crystal>
   <varray name="positions" >
    <v>       0.51762303       0.74919734       0.87647691 </v>
    <v>       0.48237697       0.25080266       0.12352309 </v>
    <v>       0.98274600       0.74893172       0.62379880 </v>
    <v>       0.01725400       0.25106828       0.37620120 </v>
    <v>       0.01769277       0.76917443       0.12090488 </v>
    <v>       0.98230723       0.23082557       0.87909512 </v>
    <v>       0.48607388       0.76542724       0.38235902 </v>
    <v>       0.51392612       0.23457276       0.61764098 </v>
    <v>       0.51580832       0.22245966       0.37134254 </v>
    <v>       0.48419168       0.77754034       0.62865746 </v>
    <v>       0.98270157       0.22399627       0.12807745 </v>
    <v>       0.01729843       0.77600373       0.87192255 </v>
    <v>       0.95990601       0.23317489       0.63226385 </v>
    <v>       0.04009399       0.76682511       0.36773615 </v>
    <v>       0.53861166       0.23336326       0.86713816 </v>
    <v>       0.46138834       0.76663674       0.13286184 </v>
   </varray>
  </structure>
  <varray name="forces" >
   <v>      -0.03644900      -0.05482344       0.05847410 </v>
   <v>       0.03644900       0.05482344      -0.05847410 </v>
   <v>       0.05449495      -0.04407840      -0.00984590 </v>
   <v>      -0.05449495       0.04407840       0.00984590 </v>
   <v>      -0.44700683      -0.84788452       0.31102882 </v>
   <v>       0.44700683       0.84788452      -0.31102882 </v>
   <v>       0.65945386      -0.67495994      -0.25507878 </v>
   <v>      -0.65945386       0.67495994       0.25507878 </v>
   <v>      -0.02301882       0.91258204      -0.37895637 </v>
   <v>       0.02301882      -0.91258204       0.37895637 </v>
   <v>      -0.24240650       0.97690406       0.22191794 </v>
   <v>       0.24240650      -0.97690406      -0.22191794 </v>
   <v>       0.63353148       0.39979363      -0.91138533 </v>
   <v>      -0.63353148      -0.39979363       0.91138533 </v>
   <v>      -0.85186461       0.36140735       0.76403045 </v>
   <v>       0.85186461      -0.36140735      -0.76403045 </v>
  </varray>
  <varray name="stress" >
   <v>      29.28505095      -3.31154672       2.97439840 </v>
   <v>      -3.31154684      47.11136955       1.05492431 </v>
   <v>       2.97439627       1.05492471      57.91434940 </v>
  </varray>
  <energy>
   <i name="e_fr_energy">    -62.29003187 </i>
   <i name="e_wo_entrp">    -62.29003187 </i>
   <i name="e_0_energy">     -0.00000000 </i>
  </energy>
  <time name="totalsc">    5.04    5.10</time>
 </calculation>
 <calculation>
  <scstep>
   <time name="dav">    0.38    0.38</time>
   <time name="total">    0.57    0.57</time>
   <energy>
    <i name="alphaZ">     87.18369661 </i>
    <i name="ewald">  -2592.53502520 </i>
    <i name="hartreedc">   -325.10214293 </i>
    <i name="XCdc">   -200.11552883 </i>
    <i name="pawpsdc">   4228.86162343 </i>
    <i name="pawaedc">  -3881.99336654 </i>
    <i name="eentropy">     -0.00000000 </i>
    <i name="bandstr">    -56.88008422 </i>
    <i name="atom">   2677.99578058 </i>
    <i name="e_fr_energy">    -62.58504710 </i>
    <i name="e_wo_entrp">    -62.58504710 </i>
    <i name="e_0_energy">    -62.58504710 </i>
[...]
        <r>  0.0001  0.0608  0.0002 </r>
       </set>
       <set comment="band 31">
        <r>  0.0000  0.0021  0.0000 </r>
        <r>  0.0000  0.0021  0.0000 </r>
        <r>  0.0000  0.0022  0.0000 </r>
        <r>  0.0000  0.0022  0.0000 </r>
        <r>  0.0009  0.0005  0.0018 </r>
        <r>  0.0009  0.0005  0.0018 </r>
        <r>  0.0011  0.0006  0.0018 </r>
        <r>  0.0011  0.0006  0.0018 </r>
        <r>  0.0002  0.0652  0.0001 </r>
        <r>  0.0002  0.0652  0.0001 </r>
        <r>  0.0001  0.0605  0.0001 </r>
        <r>  0.0001  0.0605  0.0001 </r>
        <r>  0.0001  0.0684  0.0001 </r>
        <r>  0.0001  0.0684  0.0001 </r>
        <r>  0.0001  0.0672  0.0001 </r>
        <r>  0.0001  0.0672  0.0001 </r>
       </set>
       <set comment="band 32">
        <r>  0.0000  0.0020  0.0000 </r>
        <r>  0.0000  0.0020  0.0000 </r>
        <r>  0.0000  0.0020  0.0000 </r>
        <r>  0.0000  0.0020  0.0000 </r>
        <r>  0.0164  0.0104  0.0017 </r>
        <r>  0.0164  0.0104  0.0017 </r>
        <r>  0.0161  0.0101  0.0016 </r>
        <r>  0.0161  0.0101  0.0016 </r>
        <r>  0.0016  0.0416  0.0007 </r>
        <r>  0.0016  0.0416  0.0007 </r>
        <r>  0.0017  0.0441  0.0007 </r>
        <r>  0.0017  0.0441  0.0007 </r>
        <r>  0.0019  0.0593  0.0007 </r>
        <r>  0.0019  0.0593  0.0007 </r>
        <r>  0.0020  0.0554  0.0007 </r>
        <r>  0.0020  0.0554  0.0007 </r>
       </set>
       <set comment="band 33">
        <r>  0.0001  0.0020  0.0000 </r>
        <r>  0.0001  0.0020  0.0000 </r>
        <r>  0.0001  0.0022  0.0000 </r>
        <r>  0.0001  0.0022  0.0000 </r>
        <r>  0.0025  0.0029  0.0008 </r>
        <r>  0.0025  0.0029  0.0008 </r>
        <r>  0.0023  0.0028  0.0009 </r>
        <r>  0.0023  0.0028  0.0009 </r>
        <r>  0.0004  0.0687  0.0002 </r>
        <r>  0.0004  0.0687  0.0002 </r>
        <r>  0.0003  0.0634  0.0003 </r>
        <r>  0.0003  0.0634  0.0003 </r>
        <r>  0.0005  0.0681  0.0002 </r>
        <r>  0.0005  0.0681  0.0002 </r>
        <r>  0.0005  0.0610  0.0002 </r>
        <r>  0.0005  0.0610  0.0002 </r>
       </set>
       <set comment="band 34">
        <r>  0.0000  0.0013  0.0000 </r>
        <r>  0.0000  0.0013  0.0000 </r>
        <r>  0.0000  0.0011  0.0000 </r>
        <r>  0.0000  0.0011  0.0000 </r>
        <r>  0.0002  0.0003  0.0016 </r>
        <r>  0.0002  0.0003  0.0016 </r>
        <r>  0.0002  0.0003  0.0015 </r>
        <r>  0.0002  0.0003  0.0015 </r>
        <r>  0.0002  0.0648  0.0001 </r>
        <r>  0.0002  0.0648  0.0001 </r>
        <r>  0.0003  0.0702  0.0001 </r>
        <r>  0.0003  0.0702  0.0001 </r>
        <r>  0.0002  0.0659  0.0001 </r>
        <r>  0.0002  0.0659  0.0001 </r>
        <r>  0.0002  0.0776  0.0001 </r>
        <r>  0.0002  0.0776  0.0001 </r>
       </set>
       <set comment="band 35">
        <r>  0.0001  0.0013  0.0000 </r>
        <r>  0.0001  0.0013  0.0000 </r>
        <r>  0.0001  0.0014  0.0000 </r>
        <r>  0.0001  0.0014  0.0000 </r>
        <r>  0.0143  0.0142  0.0006 </r>
        <r>  0.0143  0.0142  0.0006 </r>
        <r>  0.0153  0.0151  0.0006 </r>
        <r>  0.0153  0.0151  0.0006 </r>
        <r>  0.0019  0.0525  0.0007 </r>
        <r>  0.0019  0.0525  0.0007 </r>
        <r>  0.0017  0.0509  0.0007 </r>
        <r>  0.0017  0.0509  0.0007 </r>
        <r>  0.0017  0.0570  0.0007 </r>
        <r>  0.0017  0.0570  0.0007 </r>
        <r>  0.0017  0.0550  0.0007 </r>
        <r>  0.0017  0.0550  0.0007 </r>
       </set>
       <set comment="band 36">
        <r>  0.0008  0.0012  0.0000 </r>
        <r>  0.0008  0.0012  0.0000 </r>
        <r>  0.0008  0.0012  0.0000 </r>
        <r>  0.0008  0.0012  0.0000 </r>
        <r>  0.0253  0.0241  0.0008 </r>
        <r>  0.0253  0.0241  0.0008 </r>
        <r>  0.0245  0.0237  0.0008 </r>
        <r>  0.0245  0.0237  0.0008 </r>
        <r>  0.0026  0.0426  0.0013 </r>
        <r>  0.0026  0.0426  0.0013 </r>
        <r>  0.0027  0.0435  0.0013 </r>
        <r>  0.0027  0.0435  0.0013 </r>
        <r>  0.0028  0.0434  0.0012 </r>
        <r>  0.0028  0.0434  0.0012 </r>
        <r>  0.0026  0.0425  0.0013 </r>
        <r>  0.0026  0.0425  0.0013 </r>
       </set>
       <set comment="band 37">
        <r>  0.0004  0.0027  0.0000 </r>
        <r>  0.0004  0.0027  0.0000 </r>
        <r>  0.0004  0.0025  0.0000 </r>
        <r>  0.0004  0.0025  0.0000 </r>
        <r>  0.0050  0.0548  0.0018 </r>
        <r>  0.0050  0.0548  0.0018 </r>
        <r>  0.0046  0.0565  0.0018 </r>
        <r>  0.0046  0.0565  0.0018 </r>
        <r>  0.0086  0.0256  0.0029 </r>
        <r>  0.0086  0.0256  0.0029 </r>
        <r>  0.0085  0.0253  0.0029 </r>
        <r>  0.0085  0.0253  0.0029 </r>
        <r>  0.0043  0.0136  0.0027 </r>
        <r>  0.0043  0.0136  0.0027 </r>
        <r>  0.0045  0.0147  0.0026 </r>
        <r>  0.0045  0.0147  0.0026 </r>
       </set>
       <set comment="band 38">
        <r>  0.0001  0.0008  0.0000 </r>
        <r>  0.0001  0.0008  0.0000 </r>
        <r>  0.0001  0.0008  0.0000 </r>
        <r>  0.0001  0.0008  0.0000 </r>
        <r>  0.0027  0.0692  0.0034 </r>
        <r>  0.0027  0.0692  0.0034 </r>
        <r>  0.0031  0.0712  0.0034 </r>
        <r>  0.0031  0.0712  0.0034 </r>
        <r>  0.0024  0.0178  0.0040 </r>
        <r>  0.0024  0.0178  0.0040 </r>
        <r>  0.0021  0.0165  0.0038 </r>
        <r>  0.0021  0.0165  0.0038 </r>
        <r>  0.0063  0.0244  0.0033 </r>
        <r>  0.0063  0.0244  0.0033 </r>
        <r>  0.0064  0.0243  0.0032 </r>
        <r>  0.0064  0.0243  0.0032 </r>
       </set>
       <set comment="band 39">
        <r>  0.0000  0.0012  0.0000 </r>
        <r>  0.0000  0.0012  0.0000 </r>
        <r>  0.0000  0.0012  0.0000 </r>
        <r>  0.0000  0.0012  0.0000 </r>
        <r>  0.0006  0.0722  0.0030 </r>
        <r>  0.0006  0.0722  0.0030 </r>
        <r>  0.0005  0.0696  0.0029 </r>
        <r>  0.0005  0.0696  0.0029 </r>
        <r>  0.0063  0.0237  0.0036 </r>
        <r>  0.0063  0.0237  0.0036 </r>
        <r>  0.0066  0.0248  0.0038 </r>
        <r>  0.0066  0.0248  0.0038 </r>
        <r>  0.0038  0.0196  0.0029 </r>
        <r>  0.0038  0.0196  0.0029 </r>
        <r>  0.0039  0.0199  0.0030 </r>
        <r>  0.0039  0.0199  0.0030 </r>
       </set>
       <set comment="band 40">
        <r>  0.0007  0.0020  0.0000 </r>
        <r>  0.0007  0.0020  0.0000 </r>
        <r>  0.0008  0.0021  0.0000 </r>
        <r>  0.0008  0.0021  0.0000 </r>
        <r>  0.0002  0.0570  0.0003 </r>
        <r>  0.0002  0.0570  0.0003 </r>
        <r>  0.0002  0.0562  0.0003 </r>
        <r>  0.0002  0.0562  0.0003 </r>
        <r>  0.0049  0.0284  0.0024 </r>
        <r>  0.0049  0.0284  0.0024 </r>
        <r>  0.0050  0.0287  0.0025 </r>
        <r>  0.0050  0.0287  0.0025 </r>
        <r>  0.0058  0.0246  0.0022 </r>
        <r>  0.0058  0.0246  0.0022 </r>
        <r>  0.0054  0.0229  0.0023 </r>
        <r>  0.0054  0.0229  0.0023 </r>
       </set>
       <set comment="band 41">
        <r>  0.0001  0.0029  0.0000 </r>
        <r>  0.0001  0.0029  0.0000 </r>
        <r>  0.0001  0.0028  0.0000 </r>
        <r>  0.0001  0.0028  0.0000 </r>
        <r>  0.0012  0.0685  0.0028 </r>
        <r>  0.0012  0.0685  0.0028 </r>
        <r>  0.0017  0.0654  0.0025 </r>
        <r>  0.0017  0.0654  0.0025 </r>
        <r>  0.0042  0.0210  0.0031 </r>
        <r>  0.0042  0.0210  0.0031 </r>
        <r>  0.0047  0.0188  0.0029 </r>
        <r>  0.0047  0.0188  0.0029 </r>
        <r>  0.0033  0.0211  0.0036 </r>
        <r>  0.0033  0.0211  0.0036 </r>
        <r>  0.0043  0.0257  0.0038 </r>
        <r>  0.0043  0.0257  0.0038 </r>
       </set>
       <set comment="band 42">
        <r>  0.0002  0.0009  0.0000 </r>
        <r>  0.0002  0.0009  0.0000 </r>
        <r>  0.0001  0.0012  0.0000 </r>
        <r>  0.0001  0.0012  0.0000 </r>
        <r>  0.0154  0.0575  0.0024 </r>
        <r>  0.0154  0.0575  0.0024 </r>
        <r>  0.0153  0.0599  0.0027 </r>
        <r>  0.0153  0.0599  0.0027 </r>
        <r>  0.0024  0.0206  0.0025 </r>
        <r>  0.0024  0.0206  0.0025 </r>
        <r>  0.0019  0.0226  0.0027 </r>
        <r>  0.0019  0.0226  0.0027 </r>
        <r>  0.0047  0.0304  0.0031 </r>
        <r>  0.0047  0.0304  0.0031 </r>
        <r>  0.0036  0.0262  0.0030 </r>
        <r>  0.0036  0.0262  0.0030 </r>
       </set>
       <set comment="band 43">
        <r>  0.0004  0.0004  0.0000 </r>
        <r>  0.0004  0.0004  0.0000 </r>
        <r>  0.0005  0.0004  0.0000 </r>
        <r>  0.0005  0.0004  0.0000 </r>
        <r>  0.0042  0.0677  0.0042 </r>
        <r>  0.0042  0.0677  0.0042 </r>
        <r>  0.0036  0.0690  0.0044 </r>
        <r>  0.0036  0.0690  0.0044 </r>
        <r>  0.0025  0.0271  0.0040 </r>
        <r>  0.0025  0.0271  0.0040 </r>
        <r>  0.0023  0.0263  0.0039 </r>
        <r>  0.0023  0.0263  0.0039 </r>
        <r>  0.0029  0.0276  0.0036 </r>
        <r>  0.0029  0.0276  0.0036 </r>
        <r>  0.0029  0.0280  0.0036 </r>
        <r>  0.0029  0.0280  0.0036 </r>
       </set>
       <set comment="band 44">
        <r>  0.0016  0.0069  0.0000 </r>
        <r>  0.0016  0.0069  0.0000 </r>
        <r>  0.0015  0.0069  0.0000 </r>
        <r>  0.0015  0.0069  0.0000 </r>
        <r>  0.0001  0.0597  0.0011 </r>
        <r>  0.0001  0.0597  0.0011 </r>
        <r>  0.0001  0.0605  0.0011 </r>
        <r>  0.0001  0.0605  0.0011 </r>
        <r>  0.0024  0.0199  0.0041 </r>
        <r>  0.0024  0.0199  0.0041 </r>
        <r>  0.0024  0.0194  0.0040 </r>
        <r>  0.0024  0.0194  0.0040 </r>
        <r>  0.0017  0.0188  0.0045 </r>
        <r>  0.0017  0.0188  0.0045 </r>
        <r>  0.0017  0.0192  0.0045 </r>
        <r>  0.0017  0.0192  0.0045 </r>
       </set>
       <set comment="band 45">
        <r>  0.0006  0.0025  0.0000 </r>
        <r>  0.0006  0.0025  0.0000 </r>
        <r>  0.0006  0.0025  0.0000 </r>
        <r>  0.0006  0.0025  0.0000 </r>
        <r>  0.0043  0.0507  0.0018 </r>
        <r>  0.0043  0.0507  0.0018 </r>
        <r>  0.0040  0.0513  0.0019 </r>
        <r>  0.0040  0.0513  0.0019 </r>
        <r>  0.0048  0.0280  0.0025 </r>
        <r>  0.0048  0.0280  0.0025 </r>
        <r>  0.0047  0.0278  0.0025 </r>
        <r>  0.0047  0.0278  0.0025 </r>
        <r>  0.0059  0.0327  0.0025 </r>
        <r>  0.0059  0.0327  0.0025 </r>
        <r>  0.0059  0.0330  0.0025 </r>
        <r>  0.0059  0.0330  0.0025 </r>
       </set>
       <set comment="band 46">
        <r>  0.0001  0.0028  0.0000 </r>
        <r>  0.0001  0.0028  0.0000 </r>
        <r>  0.0001  0.0029  0.0000 </r>
        <r>  0.0001  0.0029  0.0000 </r>
        <r>  0.0127  0.0629  0.0026 </r>
        <r>  0.0127  0.0629  0.0026 </r>
        <r>  0.0131  0.0604  0.0024 </r>
        <r>  0.0131  0.0604  0.0024 </r>
        <r>  0.0022  0.0300  0.0034 </r>
        <r>  0.0022  0.0300  0.0034 </r>
        <r>  0.0023  0.0316  0.0036 </r>
        <r>  0.0023  0.0316  0.0036 </r>
        <r>  0.0015  0.0251  0.0034 </r>
        <r>  0.0015  0.0251  0.0034 </r>
        <r>  0.0016  0.0245  0.0033 </r>
        <r>  0.0016  0.0245  0.0033 </r>
       </set>
       <set comment="band 47">
        <r>  0.0021  0.0027  0.0000 </r>
        <r>  0.0021  0.0027  0.0000 </r>
        <r>  0.0021  0.0027  0.0000 </r>
        <r>  0.0021  0.0027  0.0000 </r>
        <r>  0.0080  0.0584  0.0015 </r>
        <r>  0.0080  0.0584  0.0015 </r>
        <r>  0.0078  0.0582  0.0015 </r>
        <r>  0.0078  0.0582  0.0015 </r>
        <r>  0.0017  0.0304  0.0036 </r>
        <r>  0.0017  0.0304  0.0036 </r>
        <r>  0.0017  0.0304  0.0036 </r>
        <r>  0.0017  0.0304  0.0036 </r>
        <r>  0.0018  0.0301  0.0035 </r>
        <r>  0.0018  0.0301  0.0035 </r>
        <r>  0.0017  0.0295  0.0034 </r>
        <r>  0.0017  0.0295  0.0034 </r>
       </set>
       <set comment="band 48">
        <r>  0.0000  0.0002  0.0000 </r>
        <r>  0.0000  0.0002  0.0000 </r>
        <r>  0.0000  0.0002  0.0000 </r>
        <r>  0.0000  0.0002  0.0000 </r>
        <r>  0.0169  0.0530  0.0021 </r>
        <r>  0.0169  0.0530  0.0021 </r>
        <r>  0.0173  0.0534  0.0021 </r>
        <r>  0.0173  0.0534  0.0021 </r>
        <r>  0.0042  0.0369  0.0020 </r>
        <r>  0.0042  0.0369  0.0020 </r>
        <r>  0.0042  0.0365  0.0020 </r>
        <r>  0.0042  0.0365  0.0020 </r>
        <r>  0.0041  0.0360  0.0019 </r>
        <r>  0.0041  0.0360  0.0019 </r>
        <r>  0.0042  0.0355  0.0019 </r>
        <r>  0.0042  0.0355  0.0019 </r>
       </set>
       <set comment="band 49">
        <r>  0.0096  0.0255  0.0000 </r>
        <r>  0.0096  0.0255  0.0000 </r>
        <r>  0.0094  0.0249  0.0000 </r>
        <r>  0.0094  0.0249  0.0000 </r>
        <r>  0.0004  0.0044  0.0039 </r>
        <r>  0.0004  0.0044  0.0039 </r>
        <r>  0.0004  0.0043  0.0039 </r>
        <r>  0.0004  0.0043  0.0039 </r>
        <r>  0.0051  0.0060  0.0071 </r>
        <r>  0.0051  0.0060  0.0071 </r>
        <r>  0.0051  0.0058  0.0071 </r>
        <r>  0.0051  0.0058  0.0071 </r>
        <r>  0.0061  0.0038  0.0076 </r>
        <r>  0.0061  0.0038  0.0076 </r>
        <r>  0.0061  0.0036  0.0078 </r>
        <r>  0.0061  0.0036  0.0078 </r>
       </set>
       <set comment="band 50">
        <r>  0.0149  0.0276  0.0000 </r>
        <r>  0.0149  0.0276  0.0000 </r>
        <r>  0.0122  0.0223  0.0000 </r>
        <r>  0.0122  0.0223  0.0000 </r>
        <r>  0.0001  0.0053  0.0042 </r>
        <r>  0.0001  0.0053  0.0042 </r>
        <r>  0.0000  0.0039  0.0033 </r>
        <r>  0.0000  0.0039  0.0033 </r>
        <r>  0.0016  0.0034  0.0088 </r>
        <r>  0.0016  0.0034  0.0088 </r>
        <r>  0.0024  0.0025  0.0109 </r>
        <r>  0.0024  0.0025  0.0109 </r>
        <r>  0.0012  0.0053  0.0086 </r>
        <r>  0.0012  0.0053  0.0086 </r>
        <r>  0.0010  0.0040  0.0104 </r>
        <r>  0.0010  0.0040  0.0104 </r>
       </set>
       <set comment="band 51">
        <r>  0.0064  0.0192  0.0000 </r>
        <r>  0.0064  0.0192  0.0000 </r>
        <r>  0.0090  0.0244  0.0000 </r>
        <r>  0.0090  0.0244  0.0000 </r>
        <r>  0.0036  0.0099  0.0024 </r>
        <r>  0.0036  0.0099  0.0024 </r>
        <r>  0.0037  0.0112  0.0032 </r>
        <r>  0.0037  0.0112  0.0032 </r>
        <r>  0.0029  0.0093  0.0089 </r>
        <r>  0.0029  0.0093  0.0089 </r>
        <r>  0.0020  0.0100  0.0069 </r>
        <r>  0.0020  0.0100  0.0069 </r>
        <r>  0.0026  0.0063  0.0090 </r>
        <r>  0.0026  0.0063  0.0090 </r>
        <r>  0.0028  0.0074  0.0074 </r>
        <r>  0.0028  0.0074  0.0074 </r>
       </set>
       <set comment="band 52">
        <r>  0.0075  0.0183  0.0000 </r>
        <r>  0.0075  0.0183  0.0000 </r>
        <r>  0.0080  0.0195  0.0000 </r>
        <r>  0.0080  0.0195  0.0000 </r>
        <r>  0.0016  0.0072  0.0088 </r>
        <r>  0.0016  0.0072  0.0088 </r>
        <r>  0.0016  0.0074  0.0088 </r>
        <r>  0.0016  0.0074  0.0088 </r>
        <r>  0.0013  0.0031  0.0097 </r>
        <r>  0.0013  0.0031  0.0097 </r>
        <r>  0.0011  0.0032  0.0094 </r>
        <r>  0.0011  0.0032  0.0094 </r>
        <r>  0.0009  0.0034  0.0094 </r>
        <r>  0.0009  0.0034  0.0094 </r>
        <r>  0.0008  0.0032  0.0089 </r>
        <r>  0.0008  0.0032  0.0089 </r>
       </set>
       <set comment="band 53">
        <r>  0.0044  0.0192  0.0000 </r>
        <r>  0.0044  0.0192  0.0000 </r>
        <r>  0.0043  0.0199  0.0000 </r>
        <r>  0.0043  0.0199  0.0000 </r>
        <r>  0.0001  0.0112  0.0035 </r>
        <r>  0.0001  0.0112  0.0035 </r>
        <r>  0.0001  0.0110  0.0032 </r>
        <r>  0.0001  0.0110  0.0032 </r>
        <r>  0.0016  0.0134  0.0076 </r>
        <r>  0.0016  0.0134  0.0076 </r>
        <r>  0.0017  0.0137  0.0077 </r>
        <r>  0.0017  0.0137  0.0077 </r>
        <r>  0.0022  0.0165  0.0086 </r>
        <r>  0.0022  0.0165  0.0086 </r>
        <r>  0.0022  0.0168  0.0082 </r>
        <r>  0.0022  0.0168  0.0082 </r>
       </set>
       <set comment="band 54">
        <r>  0.0066  0.0154  0.0000 </r>
        <r>  0.0066  0.0154  0.0000 </r>
        <r>  0.0067  0.0148  0.0000 </r>
        <r>  0.0067  0.0148  0.0000 </r>
        <r>  0.0000  0.0036  0.0094 </r>
        <r>  0.0000  0.0036  0.0094 </r>
        <r>  0.0000  0.0035  0.0094 </r>
        <r>  0.0000  0.0035  0.0094 </r>
        <r>  0.0004  0.0109  0.0102 </r>
        <r>  0.0004  0.0109  0.0102 </r>
        <r>  0.0004  0.0107  0.0105 </r>
        <r>  0.0004  0.0107  0.0105 </r>
        <r>  0.0001  0.0096  0.0093 </r>
        <r>  0.0001  0.0096  0.0093 </r>
        <r>  0.0001  0.0100  0.0094 </r>
        <r>  0.0001  0.0100  0.0094 </r>
       </set>
       <set comment="band 55">
        <r>  0.0021  0.0280  0.0000 </r>
        <r>  0.0021  0.0280  0.0000 </r>
        <r>  0.0021  0.0272  0.0000 </r>
        <r>  0.0021  0.0272  0.0000 </r>
        <r>  0.0009  0.0097  0.0015 </r>
        <r>  0.0009  0.0097  0.0015 </r>
        <r>  0.0008  0.0097  0.0016 </r>
        <r>  0.0008  0.0097  0.0016 </r>
        <r>  0.0020  0.0110  0.0095 </r>
        <r>  0.0020  0.0110  0.0095 </r>
        <r>  0.0021  0.0112  0.0093 </r>
        <r>  0.0021  0.0112  0.0093 </r>
        <r>  0.0011  0.0109  0.0076 </r>
        <r>  0.0011  0.0109  0.0076 </r>
        <r>  0.0013  0.0112  0.0079 </r>
        <r>  0.0013  0.0112  0.0079 </r>
       </set>
       <set comment="band 56">
        <r>  0.0009  0.0305  0.0000 </r>
        <r>  0.0009  0.0305  0.0000 </r>
        <r>  0.0008  0.0305  0.0000 </r>
        <r>  0.0008  0.0305  0.0000 </r>
        <r>  0.0004  0.0096  0.0025 </r>
        <r>  0.0004  0.0096  0.0025 </r>
        <r>  0.0004  0.0095  0.0024 </r>
        <r>  0.0004  0.0095  0.0024 </r>
        <r>  0.0012  0.0119  0.0082 </r>
        <r>  0.0012  0.0119  0.0082 </r>
        <r>  0.0012  0.0119  0.0083 </r>
        <r>  0.0012  0.0119  0.0083 </r>
        <r>  0.0020  0.0119  0.0094 </r>
        <r>  0.0020  0.0119  0.0094 </r>
        <r>  0.0020  0.0115  0.0094 </r>
        <r>  0.0020  0.0115  0.0094 </r>
       </set>
      </set>
     </set>
    </set>
   </array>
  </projected>
 </calculation>
 <structure name="finalpos" >
  <crystal>
   <varray name="basis" >
    <v>       5.56749826       0.70893685      -0.49530314 </v>
    <v>      -0.74719097       5.57186403      -0.45276954 </v>
    <v>       0.89169387       1.10601834      11.63028024 </v>
   </varray>
   <i name="volume">    372.31961386 </i>
   <varray name="rec_basis" >
    <v>       0.17539530       0.02225590      -0.01556406 </v>
    <v>      -0.02361667       0.17510016      -0.01484101 </v>
    <v>       0.00655022       0.00776451       0.08474185 </v>
   </varray>
  </crystal>
  <varray name="positions" >
   <v>       0.50261864       0.74941804       0.87779257 </v>
   <v>       0.49738136       0.25058196       0.12220743 </v>
   <v>       0.99659740       0.75049189       0.62284735 </v>
   <v>       0.00340260       0.24950811       0.37715265 </v>
   <v>       0.00191150       0.75241634       0.12341076 </v>
   <v>       0.99808850       0.24758366       0.87658924 </v>
   <v>       0.50201931       0.74777010       0.37649831 </v>
   <v>       0.49798069       0.25222990       0.62350169 </v>
   <v>       0.50047063       0.25000225       0.37658933 </v>
   <v>       0.49952937       0.74999775       0.62341067 </v>
   <v>       0.99948837       0.25023336       0.12342224 </v>
   <v>       0.00051163       0.74976664       0.87657776 </v>
   <v>      -0.00036430       0.24973501       0.62553175 </v>
   <v>       0.00036430       0.75026499       0.37446825 </v>
   <v>       0.49987187       0.24996454       0.87475284 </v>
   <v>       0.50012813       0.75003546       0.12524716 </v>
  </varray>
 </structure>
</modeling>
