/etc/profile: 第 79 行:ulimit: stack size: 无法修改 limit 值: 不允许的操作
/home/customer/.bashrc: 第 12 行:ulimit: stack size: 无法修改 limit 值: 不允许的操作
Intel(R) Parallel Studio XE 2018 Update 3 for Linux*
Copyright (C) 2009-2018 Intel Corporation. All rights reserved.
 running on   14 total cores
 distrk:  each k-point on   14 cores,    1 groups
 distr:  one band on    1 cores,   14 groups
 using from now: INCAR     
 vasp.5.4.4.18Apr17-6-g9f103f2a35 (build Oct 27 2022 13:04:57) complex          
  
 POSCAR found type information on POSCAR  Li Sb Se
 POSCAR found :  3 types and      16 ions
 scaLAPACK will be used

 ----------------------------------------------------------------------------- 
|                                                                             |
|           W    W    AA    RRRRR   N    N  II  N    N   GGGG   !!!           |
|           W    W   A  A   R    R  NN   N  II  NN   N  G    G  !!!           |
|           W    W  A    A  R    R  N N  N  II  N N  N  G       !!!           |
|           W WW W  AAAAAA  RRRRR   N  N N  II  N  N N  G  GGG   !            |
|           WW  WW  A    A  R   R   N   NN  II  N   NN  G    G                |
|           W    W  A    A  R    R  N    N  II  N    N   GGGG   !!!           |
|                                                                             |
|      For optimal performance we recommend to set                            |
|        NCORE= 4 - approx SQRT( number of cores)                             |
|      NCORE specifies how many cores store one orbital (NPAR=cpu/NCORE).     |
|      This setting can  greatly improve the performance of VASP for DFT.     |
|      The default,   NCORE=1            might be grossly inefficient         |
|      on modern multi-core architectures or massively parallel machines.     |
|      Do your own testing !!!!                                               |
|      Unfortunately you need to use the default for GW and RPA calculations. |
|      (for HF NCORE is supported but not extensively tested yet)             |
|                                                                             |
 ----------------------------------------------------------------------------- 

 LDA part: xc-table for Pade appr. of Perdew
 POSCAR, INCAR and KPOINTS ok, starting setup
 FFT: planning ...
 WAVECAR not read
 entering main loop
       N       E                     dE             d eps       ncg     rms          rms(c)
DAV:   1     0.265727903943E+03    0.26573E+03   -0.18489E+04  1008   0.651E+02
DAV:   2    -0.317665774073E+02   -0.29749E+03   -0.28706E+03  1302   0.137E+02
DAV:   3    -0.616984556380E+02   -0.29932E+02   -0.29658E+02  1260   0.483E+01
DAV:   4    -0.621854819985E+02   -0.48703E+00   -0.48639E+00  1288   0.719E+00
DAV:   5    -0.621913106529E+02   -0.58287E-02   -0.58279E-02  1288   0.796E-01    0.946E+00
DAV:   6    -0.599832359863E+02    0.22081E+01   -0.39534E+00  1204   0.545E+00    0.647E+00
DAV:   7    -0.599378544698E+02    0.45382E-01   -0.11634E+00  1204   0.270E+00    0.240E+00
DAV:   8    -0.599395122902E+02   -0.16578E-02   -0.48653E-02  1288   0.771E-01    0.110E+00
DAV:   9    -0.599514993870E+02   -0.11987E-01   -0.29231E-02  1092   0.580E-01    0.236E-01
DAV:  10    -0.599525585279E+02   -0.10591E-02   -0.94182E-04  1372   0.966E-02    0.112E-01
DAV:  11    -0.599542116409E+02   -0.16531E-02   -0.23601E-03  1106   0.150E-01    0.272E-02
DAV:  12    -0.599542443018E+02   -0.32661E-04   -0.48355E-05  1078   0.209E-02
   1 F= -.59954244E+02 E0= -.59954244E+02  d E =-.599542E+02
 curvature:   0.00 expect dE= 0.000E+00 dE for cont linesearch  0.000E+00
 trial: gam= 0.00000 g(F)=  0.301E-01 g(S)=  0.804E-01 ort = 0.000E+00 (trialstep = 0.100E+01)
 search vector abs. value=  0.111E+00
 bond charge predicted
       N       E                     dE             d eps       ncg     rms          rms(c)
DAV:   1    -0.600991987940E+02   -0.14499E+00   -0.90594E-01  1036   0.258E+00    0.837E-01
DAV:   2    -0.600705845988E+02    0.28614E-01   -0.59308E-02  1246   0.667E-01    0.366E-01
DAV:   3    -0.600640190891E+02    0.65655E-02   -0.22234E-02  1134   0.361E-01    0.151E-01
DAV:   4    -0.600637337388E+02    0.28535E-03   -0.68170E-04  1330   0.853E-02    0.939E-02
DAV:   5    -0.600636249943E+02    0.10874E-03   -0.46633E-04  1302   0.557E-02    0.432E-02
DAV:   6    -0.600636275059E+02   -0.25117E-05   -0.23208E-05   672   0.151E-02
   2 F= -.60063628E+02 E0= -.60063628E+02  d E =-.109383E+00
 ZBRENT: can't locate minimum, use default step
 trial-energy change:   -0.109383  1 .order   -0.109896   -0.110564   -0.109228
 step:   4.0000(harm= 82.8106)  dis= 0.01901  next Energy=   -64.532165 (dE=-0.458E+01)
 bond charge predicted
       N       E                     dE             d eps       ncg     rms          rms(c)
DAV:   1    -0.607008067085E+02   -0.63718E+00   -0.82682E+00  1050   0.787E+00    0.260E+00
DAV:   2    -0.604381670437E+02    0.26264E+00   -0.55026E-01  1232   0.203E+00    0.112E+00
DAV:   3    -0.603788167743E+02    0.59350E-01   -0.20710E-01  1148   0.111E+00    0.485E-01
DAV:   4    -0.603763789568E+02    0.24378E-02   -0.63648E-03  1358   0.261E-01    0.305E-01
DAV:   5    -0.603752087145E+02    0.11702E-02   -0.46079E-03  1302   0.177E-01    0.127E-01
DAV:   6    -0.603752339337E+02   -0.25219E-04   -0.25879E-04  1204   0.490E-02
   3 F= -.60375234E+02 E0= -.60375234E+02  d E =-.420990E+00
 curvature:  -2.98 expect dE=-0.304E+00 dE for cont linesearch -0.261E+00
 ZBRENT: increasing intervall
 opt :  10.0000  next Energy=   -60.900816 (dE=-0.947E+00)
 bond charge predicted
       N       E                     dE             d eps       ncg     rms          rms(c)
DAV:   1    -0.621847591691E+02   -0.18096E+01   -0.34319E+01  1064   0.163E+01    0.553E+00
DAV:   2    -0.611066133558E+02    0.10781E+01   -0.23233E+00  1218   0.420E+00    0.234E+00
DAV:   3    -0.608647155038E+02    0.24190E+00   -0.87938E-01  1162   0.230E+00    0.109E+00
DAV:   4    -0.608559408638E+02    0.87746E-02   -0.27763E-02  1330   0.545E-01    0.692E-01
DAV:   5    -0.608501584917E+02    0.57824E-02   -0.21103E-02  1344   0.384E-01    0.235E-01
DAV:   6    -0.608502140129E+02   -0.55521E-04   -0.12547E-03  1190   0.109E-01    0.106E-01
DAV:   7    -0.608502205177E+02   -0.65049E-05   -0.11040E-04   994   0.373E-02
   4 F= -.60850221E+02 E0= -.60850221E+02  d E =-.895976E+00
 curvature:  -6.00 expect dE=-0.888E+00 dE for cont linesearch -0.209E+00
 ZBRENT: increasing intervall
 opt :  22.0000  next Energy=   -61.158378 (dE=-0.120E+01)
 bond charge predicted
       N       E                     dE             d eps       ncg     rms          rms(c)
DAV:   1    -0.664905440626E+02   -0.56403E+01   -0.14801E+02  1106   0.352E+01    0.127E+01
DAV:   2    -0.620532692850E+02    0.44373E+01   -0.10333E+01  1134   0.902E+00    0.516E+00
DAV:   3    -0.610322811699E+02    0.10210E+01   -0.38109E+00  1260   0.492E+00    0.273E+00
DAV:   4    -0.610062623083E+02    0.26019E-01   -0.14138E-01  1232   0.120E+00    0.179E+00
DAV:   5    -0.609725972859E+02    0.33665E-01   -0.10738E-01  1344   0.899E-01    0.338E-01
DAV:   6    -0.609724379405E+02    0.15935E-03   -0.54931E-03  1176   0.238E-01    0.236E-01
DAV:   7    -0.609724621702E+02   -0.24230E-04   -0.60048E-04  1330   0.699E-02
   5 F= -.60972462E+02 E0= -.60972462E+02  d E =-.101822E+01
 curvature:  -8.85 expect dE=-0.652E+01 dE for cont linesearch -0.512E-01
 ZBRENT: bracketing found
 ZBRENT: interpolating
 opt :  18.5247  next Energy=   -61.016416 (dE=-0.106E+01)
 bond charge predicted
       N       E                     dE             d eps       ncg     rms          rms(c)
DAV:   1    -0.615139476002E+02   -0.54151E+00   -0.11968E+01  1148   0.948E+00    0.294E+00
DAV:   2    -0.611576538944E+02    0.35629E+00   -0.75145E-01  1134   0.248E+00    0.143E+00
DAV:   3    -0.610636277289E+02    0.94026E-01   -0.31346E-01  1260   0.137E+00    0.502E-01
DAV:   4    -0.610599987215E+02    0.36290E-02   -0.88817E-03  1260   0.321E-01    0.314E-01
DAV:   5    -0.610584937265E+02    0.15050E-02   -0.61383E-03  1330   0.212E-01    0.149E-01
DAV:   6    -0.610584696073E+02    0.24119E-04   -0.37773E-04  1204   0.614E-02
   6 F= -.61058470E+02 E0= -.61058470E+02  d E =-.110423E+01
 curvature:  -7.60 expect dE=-0.365E+01 dE for cont linesearch -0.878E-04
 trial: gam= 4.35839 g(F)=  0.333E+00 g(S)=  0.148E+00 ort =-0.113E-02 (trialstep = 0.194E+00)
 search vector abs. value=  0.257E+01
 bond charge predicted
       N       E                     dE             d eps       ncg     rms          rms(c)
DAV:   1    -0.611588562392E+02   -0.10036E+00   -0.73618E-01  1036   0.245E+00    0.548E-01
DAV:   2    -0.611515494453E+02    0.73068E-02   -0.44005E-02  1260   0.621E-01    0.258E-01
DAV:   3    -0.611487960282E+02    0.27534E-02   -0.57874E-03  1288   0.197E-01    0.116E-01
DAV:   4    -0.611483808476E+02    0.41518E-03   -0.85201E-04  1358   0.825E-02    0.611E-02
DAV:   5    -0.611483374176E+02    0.43430E-04   -0.15986E-04   924   0.365E-02
   7 F= -.61148337E+02 E0= -.61148337E+02  d E =-.898678E-01
 ZBRENT: can't locate minimum, use default step
 trial-energy change:   -0.089868  1 .order   -0.089901   -0.092177   -0.087626
 step:   0.7749(harm=  3.9231)  dis= 0.02781  next Energy=   -61.991823 (dE=-0.933E+00)
 bond charge predicted
       N       E                     dE             d eps       ncg     rms          rms(c)
DAV:   1    -0.614988217840E+02   -0.35044E+00   -0.66848E+00  1008   0.740E+00    0.165E+00
DAV:   2    -0.614330794068E+02    0.65742E-01   -0.40287E-01  1260   0.188E+00    0.750E-01
DAV:   3    -0.614086514251E+02    0.24428E-01   -0.54582E-02  1274   0.608E-01    0.344E-01
DAV:   4    -0.614054018683E+02    0.32496E-02   -0.69805E-03  1372   0.240E-01    0.196E-01
DAV:   5    -0.614049918602E+02    0.41001E-03   -0.15741E-03  1344   0.111E-01    0.775E-02
DAV:   6    -0.614049960710E+02   -0.42107E-05   -0.10390E-04   896   0.320E-02
   8 F= -.61404996E+02 E0= -.61404996E+02  d E =-.346526E+00
 curvature:  -3.05 expect dE=-0.130E+01 dE for cont linesearch -0.221E+00
 ZBRENT: increasing intervall
 opt :   1.9372  next Energy=   -61.883516 (dE=-0.825E+00)
 bond charge predicted
       N       E                     dE             d eps       ncg     rms          rms(c)
DAV:   1    -0.622160908068E+02   -0.81110E+00   -0.27005E+01  1008   0.150E+01    0.339E+00
DAV:   2    -0.619493156981E+02    0.26678E+00   -0.16655E+00  1260   0.382E+00    0.149E+00
DAV:   3    -0.618515684632E+02    0.97747E-01   -0.23244E-01  1274   0.127E+00    0.688E-01
DAV:   4    -0.618405707104E+02    0.10998E-01   -0.25267E-02  1358   0.465E-01    0.421E-01
DAV:   5    -0.618387247185E+02    0.18460E-02   -0.61319E-03  1330   0.219E-01    0.143E-01
DAV:   6    -0.618387541958E+02   -0.29477E-04   -0.40567E-04  1190   0.618E-02
   9 F= -.61838754E+02 E0= -.61838754E+02  d E =-.780285E+00
 curvature:  -6.59 expect dE=-0.236E+01 dE for cont linesearch -0.314E+00
 ZBRENT: increasing intervall
 opt :   4.2619  next Energy=   -62.461056 (dE=-0.140E+01)
 bond charge predicted
       N       E                     dE             d eps       ncg     rms          rms(c)
DAV:   1    -0.637685275144E+02   -0.19298E+01   -0.10984E+02  1008   0.307E+01    0.762E+00
DAV:   2    -0.627179420775E+02    0.10506E+01   -0.72076E+00  1232   0.794E+00    0.299E+00
DAV:   3    -0.623382270675E+02    0.37972E+00   -0.95175E-01  1260   0.264E+00    0.154E+00
DAV:   4    -0.622995979742E+02    0.38629E-01   -0.96914E-02  1386   0.929E-01    0.988E-01
DAV:   5    -0.622899092591E+02    0.96887E-02   -0.24456E-02  1274   0.444E-01    0.253E-01
DAV:   6    -0.622900347631E+02   -0.12550E-03   -0.13330E-03  1148   0.115E-01    0.122E-01
DAV:   7    -0.622900318674E+02    0.28957E-05   -0.16031E-04   938   0.404E-02
  10 F= -.62290032E+02 E0= -.62290032E+02  d E =-.123156E+01
 curvature: -13.07 expect dE=-0.441E+01 dE for cont linesearch -0.603E-01
 ZBRENT: extrapolating
 opt :   5.3129  next Energy=   -62.347271 (dE=-0.129E+01)
 bond charge predicted
       N       E                     dE             d eps       ncg     rms          rms(c)
DAV:   1    -0.625850471029E+02   -0.29501E+00   -0.21983E+01  1064   0.138E+01    0.318E+00
DAV:   2    -0.623957865307E+02    0.18926E+00   -0.14029E+00  1218   0.357E+00    0.144E+00
DAV:   3    -0.623162229389E+02    0.79564E-01   -0.17816E-01  1218   0.114E+00    0.593E-01
DAV:   4    -0.623068120987E+02    0.94108E-02   -0.20159E-02  1372   0.423E-01    0.355E-01
DAV:   5    -0.623053077285E+02    0.15044E-02   -0.43282E-03  1260   0.189E-01    0.127E-01
DAV:   6    -0.623053284796E+02   -0.20751E-04   -0.28129E-04  1148   0.530E-02
  11 F= -.62305328E+02 E0= -.62305328E+02  d E =-.124686E+01
 curvature: -12.40 expect dE=-0.500E+01 dE for cont linesearch -0.322E-02
 trial: gam= 0.03983 g(F)=  0.111E+00 g(S)=  0.292E+00 ort =-0.258E-01 (trialstep = 0.122E+01)
 search vector abs. value=  0.405E+00
 bond charge predicted
       N       E                     dE             d eps       ncg     rms          rms(c)
DAV:   1    -0.628213081591E+02   -0.51600E+00   -0.39810E+00  1148   0.585E+00    0.200E+00
DAV:   2    -0.627386404902E+02    0.82668E-01   -0.27445E-01  1204   0.159E+00    0.855E-01
DAV:   3    -0.627155930082E+02    0.23047E-01   -0.71339E-02  1176   0.686E-01    0.248E-01
DAV:   4    -0.627134586877E+02    0.21343E-02   -0.22383E-03  1302   0.168E-01    0.169E-01
DAV:   5    -0.627128398758E+02    0.61881E-03   -0.16528E-03  1232   0.113E-01    0.788E-02
DAV:   6    -0.627128472306E+02   -0.73548E-05   -0.13012E-04   938   0.350E-02
  12 F= -.62712847E+02 E0= -.62712847E+02  d E =-.407519E+00
 trial-energy change:   -0.407519  1 .order   -0.405734   -0.489802   -0.321666
 step:   3.2118(harm=  3.5469)  dis= 0.03179  next Energy=   -62.984116 (dE=-0.679E+00)
 bond charge predicted
       N       E                     dE             d eps       ncg     rms          rms(c)
DAV:   1    -0.633072921007E+02   -0.59445E+00   -0.10547E+01  1120   0.940E+00    0.310E+00
DAV:   2    -0.630866206458E+02    0.22067E+00   -0.72967E-01  1190   0.257E+00    0.135E+00
DAV:   3    -0.630264880663E+02    0.60133E-01   -0.18286E-01  1148   0.110E+00    0.408E-01
DAV:   4    -0.630203545616E+02    0.61335E-02   -0.62762E-03  1302   0.275E-01    0.264E-01
DAV:   5    -0.630188480133E+02    0.15065E-02   -0.42655E-03  1218   0.178E-01    0.130E-01
DAV:   6    -0.630188678829E+02   -0.19870E-04   -0.31534E-04  1162   0.529E-02
  13 F= -.63018868E+02 E0= -.63018868E+02  d E =-.713539E+00
 curvature:  -1.75 expect dE=-0.443E-01 dE for cont linesearch -0.178E-01
 ZBRENT: extrapolating
 opt :   3.8532  next Energy=   -63.039490 (dE=-0.734E+00)
 bond charge predicted
       N       E                     dE             d eps       ncg     rms          rms(c)
DAV:   1    -0.630677268334E+02   -0.48879E-01   -0.10966E+00  1120   0.303E+00    0.995E-01
DAV:   2    -0.630447236093E+02    0.23003E-01   -0.73388E-02  1190   0.816E-01    0.417E-01
DAV:   3    -0.630386410660E+02    0.60825E-02   -0.18651E-02  1120   0.348E-01    0.134E-01
DAV:   4    -0.630379990213E+02    0.64204E-03   -0.62915E-04  1302   0.867E-02    0.886E-02
DAV:   5    -0.630378157249E+02    0.18330E-03   -0.48365E-04  1204   0.596E-02    0.442E-02
DAV:   6    -0.630378174803E+02   -0.17555E-05   -0.30860E-05   602   0.171E-02
  14 F= -.63037817E+02 E0= -.63037817E+02  d E =-.732489E+00
 curvature:  -2.02 expect dE=-0.434E-01 dE for cont linesearch -0.161E-03
 ZBRENT: extrapolating
 opt :   3.9168  next Energy=   -63.037994 (dE=-0.733E+00)
 bond charge predicted
       N       E                     dE             d eps       ncg     rms          rms(c)
DAV:   1    -0.630381448558E+02   -0.32913E-03   -0.10634E-02  1134   0.299E-01    0.979E-02
DAV:   2    -0.630379164333E+02    0.22842E-03   -0.70844E-04  1190   0.802E-02    0.407E-02
DAV:   3    -0.630378533485E+02    0.63085E-04   -0.16886E-04   658   0.343E-02
  15 F= -.63037853E+02 E0= -.63037853E+02  d E =-.732525E+00
 curvature:  -2.22 expect dE=-0.465E-01 dE for cont linesearch -0.661E-04
 trial: gam= 0.07036 g(F)=  0.131E-01 g(S)=  0.793E-02 ort =-0.348E-02 (trialstep = 0.176E+01)
 search vector abs. value=  0.225E-01
 bond charge predicted
       N       E                     dE             d eps       ncg     rms          rms(c)
DAV:   1    -0.630746321524E+02   -0.36716E-01   -0.49788E-01  1008   0.207E+00    0.349E-01
DAV:   2    -0.630748338620E+02   -0.20171E-03   -0.29727E-02  1274   0.517E-01    0.166E-01
DAV:   3    -0.630740365423E+02    0.79732E-03   -0.12058E-03  1274   0.106E-01    0.918E-02
DAV:   4    -0.630737596318E+02    0.27691E-03   -0.46014E-04  1274   0.646E-02    0.299E-02
DAV:   5    -0.630737453918E+02    0.14240E-04   -0.69842E-05   686   0.262E-02
  16 F= -.63073745E+02 E0= -.63073745E+02  d E =-.358920E-01
 ZBRENT: can't locate minimum, use default step
 trial-energy change:   -0.035892  1 .order   -0.035302   -0.036465   -0.034139
 step:   7.0296(harm= 27.5597)  dis= 0.02298  next Energy=   -63.323776 (dE=-0.286E+00)
 bond charge predicted
       N       E                     dE             d eps       ncg     rms          rms(c)
DAV:   1    -0.631673764993E+02   -0.93617E-01   -0.44933E+00  1008   0.624E+00    0.107E+00
DAV:   2    -0.631690258079E+02   -0.16493E-02   -0.26947E-01  1274   0.156E+00    0.481E-01
DAV:   3    -0.631617821977E+02    0.72436E-02   -0.11160E-02  1274   0.323E-01    0.268E-01
DAV:   4    -0.631593761048E+02    0.24061E-02   -0.39459E-03  1274   0.190E-01    0.950E-02
DAV:   5    -0.631592378273E+02    0.13828E-03   -0.69219E-04  1274   0.777E-02    0.406E-02
DAV:   6    -0.631592414928E+02   -0.36656E-05   -0.31318E-05   756   0.184E-02
  17 F= -.63159241E+02 E0= -.63159241E+02  d E =-.121388E+00
 curvature:  -5.49 expect dE=-0.714E-01 dE for cont linesearch -0.464E-01
 ZBRENT: increasing intervall
 opt :  17.5739  next Energy=   -63.245550 (dE=-0.208E+00)
 bond charge predicted
       N       E                     dE             d eps       ncg     rms          rms(c)
DAV:   1    -0.632675192129E+02   -0.10828E+00   -0.18043E+01  1036   0.126E+01    0.224E+00
DAV:   2    -0.632748605587E+02   -0.73413E-02   -0.11013E+00  1274   0.314E+00    0.953E-01
DAV:   3    -0.632462598814E+02    0.28601E-01   -0.44982E-02  1288   0.652E-01    0.539E-01
DAV:   4    -0.632368808002E+02    0.93791E-02   -0.15162E-02  1274   0.377E-01    0.197E-01
DAV:   5    -0.632363005840E+02    0.58022E-03   -0.26986E-03  1288   0.154E-01    0.808E-02
DAV:   6    -0.632363138981E+02   -0.13314E-04   -0.12317E-04   854   0.370E-02
  18 F= -.63236314E+02 E0= -.63236314E+02  d E =-.198461E+00
 curvature: -10.19 expect dE=-0.178E+00 dE for cont linesearch -0.901E-04
 trial: gam= 0.87287 g(F)=  0.875E-02 g(S)=  0.868E-02 ort = 0.446E-03 (trialstep = 0.313E+01)
 search vector abs. value=  0.354E-01
 bond charge predicted
       N       E                     dE             d eps       ncg     rms          rms(c)
DAV:   1    -0.632706136084E+02   -0.34313E-01   -0.25054E+00  1036   0.470E+00    0.674E-01
DAV:   2    -0.632833575356E+02   -0.12744E-01   -0.15607E-01  1260   0.117E+00    0.207E-01
DAV:   3    -0.632823492851E+02    0.10083E-02   -0.24411E-03  1316   0.177E-01    0.139E-01
DAV:   4    -0.632818900317E+02    0.45925E-03   -0.95305E-04  1246   0.978E-02    0.474E-02
DAV:   5    -0.632818776023E+02    0.12429E-04   -0.19316E-04   854   0.428E-02
  19 F= -.63281878E+02 E0= -.63281878E+02  d E =-.455637E-01
 trial-energy change:   -0.045564  1 .order   -0.043935   -0.055823   -0.032047
 step:   5.5717(harm=  7.3550)  dis= 0.02973  next Energy=   -63.295122 (dE=-0.588E-01)
 bond charge predicted
       N       E                     dE             d eps       ncg     rms          rms(c)
DAV:   1    -0.632948518339E+02   -0.12962E-01   -0.15161E+00  1008   0.366E+00    0.531E-01
DAV:   2    -0.633025318622E+02   -0.76800E-02   -0.93890E-02  1274   0.909E-01    0.155E-01
DAV:   3    -0.633019414292E+02    0.59043E-03   -0.14454E-03  1344   0.137E-01    0.103E-01
DAV:   4    -0.633016823187E+02    0.25911E-03   -0.55629E-04  1260   0.747E-02    0.351E-02
DAV:   5    -0.633016767195E+02    0.55993E-05   -0.10514E-04   714   0.320E-02
  20 F= -.63301677E+02 E0= -.63301677E+02  d E =-.653628E-01
 curvature:  -6.00 expect dE=-0.231E-01 dE for cont linesearch -0.614E-02
 ZBRENT: increasing intervall
 opt :  10.4498  next Energy=   -63.310475 (dE=-0.742E-01)
 bond charge predicted
       N       E                     dE             d eps       ncg     rms          rms(c)
DAV:   1    -0.632822297852E+02    0.19453E-01   -0.60525E+00  1008   0.730E+00    0.104E+00
DAV:   2    -0.633128890233E+02   -0.30659E-01   -0.37421E-01  1274   0.181E+00    0.314E-01
DAV:   3    -0.633105709348E+02    0.23181E-02   -0.56339E-03  1358   0.270E-01    0.213E-01
DAV:   4    -0.633095212756E+02    0.10497E-02   -0.22553E-03  1246   0.150E-01    0.710E-02
DAV:   5    -0.633095078992E+02    0.13376E-04   -0.47101E-04  1204   0.646E-02
  21 F= -.63309508E+02 E0= -.63309508E+02  d E =-.731940E-01
 curvature:  -8.59 expect dE=-0.465E-01 dE for cont linesearch -0.296E-02
 ZBRENT: bracketing found
 ZBRENT: interpolating
 opt :   8.6593  next Energy=   -63.312631 (dE=-0.763E-01)
 bond charge predicted
       N       E                     dE             d eps       ncg     rms          rms(c)
DAV:   1    -0.633088055886E+02    0.71569E-03   -0.81205E-01  1008   0.267E+00    0.363E-01
DAV:   2    -0.633128721622E+02   -0.40666E-02   -0.49385E-02  1288   0.662E-01    0.127E-01
DAV:   3    -0.633125535490E+02    0.31861E-03   -0.74169E-04  1316   0.978E-02    0.859E-02
DAV:   4    -0.633123925676E+02    0.16098E-03   -0.31226E-04  1190   0.563E-02    0.266E-02
DAV:   5    -0.633123880065E+02    0.45611E-05   -0.68307E-05   602   0.259E-02
  22 F= -.63312388E+02 E0= -.63312388E+02  d E =-.760741E-01
 curvature:  -9.07 expect dE=-0.356E-01 dE for cont linesearch -0.125E-04
 trial: gam= 0.15652 g(F)=  0.233E-02 g(S)=  0.160E-02 ort = 0.221E-03 (trialstep = 0.424E+01)
 search vector abs. value=  0.486E-02
 bond charge predicted
       N       E                     dE             d eps       ncg     rms          rms(c)
DAV:   1    -0.633275673817E+02   -0.15175E-01   -0.54143E-01  1022   0.216E+00    0.348E-01
DAV:   2    -0.633284416308E+02   -0.87425E-03   -0.30728E-02  1260   0.538E-01    0.153E-01
DAV:   3    -0.633278054799E+02    0.63615E-03   -0.14125E-03  1358   0.119E-01    0.869E-02
DAV:   4    -0.633275752131E+02    0.23027E-03   -0.33901E-04  1260   0.584E-02    0.313E-02
DAV:   5    -0.633275560543E+02    0.19159E-04   -0.75297E-05   644   0.279E-02
  23 F= -.63327556E+02 E0= -.63327556E+02  d E =-.151680E-01
 ZBRENT: can't locate minimum, use default step
 trial-energy change:   -0.015168  1 .order   -0.014779   -0.016779   -0.012779
 step:  16.9519(harm= 17.7790)  dis= 0.03467  next Energy=   -63.347583 (dE=-0.352E-01)
 bond charge predicted
       N       E                     dE             d eps       ncg     rms          rms(c)
DAV:   1    -0.633429117578E+02   -0.15337E-01   -0.48923E+00  1022   0.649E+00    0.107E+00
DAV:   2    -0.633514424686E+02   -0.85307E-02   -0.27983E-01  1260   0.162E+00    0.464E-01
DAV:   3    -0.633457346604E+02    0.57078E-02   -0.12246E-02  1386   0.352E-01    0.263E-01
DAV:   4    -0.633436143358E+02    0.21203E-02   -0.32017E-03  1260   0.179E-01    0.893E-02
DAV:   5    -0.633434793229E+02    0.13501E-03   -0.75687E-04  1274   0.831E-02    0.343E-02
DAV:   6    -0.633434834998E+02   -0.41769E-05   -0.61212E-05   784   0.246E-02
  24 F= -.63343483E+02 E0= -.63343483E+02  d E =-.310955E-01
 curvature: -10.87 expect dE=-0.290E-01 dE for cont linesearch -0.386E-08
 trial: gam= 0.69672 g(F)=  0.143E-02 g(S)=  0.124E-02 ort = 0.131E-05 (trialstep = 0.655E+01)
 search vector abs. value=  0.503E-02
 bond charge predicted
       N       E                     dE             d eps       ncg     rms          rms(c)
DAV:   1    -0.633543117657E+02   -0.10832E-01   -0.14431E+00  1022   0.353E+00    0.568E-01
DAV:   2    -0.633576084139E+02   -0.32966E-02   -0.85789E-02  1260   0.875E-01    0.237E-01
DAV:   3    -0.633558480230E+02    0.17604E-02   -0.23583E-03  1330   0.158E-01    0.131E-01
DAV:   4    -0.633552188136E+02    0.62921E-03   -0.11862E-03  1274   0.106E-01    0.368E-02
DAV:   5    -0.633552186706E+02    0.14309E-06   -0.14513E-04   630   0.378E-02
  25 F= -.63355219E+02 E0= -.63355219E+02  d E =-.117352E-01
 trial-energy change:   -0.011735  1 .order   -0.013194   -0.017486   -0.008902
 step:  13.3518(harm= 13.3518)  dis= 0.02836  next Energy=   -63.361294 (dE=-0.178E-01)
 bond charge predicted
       N       E                     dE             d eps       ncg     rms          rms(c)
DAV:   1    -0.633568453163E+02   -0.16265E-02   -0.15497E+00  1064   0.367E+00    0.596E-01
DAV:   2    -0.633604918247E+02   -0.36465E-02   -0.92683E-02  1232   0.909E-01    0.245E-01
DAV:   3    -0.633586163928E+02    0.18754E-02   -0.25656E-03  1344   0.165E-01    0.135E-01
DAV:   4    -0.633579541408E+02    0.66225E-03   -0.12496E-03  1246   0.109E-01    0.383E-02
DAV:   5    -0.633579547058E+02   -0.56496E-06   -0.15393E-04   686   0.389E-02
  26 F= -.63357955E+02 E0= -.63357955E+02  d E =-.144712E-01
 curvature: -12.58 expect dE=-0.306E-01 dE for cont linesearch -0.481E-04
 trial: gam= 0.90632 g(F)=  0.127E-02 g(S)=  0.116E-02 ort =-0.139E-03 (trialstep = 0.630E+01)
 search vector abs. value=  0.631E-02
 bond charge predicted
       N       E                     dE             d eps       ncg     rms          rms(c)
DAV:   1    -0.633588595595E+02   -0.90542E-03   -0.17471E+00  1050   0.388E+00    0.513E-01
DAV:   2    -0.633674966885E+02   -0.86371E-02   -0.10364E-01  1260   0.942E-01    0.191E-01
DAV:   3    -0.633669924285E+02    0.50426E-03   -0.13914E-03  1246   0.132E-01    0.129E-01
DAV:   4    -0.633667271301E+02    0.26530E-03   -0.57295E-04  1246   0.750E-02    0.417E-02
DAV:   5    -0.633667242857E+02    0.28443E-05   -0.11517E-04   756   0.336E-02
  27 F= -.63366724E+02 E0= -.63366724E+02  d E =-.876958E-02
 trial-energy change:   -0.008770  1 .order   -0.010294   -0.014547   -0.006040
 step:  10.7794(harm= 10.7794)  dis= 0.02686  next Energy=   -63.370392 (dE=-0.124E-01)
 bond charge predicted
       N       E                     dE             d eps       ncg     rms          rms(c)
DAV:   1    -0.633644086170E+02    0.23185E-02   -0.87985E-01  1050   0.275E+00    0.368E-01
DAV:   2    -0.633687244937E+02   -0.43159E-02   -0.52003E-02  1260   0.667E-01    0.128E-01
DAV:   3    -0.633684738618E+02    0.25063E-03   -0.70332E-04  1274   0.942E-02    0.862E-02
DAV:   4    -0.633683476524E+02    0.12621E-03   -0.26579E-04  1106   0.519E-02    0.289E-02
DAV:   5    -0.633683468797E+02    0.77267E-06   -0.66803E-05   700   0.259E-02
  28 F= -.63368347E+02 E0= -.63368347E+02  d E =-.103922E-01
 curvature: -14.74 expect dE=-0.274E-01 dE for cont linesearch -0.339E-03
 ZBRENT: interpolating
 opt :   9.5059  next Energy=   -63.368590 (dE=-0.106E-01)
 bond charge predicted
       N       E                     dE             d eps       ncg     rms          rms(c)
DAV:   1    -0.633681552395E+02    0.19241E-03   -0.71162E-02  1050   0.782E-01    0.966E-02
DAV:   2    -0.633684950214E+02   -0.33978E-03   -0.41450E-03  1232   0.189E-01    0.392E-02
DAV:   3    -0.633684733148E+02    0.21707E-04   -0.51524E-05   770   0.268E-02
  29 F= -.63368473E+02 E0= -.63368473E+02  d E =-.105186E-01
 curvature: -10.55 expect dE=-0.164E-01 dE for cont linesearch -0.307E-04
 trial: gam= 0.12428 g(F)=  0.578E-03 g(S)=  0.982E-03 ort = 0.135E-03 (trialstep = 0.694E+01)
 search vector abs. value=  0.169E-02
 bond charge predicted
       N       E                     dE             d eps       ncg     rms          rms(c)
DAV:   1    -0.633794468682E+02   -0.10952E-01   -0.52818E-01  1008   0.210E+00    0.403E-01
DAV:   2    -0.633772751162E+02    0.21718E-02   -0.24507E-02  1260   0.491E-01    0.200E-01
DAV:   3    -0.633757343887E+02    0.15407E-02   -0.23106E-03  1316   0.147E-01    0.969E-02
DAV:   4    -0.633753775773E+02    0.35681E-03   -0.74356E-04  1260   0.837E-02    0.322E-02
DAV:   5    -0.633753723996E+02    0.51777E-05   -0.85433E-05   616   0.283E-02
  30 F= -.63375372E+02 E0= -.63375372E+02  d E =-.689908E-02
 trial-energy change:   -0.006899  1 .order   -0.007279   -0.010945   -0.003613
 step:  10.3658(harm= 10.3658)  dis= 0.01122  next Energy=   -63.376642 (dE=-0.817E-02)
 bond charge predicted
       N       E                     dE             d eps       ncg     rms          rms(c)
DAV:   1    -0.633768331382E+02   -0.14556E-02   -0.12879E-01  1050   0.104E+00    0.198E-01
DAV:   2    -0.633763073858E+02    0.52575E-03   -0.58953E-03  1246   0.241E-01    0.979E-02
DAV:   3    -0.633759345214E+02    0.37286E-03   -0.55435E-04  1302   0.722E-02    0.476E-02
DAV:   4    -0.633758469011E+02    0.87620E-04   -0.16341E-04   714   0.412E-02
  31 F= -.63375847E+02 E0= -.63375847E+02  d E =-.737359E-02
 curvature:  -5.56 expect dE=-0.659E-02 dE for cont linesearch -0.163E-03
 trial: gam= 0.87019 g(F)=  0.682E-03 g(S)=  0.503E-03 ort =-0.223E-03 (trialstep = 0.620E+01)
 search vector abs. value=  0.208E-02
 bond charge predicted
       N       E                     dE             d eps       ncg     rms          rms(c)
DAV:   1    -0.633802715989E+02   -0.43371E-02   -0.40321E-01  1008   0.187E+00    0.315E-01
DAV:   2    -0.633804720822E+02   -0.20048E-03   -0.22081E-02  1260   0.448E-01    0.150E-01
DAV:   3    -0.633799575210E+02    0.51456E-03   -0.98116E-04  1358   0.947E-02    0.847E-02
DAV:   4    -0.633797849590E+02    0.17256E-03   -0.32312E-04  1260   0.539E-02    0.305E-02
DAV:   5    -0.633797799399E+02    0.50191E-05   -0.51293E-05   658   0.229E-02
  32 F= -.63379780E+02 E0= -.63379780E+02  d E =-.393304E-02
 trial-energy change:   -0.003933  1 .order   -0.003756   -0.006155   -0.001356
 step:   7.9573(harm=  7.9573)  dis= 0.00966  next Energy=   -63.379794 (dE=-0.395E-02)
 bond charge predicted
       N       E                     dE             d eps       ncg     rms          rms(c)
DAV:   1    -0.633799531985E+02   -0.16824E-03   -0.32298E-02  1008   0.529E-01    0.892E-02
DAV:   2    -0.633799743407E+02   -0.21142E-04   -0.17784E-03  1260   0.127E-01    0.413E-02
DAV:   3    -0.633799334201E+02    0.40921E-04   -0.68257E-05   826   0.264E-02
  33 F= -.63379933E+02 E0= -.63379933E+02  d E =-.408652E-02
 curvature:  -8.34 expect dE=-0.103E-01 dE for cont linesearch -0.121E-05
 trial: gam= 0.84277 g(F)=  0.853E-03 g(S)=  0.377E-03 ort =-0.173E-04 (trialstep = 0.509E+01)
 search vector abs. value=  0.268E-02
 bond charge predicted
       N       E                     dE             d eps       ncg     rms          rms(c)
DAV:   1    -0.633839042818E+02   -0.39299E-02   -0.33940E-01  1022   0.174E+00    0.284E-01
DAV:   2    -0.633842538497E+02   -0.34957E-03   -0.19130E-02  1260   0.422E-01    0.131E-01
DAV:   3    -0.633837876356E+02    0.46621E-03   -0.71280E-04  1330   0.859E-02    0.809E-02
DAV:   4    -0.633835982945E+02    0.18934E-03   -0.34768E-04  1260   0.578E-02    0.236E-02
DAV:   5    -0.633835964034E+02    0.18911E-05   -0.51621E-05   644   0.229E-02
  34 F= -.63383596E+02 E0= -.63383596E+02  d E =-.366298E-02
 trial-energy change:   -0.003663  1 .order   -0.003338   -0.006186   -0.000490
 step:   5.5267(harm=  5.5267)  dis= 0.00763  next Energy=   -63.383292 (dE=-0.336E-02)
 bond charge predicted
       N       E                     dE             d eps       ncg     rms          rms(c)
DAV:   1    -0.633836230176E+02   -0.24723E-04   -0.25908E-03  1022   0.152E-01    0.275E-02
DAV:   2    -0.633836258873E+02   -0.28697E-05   -0.13895E-04   910   0.367E-02
  35 F= -.63383626E+02 E0= -.63383626E+02  d E =-.369247E-02
 curvature:  -6.09 expect dE=-0.395E-02 dE for cont linesearch -0.188E-04
 trial: gam= 0.34919 g(F)=  0.375E-03 g(S)=  0.273E-03 ort = 0.909E-04 (trialstep = 0.518E+01)
 search vector abs. value=  0.104E-02
 bond charge predicted
       N       E                     dE             d eps       ncg     rms          rms(c)
DAV:   1    -0.633866937028E+02   -0.30707E-02   -0.12817E-01  1064   0.108E+00    0.222E-01
DAV:   2    -0.633860594979E+02    0.63420E-03   -0.74984E-03  1246   0.265E-01    0.111E-01
DAV:   3    -0.633857114790E+02    0.34802E-03   -0.74077E-04  1162   0.753E-02    0.470E-02
DAV:   4    -0.633856333838E+02    0.78095E-04   -0.91710E-05   686   0.308E-02
  36 F= -.63385633E+02 E0= -.63385633E+02  d E =-.200750E-02
 trial-energy change:   -0.002007  1 .order   -0.001567   -0.003522    0.000388
 step:   4.8627(harm=  4.6632)  dis= 0.00532  next Energy=   -63.385645 (dE=-0.202E-02)
 bond charge predicted
       N       E                     dE             d eps       ncg     rms          rms(c)
DAV:   1    -0.633856617852E+02    0.49694E-04   -0.66180E-04  1120   0.768E-02    0.212E-02
DAV:   2    -0.633856595504E+02    0.22348E-05   -0.36431E-05   532   0.190E-02
  37 F= -.63385660E+02 E0= -.63385660E+02  d E =-.203366E-02
 curvature:  -3.02 expect dE=-0.253E-02 dE for cont linesearch -0.303E-04
 trial: gam= 1.13022 g(F)=  0.569E-03 g(S)=  0.268E-03 ort =-0.102E-03 (trialstep = 0.275E+01)
 search vector abs. value=  0.193E-02
 bond charge predicted
       N       E                     dE             d eps       ncg     rms          rms(c)
DAV:   1    -0.633869276848E+02   -0.12659E-02   -0.61643E-02  1050   0.746E-01    0.115E-01
DAV:   2    -0.633870009772E+02   -0.73292E-04   -0.35875E-03  1316   0.182E-01    0.566E-02
DAV:   3    -0.633869299891E+02    0.70988E-04   -0.15031E-04   910   0.395E-02
  38 F= -.63386930E+02 E0= -.63386930E+02  d E =-.127044E-02
 trial-energy change:   -0.001270  1 .order   -0.001235   -0.001983   -0.000486
 step:   3.6396(harm=  3.6396)  dis= 0.00366  next Energy=   -63.386973 (dE=-0.131E-02)
 bond charge predicted
       N       E                     dE             d eps       ncg     rms          rms(c)
DAV:   1    -0.633869113522E+02    0.89625E-04   -0.60274E-03  1078   0.233E-01    0.395E-02
DAV:   2    -0.633869018787E+02    0.94735E-05   -0.33852E-04  1218   0.563E-02
  39 F= -.63386902E+02 E0= -.63386902E+02  d E =-.124233E-02
 curvature:  -4.87 expect dE=-0.412E-02 dE for cont linesearch -0.917E-06
 trial: gam= 0.76741 g(F)=  0.447E-03 g(S)=  0.398E-03 ort =-0.191E-04 (trialstep = 0.289E+01)
 search vector abs. value=  0.195E-02
 bond charge predicted
       N       E                     dE             d eps       ncg     rms          rms(c)
DAV:   1    -0.633891034675E+02   -0.21921E-02   -0.77476E-02  1022   0.812E-01    0.138E-01
DAV:   2    -0.633889265244E+02    0.17694E-03   -0.37286E-03  1260   0.187E-01    0.713E-02
DAV:   3    -0.633887565450E+02    0.16998E-03   -0.20831E-04   938   0.457E-02    0.362E-02
DAV:   4    -0.633887117895E+02    0.44755E-04   -0.12280E-04   630   0.360E-02
  40 F= -.63388712E+02 E0= -.63388712E+02  d E =-.180991E-02
 trial-energy change:   -0.001810  1 .order   -0.001742   -0.002403   -0.001080
 step:   5.2596(harm=  5.2596)  dis= 0.00550  next Energy=   -63.389085 (dE=-0.218E-02)
 bond charge predicted
       N       E                     dE             d eps       ncg     rms          rms(c)
DAV:   1    -0.633891549646E+02   -0.39842E-03   -0.52159E-02  1050   0.667E-01    0.112E-01
DAV:   2    -0.633890613756E+02    0.93589E-04   -0.25095E-03  1260   0.153E-01    0.547E-02
DAV:   3    -0.633889564400E+02    0.10494E-03   -0.13051E-04   896   0.365E-02    0.281E-02
DAV:   4    -0.633889288379E+02    0.27602E-04   -0.80001E-05   546   0.289E-02
  41 F= -.63388929E+02 E0= -.63388929E+02  d E =-.202696E-02
 curvature:  -6.19 expect dE=-0.364E-02 dE for cont linesearch -0.120E-03
 ZBRENT: interpolating
 opt :   4.4497  next Energy=   -63.389008 (dE=-0.211E-02)
 bond charge predicted
       N       E                     dE             d eps       ncg     rms          rms(c)
DAV:   1    -0.633890309721E+02   -0.74532E-04   -0.60570E-03  1050   0.228E-01    0.382E-02
DAV:   2    -0.633890198567E+02    0.11115E-04   -0.29095E-04  1106   0.525E-02
  42 F= -.63389020E+02 E0= -.63389020E+02  d E =-.211798E-02
 curvature:  -4.07 expect dE=-0.210E-02 dE for cont linesearch -0.162E-05
 trial: gam= 0.49882 g(F)=  0.283E-03 g(S)=  0.234E-03 ort =-0.279E-04 (trialstep = 0.321E+01)
 search vector abs. value=  0.975E-03
 bond charge predicted
       N       E                     dE             d eps       ncg     rms          rms(c)
DAV:   1    -0.633900464025E+02   -0.10154E-02   -0.41692E-02  1064   0.611E-01    0.103E-01
DAV:   2    -0.633900546065E+02   -0.82040E-05   -0.24130E-03  1274   0.153E-01    0.449E-02
DAV:   3    -0.633899964771E+02    0.58129E-04   -0.16339E-04   924   0.407E-02
  43 F= -.63389996E+02 E0= -.63389996E+02  d E =-.976620E-03
 trial-energy change:   -0.000977  1 .order   -0.000879   -0.001611   -0.000147
 step:   3.5269(harm=  3.5269)  dis= 0.00269  next Energy=   -63.389906 (dE=-0.886E-03)
 bond charge predicted
       N       E                     dE             d eps       ncg     rms          rms(c)
DAV:   1    -0.633899840330E+02    0.70574E-04   -0.35649E-04  1050   0.574E-02    0.150E-02
DAV:   2    -0.633899796169E+02    0.44161E-05   -0.19266E-05   546   0.147E-02
  44 F= -.63389980E+02 E0= -.63389980E+02  d E =-.959760E-03
 curvature:  -3.42 expect dE=-0.106E-02 dE for cont linesearch -0.390E-05
 trial: gam= 0.54583 g(F)=  0.226E-03 g(S)=  0.846E-04 ort =-0.333E-04 (trialstep = 0.327E+01)
 search vector abs. value=  0.565E-03
 bond charge predicted
       N       E                     dE             d eps       ncg     rms          rms(c)
DAV:   1    -0.633905861858E+02   -0.60215E-03   -0.25369E-02  1036   0.467E-01    0.909E-02
DAV:   2    -0.633904585541E+02    0.12763E-03   -0.12495E-03  1260   0.112E-01    0.453E-02
DAV:   3    -0.633903870412E+02    0.71513E-04   -0.14568E-04   686   0.364E-02
  45 F= -.63390387E+02 E0= -.63390387E+02  d E =-.407424E-03
 trial-energy change:   -0.000407  1 .order   -0.000639   -0.000956   -0.000321
 step:   4.9200(harm=  4.9200)  dis= 0.00324  next Energy=   -63.390699 (dE=-0.720E-03)
 bond charge predicted
       N       E                     dE             d eps       ncg     rms          rms(c)
DAV:   1    -0.633905103742E+02   -0.51820E-04   -0.61056E-03  1064   0.229E-01    0.472E-02
DAV:   2    -0.633904696930E+02    0.40681E-04   -0.29550E-04  1218   0.544E-02
  46 F= -.63390470E+02 E0= -.63390470E+02  d E =-.490076E-03
 curvature:  -4.75 expect dE=-0.999E-03 dE for cont linesearch -0.244E-04
 ZBRENT: increasing intervall
 opt :   8.2201  next Energy=   -63.390502 (dE=-0.522E-03)
 bond charge predicted
       N       E                     dE             d eps       ncg     rms          rms(c)
DAV:   1    -0.633903777902E+02    0.13258E-03   -0.25177E-02  1064   0.466E-01    0.962E-02
DAV:   2    -0.633902075625E+02    0.17023E-03   -0.12637E-03  1260   0.112E-01    0.493E-02
DAV:   3    -0.633901190192E+02    0.88543E-04   -0.16889E-04   812   0.392E-02
  47 F= -.63390119E+02 E0= -.63390119E+02  d E =-.139402E-03
 curvature:  -6.20 expect dE=-0.369E-02 dE for cont linesearch -0.363E-03
 ZBRENT: bracketing found
 ZBRENT: interpolating
 opt :   5.6743  next Energy=   -63.390490 (dE=-0.510E-03)
 bond charge predicted
       N       E                     dE             d eps       ncg     rms          rms(c)
DAV:   1    -0.633905533542E+02   -0.34579E-03   -0.16494E-02  1064   0.377E-01    0.722E-02
DAV:   2    -0.633904912782E+02    0.62076E-04   -0.82302E-04  1260   0.907E-02
  48 F= -.63390491E+02 E0= -.63390491E+02  d E =-.511661E-03
 curvature:  -0.35 expect dE=-0.200E-03 dE for cont linesearch -0.662E-05
 ZBRENT: interpolating
 opt :   5.1778  next Energy=   -63.390477 (dE=-0.497E-03)
 bond charge predicted
       N       E                     dE             d eps       ncg     rms          rms(c)
DAV:   1    -0.633904758789E+02    0.77475E-04   -0.47336E-04  1078   0.646E-02    0.250E-02
DAV:   2    -0.633904554231E+02    0.20456E-04   -0.35690E-05   546   0.188E-02
  49 F= -.63390455E+02 E0= -.63390455E+02  d E =-.475806E-03
 curvature:  -0.36 expect dE=-0.119E-03 dE for cont linesearch -0.878E-06
 trial: gam= 0.94034 g(F)=  0.182E-03 g(S)=  0.145E-03 ort =-0.369E-04 (trialstep = 0.272E+01)
 search vector abs. value=  0.758E-03
 bond charge predicted
       N       E                     dE             d eps       ncg     rms          rms(c)
DAV:   1    -0.633908336681E+02   -0.35779E-03   -0.19996E-02  1036   0.421E-01    0.633E-02
DAV:   2    -0.633908939251E+02   -0.60257E-04   -0.11482E-03  1260   0.102E-01    0.256E-02
DAV:   3    -0.633908791233E+02    0.14802E-04   -0.30910E-05   602   0.188E-02
  50 F= -.63390879E+02 E0= -.63390879E+02  d E =-.423700E-03
 trial-energy change:   -0.000424  1 .order   -0.000465   -0.000797   -0.000134
 step:   3.2704(harm=  3.2704)  dis= 0.00276  next Energy=   -63.390934 (dE=-0.479E-03)
 bond charge predicted
       N       E                     dE             d eps       ncg     rms          rms(c)
DAV:   1    -0.633908709796E+02    0.22945E-04   -0.72514E-04  1050   0.798E-02    0.135E-02
DAV:   2    -0.633908708726E+02    0.10698E-06   -0.35515E-05   546   0.191E-02
  51 F= -.63390871E+02 E0= -.63390871E+02  d E =-.415449E-03
 curvature:  -4.23 expect dE=-0.226E-02 dE for cont linesearch -0.948E-05
 trial: gam= 1.50023 g(F)=  0.470E-03 g(S)=  0.640E-04 ort =-0.412E-04 (trialstep = 0.101E+01)
 search vector abs. value=  0.212E-02
 bond charge predicted
       N       E                     dE             d eps       ncg     rms          rms(c)
DAV:   1    -0.633911890185E+02   -0.31804E-03   -0.80072E-03  1064   0.263E-01    0.459E-02
DAV:   2    -0.633911891506E+02   -0.13211E-06   -0.45070E-04  1246   0.635E-02
  52 F= -.63391189E+02 E0= -.63391189E+02  d E =-.318278E-03
 trial-energy change:   -0.000318  1 .order   -0.000347   -0.000479   -0.000216
 step:   1.8505(harm=  1.8505)  dis= 0.00273  next Energy=   -63.391307 (dE=-0.437E-03)
 bond charge predicted
       N       E                     dE             d eps       ncg     rms          rms(c)
DAV:   1    -0.633913137930E+02   -0.12477E-03   -0.52706E-03  1036   0.214E-01    0.411E-02
DAV:   2    -0.633912967211E+02    0.17072E-04   -0.28831E-04  1120   0.518E-02
  53 F= -.63391297E+02 E0= -.63391297E+02  d E =-.425848E-03
 curvature:  -4.15 expect dE=-0.133E-02 dE for cont linesearch -0.168E-04
 ZBRENT: increasing intervall
 opt :   3.5229  next Energy=   -63.391249 (dE=-0.378E-03)
 bond charge predicted
       N       E                     dE             d eps       ncg     rms          rms(c)
DAV:   1    -0.633912546490E+02    0.59144E-04   -0.21420E-02  1036   0.430E-01    0.762E-02
DAV:   2    -0.633912346007E+02    0.20048E-04   -0.11854E-03  1260   0.103E-01    0.391E-02
DAV:   3    -0.633911965328E+02    0.38068E-04   -0.56183E-05   672   0.232E-02
  54 F= -.63391197E+02 E0= -.63391197E+02  d E =-.325660E-03
 curvature:  11.73 expect dE= 0.529E-02 dE for cont linesearch  0.147E-04
 trial: gam= 0.36894 g(F)=  0.302E-03 g(S)=  0.149E-03 ort =-0.516E-04 (trialstep = 0.152E+01)
 search vector abs. value=  0.700E-03
 bond charge predicted
       N       E                     dE             d eps       ncg     rms          rms(c)
DAV:   1    -0.633915021824E+02   -0.26758E-03   -0.45836E-03  1036   0.207E-01    0.297E-02
DAV:   2    -0.633915037584E+02   -0.15760E-05   -0.22826E-04  1092   0.490E-02
  55 F= -.63391504E+02 E0= -.63391504E+02  d E =-.307226E-03
 trial-energy change:   -0.000307  1 .order   -0.000422   -0.000654   -0.000189
 step:   2.1328(harm=  2.1328)  dis= 0.00154  next Energy=   -63.391657 (dE=-0.460E-03)
 bond charge predicted
       N       E                     dE             d eps       ncg     rms          rms(c)
DAV:   1    -0.633915149436E+02   -0.12761E-04   -0.74003E-04  1064   0.832E-02    0.167E-02
DAV:   2    -0.633915109464E+02    0.39972E-05   -0.38737E-05   546   0.208E-02
  56 F= -.63391511E+02 E0= -.63391511E+02  d E =-.314414E-03
 curvature:  -1.73 expect dE=-0.862E-03 dE for cont linesearch -0.545E-05
 trial: gam= 0.99762 g(F)=  0.294E-03 g(S)=  0.204E-03 ort =-0.470E-04 (trialstep = 0.104E+01)
 search vector abs. value=  0.110E-02
 bond charge predicted
       N       E                     dE             d eps       ncg     rms          rms(c)
DAV:   1    -0.633919560184E+02   -0.44107E-03   -0.48789E-03  1120   0.205E-01    0.459E-02
DAV:   2    -0.633919157015E+02    0.40317E-04   -0.22903E-04   966   0.479E-02
  57 F= -.63391916E+02 E0= -.63391916E+02  d E =-.404755E-03
 ZBRENT: can't locate minimum, use default step
 trial-energy change:   -0.000405  1 .order   -0.000429   -0.000470   -0.000387
 step:   4.1709(harm=  5.8850)  dis= 0.00371  next Energy=   -63.392838 (dE=-0.133E-02)
 bond charge predicted
       N       E                     dE             d eps       ncg     rms          rms(c)
DAV:   1    -0.633922452591E+02   -0.28924E-03   -0.43503E-02  1092   0.613E-01    0.136E-01
DAV:   2    -0.633918790073E+02    0.36625E-03   -0.21267E-03  1246   0.144E-01    0.682E-02
DAV:   3    -0.633917302080E+02    0.14880E-03   -0.34427E-04  1148   0.511E-02    0.291E-02
DAV:   4    -0.633917103627E+02    0.19845E-04   -0.34064E-05   560   0.195E-02
  58 F= -.63391710E+02 E0= -.63391710E+02  d E =-.199416E-03
 curvature:  -6.28 expect dE=-0.485E-02 dE for cont linesearch -0.554E-03
 ZBRENT: interpolating
 opt :   2.7428  next Energy=   -63.391933 (dE=-0.422E-03)
 bond charge predicted
       N       E                     dE             d eps       ncg     rms          rms(c)
DAV:   1    -0.633921098156E+02   -0.37961E-03   -0.97329E-03  1092   0.290E-01    0.639E-02
DAV:   2    -0.633920400131E+02    0.69802E-04   -0.46630E-04  1232   0.673E-02
  59 F= -.63392040E+02 E0= -.63392040E+02  d E =-.529067E-03
 curvature:  -2.52 expect dE=-0.164E-02 dE for cont linesearch -0.106E-03
 ZBRENT: bisectioning
 opt :   1.8928  next Energy=   -63.392198 (dE=-0.687E-03)
 bond charge predicted
       N       E                     dE             d eps       ncg     rms          rms(c)
DAV:   1    -0.633921236071E+02   -0.13792E-04   -0.29018E-03  1064   0.159E-01    0.428E-02
DAV:   2    -0.633920746417E+02    0.48965E-04   -0.14888E-04   854   0.385E-02
  60 F= -.63392075E+02 E0= -.63392075E+02  d E =-.563695E-03
 curvature:  -3.77 expect dE=-0.209E-02 dE for cont linesearch -0.126E-04
 trial: gam= 0.78766 g(F)=  0.390E-03 g(S)=  0.164E-03 ort =-0.606E-04 (trialstep = 0.117E+01)
 search vector abs. value=  0.114E-02
 bond charge predicted
       N       E                     dE             d eps       ncg     rms          rms(c)
DAV:   1    -0.633923083512E+02   -0.18474E-03   -0.56096E-03  1008   0.226E-01    0.351E-02
DAV:   2    -0.633923117992E+02   -0.34480E-05   -0.29835E-04  1106   0.540E-02
  61 F= -.63392312E+02 E0= -.63392312E+02  d E =-.237158E-03
 trial-energy change:   -0.000237  1 .order   -0.000284   -0.000592    0.000024
 step:   1.1237(harm=  1.1237)  dis= 0.00105  next Energy=   -63.392359 (dE=-0.284E-03)
 bond charge predicted
       N       E                     dE             d eps       ncg     rms          rms(c)
DAV:   1    -0.633923077009E+02    0.65039E-06   -0.35099E-05   560   0.194E-02    0.827E-03
DAV:   2    -0.633923066673E+02    0.10335E-05   -0.62963E-06   546   0.843E-03
  62 F= -.63392307E+02 E0= -.63392307E+02  d E =-.232026E-03
 curvature:  -1.27 expect dE=-0.759E-03 dE for cont linesearch -0.176E-05
 trial: gam= 1.11744 g(F)=  0.558E-03 g(S)=  0.409E-04 ort =-0.398E-04 (trialstep = 0.685E+00)
 search vector abs. value=  0.194E-02
 bond charge predicted
       N       E                     dE             d eps       ncg     rms          rms(c)
DAV:   1    -0.633925707618E+02   -0.26306E-03   -0.32717E-03  1092   0.171E-01    0.274E-02
DAV:   2    -0.633925672052E+02    0.35566E-05   -0.16092E-04   924   0.390E-02
  63 F= -.63392567E+02 E0= -.63392567E+02  d E =-.260538E-03
 trial-energy change:   -0.000261  1 .order   -0.000280   -0.000380   -0.000181
 step:   1.3076(harm=  1.3076)  dis= 0.00146  next Energy=   -63.392669 (dE=-0.363E-03)
 bond charge predicted
       N       E                     dE             d eps       ncg     rms          rms(c)
DAV:   1    -0.633926573733E+02   -0.86611E-04   -0.26777E-03  1092   0.155E-01    0.275E-02
DAV:   2    -0.633926468840E+02    0.10489E-04   -0.13186E-04   868   0.359E-02
  64 F= -.63392647E+02 E0= -.63392647E+02  d E =-.340217E-03
 curvature:  -2.28 expect dE=-0.544E-03 dE for cont linesearch -0.410E-05
 ZBRENT: extrapolating
 opt :   1.4866  next Energy=   -63.392652 (dE=-0.345E-03)
 bond charge predicted
       N       E                     dE             d eps       ncg     rms          rms(c)
DAV:   1    -0.633926339607E+02    0.23413E-04   -0.20116E-04   896   0.435E-02    0.117E-02
DAV:   2    -0.633926312617E+02    0.26990E-05   -0.16772E-05   504   0.135E-02
  65 F= -.63392631E+02 E0= -.63392631E+02  d E =-.324594E-03
 curvature:  -2.94 expect dE=-0.130E-02 dE for cont linesearch -0.134E-04
 ZBRENT: bracketing found
 ZBRENT: interpolating
 opt :   1.3767  next Energy=   -63.392649 (dE=-0.342E-03)
 bond charge predicted
       N       E                     dE             d eps       ncg     rms          rms(c)
DAV:   1    -0.633926385213E+02   -0.45606E-05   -0.95572E-05   504   0.302E-02    0.513E-03
DAV:   2    -0.633926391043E+02   -0.58299E-06   -0.98022E-06   504   0.110E-02
  66 F= -.63392639E+02 E0= -.63392639E+02  d E =-.332437E-03
 curvature:  -0.45 expect dE=-0.113E-03 dE for cont linesearch -0.369E-07
 trial: gam= 0.22317 g(F)=  0.196E-03 g(S)=  0.567E-04 ort = 0.126E-04 (trialstep = 0.823E+00)
 search vector abs. value=  0.355E-03
 bond charge predicted
       N       E                     dE             d eps       ncg     rms          rms(c)
DAV:   1    -0.633928125681E+02   -0.17405E-03   -0.92391E-04  1106   0.925E-02    0.135E-02
DAV:   2    -0.633928128508E+02   -0.28275E-06   -0.47056E-05   504   0.222E-02
  67 F= -.63392813E+02 E0= -.63392813E+02  d E =-.173747E-03
 trial-energy change:   -0.000174  1 .order   -0.000166   -0.000210   -0.000122
 step:   1.9595(harm=  1.9595)  dis= 0.00095  next Energy=   -63.392889 (dE=-0.250E-03)
 bond charge predicted
       N       E                     dE             d eps       ncg     rms          rms(c)
DAV:   1    -0.633929119046E+02   -0.99337E-04   -0.17812E-03  1148   0.128E-01    0.195E-02
DAV:   2    -0.633929103223E+02    0.15823E-05   -0.93516E-05   644   0.313E-02
  68 F= -.63392910E+02 E0= -.63392910E+02  d E =-.271218E-03
 curvature:  -1.36 expect dE=-0.260E-03 dE for cont linesearch -0.770E-06
 trial: gam= 0.76701 g(F)=  0.166E-03 g(S)=  0.248E-04 ort = 0.142E-04 (trialstep = 0.884E+00)
 search vector abs. value=  0.422E-03
 bond charge predicted
       N       E                     dE             d eps       ncg     rms          rms(c)
DAV:   1    -0.633930328987E+02   -0.12099E-03   -0.14803E-03  1078   0.115E-01    0.197E-02
DAV:   2    -0.633930292259E+02    0.36728E-05   -0.80715E-05   658   0.289E-02
  69 F= -.63393029E+02 E0= -.63393029E+02  d E =-.118904E-03
 trial-energy change:   -0.000119  1 .order   -0.000150   -0.000179   -0.000121
 step:   2.7371(harm=  2.7371)  dis= 0.00137  next Energy=   -63.393187 (dE=-0.276E-03)
 bond charge predicted
       N       E                     dE             d eps       ncg     rms          rms(c)
DAV:   1    -0.633931046672E+02   -0.71769E-04   -0.65049E-03  1092   0.241E-01    0.406E-02
DAV:   2    -0.633930996183E+02    0.50489E-05   -0.37674E-04  1232   0.600E-02
  70 F= -.63393100E+02 E0= -.63393100E+02  d E =-.189296E-03
 curvature:  -2.86 expect dE=-0.728E-03 dE for cont linesearch -0.848E-05
 trial: gam= 1.11108 g(F)=  0.242E-03 g(S)=  0.131E-04 ort = 0.354E-04 (trialstep = 0.619E+00)
 search vector abs. value=  0.854E-03
 bond charge predicted
       N       E                     dE             d eps       ncg     rms          rms(c)
DAV:   1    -0.633932342266E+02   -0.12956E-03   -0.13939E-03  1134   0.111E-01    0.248E-02
DAV:   2    -0.633932218426E+02    0.12384E-04   -0.76339E-05   588   0.281E-02
  71 F= -.63393222E+02 E0= -.63393222E+02  d E =-.122224E-03
 trial-energy change:   -0.000122  1 .order   -0.000141   -0.000182   -0.000101
 step:   1.3842(harm=  1.3842)  dis= 0.00091  next Energy=   -63.393303 (dE=-0.204E-03)
 bond charge predicted
       N       E                     dE             d eps       ncg     rms          rms(c)
DAV:   1    -0.633932427550E+02   -0.85285E-05   -0.21576E-03  1148   0.138E-01    0.255E-02
DAV:   2    -0.633932373988E+02    0.53563E-05   -0.12355E-04   784   0.349E-02
  72 F= -.63393237E+02 E0= -.63393237E+02  d E =-.137780E-03
 curvature:  -2.01 expect dE=-0.409E-03 dE for cont linesearch -0.271E-04
 ZBRENT: interpolating
 opt :   1.0799  next Energy=   -63.393254 (dE=-0.154E-03)
 bond charge predicted
       N       E                     dE             d eps       ncg     rms          rms(c)
DAV:   1    -0.633932537433E+02   -0.10988E-04   -0.42329E-04  1008   0.620E-02    0.121E-02
DAV:   2    -0.633932551808E+02   -0.14375E-05   -0.22382E-05   504   0.152E-02
  73 F= -.63393255E+02 E0= -.63393255E+02  d E =-.155562E-03
 curvature:  -1.21 expect dE=-0.291E-03 dE for cont linesearch -0.168E-05
 trial: gam= 0.80677 g(F)=  0.225E-03 g(S)=  0.158E-04 ort =-0.344E-04 (trialstep = 0.711E+00)
 search vector abs. value=  0.741E-03
 bond charge predicted
       N       E                     dE             d eps       ncg     rms          rms(c)
DAV:   1    -0.633932962981E+02   -0.42555E-04   -0.14680E-03  1022   0.115E-01    0.161E-02
DAV:   2    -0.633932987082E+02   -0.24100E-05   -0.80467E-05   504   0.279E-02
  74 F= -.63393299E+02 E0= -.63393299E+02  d E =-.435274E-04
 trial-energy change:   -0.000044  1 .order   -0.000066   -0.000151    0.000019
 step:   0.6314(harm=  0.6314)  dis= 0.00043  next Energy=   -63.393322 (dE=-0.672E-04)
 reached required accuracy - stopping structural energy minimisation
