CIS                                     
           1
     6.456999    0.790754   -0.988154
    -0.865150    6.470254   -0.535566
     0.147270    1.054517   12.410146
   Li   Sb   Se
   4   4   8
Direct configuration=     1
   0.51696127  0.73781771  0.88080757
   0.48303873  0.26218229  0.11919243
   0.98367476  0.73743148  0.61946244
   0.01632524  0.26256852  0.38053756
   0.03733388  0.79571282  0.12119584
   0.96266612  0.20428718  0.87880416
   0.46308368  0.79527065  0.37915100
   0.53691632  0.20472935  0.62084900
   0.51656990  0.18558520  0.38446004
   0.48343010  0.81441480  0.61553996
   0.98260466  0.18602253  0.11531716
   0.01739534  0.81397747  0.88468284
   0.93178840  0.23024954  0.64474581
   0.06821160  0.76975046  0.35525419
   0.56779112  0.23067466  0.85497141
   0.43220888  0.76932534  0.14502859
CIS                                     
           1
     6.432950    0.788669   -0.975978
    -0.861037    6.440595   -0.533225
     0.163585    1.052995   12.368432
   Li   Sb   Se
   4   4   8
Direct configuration=     2
   0.51697994  0.73809058  0.88070203
   0.48302006  0.26190942  0.11929797
   0.98364989  0.73770668  0.61956666
   0.01635011  0.26229332  0.38043334
   0.03703317  0.79529122  0.12119272
   0.96296683  0.20470878  0.87880728
   0.46348798  0.79475488  0.37922062
   0.53651202  0.20524512  0.62077938
   0.51651213  0.18625519  0.38418220
   0.48348787  0.81374481  0.61581780
   0.98264709  0.18670804  0.11558551
   0.01735291  0.81329196  0.88441449
   0.93227965  0.23028788  0.64450979
   0.06772035  0.76971212  0.35549021
   0.56729432  0.23070552  0.85520195
   0.43270568  0.76929448  0.14479805
CIS                                     
           1
     6.360803    0.782413   -0.939450
    -0.848697    6.351618   -0.526203
     0.212532    1.048430   12.243288
   Li   Sb   Se
   4   4   8
Direct configuration=     3
   0.51703696  0.73891295  0.88038437
   0.48296304  0.26108705  0.11961563
   0.98357416  0.73853612  0.61988038
   0.01642584  0.26146388  0.38011962
   0.03612771  0.79402061  0.12118392
   0.96387229  0.20597939  0.87881608
   0.46470491  0.79320042  0.37942931
   0.53529509  0.20679958  0.62057069
   0.51634030  0.18827440  0.38334616
   0.48365970  0.81172560  0.61665384
   0.98277271  0.18877407  0.11639305
   0.01722729  0.81122593  0.88360695
   0.93376076  0.23040335  0.64379847
   0.06623924  0.76959665  0.35620153
   0.56579653  0.23079860  0.85589679
   0.43420347  0.76920140  0.14410321
CIS                                     
           1
     6.216508    0.769901   -0.866393
    -0.824018    6.173662   -0.512158
     0.310425    1.039299   11.993000
   Li   Sb   Se
   4   4   8
Direct configuration=     4
   0.51715727  0.74058064  0.87974275
   0.48284273  0.25941936  0.12025725
   0.98341583  0.74021831  0.62051420
   0.01658417  0.25978169  0.37948580
   0.03429645  0.79144390  0.12116994
   0.96570355  0.20855610  0.87883006
   0.46716341  0.79004782  0.37984549
   0.53283659  0.20995218  0.62015451
   0.51600581  0.19236924  0.38165883
   0.48399419  0.80763076  0.61834117
   0.98301361  0.19296420  0.11802321
   0.01698639  0.80703580  0.88197679
   0.93676813  0.23063717  0.64235592
   0.06323187  0.76936283  0.35764408
   0.56275566  0.23098773  0.85730617
   0.43724434  0.76901227  0.14269383
CIS                                     
           1
     5.927917    0.744878   -0.720279
    -0.774660    5.817752   -0.484068
     0.506212    1.021038   11.492425
   Li   Sb   Se
   4   4   8
Direct configuration=     5
   0.51742445  0.74401186  0.87843337
   0.48257555  0.25598814  0.12156663
   0.98307010  0.74368007  0.62180834
   0.01692990  0.25631993  0.37819166
   0.03054943  0.78614243  0.12115730
   0.96945057  0.21385757  0.87884270
   0.47218258  0.78356025  0.38067224
   0.52781742  0.21643975  0.61932776
   0.51537628  0.20079433  0.37822113
   0.48462372  0.79920567  0.62177887
   0.98345099  0.20158686  0.12134596
   0.01654901  0.79841314  0.87865404
   0.94297180  0.23111665  0.63938756
   0.05702820  0.76888335  0.36061244
   0.55648441  0.23137852  0.86020719
   0.44351559  0.76862148  0.13979281
CIS                                     
           1
     6.011496    0.752125   -0.762595
    -0.788954    5.920827   -0.492203
     0.449510    1.026327   11.637396
   Li   Sb   Se
   4   4   8
Direct configuration=     6
   0.51732974  0.74295757  0.87882887
   0.48267026  0.25704243  0.12117113
   0.98318919  0.74261591  0.62141699
   0.01681081  0.25738409  0.37858301
   0.03168762  0.78777139  0.12115083
   0.96831238  0.21222861  0.87884917
   0.47066518  0.78555447  0.38043713
   0.52933482  0.21444553  0.61956287
   0.51553212  0.19820551  0.37925580
   0.48446788  0.80179449  0.62074420
   0.98335400  0.19893632  0.12034486
   0.01664600  0.80106368  0.87965514
   0.94105497  0.23097038  0.64030001
   0.05894503  0.76902962  0.35969999
   0.55842115  0.23125732  0.85931483
   0.44157885  0.76874268  0.14068517
CIS                                     
           1
     5.997945    0.751062   -0.753090
    -0.786672    5.903552   -0.490885
     0.464398    1.026580   11.619359
   Li   Sb   Se
   4   4   8
Direct configuration=     7
   0.51734101  0.74323567  0.87872300
   0.48265899  0.25676433  0.12127700
   0.98317123  0.74289733  0.62152413
   0.01682877  0.25710267  0.37847587
   0.03106117  0.78694266  0.12113696
   0.96893883  0.21305734  0.87886304
   0.47135625  0.78465749  0.38052688
   0.52864375  0.21534251  0.61947312
   0.51553823  0.19928647  0.37889943
   0.48446177  0.80071353  0.62110057
   0.98333089  0.20005297  0.12069286
   0.01666911  0.79994703  0.87930714
   0.94189222  0.23106872  0.63994196
   0.05810778  0.76893128  0.36005804
   0.55754084  0.23135108  0.85966309
   0.44245916  0.76864892  0.14033691
CIS                                     
           1
     5.957293    0.747874   -0.724572
    -0.779826    5.851726   -0.486931
     0.509060    1.027341   11.565248
   Li   Sb   Se
   4   4   8
Direct configuration=     8
   0.51737571  0.74407238  0.87840492
   0.48262429  0.25592762  0.12159508
   0.98311640  0.74374408  0.62184607
   0.01688360  0.25625592  0.37815393
   0.02917757  0.78444919  0.12109653
   0.97082243  0.21555081  0.87890347
   0.47343355  0.78195872  0.38079509
   0.52656645  0.21804128  0.61920491
   0.51555936  0.20253876  0.37782886
   0.48444064  0.79746124  0.62217114
   0.98325868  0.20341277  0.12173840
   0.01674132  0.79658723  0.87826160
   0.94441256  0.23136455  0.63886465
   0.05558744  0.76863545  0.36113535
   0.55489110  0.23163320  0.86071107
   0.44510890  0.76836680  0.13928893
CIS                                     
           1
     5.875989    0.741498   -0.667537
    -0.766134    5.748073   -0.479023
     0.598385    1.028863   11.457027
   Li   Sb   Se
   4   4   8
Direct configuration=     9
   0.51745059  0.74576054  0.87776602
   0.48254941  0.25423946  0.12223398
   0.98300093  0.74545265  0.62249291
   0.01699907  0.25454735  0.37750709
   0.02538462  0.77941809  0.12102279
   0.97461538  0.22058191  0.87897721
   0.47761297  0.77651351  0.38132518
   0.52238703  0.22348649  0.61867482
   0.51561874  0.20910063  0.37567885
   0.48438126  0.79089937  0.62432115
   0.98309691  0.21019211  0.12383874
   0.01690309  0.78980789  0.87616126
   0.94950538  0.23196119  0.63669079
   0.05049462  0.76803881  0.36330921
   0.54953812  0.23220270  0.86282659
   0.45046188  0.76779730  0.13717341
CIS                                     
           1
     5.713381    0.728746   -0.553467
    -0.738749    5.540768   -0.463206
     0.777033    1.031907   11.240583
   Li   Sb   Se
   4   4   8
Direct configuration=    10
   0.51762303  0.74919734  0.87647691
   0.48237697  0.25080266  0.12352309
   0.98274600  0.74893172  0.62379880
   0.01725400  0.25106828  0.37620120
   0.01769277  0.76917443  0.12090488
   0.98230723  0.23082557  0.87909512
   0.48607388  0.76542724  0.38235902
   0.51392612  0.23457276  0.61764098
   0.51580832  0.22245966  0.37134254
   0.48419168  0.77754034  0.62865746
   0.98270157  0.22399627  0.12807745
   0.01729843  0.77600373  0.87192255
   0.95990601  0.23317489  0.63226385
   0.04009399  0.76682511  0.36773615
   0.53861166  0.23336326  0.86713816
   0.46138834  0.76663674  0.13286184
CIS                                     
           1
     5.639865    0.722981   -0.501896
    -0.726368    5.447045   -0.456056
     0.857801    1.033283   11.142728
   Li   Sb   Se
   4   4   8
Direct configuration=    11
   0.51772291  0.75080888  0.87588336
   0.48227709  0.24919112  0.12411664
   0.98260753  0.75056377  0.62440082
   0.01739247  0.24943623  0.37559918
   0.01411385  0.76436999  0.12088022
   0.98588615  0.23563001  0.87911978
   0.48999668  0.76022806  0.38280076
   0.51000332  0.23977194  0.61719924
   0.51596255  0.22872398  0.36934759
   0.48403745  0.77127602  0.63065241
   0.98245331  0.23047163  0.13002995
   0.01754669  0.76952837  0.86997005
   0.96481481  0.23374305  0.63018636
   0.03518519  0.76625695  0.36981364
   0.53345986  0.23390862  0.86916478
   0.46654014  0.76609138  0.13083522
CIS                                     
           1
     5.669728    0.726600   -0.504540
    -0.733772    5.500668   -0.460471
     0.866658    1.044093   11.258037
   Li   Sb   Se
   4   4   8
Direct configuration=    12
   0.51763769  0.75067954  0.87594285
   0.48236231  0.24932046  0.12405715
   0.98269305  0.75044567  0.62439131
   0.01730695  0.24955433  0.37560869
   0.01279775  0.76254333  0.12100581
   0.98720225  0.23745667  0.87899419
   0.49117883  0.75838302  0.38248759
   0.50882117  0.24161698  0.61751241
   0.51623890  0.23071983  0.36908562
   0.48376110  0.76928017  0.63091438
   0.98220632  0.23266940  0.13028079
   0.01779368  0.76733060  0.86971921
   0.96652975  0.23459037  0.62930940
   0.03347025  0.76540963  0.37069060
   0.53153080  0.23476415  0.86991936
   0.46846920  0.76523585  0.13008064
CIS                                     
           1
     5.718640    0.732529   -0.508871
    -0.745898    5.588497   -0.467702
     0.881164    1.061799   11.446899
   Li   Sb   Se
   4   4   8
Direct configuration=    13
   0.51749883  0.75046975  0.87603931
   0.48250117  0.24953025  0.12396069
   0.98283238  0.75025411  0.62437591
   0.01716762  0.24974589  0.37562409
   0.01065334  0.75958059  0.12120942
   0.98934666  0.24041941  0.87879058
   0.49310472  0.75539063  0.38197992
   0.50689528  0.24460937  0.61802008
   0.51668928  0.23395693  0.36866094
   0.48331072  0.76604307  0.63133906
   0.98180407  0.23623395  0.13068740
   0.01819593  0.76376605  0.86931260
   0.96932389  0.23596478  0.62788776
   0.03067611  0.76403522  0.37211224
   0.52838792  0.23615161  0.87114261
   0.47161208  0.76384839  0.12885739
CIS                                     
           1
     5.734373    0.734435   -0.510264
    -0.749798    5.616748   -0.470027
     0.885830    1.067495   11.507649
   Li   Sb   Se
   4   4   8
Direct configuration=    14
   0.51745454  0.75040332  0.87606982
   0.48254546  0.24959668  0.12393018
   0.98287681  0.75019347  0.62437104
   0.01712319  0.24980653  0.37562896
   0.00996939  0.75864252  0.12127384
   0.99003061  0.24135748  0.87872616
   0.49371885  0.75444326  0.38181932
   0.50628115  0.24555674  0.61818068
   0.51683299  0.23498183  0.36852658
   0.48316701  0.76501817  0.63147342
   0.98167587  0.23736250  0.13081602
   0.01832413  0.76263750  0.86918398
   0.97021501  0.23640000  0.62743801
   0.02978499  0.76360000  0.37256199
   0.52738563  0.23659081  0.87152959
   0.47261437  0.76340919  0.12847041
CIS                                     
           1
     5.735931    0.734624   -0.510402
    -0.750185    5.619546   -0.470258
     0.886292    1.068059   11.513665
   Li   Sb   Se
   4   4   8
Direct configuration=    15
   0.51745017  0.75039678  0.87607283
   0.48254983  0.24960322  0.12392717
   0.98288120  0.75018749  0.62437056
   0.01711880  0.24981251  0.37562944
   0.00990184  0.75855009  0.12128019
   0.99009816  0.24144991  0.87871981
   0.49377950  0.75434991  0.38180350
   0.50622050  0.24565009  0.61819650
   0.51684719  0.23508282  0.36851335
   0.48315281  0.76491718  0.63148665
   0.98166321  0.23747371  0.13082869
   0.01833679  0.76252629  0.86917131
   0.97030302  0.23644288  0.62739371
   0.02969698  0.76355712  0.37260629
   0.52728665  0.23663409  0.87156771
   0.47271335  0.76336591  0.12843229
CIS                                     
           1
     5.719310    0.733121   -0.511641
    -0.748807    5.615957   -0.468963
     0.881597    1.070519   11.524406
   Li   Sb   Se
   4   4   8
Direct configuration=    16
   0.51734950  0.75029157  0.87614079
   0.48265050  0.24970843  0.12385921
   0.98298214  0.75009894  0.62435497
   0.01701786  0.24990106  0.37564503
   0.00990230  0.75789214  0.12143720
   0.99009770  0.24210786  0.87856280
   0.49367981  0.75397541  0.38140304
   0.50632019  0.24602459  0.61859696
   0.51693419  0.23589998  0.36894258
   0.48306581  0.76410002  0.63105742
   0.98171801  0.23833382  0.13042579
   0.01828199  0.76166618  0.86957421
   0.97093694  0.23745083  0.62703227
   0.02906306  0.76254917  0.37296773
   0.52666822  0.23760026  0.87185293
   0.47333178  0.76239974  0.12814707
CIS                                     
           1
     5.669446    0.728611   -0.515360
    -0.744674    5.605189   -0.465079
     0.867510    1.077898   11.556627
   Li   Sb   Se
   4   4   8
Direct configuration=    17
   0.51704686  0.74997571  0.87634443
   0.48295314  0.25002429  0.12365557
   0.98328581  0.74983306  0.62430835
   0.01671419  0.25016694  0.37569165
   0.00990438  0.75591679  0.12190797
   0.99009562  0.24408321  0.87809203
   0.49337893  0.75285168  0.38020279
   0.50662107  0.24714832  0.61979721
   0.51719677  0.23835259  0.37022895
   0.48280323  0.76164741  0.62977105
   0.98188141  0.24091633  0.12921800
   0.01811859  0.75908367  0.87078200
   0.97284271  0.24047685  0.62594912
   0.02715729  0.75952315  0.37405088
   0.52480804  0.24050067  0.87270713
   0.47519196  0.75949933  0.12729287
CIS                                     
           1
     5.569719    0.719591   -0.522797
    -0.736409    5.583653   -0.457310
     0.839337    1.092658   11.621070
   Li   Sb   Se
   4   4   8
Direct configuration=    18
   0.51643775  0.74934251  0.87675038
   0.48356225  0.25065749  0.12324962
   0.98389837  0.74930006  0.62421592
   0.01610163  0.25069994  0.37578408
   0.00991283  0.75195698  0.12284805
   0.99008717  0.24804302  0.87715195
   0.49276633  0.75060268  0.37780899
   0.50723367  0.24939732  0.62219101
   0.51773148  0.24326454  0.37279372
   0.48226852  0.75673546  0.62720628
   0.98220223  0.24609447  0.12680777
   0.01779777  0.75390553  0.87319223
   0.97667863  0.24654196  0.62378967
   0.02332137  0.75345804  0.37621033
   0.52105782  0.24631296  0.87440674
   0.47894218  0.75368704  0.12559326
CIS                                     
           1
     5.581262    0.720525   -0.521106
    -0.735724    5.573855   -0.455740
     0.843414    1.093551   11.607665
   Li   Sb   Se
   4   4   8
Direct configuration=    19
   0.51608207  0.74913451  0.87684733
   0.48391793  0.25086549  0.12315267
   0.98424154  0.74913531  0.62417669
   0.01575846  0.25086469  0.37582331
   0.00889923  0.75055895  0.12335606
   0.99110077  0.24944105  0.87664394
   0.49390631  0.75001191  0.37713620
   0.50609369  0.24998809  0.62286380
   0.51767738  0.24515028  0.37393113
   0.48232262  0.75484972  0.62606887
   0.98260257  0.24782787  0.12565583
   0.01739743  0.75217213  0.87434417
   0.97939206  0.24858685  0.62348980
   0.02060794  0.75141315  0.37651020
   0.51826406  0.24827735  0.87475729
   0.48173594  0.75172265  0.12524271
CIS                                     
           1
     5.590249    0.721252   -0.519790
    -0.735191    5.566227   -0.454517
     0.846588    1.094246   11.597227
   Li   Sb   Se
   4   4   8
Direct configuration=    20
   0.51580562  0.74897222  0.87692297
   0.48419438  0.25102778  0.12307703
   0.98450821  0.74900686  0.62414606
   0.01549179  0.25099314  0.37585394
   0.00811114  0.74946834  0.12375228
   0.99188886  0.25053166  0.87624772
   0.49479253  0.74955139  0.37661162
   0.50520747  0.25044861  0.62338838
   0.51763470  0.24662083  0.37481759
   0.48236530  0.75337917  0.62518241
   0.98291463  0.24918011  0.12475780
   0.01708537  0.75081989  0.87524220
   0.98150085  0.25018214  0.62325548
   0.01849915  0.74981786  0.37674452
   0.51609318  0.24980911  0.87503093
   0.48390682  0.75019089  0.12496907
CIS                                     
           1
     5.608222    0.722707   -0.517157
    -0.734126    5.550970   -0.452072
     0.852936    1.095637   11.576352
   Li   Sb   Se
   4   4   8
Direct configuration=    21
   0.51525344  0.74864711  0.87707450
   0.48474656  0.25135289  0.12292550
   0.98504074  0.74874967  0.62408467
   0.01495926  0.25125033  0.37591533
   0.00653666  0.74728380  0.12454579
   0.99346334  0.25271620  0.87545421
   0.49656287  0.74862948  0.37556129
   0.50343713  0.25137052  0.62443871
   0.51754845  0.24956560  0.37659192
   0.48245155  0.75043440  0.62340808
   0.98353933  0.25188873  0.12295996
   0.01646067  0.74811127  0.87704004
   0.98571247  0.25337761  0.62278553
   0.01428753  0.74662239  0.37721447
   0.51175810  0.25287626  0.87557931
   0.48824190  0.74712374  0.12442069
CIS                                     
           1
     5.601625    0.722173   -0.518123
    -0.734517    5.556570   -0.452970
     0.850606    1.095127   11.584014
   Li   Sb   Se
   4   4   8
Direct configuration=    22
   0.51545558  0.74876683  0.87701870
   0.48454442  0.25123317  0.12298130
   0.98484587  0.74884428  0.62410730
   0.01515413  0.25115572  0.37589270
   0.00711333  0.74808806  0.12425375
   0.99288667  0.25191194  0.87574625
   0.49591461  0.74896849  0.37594767
   0.50408539  0.25103151  0.62405233
   0.51758075  0.24848205  0.37593964
   0.48241925  0.75151795  0.62406036
   0.98330962  0.25089151  0.12362116
   0.01669038  0.74910849  0.87637884
   0.98417099  0.25220112  0.62295899
   0.01582901  0.74779888  0.37704101
   0.51334437  0.25174782  0.87537722
   0.48665563  0.74825218  0.12462278
CIS                                     
           1
     5.595728    0.720244   -0.505691
    -0.738293    5.565998   -0.457460
     0.876068    1.090825   11.589100
   Li   Sb   Se
   4   4   8
Direct configuration=    23
   0.51515183  0.74881678  0.87701619
   0.48484817  0.25118322  0.12298381
   0.98511988  0.74891493  0.62407437
   0.01488012  0.25108507  0.37592563
   0.00696564  0.74833581  0.12434561
   0.99303436  0.25166419  0.87565439
   0.49735379  0.74845009  0.37621117
   0.50264621  0.25154991  0.62378883
   0.51692355  0.24895830  0.37621802
   0.48307645  0.75104170  0.62378198
   0.98393564  0.25113567  0.12334381
   0.01606436  0.74886433  0.87665619
   0.98548076  0.25245679  0.62344236
   0.01451924  0.74754321  0.37655764
   0.51199468  0.25171852  0.87521583
   0.48800532  0.74828148  0.12478417
CIS                                     
           1
     5.578035    0.714459   -0.468394
    -0.749620    5.594284   -0.470933
     0.952454    1.077921   11.604359
   Li   Sb   Se
   4   4   8
Direct configuration=    24
   0.51423951  0.74896599  0.87700961
   0.48576049  0.25103401  0.12299039
   0.98594344  0.74912670  0.62397490
   0.01405656  0.25087330  0.37602510
   0.00652114  0.74907795  0.12462172
   0.99347886  0.25092205  0.87537828
   0.50167281  0.74690047  0.37699636
   0.49832719  0.25309953  0.62300364
   0.51494643  0.25038490  0.37705513
   0.48505357  0.74961510  0.62294487
   0.98581991  0.25186634  0.12251059
   0.01418009  0.74813366  0.87748941
   0.98940914  0.25322601  0.62488798
   0.01059086  0.74677399  0.37511202
   0.50794254  0.25162854  0.87473596
   0.49205746  0.74837146  0.12526404
CIS                                     
           1
     5.567125    0.710167   -0.458405
    -0.750852    5.576460   -0.468942
     0.972140    1.083342   11.631667
   Li   Sb   Se
   4   4   8
Direct configuration=    25
   0.51359079  0.74912045  0.87708938
   0.48640921  0.25087955  0.12291062
   0.98649833  0.74935844  0.62392223
   0.01350167  0.25064156  0.37607777
   0.00537551  0.74937890  0.12453026
   0.99462449  0.25062110  0.87546974
   0.50385394  0.74699241  0.37670511
   0.49614606  0.25300759  0.62329489
   0.51335797  0.25029238  0.37706098
   0.48664203  0.74970762  0.62293902
   0.98756319  0.25147448  0.12252747
   0.01243681  0.74852552  0.87747253
   0.99147313  0.25301887  0.62547938
   0.00852687  0.74698113  0.37452062
   0.50545561  0.25115742  0.87431399
   0.49454439  0.74884258  0.12568601
CIS                                     
           1
     5.555811    0.705716   -0.448046
    -0.752129    5.557975   -0.466878
     0.992557    1.088965   11.659988
   Li   Sb   Se
   4   4   8
Direct configuration=    26
   0.51291638  0.74928070  0.87717241
   0.48708362  0.25071930  0.12282759
   0.98707540  0.74959990  0.62386730
   0.01292460  0.25040010  0.37613270
   0.00418526  0.74969125  0.12443652
   0.99581474  0.25030875  0.87556348
   0.50612194  0.74708952  0.37640212
   0.49387806  0.25291048  0.62359788
   0.51170690  0.25019508  0.37706827
   0.48829310  0.74980492  0.62293173
   0.98937478  0.25106796  0.12254359
   0.01062522  0.74893204  0.87745641
   0.99361633  0.25280467  0.62608961
   0.00638367  0.74719533  0.37391039
   0.50287183  0.25066569  0.87387939
   0.49712817  0.74933431  0.12612061
CIS                                     
           1
     5.564338    0.707481   -0.450990
    -0.750603    5.555905   -0.461865
     0.987438    1.099162   11.666007
   Li   Sb   Se
   4   4   8
Direct configuration=    27
   0.51202214  0.74946866  0.87728794
   0.48797786  0.25053134  0.12271206
   0.98781163  0.74994529  0.62380402
   0.01218837  0.25005471  0.37619598
   0.00366287  0.75025420  0.12380519
   0.99633713  0.24974580  0.87619481
   0.50721082  0.74771089  0.37632483
   0.49278918  0.25228911  0.62367517
   0.50904046  0.24964091  0.37729930
   0.49095954  0.75035909  0.62270070
   0.99213962  0.25055649  0.12250333
   0.00786038  0.74944351  0.87749667
   0.99571731  0.25202750  0.62665791
   0.00428269  0.74797250  0.37334209
   0.50012549  0.24971117  0.87340056
   0.49987451  0.75028883  0.12659944
CIS                                     
           1
     5.570392    0.708734   -0.453081
    -0.749520    5.554435   -0.458305
     0.983803    1.106402   11.670279
   Li   Sb   Se
   4   4   8
Direct configuration=    28
   0.51138830  0.74960211  0.87736976
   0.48861170  0.25039789  0.12263024
   0.98833344  0.75019063  0.62375911
   0.01166656  0.24980937  0.37624089
   0.00329217  0.75065495  0.12335697
   0.99670783  0.24934505  0.87664303
   0.50798258  0.74815224  0.37626995
   0.49201742  0.25184776  0.62373005
   0.50715051  0.24924727  0.37746306
   0.49284949  0.75075273  0.62253694
   0.99409951  0.25019294  0.12247528
   0.00590049  0.74980706  0.87752472
   0.99720698  0.25147449  0.62706167
   0.00279302  0.74852551  0.37293833
   0.49817856  0.24903407  0.87306071
   0.50182144  0.75096593  0.12693929
CIS                                     
           1
     5.568669    0.708377   -0.452486
    -0.749828    5.554854   -0.459318
     0.984837    1.104342   11.669063
   Li   Sb   Se
   4   4   8
Direct configuration=    29
   0.51156845  0.74956413  0.87734652
   0.48843155  0.25043587  0.12265348
   0.98818513  0.75012080  0.62377189
   0.01181487  0.24987920  0.37622811
   0.00339761  0.75054070  0.12348451
   0.99660239  0.24945930  0.87651549
   0.50776324  0.74802661  0.37628557
   0.49223676  0.25197339  0.62371443
   0.50768767  0.24935932  0.37741651
   0.49231233  0.75064068  0.62258349
   0.99354243  0.25029647  0.12248315
   0.00645757  0.74970353  0.87751685
   0.99678348  0.25163210  0.62694672
   0.00321652  0.74836790  0.37305328
   0.49873198  0.24922662  0.87315740
   0.50126802  0.75077338  0.12684260
CIS                                     
           1
     5.568960    0.708988   -0.466371
    -0.750621    5.574501   -0.459429
     0.954415    1.101931   11.646844
   Li   Sb   Se
   4   4   8
Direct configuration=    30
   0.51102676  0.74957121  0.87737900
   0.48897324  0.25042879  0.12262100
   0.98861420  0.75024664  0.62370161
   0.01138580  0.24975336  0.37629839
   0.00327887  0.75108959  0.12326410
   0.99672113  0.24891041  0.87673590
   0.50677699  0.74842658  0.37647668
   0.49322301  0.25157342  0.62352332
   0.50631893  0.24933353  0.37750115
   0.49368107  0.75066647  0.62249885
   0.99414351  0.25025236  0.12266358
   0.00585649  0.74974764  0.87733642
   0.99651291  0.25102336  0.62699821
   0.00348709  0.74897664  0.37300179
   0.49882045  0.24916159  0.87321206
   0.50117955  0.75083841  0.12678794
CIS                                     
           1
     5.569104    0.709289   -0.473212
    -0.751012    5.584181   -0.459483
     0.939425    1.100743   11.635896
   Li   Sb   Se
   4   4   8
Direct configuration=    31
   0.51076002  0.74957476  0.87739472
   0.48923998  0.25042524  0.12260528
   0.98882536  0.75030839  0.62366715
   0.01117464  0.24969161  0.37633285
   0.00321975  0.75135919  0.12315516
   0.99678025  0.24864081  0.87684484
   0.50629160  0.74862306  0.37657044
   0.49370840  0.25137694  0.62342956
   0.50564494  0.24932105  0.37754216
   0.49435506  0.75067895  0.62245784
   0.99444003  0.25023055  0.12275302
   0.00555997  0.74976945  0.87724698
   0.99637985  0.25072449  0.62702352
   0.00362015  0.74927551  0.37297648
   0.49886417  0.24912963  0.87323911
   0.50113583  0.75087037  0.12676089
CIS                                     
           1
     5.564043    0.707081   -0.486998
    -0.751091    5.582011   -0.459028
     0.908960    1.096237   11.624756
   Li   Sb   Se
   4   4   8
Direct configuration=    32
   0.50997174  0.74955193  0.87743287
   0.49002826  0.25044807  0.12256713
   0.98950898  0.75043312  0.62356042
   0.01049102  0.24956688  0.37643958
   0.00254336  0.75146552  0.12363368
   0.99745664  0.24853448  0.87636632
   0.50499285  0.74882614  0.37661359
   0.49500715  0.25117386  0.62338641
   0.50433845  0.24947169  0.37739293
   0.49566155  0.75052831  0.62260707
   0.99531221  0.25001709  0.12303710
   0.00468779  0.74998291  0.87696290
   0.99595600  0.25015982  0.62690719
   0.00404400  0.74984018  0.37309281
   0.49932406  0.24917171  0.87350514
   0.50067594  0.75082829  0.12649486
CIS                                     
           1
     5.562614    0.706457   -0.490891
    -0.751113    5.581398   -0.458899
     0.900355    1.094965   11.621610
   Li   Sb   Se
   4   4   8
Direct configuration=    33
   0.50974899  0.74954546  0.87744338
   0.49025101  0.25045454  0.12255662
   0.98970206  0.75046838  0.62353048
   0.01029794  0.24953162  0.37646952
   0.00235289  0.75149554  0.12376876
   0.99764711  0.24850446  0.87623124
   0.50462581  0.74888349  0.37662534
   0.49537419  0.25111651  0.62337466
   0.50396893  0.24951424  0.37735028
   0.49603107  0.75048576  0.62264972
   0.99555916  0.24995678  0.12311774
   0.00444084  0.75004322  0.87688226
   0.99583600  0.25000026  0.62687415
   0.00416400  0.74999974  0.37312585
   0.49945445  0.24918360  0.87358053
   0.50054555  0.75081640  0.12641947
CIS                                     
           1
     5.561961    0.706281   -0.500401
    -0.749077    5.570854   -0.458883
     0.881820    1.091756   11.633685
   Li   Sb   Se
   4   4   8
Direct configuration=    34
   0.50890430  0.74950936  0.87748434
   0.49109570  0.25049064  0.12251566
   0.99048755  0.75055153  0.62345719
   0.00951245  0.24944847  0.37654281
   0.00144694  0.75200777  0.12355329
   0.99855306  0.24799223  0.87644671
   0.50343694  0.74912131  0.37636374
   0.49656306  0.25087869  0.62363626
   0.50331268  0.24968349  0.37700669
   0.49668732  0.75031651  0.62299331
   0.99624167  0.24982553  0.12338128
   0.00375833  0.75017447  0.87661872
   0.99577178  0.24966908  0.62656724
   0.00422822  0.75033092  0.37343276
   0.50021146  0.24944244  0.87396994
   0.49978854  0.75055756  0.12603006
CIS                                     
           1
     5.561905    0.706266   -0.501218
    -0.748902    5.569947   -0.458882
     0.880227    1.091480   11.634723
   Li   Sb   Se
   4   4   8
Direct configuration=    35
   0.50883171  0.74950626  0.87748779
   0.49116829  0.25049374  0.12251221
   0.99055505  0.75055868  0.62345096
   0.00944495  0.24944132  0.37654904
   0.00136899  0.75205190  0.12353472
   0.99863101  0.24794810  0.87646528
   0.50333466  0.74914180  0.37634119
   0.49666534  0.25085820  0.62365881
   0.50325616  0.24969807  0.37697713
   0.49674384  0.75030193  0.62302287
   0.99630043  0.24981422  0.12340397
   0.00369957  0.75018578  0.87659603
   0.99576617  0.24964055  0.62654087
   0.00423383  0.75035945  0.37345913
   0.50027665  0.24946474  0.87400344
   0.49972335  0.75053526  0.12599656
CIS                                     
           1
     5.570405    0.708787   -0.501435
    -0.747367    5.569066   -0.458615
     0.882530    1.093489   11.647720
   Li   Sb   Se
   4   4   8
Direct configuration=    36
   0.50824120  0.74947141  0.87750101
   0.49175880  0.25052859  0.12249899
   0.99113822  0.75056524  0.62341091
   0.00886178  0.24943476  0.37658909
   0.00148320  0.75204642  0.12338026
   0.99851680  0.24795358  0.87661974
   0.50227657  0.74894020  0.37642232
   0.49772343  0.25105980  0.62357768
   0.50308974  0.24989338  0.37677518
   0.49691026  0.75010662  0.62322482
   0.99669074  0.24981867  0.12349594
   0.00330926  0.75018133  0.87650406
   0.99616023  0.24966934  0.62629845
   0.00383977  0.75033066  0.37370155
   0.50045110  0.24985376  0.87423251
   0.49954890  0.75014624  0.12576749