       N       E                     dE             d eps       ncg     rms          rms(c)
DAV:   1     0.751263750381E+03    0.75126E+03   -0.49608E+04  1344   0.824E+02
DAV:   2    -0.433505782678E+02   -0.79461E+03   -0.75494E+03  1610   0.197E+02
DAV:   3    -0.110703698513E+03   -0.67353E+02   -0.65804E+02  1596   0.605E+01
DAV:   4    -0.112401039808E+03   -0.16973E+01   -0.16807E+01  1596   0.107E+01
DAV:   5    -0.112452515570E+03   -0.51476E-01   -0.51442E-01  1554   0.177E+00    0.253E+01
DAV:   6    -0.106511561948E+03    0.59410E+01   -0.11608E+01  1568   0.157E+01    0.186E+01
DAV:   7    -0.106773033538E+03   -0.26147E+00   -0.59339E+00  1484   0.615E+00    0.738E+00
DAV:   8    -0.106668428310E+03    0.10461E+00   -0.36758E-01  1498   0.221E+00    0.215E+00
DAV:   9    -0.106669910780E+03   -0.14825E-02   -0.73793E-02  1554   0.844E-01    0.632E-01
DAV:  10    -0.106670522993E+03   -0.61221E-03   -0.67505E-03  1610   0.243E-01    0.311E-01
DAV:  11    -0.106671054459E+03   -0.53147E-03   -0.92203E-04  1568   0.946E-02    0.146E-01
DAV:  12    -0.106671342527E+03   -0.28807E-03   -0.47962E-04  1498   0.655E-02    0.555E-02
DAV:  13    -0.106671368940E+03   -0.26414E-04   -0.29475E-05   854   0.210E-02
   1 F= -.10667137E+03 E0= -.10667137E+03  d E =-.106671E+03
       N       E                     dE             d eps       ncg     rms          rms(c)
DAV:   1    -0.106673941577E+03   -0.25990E-02   -0.23100E-02  1372   0.428E-01    0.142E-01
DAV:   2    -0.106673724392E+03    0.21718E-03   -0.13997E-03  1596   0.181E-01    0.635E-02
DAV:   3    -0.106673700001E+03    0.24390E-04   -0.12883E-04   812   0.339E-02
   2 F= -.10667370E+03 E0= -.10667370E+03  d E =-.233106E-02
       N       E                     dE             d eps       ncg     rms          rms(c)
DAV:   1    -0.106674733676E+03   -0.10093E-02   -0.14110E-02  1344   0.342E-01    0.114E-01
DAV:   2    -0.106674564447E+03    0.16923E-03   -0.93995E-04  1596   0.152E-01    0.564E-02
DAV:   3    -0.106674546566E+03    0.17881E-04   -0.91274E-05   784   0.278E-02
   3 F= -.10667455E+03 E0= -.10667455E+03  d E =-.317763E-02
       N       E                     dE             d eps       ncg     rms          rms(c)
DAV:   1    -0.106676202468E+03   -0.16380E-02   -0.57128E-02  1344   0.680E-01    0.226E-01
DAV:   2    -0.106675591285E+03    0.61118E-03   -0.36582E-03  1596   0.297E-01    0.108E-01
DAV:   3    -0.106675527038E+03    0.64246E-04   -0.39086E-04  1442   0.549E-02
   4 F= -.10667553E+03 E0= -.10667553E+03  d E =-.415810E-02
       N       E                     dE             d eps       ncg     rms          rms(c)
DAV:   1    -0.106677889390E+03   -0.22981E-02   -0.42573E-02  1344   0.524E-01    0.164E-01
DAV:   2    -0.106677697060E+03    0.19233E-03   -0.14280E-03  1596   0.121E-01    0.625E-02
DAV:   3    -0.106677608875E+03    0.88185E-04   -0.11230E-04   826   0.350E-02
   5 F= -.10667761E+03 E0= -.10667761E+03  d E =-.208184E-02
       N       E                     dE             d eps       ncg     rms          rms(c)
DAV:   1    -0.106677662679E+03    0.34381E-04   -0.14512E-02  1344   0.307E-01    0.928E-02
DAV:   2    -0.106677607856E+03    0.54822E-04   -0.49245E-04  1610   0.719E-02
   6 F= -.10667761E+03 E0= -.10667761E+03  d E =-.208082E-02
       N       E                     dE             d eps       ncg     rms          rms(c)
DAV:   1    -0.106677608498E+03    0.54181E-04   -0.26340E-03  1344   0.132E-01    0.359E-02
DAV:   2    -0.106677612367E+03   -0.38695E-05   -0.88883E-05   672   0.305E-02
   7 F= -.10667761E+03 E0= -.10667761E+03  d E =-.208533E-02
       N       E                     dE             d eps       ncg     rms          rms(c)
DAV:   1    -0.106680198239E+03   -0.25897E-02   -0.59880E-02  1400   0.791E-01    0.318E-01
DAV:   2    -0.106678814606E+03    0.13836E-02   -0.65189E-03  1540   0.449E-01    0.121E-01
DAV:   3    -0.106678744173E+03    0.70433E-04   -0.54913E-04  1260   0.594E-02
   8 F= -.10667874E+03 E0= -.10667874E+03  d E =-.113181E-02
       N       E                     dE             d eps       ncg     rms          rms(c)
DAV:   1    -0.106678683689E+03    0.13092E-03   -0.14611E-04   854   0.703E-02    0.248E-02
DAV:   2    -0.106678669354E+03    0.14336E-04   -0.67788E-05   672   0.397E-02
   9 F= -.10667867E+03 E0= -.10667867E+03  d E =-.105699E-02
       N       E                     dE             d eps       ncg     rms          rms(c)
DAV:   1    -0.106680257316E+03   -0.15736E-02   -0.34773E-02  1358   0.565E-01    0.208E-01
DAV:   2    -0.106679687512E+03    0.56980E-03   -0.32576E-03  1568   0.304E-01    0.888E-02
DAV:   3    -0.106679647629E+03    0.39882E-04   -0.23684E-04   882   0.429E-02
  10 F= -.10667965E+03 E0= -.10667965E+03  d E =-.978276E-03
       N       E                     dE             d eps       ncg     rms          rms(c)
DAV:   1    -0.106679611324E+03    0.76188E-04   -0.68853E-05   728   0.444E-02    0.177E-02
DAV:   2    -0.106679604784E+03    0.65395E-05   -0.33259E-05   672   0.265E-02
  11 F= -.10667960E+03 E0= -.10667960E+03  d E =-.935431E-03
       N       E                     dE             d eps       ncg     rms          rms(c)
DAV:   1    -0.106679936883E+03   -0.32556E-03   -0.10491E-02  1344   0.278E-01    0.818E-02
DAV:   2    -0.106679851209E+03    0.85674E-04   -0.61800E-04  1344   0.127E-01
  12 F= -.10667985E+03 E0= -.10667985E+03  d E =-.246425E-03
       N       E                     dE             d eps       ncg     rms          rms(c)
DAV:   1    -0.106679869154E+03    0.67729E-04   -0.87225E-03  1428   0.254E-01    0.767E-02
DAV:   2    -0.106679787374E+03    0.81780E-04   -0.51216E-04  1260   0.110E-01
  13 F= -.10667979E+03 E0= -.10667979E+03  d E =-.182590E-03
       N       E                     dE             d eps       ncg     rms          rms(c)
DAV:   1    -0.106679833213E+03    0.35941E-04   -0.16778E-03  1260   0.110E-01    0.502E-02
DAV:   2    -0.106679815706E+03    0.17507E-04   -0.96517E-05   672   0.553E-02
  14 F= -.10667982E+03 E0= -.10667982E+03  d E =-.210922E-03
       N       E                     dE             d eps       ncg     rms          rms(c)
DAV:   1    -0.106679851064E+03   -0.17852E-04   -0.73268E-04  1218   0.744E-02    0.245E-02
DAV:   2    -0.106679845222E+03    0.58428E-05   -0.39754E-05   672   0.303E-02
  15 F= -.10667985E+03 E0= -.10667985E+03  d E =-.240437E-03
       N       E                     dE             d eps       ncg     rms          rms(c)
DAV:   1    -0.106679846586E+03    0.44785E-05   -0.17010E-04   826   0.374E-02    0.127E-02
DAV:   2    -0.106679845322E+03    0.12639E-05   -0.18116E-05   672   0.194E-02
  16 F= -.10667985E+03 E0= -.10667985E+03  d E =-.240538E-03
       N       E                     dE             d eps       ncg     rms          rms(c)
DAV:   1    -0.106679852024E+03   -0.54384E-05   -0.46163E-05   672   0.185E-02    0.943E-03
DAV:   2    -0.106679852604E+03   -0.57959E-06   -0.63832E-06   672   0.123E-02
  17 F= -.10667985E+03 E0= -.10667985E+03  d E =-.247820E-03
       N       E                     dE             d eps       ncg     rms          rms(c)
DAV:   1    -0.106679852005E+03    0.19667E-07   -0.93250E-06   672   0.843E-03    0.330E-03
DAV:   2    -0.106679851940E+03    0.64776E-07   -0.12098E-06   672   0.563E-03
  18 F= -.10667985E+03 E0= -.10667985E+03  d E =-.247156E-03
       N       E                     dE             d eps       ncg     rms          rms(c)
DAV:   1    -0.106679854674E+03   -0.26697E-05   -0.29543E-06   672   0.475E-03    0.233E-03
DAV:   2    -0.106679854837E+03   -0.16285E-06   -0.42319E-07   672   0.325E-03
  19 F= -.10667985E+03 E0= -.10667985E+03  d E =-.250053E-03
       N       E                     dE             d eps       ncg     rms          rms(c)
DAV:   1    -0.106679926358E+03   -0.71684E-04   -0.30884E-03  1260   0.134E-01    0.294E-02
DAV:   2    -0.106679924051E+03    0.23072E-05   -0.82830E-05   672   0.404E-02
  20 F= -.10667992E+03 E0= -.10667992E+03  d E =-.692137E-04
       N       E                     dE             d eps       ncg     rms          rms(c)
DAV:   1    -0.106679973927E+03   -0.47569E-04   -0.45004E-03  1274   0.162E-01    0.340E-02
DAV:   2    -0.106679968300E+03    0.56264E-05   -0.11983E-04   672   0.476E-02
  21 F= -.10667997E+03 E0= -.10667997E+03  d E =-.113463E-03
       N       E                     dE             d eps       ncg     rms          rms(c)
DAV:   1    -0.106680082371E+03   -0.10844E-03   -0.40811E-03  1302   0.150E-01    0.241E-02
DAV:   2    -0.106680078791E+03    0.35807E-05   -0.79077E-05   672   0.367E-02
  22 F= -.10668008E+03 E0= -.10668008E+03  d E =-.110490E-03
       N       E                     dE             d eps       ncg     rms          rms(c)
DAV:   1    -0.106680404946E+03   -0.32257E-03   -0.36151E-02  1344   0.445E-01    0.769E-02
DAV:   2    -0.106680398517E+03    0.64290E-05   -0.78054E-04  1512   0.111E-01
  23 F= -.10668040E+03 E0= -.10668040E+03  d E =-.430217E-03
       N       E                     dE             d eps       ncg     rms          rms(c)
DAV:   1    -0.106680736232E+03   -0.33129E-03   -0.14514E-01  1344   0.891E-01    0.152E-01
DAV:   2    -0.106680695705E+03    0.40527E-04   -0.31255E-03  1596   0.223E-01    0.764E-02
DAV:   3    -0.106680667864E+03    0.27841E-04   -0.12924E-04   770   0.419E-02
  24 F= -.10668067E+03 E0= -.10668067E+03  d E =-.699564E-03
       N       E                     dE             d eps       ncg     rms          rms(c)
DAV:   1    -0.106680892317E+03   -0.19661E-03   -0.20176E-02  1344   0.321E-01    0.358E-02
DAV:   2    -0.106680905495E+03   -0.13178E-04   -0.26106E-04  1008   0.504E-02
  25 F= -.10668091E+03 E0= -.10668091E+03  d E =-.237631E-03
       N       E                     dE             d eps       ncg     rms          rms(c)
DAV:   1    -0.106681189192E+03   -0.29687E-03   -0.95510E-02  1344   0.701E-01    0.847E-02
DAV:   2    -0.106681304918E+03   -0.11573E-03   -0.15375E-03  1582   0.114E-01    0.425E-02
DAV:   3    -0.106681291576E+03    0.13342E-04   -0.25688E-05   714   0.172E-02
  26 F= -.10668129E+03 E0= -.10668129E+03  d E =-.623712E-03
       N       E                     dE             d eps       ncg     rms          rms(c)
DAV:   1    -0.106681103684E+03    0.20123E-03   -0.37858E-01  1344   0.140E+00    0.172E-01
DAV:   2    -0.106681591299E+03   -0.48762E-03   -0.61199E-03  1582   0.226E-01    0.650E-02
DAV:   3    -0.106681551651E+03    0.39648E-04   -0.98874E-05   882   0.343E-02
  27 F= -.10668155E+03 E0= -.10668155E+03  d E =-.883787E-03
       N       E                     dE             d eps       ncg     rms          rms(c)
DAV:   1    -0.106682423128E+03   -0.83183E-03   -0.81048E-02  1344   0.675E-01    0.135E-01
DAV:   2    -0.106682320613E+03    0.10252E-03   -0.18944E-03  1596   0.190E-01    0.607E-02
DAV:   3    -0.106682314870E+03    0.57431E-05   -0.97751E-05   742   0.331E-02
  28 F= -.10668231E+03 E0= -.10668231E+03  d E =-.763219E-03
       N       E                     dE             d eps       ncg     rms          rms(c)
DAV:   1    -0.106683521712E+03   -0.12011E-02   -0.44913E-01  1344   0.159E+00    0.323E-01
DAV:   2    -0.106683020763E+03    0.50095E-03   -0.11067E-02  1596   0.454E-01    0.144E-01
DAV:   3    -0.106682982276E+03    0.38487E-04   -0.60658E-04  1456   0.787E-02
  29 F= -.10668298E+03 E0= -.10668298E+03  d E =-.143063E-02
       N       E                     dE             d eps       ncg     rms          rms(c)
DAV:   1    -0.106683380261E+03   -0.35950E-03   -0.13285E-01  1344   0.855E-01    0.147E-01
DAV:   2    -0.106683231508E+03    0.14875E-03   -0.26905E-03  1596   0.220E-01    0.865E-02
DAV:   3    -0.106683208571E+03    0.22937E-04   -0.11788E-04   756   0.375E-02
  30 F= -.10668321E+03 E0= -.10668321E+03  d E =-.226295E-03
       N       E                     dE             d eps       ncg     rms          rms(c)
DAV:   1    -0.106683201349E+03    0.30159E-04   -0.14414E-03  1260   0.901E-02    0.314E-02
DAV:   2    -0.106683206027E+03   -0.46785E-05   -0.37213E-05   672   0.213E-02
  31 F= -.10668321E+03 E0= -.10668321E+03  d E =-.223752E-03
       N       E                     dE             d eps       ncg     rms          rms(c)
DAV:   1    -0.106683472063E+03   -0.27071E-03   -0.40481E-02  1344   0.453E-01    0.475E-02
DAV:   2    -0.106683518343E+03   -0.46280E-04   -0.55617E-04  1484   0.710E-02
  32 F= -.10668352E+03 E0= -.10668352E+03  d E =-.312316E-03
       N       E                     dE             d eps       ncg     rms          rms(c)
DAV:   1    -0.106683782775E+03   -0.31071E-03   -0.35150E-02  1344   0.422E-01    0.413E-02
DAV:   2    -0.106683818217E+03   -0.35442E-04   -0.45639E-04  1484   0.656E-02
  33 F= -.10668382E+03 E0= -.10668382E+03  d E =-.612190E-03
       N       E                     dE             d eps       ncg     rms          rms(c)
DAV:   1    -0.106684245637E+03   -0.46286E-03   -0.13957E-01  1344   0.840E-01    0.809E-02
DAV:   2    -0.106684392881E+03   -0.14724E-03   -0.18500E-03  1610   0.131E-01    0.504E-02
DAV:   3    -0.106684384173E+03    0.87078E-05   -0.39354E-05   714   0.213E-02
  34 F= -.10668438E+03 E0= -.10668438E+03  d E =-.117815E-02
       N       E                     dE             d eps       ncg     rms          rms(c)
DAV:   1    -0.106684373860E+03    0.19022E-04   -0.32569E-02  1344   0.405E-01    0.382E-02
DAV:   2    -0.106684401271E+03   -0.27412E-04   -0.38436E-04  1316   0.615E-02
  35 F= -.10668440E+03 E0= -.10668440E+03  d E =-.119524E-02
       N       E                     dE             d eps       ncg     rms          rms(c)
DAV:   1    -0.106685155132E+03   -0.78127E-03   -0.12252E-01  1344   0.795E-01    0.107E-01
DAV:   2    -0.106685202919E+03   -0.47788E-04   -0.18749E-03  1638   0.149E-01    0.532E-02
DAV:   3    -0.106685179680E+03    0.23239E-04   -0.69078E-05   700   0.311E-02
  36 F= -.10668518E+03 E0= -.10668518E+03  d E =-.778408E-03
       N       E                     dE             d eps       ncg     rms          rms(c)
DAV:   1    -0.106686040760E+03   -0.83784E-03   -0.10958E+00  1344   0.238E+00    0.324E-01
DAV:   2    -0.106686486868E+03   -0.44611E-03   -0.16585E-02  1610   0.444E-01    0.147E-01
DAV:   3    -0.106686314718E+03    0.17215E-03   -0.70948E-04  1554   0.953E-02    0.873E-02
DAV:   4    -0.106686209570E+03    0.10515E-03   -0.13712E-04   826   0.336E-02    0.522E-02
DAV:   5    -0.106686177726E+03    0.31844E-04   -0.11121E-04   700   0.313E-02
  37 F= -.10668618E+03 E0= -.10668618E+03  d E =-.177645E-02
       N       E                     dE             d eps       ncg     rms          rms(c)
DAV:   1    -0.106686397485E+03   -0.18791E-03   -0.87579E-02  1344   0.663E-01    0.770E-02
DAV:   2    -0.106686456008E+03   -0.58523E-04   -0.10337E-03  1596   0.992E-02    0.275E-02
DAV:   3    -0.106686444943E+03    0.11064E-04   -0.23068E-05   672   0.156E-02
  38 F= -.10668644E+03 E0= -.10668644E+03  d E =-.267218E-03
       N       E                     dE             d eps       ncg     rms          rms(c)
DAV:   1    -0.106686458619E+03   -0.26112E-05   -0.13219E-02  1260   0.257E-01    0.259E-02
DAV:   2    -0.106686463777E+03   -0.51580E-05   -0.12313E-04   672   0.374E-02
  39 F= -.10668646E+03 E0= -.10668646E+03  d E =-.286051E-03
       N       E                     dE             d eps       ncg     rms          rms(c)
DAV:   1    -0.106687368244E+03   -0.90963E-03   -0.91782E-02  1344   0.694E-01    0.106E-01
DAV:   2    -0.106687317762E+03    0.50482E-04   -0.13861E-03  1540   0.156E-01    0.484E-02
DAV:   3    -0.106687306492E+03    0.11270E-04   -0.58008E-05   686   0.272E-02
  40 F= -.10668731E+03 E0= -.10668731E+03  d E =-.842715E-03
       N       E                     dE             d eps       ncg     rms          rms(c)
DAV:   1    -0.106688905730E+03   -0.15880E-02   -0.47753E-01  1344   0.158E+00    0.238E-01
DAV:   2    -0.106688667925E+03    0.23780E-03   -0.72852E-03  1610   0.357E-01    0.111E-01
DAV:   3    -0.106688613156E+03    0.54769E-04   -0.32574E-04  1134   0.624E-02
  41 F= -.10668861E+03 E0= -.10668861E+03  d E =-.214938E-02
       N       E                     dE             d eps       ncg     rms          rms(c)
DAV:   1    -0.106690585401E+03   -0.19175E-02   -0.19069E+00  1344   0.316E+00    0.477E-01
DAV:   2    -0.106689628421E+03    0.95698E-03   -0.29405E-02  1610   0.714E-01    0.225E-01
DAV:   3    -0.106689399627E+03    0.22879E-03   -0.13634E-03  1540   0.126E-01    0.128E-01
DAV:   4    -0.106689211428E+03    0.18820E-03   -0.34126E-04  1330   0.484E-02    0.675E-02
DAV:   5    -0.106689201717E+03    0.97116E-05   -0.10849E-04   686   0.282E-02
  42 F= -.10668920E+03 E0= -.10668920E+03  d E =-.273794E-02
       N       E                     dE             d eps       ncg     rms          rms(c)
DAV:   1    -0.106689902512E+03   -0.69108E-03   -0.14982E-01  1344   0.886E-01    0.123E-01
DAV:   2    -0.106689799400E+03    0.10311E-03   -0.22205E-03  1610   0.203E-01    0.666E-02
DAV:   3    -0.106689787071E+03    0.12329E-04   -0.10226E-04   686   0.353E-02
  43 F= -.10668979E+03 E0= -.10668979E+03  d E =-.585354E-03
       N       E                     dE             d eps       ncg     rms          rms(c)
DAV:   1    -0.106690095555E+03   -0.29616E-03   -0.10992E-01  1344   0.759E-01    0.103E-01
DAV:   2    -0.106690001660E+03    0.93895E-04   -0.16313E-03  1596   0.175E-01    0.595E-02
DAV:   3    -0.106689990268E+03    0.11392E-04   -0.74879E-05   686   0.297E-02
  44 F= -.10668999E+03 E0= -.10668999E+03  d E =-.788552E-03
       N       E                     dE             d eps       ncg     rms          rms(c)
DAV:   1    -0.106689682332E+03    0.31933E-03   -0.43862E-01  1344   0.152E+00    0.211E-01
DAV:   2    -0.106689352091E+03    0.33024E-03   -0.65265E-03  1610   0.348E-01    0.110E-01
DAV:   3    -0.106689308179E+03    0.43913E-04   -0.31747E-04  1078   0.598E-02
  45 F= -.10668931E+03 E0= -.10668931E+03  d E =-.106462E-03
       N       E                     dE             d eps       ncg     rms          rms(c)
DAV:   1    -0.106689965894E+03   -0.61380E-03   -0.15901E-01  1344   0.914E-01    0.143E-01
DAV:   2    -0.106689906574E+03    0.59320E-04   -0.23375E-03  1596   0.206E-01    0.537E-02
DAV:   3    -0.106689893183E+03    0.13391E-04   -0.10105E-04   672   0.364E-02
  46 F= -.10668989E+03 E0= -.10668989E+03  d E =-.691466E-03
       N       E                     dE             d eps       ncg     rms          rms(c)
DAV:   1    -0.106690007379E+03   -0.10080E-03   -0.16615E-02  1344   0.296E-01    0.409E-02
DAV:   2    -0.106689991137E+03    0.16242E-04   -0.24167E-04  1008   0.687E-02
  47 F= -.10668999E+03 E0= -.10668999E+03  d E =-.789421E-03
       N       E                     dE             d eps       ncg     rms          rms(c)
DAV:   1    -0.106690019783E+03   -0.12404E-04   -0.47840E-03  1372   0.159E-01    0.239E-02
DAV:   2    -0.106690010293E+03    0.94897E-05   -0.72846E-05   672   0.366E-02
  48 F= -.10669001E+03 E0= -.10669001E+03  d E =-.808577E-03
       N       E                     dE             d eps       ncg     rms          rms(c)
DAV:   1    -0.106691145926E+03   -0.11261E-02   -0.74801E-02  1344   0.621E-01    0.788E-02
DAV:   2    -0.106691191338E+03   -0.45412E-04   -0.99662E-04  1596   0.104E-01
  49 F= -.10669119E+03 E0= -.10669119E+03  d E =-.118104E-02
       N       E                     dE             d eps       ncg     rms          rms(c)
DAV:   1    -0.106691808266E+03   -0.66234E-03   -0.62540E-02  1344   0.568E-01    0.730E-02
DAV:   2    -0.106691824729E+03   -0.16462E-04   -0.82785E-04  1596   0.957E-02
  50 F= -.10669182E+03 E0= -.10669182E+03  d E =-.181444E-02
       N       E                     dE             d eps       ncg     rms          rms(c)
DAV:   1    -0.106692706730E+03   -0.89846E-03   -0.24792E-01  1344   0.113E+00    0.142E-01
DAV:   2    -0.106692805580E+03   -0.98849E-04   -0.32713E-03  1610   0.189E-01    0.672E-02
DAV:   3    -0.106692771481E+03    0.34099E-04   -0.11159E-04   840   0.360E-02
  51 F= -.10669277E+03 E0= -.10669277E+03  d E =-.276119E-02
       N       E                     dE             d eps       ncg     rms          rms(c)
DAV:   1    -0.106692149628E+03    0.65595E-03   -0.98510E-01  1344   0.225E+00    0.277E-01
DAV:   2    -0.106692672747E+03   -0.52312E-03   -0.12936E-02  1610   0.373E-01    0.123E-01
DAV:   3    -0.106692581925E+03    0.90822E-04   -0.50183E-04  1526   0.706E-02
  52 F= -.10669258E+03 E0= -.10669258E+03  d E =-.257163E-02
       N       E                     dE             d eps       ncg     rms          rms(c)
DAV:   1    -0.106692783186E+03   -0.11044E-03   -0.41593E-01  1344   0.147E+00    0.191E-01
DAV:   2    -0.106693130826E+03   -0.34764E-03   -0.57563E-03  1610   0.249E-01    0.659E-02
DAV:   3    -0.106693114281E+03    0.16545E-04   -0.17595E-04   812   0.465E-02
  53 F= -.10669311E+03 E0= -.10669311E+03  d E =-.310399E-02
       N       E                     dE             d eps       ncg     rms          rms(c)
DAV:   1    -0.106694159954E+03   -0.10291E-02   -0.28024E-02  1344   0.400E-01    0.978E-02
DAV:   2    -0.106694195413E+03   -0.35459E-04   -0.84517E-04  1526   0.791E-02
  54 F= -.10669420E+03 E0= -.10669420E+03  d E =-.108113E-02
       N       E                     dE             d eps       ncg     rms          rms(c)
DAV:   1    -0.106695268335E+03   -0.11084E-02   -0.25394E-01  1344   0.120E+00    0.288E-01
DAV:   2    -0.106695412954E+03   -0.14462E-03   -0.70194E-03  1652   0.232E-01    0.947E-02
DAV:   3    -0.106695253724E+03    0.15923E-03   -0.21208E-04   994   0.478E-02    0.568E-02
DAV:   4    -0.106695190297E+03    0.63428E-04   -0.20409E-04   742   0.421E-02
  55 F= -.10669519E+03 E0= -.10669519E+03  d E =-.207602E-02
       N       E                     dE             d eps       ncg     rms          rms(c)
DAV:   1    -0.106695312238E+03   -0.58514E-04   -0.22329E-02  1344   0.356E-01    0.779E-02
DAV:   2    -0.106695331552E+03   -0.19314E-04   -0.62362E-04  1456   0.696E-02
  56 F= -.10669533E+03 E0= -.10669533E+03  d E =-.221727E-02
       N       E                     dE             d eps       ncg     rms          rms(c)
DAV:   1    -0.106695379309E+03   -0.67071E-04   -0.40449E-03  1344   0.153E-01    0.456E-02
DAV:   2    -0.106695388757E+03   -0.94473E-05   -0.12348E-04   672   0.308E-02
  57 F= -.10669539E+03 E0= -.10669539E+03  d E =-.227448E-02
       N       E                     dE             d eps       ncg     rms          rms(c)
DAV:   1    -0.106695985136E+03   -0.60583E-03   -0.22137E-02  1344   0.367E-01    0.937E-02
DAV:   2    -0.106695950358E+03    0.34778E-04   -0.85071E-04  1526   0.120E-01
  58 F= -.10669595E+03 E0= -.10669595E+03  d E =-.561601E-03
       N       E                     dE             d eps       ncg     rms          rms(c)
DAV:   1    -0.106696040398E+03   -0.55262E-04   -0.45004E-03  1372   0.168E-01    0.433E-02
DAV:   2    -0.106696015797E+03    0.24601E-04   -0.16305E-04   686   0.530E-02
  59 F= -.10669602E+03 E0= -.10669602E+03  d E =-.627041E-03
       N       E                     dE             d eps       ncg     rms          rms(c)
DAV:   1    -0.106696605465E+03   -0.56507E-03   -0.57181E-03  1470   0.221E-01    0.778E-02
DAV:   2    -0.106696532102E+03    0.73363E-04   -0.43396E-04  1414   0.968E-02
  60 F= -.10669653E+03 E0= -.10669653E+03  d E =-.516305E-03
       N       E                     dE             d eps       ncg     rms          rms(c)
DAV:   1    -0.106696808123E+03   -0.20266E-03   -0.38453E-03  1442   0.181E-01    0.671E-02
DAV:   2    -0.106696740908E+03    0.67215E-04   -0.28162E-04  1176   0.773E-02
  61 F= -.10669674E+03 E0= -.10669674E+03  d E =-.725111E-03
       N       E                     dE             d eps       ncg     rms          rms(c)
DAV:   1    -0.106696818118E+03   -0.99944E-05   -0.15375E-02  1414   0.360E-01    0.131E-01
DAV:   2    -0.106696613221E+03    0.20490E-03   -0.11488E-03  1596   0.158E-01    0.649E-02
DAV:   3    -0.106696574692E+03    0.38529E-04   -0.75600E-05   798   0.264E-02
  62 F= -.10669657E+03 E0= -.10669657E+03  d E =-.558894E-03
       N       E                     dE             d eps       ncg     rms          rms(c)
DAV:   1    -0.106696690057E+03   -0.76836E-04   -0.27573E-03  1358   0.144E-01    0.567E-02
DAV:   2    -0.106696668059E+03    0.21998E-04   -0.16433E-04   700   0.565E-02
  63 F= -.10669667E+03 E0= -.10669667E+03  d E =-.652262E-03
       N       E                     dE             d eps       ncg     rms          rms(c)
DAV:   1    -0.106696770985E+03   -0.80927E-04   -0.14062E-03  1512   0.111E-01    0.432E-02
DAV:   2    -0.106696748685E+03    0.22299E-04   -0.10441E-04   672   0.478E-02
  64 F= -.10669675E+03 E0= -.10669675E+03  d E =-.732888E-03
       N       E                     dE             d eps       ncg     rms          rms(c)
DAV:   1    -0.106696744325E+03    0.26660E-04   -0.33496E-04  1050   0.555E-02    0.203E-02
DAV:   2    -0.106696737719E+03    0.66058E-05   -0.31665E-05   672   0.252E-02
  65 F= -.10669674E+03 E0= -.10669674E+03  d E =-.721921E-03
