 vasp.5.4.4.18Apr17-6-g9f103f2a35 (build Oct 27 2022 13:04:57) complex          
  
 executed on             LinuxIFC date 2024.06.30  17:38:31
 running on   14 total cores
 distrk:  each k-point on   14 cores,    1 groups
 distr:  one band on NCORES_PER_BAND=   1 cores,   14 groups


--------------------------------------------------------------------------------------------------------


 INCAR:
 POTCAR:    PAW_PBE Ag 02Apr2005                  
 POTCAR:    PAW_PBE Sb 06Sep2000                  
 POTCAR:    PAW_PBE S 06Sep2000                   

 ----------------------------------------------------------------------------- 
|                                                                             |
|           W    W    AA    RRRRR   N    N  II  N    N   GGGG   !!!           |
|           W    W   A  A   R    R  NN   N  II  NN   N  G    G  !!!           |
|           W    W  A    A  R    R  N N  N  II  N N  N  G       !!!           |
|           W WW W  AAAAAA  RRRRR   N  N N  II  N  N N  G  GGG   !            |
|           WW  WW  A    A  R   R   N   NN  II  N   NN  G    G                |
|           W    W  A    A  R    R  N    N  II  N    N   GGGG   !!!           |
|                                                                             |
|      For optimal performance we recommend to set                            |
|        NCORE= 4 - approx SQRT( number of cores)                             |
|      NCORE specifies how many cores store one orbital (NPAR=cpu/NCORE).     |
|      This setting can  greatly improve the performance of VASP for DFT.     |
|      The default,   NCORE=1            might be grossly inefficient         |
|      on modern multi-core architectures or massively parallel machines.     |
|      Do your own testing !!!!                                               |
|      Unfortunately you need to use the default for GW and RPA calculations. |
|      (for HF NCORE is supported but not extensively tested yet)             |
|                                                                             |
 ----------------------------------------------------------------------------- 

 POTCAR:    PAW_PBE Ag 02Apr2005                  
   VRHFIN =Ag : s1 d10                                                          
   LEXCH  = PE                                                                  
   EATOM  =  1037.2675 eV,   76.2370 Ry                                         
                                                                                
   TITEL  = PAW_PBE Ag 02Apr2005                                                
   LULTRA =        F    use ultrasoft PP ?                                      
   IUNSCR =        1    unscreen: 0-lin 1-nonlin 2-no                           
   RPACOR =    2.000    partial core radius                                     
   POMASS =  107.868; ZVAL   =   11.000    mass and valenz                      
   RCORE  =    2.500    outmost cutoff radius                                   
   RWIGS  =    2.840; RWIGS  =    1.503    wigner-seitz radius (au A)           
   ENMAX  =  249.844; ENMIN  =  187.383 eV                                      
   ICORE  =        3    local potential                                         
   LCOR   =        T    correct aug charges                                     
   LPAW   =        T    paw PP                                                  
   EAUG   =  412.496                                                            
   DEXC   =    0.000                                                            
   RMAX   =    2.560    core radius for proj-oper                               
   RAUG   =    1.300    factor for augmentation sphere                          
   RDEP   =    2.576    radius for radial grids                                 
   RDEPT  =    2.072    core radius for aug-charge                              
                                                                                
   Atomic configuration                                                         
   12 entries                                                                   
     n  l   j            E        occ.                                          
     1  0  0.50    -25324.9161   2.0000                                         
     2  0  0.50     -3728.5341   2.0000                                         
     2  1  1.50     -3344.0404   6.0000                                         
     3  0  0.50      -683.5581   2.0000                                         
     3  1  1.50      -557.3225   6.0000                                         
     3  2  2.50      -358.3853  10.0000                                         
     4  0  0.50       -95.0341   2.0000                                         
     4  1  1.50       -58.5511   6.0000                                         
     4  2  2.50        -7.4440  10.0000                                         
     5  0  0.50        -4.4045   1.0000                                         
     5  1  0.50        -1.3606   0.0000                                         
     4  3  2.50        -1.3606   0.0000                                         
   Description                                                                  
     l       E           TYP  RCUT    TYP  RCUT                                 
     2     -7.4439781     23  2.400                                             
     2     -8.8045607     23  2.400                                             
     0     -4.4044681     23  2.400                                             
     0      1.9520038     23  2.400                                             
     1     -1.3605826     23  2.500                                             
     1     27.2116520     23  2.500                                             
     3     -4.0817478     23  2.400                                             
  local pseudopotential read in
  partial core-charges read in
  partial kinetic energy density read in
  atomic valenz-charges read in
  non local Contribution for L=           2  read in
    real space projection operators read in
  non local Contribution for L=           2  read in
    real space projection operators read in
  non local Contribution for L=           0  read in
    real space projection operators read in
  non local Contribution for L=           0  read in
    real space projection operators read in
  non local Contribution for L=           1  read in
    real space projection operators read in
  non local Contribution for L=           1  read in
    real space projection operators read in
    PAW grid and wavefunctions read in
 
   number of l-projection  operators is LMAX  =           6
   number of lm-projection operators is LMMAX =          18
 
 POTCAR:    PAW_PBE Sb 06Sep2000                  
   VRHFIN =Sb: s2p3                                                             
   LEXCH  = PE                                                                  
   EATOM  =   149.9515 eV,   11.0211 Ry                                         
                                                                                
   TITEL  = PAW_PBE Sb 06Sep2000                                                
   LULTRA =        F    use ultrasoft PP ?                                      
   IUNSCR =        1    unscreen: 0-lin 1-nonlin 2-no                           
   RPACOR =    2.200    partial core radius                                     
   POMASS =  121.750; ZVAL   =    5.000    mass and valenz                      
   RCORE  =    2.300    outmost cutoff radius                                   
   RWIGS  =    2.980; RWIGS  =    1.577    wigner-seitz radius (au A)           
   ENMAX  =  172.069; ENMIN  =  129.052 eV                                      
   ICORE  =        3    local potential                                         
   LCOR   =        T    correct aug charges                                     
   LPAW   =        T    paw PP                                                  
   EAUG   =  380.513                                                            
   DEXC   =    0.000                                                            
   RMAX   =    2.346    core radius for proj-oper                               
   RAUG   =    1.300    factor for augmentation sphere                          
   RDEP   =    2.360    radius for radial grids                                 
   RDEPT  =    2.192    core radius for aug-charge                              
                                                                                
   Atomic configuration                                                         
   13 entries                                                                   
     n  l   j            E        occ.                                          
     1  0  0.50    -30298.2797   2.0000                                         
     2  0  0.50     -4610.2252   2.0000                                         
     2  1  1.50     -4138.3407   6.0000                                         
     3  0  0.50      -903.8815   2.0000                                         
     3  1  1.50      -750.1337   6.0000                                         
     3  2  2.50      -515.7092  10.0000                                         
     4  0  0.50      -148.8034   2.0000                                         
     4  1  1.50      -101.7581   6.0000                                         
     4  2  2.50       -33.5048  10.0000                                         
     5  0  0.50       -12.8298   2.0000                                         
     5  1  0.50        -4.8276   3.0000                                         
     5  2  1.50        -4.0817   0.0000                                         
     4  3  2.50        -4.0817   0.0000                                         
   Description                                                                  
     l       E           TYP  RCUT    TYP  RCUT                                 
     0    -12.8297861     23  2.300                                             
     0     13.6058260     23  2.300                                             
     1     -4.8275512     23  2.300                                             
     1     -0.7245443     23  2.300                                             
     2     -4.0817478     23  2.300                                             
     3     -1.3605826     23  2.300                                             
  local pseudopotential read in
  partial core-charges read in
  partial kinetic energy density read in
  atomic valenz-charges read in
  non local Contribution for L=           0  read in
    real space projection operators read in
  non local Contribution for L=           0  read in
    real space projection operators read in
  non local Contribution for L=           1  read in
    real space projection operators read in
  non local Contribution for L=           1  read in
    real space projection operators read in
  non local Contribution for L=           2  read in
    real space projection operators read in
    PAW grid and wavefunctions read in
 
   number of l-projection  operators is LMAX  =           5
   number of lm-projection operators is LMMAX =          13
 
 POTCAR:    PAW_PBE S 06Sep2000                   
   VRHFIN =S : s2p4                                                             
   LEXCH  = PE                                                                  
   EATOM  =   276.8230 eV,   20.3459 Ry                                         
                                                                                
   TITEL  = PAW_PBE S 06Sep2000                                                 
   LULTRA =        F    use ultrasoft PP ?                                      
   IUNSCR =        1    unscreen: 0-lin 1-nonlin 2-no                           
   RPACOR =    1.500    partial core radius                                     
   POMASS =   32.066; ZVAL   =    6.000    mass and valenz                      
   RCORE  =    1.900    outmost cutoff radius                                   
   RWIGS  =    2.200; RWIGS  =    1.164    wigner-seitz radius (au A)           
   ENMAX  =  258.689; ENMIN  =  194.016 eV                                      
   ICORE  =        2    local potential                                         
   LCOR   =        T    correct aug charges                                     
   LPAW   =        T    paw PP                                                  
   EAUG   =  335.092                                                            
   DEXC   =    0.000                                                            
   RMAX   =    1.942    core radius for proj-oper                               
   RAUG   =    1.300    factor for augmentation sphere                          
   RDEP   =    1.954    radius for radial grids                                 
   RDEPT  =    1.744    core radius for aug-charge                              
                                                                                
   Atomic configuration                                                         
    6 entries                                                                   
     n  l   j            E        occ.                                          
     1  0  0.50     -2405.8406   2.0000                                         
     2  0  0.50      -211.7007   2.0000                                         
     2  1  1.50      -156.4958   6.0000                                         
     3  0  0.50       -17.2562   2.0000                                         
     3  1  0.50        -7.0085   4.0000                                         
     3  2  1.50        -6.8029   0.0000                                         
   Description                                                                  
     l       E           TYP  RCUT    TYP  RCUT                                 
     0    -17.2561641     23  1.900                                             
     0    -15.8743224     23  1.900                                             
     1     -7.0085400     23  1.900                                             
     1     -2.7779785     23  1.900                                             
     2     -6.8029130     23  1.900                                             
  local pseudopotential read in
  partial core-charges read in
  partial kinetic energy density read in
  atomic valenz-charges read in
  non local Contribution for L=           0  read in
    real space projection operators read in
  non local Contribution for L=           0  read in
    real space projection operators read in
  non local Contribution for L=           1  read in
    real space projection operators read in
  non local Contribution for L=           1  read in
    real space projection operators read in
    PAW grid and wavefunctions read in
 
   number of l-projection  operators is LMAX  =           4
   number of lm-projection operators is LMMAX =           8
 
 Optimization of the real space projectors (new method)

 maximal supplied QI-value         = 15.12
 optimisation between [QCUT,QGAM] = [  8.77, 17.69] = [ 21.53, 87.61] Ry 
 Optimized for a Real-space Cutoff    1.46 Angstroem

   l    n(q)    QCUT    max X(q) W(low)/X(q) W(high)/X(q)  e(spline) 
   2      7     8.768    53.897    0.18E-02    0.11E-02    0.15E-06
   2      7     8.768    52.416    0.19E-02    0.12E-02    0.16E-06
   0      8     8.768   122.045    0.58E-03    0.25E-03    0.70E-07
   0      8     8.768    73.629    0.56E-03    0.24E-03    0.68E-07
   1      7     8.768    15.255    0.31E-03    0.18E-03    0.57E-07
   1      7     8.768     9.562    0.25E-03    0.16E-03    0.48E-07
 Optimization of the real space projectors (new method)

 maximal supplied QI-value         = 16.25
 optimisation between [QCUT,QGAM] = [  8.78, 17.71] = [ 21.57, 87.87] Ry 
 Optimized for a Real-space Cutoff    1.26 Angstroem

   l    n(q)    QCUT    max X(q) W(low)/X(q) W(high)/X(q)  e(spline) 
   0      7     8.776    19.000    0.12E-02    0.42E-03    0.95E-07
   0      7     8.776     9.057    0.14E-02    0.54E-03    0.11E-06
   1      6     8.776   125.345    0.45E-03    0.22E-02    0.77E-07
   1      6     8.776    79.963    0.45E-03    0.21E-02    0.76E-07
   2      6     8.776     6.963    0.11E-02    0.51E-03    0.39E-07
 Optimization of the real space projectors (new method)

 maximal supplied QI-value         = 19.84
 optimisation between [QCUT,QGAM] = [  8.73, 17.66] = [ 21.34, 87.33] Ry 
 Optimized for a Real-space Cutoff    1.22 Angstroem

   l    n(q)    QCUT    max X(q) W(low)/X(q) W(high)/X(q)  e(spline) 
   0      6     8.731   187.594    0.15E-02    0.56E-03    0.90E-07
   0      6     8.731   164.243    0.15E-02    0.56E-03    0.89E-07
   1      6     8.731    67.533    0.37E-03    0.20E-02    0.11E-06
   1      6     8.731    50.729    0.36E-03    0.19E-02    0.10E-06
  PAW_PBE Ag 02Apr2005                  :
 energy of atom  1       EATOM=-1037.2675
 kinetic energy error for atom=    0.0535 (will be added to EATOM!!)
  PAW_PBE Sb 06Sep2000                  :
 energy of atom  2       EATOM= -149.9515
 kinetic energy error for atom=    0.0018 (will be added to EATOM!!)
  PAW_PBE S 06Sep2000                   :
 energy of atom  3       EATOM= -276.8230
 kinetic energy error for atom=    0.0077 (will be added to EATOM!!)
 
 
 POSCAR: Ag4 Sb8 S14                             
  positions in direct lattice
  velocities in cartesian coordinates
 exchange correlation table for  LEXCH =        8
   RHO(1)=    0.500       N(1)  =     2000
   RHO(2)=  100.500       N(2)  =     4000
 


--------------------------------------------------------------------------------------------------------


 ion  position               nearest neighbor table
   1  0.091  0.572  0.211-  21 2.52  26 2.54  25 2.65  18 2.71
   2  0.428  0.909  0.289-  14 2.52  22 2.54  13 2.65  18 2.71
   3  0.909  0.428  0.789-  19 2.52  23 2.54  16 2.65  17 2.71
   4  0.572  0.091  0.711-  20 2.52  24 2.54  15 2.65  17 2.71
   5  0.653  0.691  0.024-  26 2.48  25 2.52  14 2.71  23 2.79  10 3.68
   6  0.691  0.653  0.524-  24 2.48  15 2.52  19 2.71  22 2.79  11 3.68
   7  0.347  0.309  0.976-  23 2.48  16 2.52  20 2.71  26 2.79  12 3.68
   8  0.309  0.347  0.476-  22 2.48  13 2.52  21 2.71  24 2.79   9 3.68
   9  0.119  0.904  0.606-  15 2.49  19 2.49  17 2.55  22 3.15   8 3.68
  10  0.096  0.881  0.894-  16 2.49  20 2.49  17 2.55  26 3.15   5 3.68
  11  0.881  0.096  0.394-  13 2.49  21 2.49  18 2.55  24 3.15   6 3.68
  12  0.904  0.119  0.106-  25 2.49  14 2.49  18 2.55  23 3.15   7 3.68
  13  0.537  0.222  0.343-  11 2.49   8 2.52   2 2.65
  14  0.575  0.987  0.132-  12 2.49   2 2.52   5 2.71
  15  0.463  0.778  0.657-   9 2.49   6 2.52   4 2.65
  16  0.222  0.537  0.843-  10 2.49   7 2.52   3 2.65
  17  0.961  0.039  0.750-   9 2.55  10 2.55   3 2.71   4 2.71
  18  0.039  0.961  0.250-  11 2.55  12 2.55   1 2.71   2 2.71
  19  0.987  0.575  0.632-   9 2.49   3 2.52   6 2.71
  20  0.425  0.013  0.868-  10 2.49   4 2.52   7 2.71
  21  0.013  0.425  0.368-  11 2.49   1 2.52   8 2.71
  22  0.345  0.712  0.438-   8 2.48   2 2.54   6 2.79   9 3.15
  23  0.712  0.345  0.938-   7 2.48   3 2.54   5 2.79  12 3.15
  24  0.655  0.288  0.562-   6 2.48   4 2.54   8 2.79  11 3.15
  25  0.778  0.463  0.157-  12 2.49   5 2.52   1 2.65
  26  0.288  0.655  0.062-   5 2.48   1 2.54   7 2.79  10 3.15
 
  LATTYP: Found a base centered monoclinic cell.
 ALAT       =    10.3901872339
 B/A-ratio  =     0.8150595290
 C/A-ratio  =     2.7216994866
 COS(beta)  =    -0.6513102594
  
  Lattice vectors:
  
 A1 = (  -4.2343105567,   5.1880453460,   0.2705238929)
 A2 = (   4.2343105567,   5.1880453460,   0.2705238929)
 A3 = (   0.0000000000, -22.9306254003, -16.5495138313)


Analysis of symmetry for initial positions (statically):
=====================================================================
 Subroutine PRICEL returns:
 Original cell was already a primitive cell.
 

 Routine SETGRP: Setting up the symmetry group for a 
 base centered monoclinic supercell.


 Subroutine GETGRP returns: Found  4 space group operations
 (whereof  2 operations were pure point group operations)
 out of a pool of  4 trial point group operations.


The static configuration has the point symmetry S_2 .
 The point group associated with its full space group is C_2h.


Analysis of symmetry for dynamics (positions and initial velocities):
=====================================================================
 Subroutine PRICEL returns:
 Original cell was already a primitive cell.
 

 Routine SETGRP: Setting up the symmetry group for a 
 base centered monoclinic supercell.


 Subroutine GETGRP returns: Found  4 space group operations
 (whereof  2 operations were pure point group operations)
 out of a pool of  4 trial point group operations.


The dynamic configuration has the point symmetry S_2 .
 The point group associated with its full space group is C_2h.


 Subroutine INISYM returns: Found  4 space group operations
 (whereof  2 operations are pure point group operations),
 and found     1 'primitive' translations

 
 
 KPOINTS: pymatgen with grid density = 807 / numbe

Automatic generation of k-mesh.
Space group operators:
 irot       det(A)        alpha          n_x          n_y          n_z        tau_x        tau_y        tau_z
    1     1.000000     0.000001     1.000000     0.000000     0.000000     0.000000     0.000000     0.000000
    2    -1.000000     0.000001     1.000000     0.000000     0.000000     0.000000     0.000000     0.000000
    3     1.000000   180.000000     1.000000     0.000000     0.000000    -1.000000    -1.000000    -0.500000
    4    -1.000000   180.000000     1.000000     0.000000     0.000000    -1.000000    -1.000000    -0.500000
 
 Subroutine IBZKPT returns following result:
 ===========================================
 
 Found      6 irreducible k-points:
 
 Following reciprocal coordinates:
            Coordinates               Weight
 -0.000000 -0.000000  0.250000      2.000000
  0.333333 -0.000000  0.250000      4.000000
 -0.333333 -0.000000  0.250000      4.000000
  0.333333  0.333333  0.250000      2.000000
 -0.333333  0.333333  0.250000      4.000000
 -0.333333 -0.333333  0.250000      2.000000
 
 Following cartesian coordinates:
            Coordinates               Weight
  0.000000 -0.000849  0.016283      2.000000
  0.039361  0.031514  0.011725      4.000000
 -0.039361 -0.033212  0.020841      4.000000
  0.000000  0.063877  0.007167      2.000000
 -0.078722 -0.000849  0.016283      4.000000
  0.000000 -0.065575  0.025399      2.000000
 


--------------------------------------------------------------------------------------------------------




 Dimension of arrays:
   k-points           NKPTS =      6   k-points in BZ     NKDIM =      6   number of bands    NBANDS=    112
   number of dos      NEDOS =    301   number of ions     NIONS =     26
   non local maximal  LDIM  =      6   non local SUM 2l+1 LMDIM =     18
   total plane-waves  NPLWV =  54880
   max r-space proj   IRMAX =   1107   max aug-charges    IRDMAX=   2758
   dimension x,y,z NGX =    28 NGY =   28 NGZ =   70
   dimension x,y,z NGXF=    48 NGYF=   48 NGZF=  108
   support grid    NGXF=    48 NGYF=   48 NGZF=  108
   ions per type =               4   8  14
   NGX,Y,Z   is equivalent  to a cutoff of   6.95,  6.95,  7.45 a.u.
   NGXF,Y,Z  is equivalent  to a cutoff of  11.91, 11.91, 11.49 a.u.

 SYSTEM =  CIS                                     
 POSCAR =  Ag4 Sb8 S14                             

 Startparameter for this run:
   NWRITE =      2    write-flag & timer
   PREC   = medium    normal or accurate (medium, high low for compatibility)
   ISTART =      0    job   : 0-new  1-cont  2-samecut
   ICHARG =      2    charge: 1-file 2-atom 10-const
   ISPIN  =      1    spin polarized calculation?
   LNONCOLLINEAR =      F non collinear calculations
   LSORBIT =      F    spin-orbit coupling
   INIWAV =      1    electr: 0-lowe 1-rand  2-diag
   LASPH  =      T    aspherical Exc in radial PAW
   METAGGA=      F    non-selfconsistent MetaGGA calc.

 Electronic Relaxation 1
   ENCUT  =  300.0 eV  22.05 Ry    4.70 a.u.   9.47  9.47 22.06*2*pi/ulx,y,z
   ENINI  =  300.0     initial cutoff
   ENAUG  =  412.5 eV  augmentation charge cutoff
   NELM   =     60;   NELMIN=  2; NELMDL= -5     # of ELM steps 
   EDIFF  = 0.1E-03   stopping-criterion for ELM
   LREAL  =      T    real-space projection
   NLSPLINE    = F    spline interpolate recip. space projectors
   LCOMPAT=      F    compatible to vasp.4.4
   GGA_COMPAT  = T    GGA compatible to vasp.4.4-vasp.4.6
   LMAXPAW     = -100 max onsite density
   LMAXMIX     =    4 max onsite mixed and CHGCAR
   VOSKOWN=      0    Vosko Wilk Nusair interpolation
   ROPT   =   -0.00200  -0.00200  -0.00200
 Ionic relaxation
   EDIFFG = -.5E-01   stopping-criterion for IOM
   NSW    =     99    number of steps for IOM
   NBLOCK =      1;   KBLOCK =     99    inner block; outer block 
   IBRION =      2    ionic relax: 0-MD 1-quasi-New 2-CG
   NFREE  =      1    steps in history (QN), initial steepest desc. (CG)
   ISIF   =      3    stress and relaxation
   IWAVPR =     11    prediction:  0-non 1-charg 2-wave 3-comb
   ISYM   =      2    0-nonsym 1-usesym 2-fastsym
   LCORR  =      T    Harris-Foulkes like correction to forces

   POTIM  = 0.1000    time-step for ionic-motion
   TEIN   =    0.0    initial temperature
   TEBEG  =    0.0;   TEEND  =   0.0 temperature during run
   SMASS  =  -3.00    Nose mass-parameter (am)
   estimated Nose-frequenzy (Omega)   =  0.10E-29 period in steps =****** mass=  -0.103E-26a.u.
   SCALEE = 1.0000    scale energy and forces
   NPACO  =    256;   APACO  = 16.0  distance and # of slots for P.C.
   PSTRESS=    0.0 pullay stress

  Mass of Ions in am
   POMASS = 107.87121.75 32.07
  Ionic Valenz
   ZVAL   =  11.00  5.00  6.00
  Atomic Wigner-Seitz radii
   RWIGS  =  -1.00 -1.00 -1.00
  virtual crystal weights 
   VCA    =   1.00  1.00  1.00
   NELECT =     168.0000    total number of electrons
   NUPDOWN=      -1.0000    fix difference up-down

 DOS related values:
   EMIN   =  10.00;   EMAX   =-10.00  energy-range for DOS
   EFERMI =   0.00
   ISMEAR =     0;   SIGMA  =   0.05  broadening in eV -4-tet -1-fermi 0-gaus

 Electronic relaxation 2 (details)
   IALGO  =     38    algorithm
   LDIAG  =      T    sub-space diagonalisation (order eigenvalues)
   LSUBROT=      F    optimize rotation matrix (better conditioning)
   TURBO    =      0    0=normal 1=particle mesh
   IRESTART =      0    0=no restart 2=restart with 2 vectors
   NREBOOT  =      0    no. of reboots
   NMIN     =      0    reboot dimension
   EREF     =   0.00    reference energy to select bands
   IMIX   =      4    mixing-type and parameters
     AMIX     =   0.40;   BMIX     =  1.00
     AMIX_MAG =   1.60;   BMIX_MAG =  1.00
     AMIN     =   0.10
     WC   =   100.;   INIMIX=   1;  MIXPRE=   1;  MAXMIX= -45

 Intra band minimization:
   WEIMIN = 0.0010     energy-eigenvalue tresh-hold
   EBREAK =  0.22E-06  absolut break condition
   DEPER  =   0.30     relativ break condition  

   TIME   =   0.40     timestep for ELM

  volume/ion in A,a.u.               =      25.95       175.09
  Fermi-wavevector in a.u.,A,eV,Ry     =   1.029991  1.946401 14.434177  1.060882
  Thomas-Fermi vector in A             =   2.164067
 
 Write flags
   LWAVE        =      F    write WAVECAR
   LDOWNSAMPLE  =      F    k-point downsampling of WAVECAR
   LCHARG       =      F    write CHGCAR
   LVTOT        =      F    write LOCPOT, total local potential
   LVHAR        =      F    write LOCPOT, Hartree potential only
   LELF         =      F    write electronic localiz. function (ELF)
   LORBIT       =     10    0 simple, 1 ext, 2 COOP (PROOUT), +10 PAW based schemes


 Dipole corrections
   LMONO  =      F    monopole corrections only (constant potential shift)
   LDIPOL =      F    correct potential (dipole corrections)
   IDIPOL =      0    1-x, 2-y, 3-z, 4-all directions 
   EPSILON=  1.0000000 bulk dielectric constant

 Exchange correlation treatment:
   GGA     =    --    GGA type
   LEXCH   =     8    internal setting for exchange type
   VOSKOWN=      0    Vosko Wilk Nusair interpolation
   LHFCALC =     F    Hartree Fock is set to
   LHFONE  =     F    Hartree Fock one center treatment
   AEXX    =    0.0000 exact exchange contribution

 Linear response parameters
   LEPSILON=     F    determine dielectric tensor
   LRPA    =     F    only Hartree local field effects (RPA)
   LNABLA  =     F    use nabla operator in PAW spheres
   LVEL    =     F    velocity operator in full k-point grid
   LINTERFAST=   F  fast interpolation
   KINTER  =     0    interpolate to denser k-point grid
   CSHIFT  =0.1000    complex shift for real part using Kramers Kronig
   OMEGAMAX=  -1.0    maximum frequency
   DEG_THRESHOLD= 0.2000000E-02 threshold for treating states as degnerate
   RTIME   =   -0.100 relaxation time in fs
  (WPLASMAI=    0.000 imaginary part of plasma frequency in eV, 0.658/RTIME)
   DFIELD  = 0.0000000 0.0000000 0.0000000 field for delta impulse in time
 
 Orbital magnetization related:
   ORBITALMAG=     F  switch on orbital magnetization
   LCHIMAG   =     F  perturbation theory with respect to B field
   DQ        =  0.001000  dq finite difference perturbation B field
   LLRAUG    =     F  two centre corrections for induced B field



--------------------------------------------------------------------------------------------------------


 conjugate gradient relaxation of ions
 charge density and potential will be updated during run
 non-spin polarized calculation
 Variant of blocked Davidson
 Davidson routine will perform the subspace rotation
 perform sub-space diagonalisation
    after iterative eigenvector-optimisation
 modified Broyden-mixing scheme, WC =      100.0
 initial mixing is a Kerker type mixing with AMIX =  0.4000 and BMIX =      1.0000
 Hartree-type preconditioning will be used
 using additional bands           28
 real space projection scheme for non local part
 use partial core corrections
 calculate Harris-corrections to forces 
   (improved forces if not selfconsistent)
 use gradient corrections 
 use of overlap-Matrix (Vanderbilt PP)
 Gauss-broadening in eV      SIGMA  =   0.05


--------------------------------------------------------------------------------------------------------


  energy-cutoff  :      300.00
  volume of cell :      674.58
      direct lattice vectors                 reciprocal lattice vectors
     4.234310557  5.188045346  0.270523893     0.118082978  0.097088424 -0.013674014
    -4.234310557  5.188045346  0.270523893    -0.118082978  0.097088424 -0.013674014
     0.000000000  2.178444016 15.467418260     0.000000000 -0.003396137  0.065130345

  length of vectors
     6.702117843  6.702117843 15.620071893     0.153482020  0.153482020  0.065218829


 
 k-points in units of 2pi/SCALE and weight: pymatgen with grid density = 807 / numbe
   0.00000000 -0.00084903  0.01628259       0.111
   0.03936099  0.03151377  0.01172458       0.222
  -0.03936099 -0.03321184  0.02084059       0.222
   0.00000000  0.06387658  0.00716658       0.111
  -0.07872199 -0.00084903  0.01628259       0.222
   0.00000000 -0.06557465  0.02539860       0.111
 
 k-points in reciprocal lattice and weights: pymatgen with grid density = 807 / numbe
  -0.00000000 -0.00000000  0.25000000       0.111
   0.33333333 -0.00000000  0.25000000       0.222
  -0.33333333 -0.00000000  0.25000000       0.222
   0.33333333  0.33333333  0.25000000       0.111
  -0.33333333  0.33333333  0.25000000       0.222
  -0.33333333 -0.33333333  0.25000000       0.111
 
 position of ions in fractional coordinates (direct lattice) 
   0.09129474  0.57193790  0.21123216
   0.42806210  0.90870526  0.28876784
   0.90870526  0.42806210  0.78876784
   0.57193790  0.09129474  0.71123216
   0.65345473  0.69078434  0.02437096
   0.69078434  0.65345473  0.52437096
   0.34654527  0.30921566  0.97562904
   0.30921566  0.34654527  0.47562904
   0.11928861  0.90365578  0.60619233
   0.09634422  0.88071139  0.89380767
   0.88071139  0.09634422  0.39380767
   0.90365578  0.11928861  0.10619233
   0.53701916  0.22188780  0.34337233
   0.57537536  0.98680654  0.13241981
   0.46298084  0.77811220  0.65662767
   0.22188780  0.53701916  0.84337233
   0.96138404  0.03861596  0.75000000
   0.03861596  0.96138404  0.25000000
   0.98680654  0.57537536  0.63241981
   0.42462464  0.01319346  0.86758019
   0.01319346  0.42462464  0.36758019
   0.34523114  0.71153272  0.43768213
   0.71153272  0.34523114  0.93768213
   0.65476886  0.28846728  0.56231787
   0.77811220  0.46298084  0.15662767
   0.28846728  0.65476886  0.06231787
 
 position of ions in cartesian coordinates  (Angst):
  -2.03519241  3.90103841  3.44663640
  -2.03519241  7.56427429  4.82812051
   2.03519241  8.65349630 12.56182964
   2.03519241  4.99026042 11.18034553
  -0.15806513  7.02706401  0.74060463
   0.15806513  8.11628602  8.47431376
   0.15806513  5.52747070 15.26786142
  -0.15806513  4.43824869  7.53415229
  -3.32125422  6.62763794  9.65296124
  -3.32125422  7.01611877 14.08921394
   3.32125422  5.92689677  6.35550481
   3.32125422  5.53841593  1.91925211
   1.33436404  4.68526110  5.51638587
  -1.74212737  8.39313970  2.47080011
  -1.33436404  7.86927360 10.49208018
  -1.33436404  5.77448311 13.25009500
   3.90728666  6.82187836 11.87108759
  -3.90728666  5.73265635  4.13737846
   1.74212737  9.48236171 10.20450924
   1.74212737  4.16139501 13.53766593
  -1.74212737  3.07217300  5.80395680
  -1.55103465  6.43600489  7.05569250
   1.55103465  7.52522689 14.78940163
   1.55103465  6.11852982  8.95277354
   1.33436404  6.78005160  2.75837105
  -1.55103465  5.02930781  1.21906441
 


--------------------------------------------------------------------------------------------------------


 k-point  1 :  -0.0000-0.0000 0.2500  plane waves:    7963
 k-point  2 :   0.3333-0.0000 0.2500  plane waves:    7963
 k-point  3 :  -0.3333-0.0000 0.2500  plane waves:    7970
 k-point  4 :   0.3333 0.3333 0.2500  plane waves:    7936
 k-point  5 :  -0.3333 0.3333 0.2500  plane waves:    7983
 k-point  6 :  -0.3333-0.3333 0.2500  plane waves:    7941

 maximum and minimum number of plane-waves per node :      7983     7936

 maximum number of plane-waves:      7983
 maximum index in each direction: 
   IXMAX=    9   IYMAX=    9   IZMAX=   21
   IXMIN=   -9   IYMIN=   -9   IZMIN=  -22


 serial   3D FFT for wavefunctions
 parallel 3D FFT for charge:
    minimum data exchange during FFTs selected (reduces bandwidth)


 total amount of memory used by VASP MPI-rank0    43557. kBytes
=======================================================================

   base      :      30000. kBytes
   nonlr-proj:       2313. kBytes
   fftplans  :        922. kBytes
   grid      :       3553. kBytes
   one-center:        404. kBytes
   wavefun   :       6365. kBytes
 
     INWAV:  cpu time    0.0001: real time    0.0007
 Broyden mixing: mesh for mixing (old mesh)
   NGX = 19   NGY = 19   NGZ = 45
  (NGX  = 48   NGY  = 48   NGZ  =108)
  gives a total of  16245 points

 initial charge density was supplied:
 charge density of overlapping atoms calculated
 number of electron     168.0000000 magnetization 
 keeping initial charge density in first step


--------------------------------------------------------------------------------------------------------


 Maximum index for non-local projection operator         1029
 Maximum index for augmentation-charges          362 (set IRDMAX)


--------------------------------------------------------------------------------------------------------


 First call to EWALD:  gamma=   0.202
 Maximum number of real-space cells 4x 4x 2
 Maximum number of reciprocal cells 2x 2x 5

    FEWALD:  cpu time    0.0022: real time    0.0022


--------------------------------------- Iteration      1(   1)  ---------------------------------------


    POTLOK:  cpu time    0.0290: real time    0.0790
    SETDIJ:  cpu time    0.1571: real time    0.1603
     EDDAV:  cpu time    1.1113: real time    1.1363
       DOS:  cpu time    0.0005: real time    0.0005
    --------------------------------------------
      LOOP:  cpu time    1.2980: real time    1.3762

 eigenvalue-minimisations  :  1344
 total energy-change (2. order) : 0.7512638E+03  (-0.4960764E+04)
 number of electron     168.0000000 magnetization 
 augmentation part      168.0000000 magnetization 

 Free energy of the ion-electron system (eV)
  ---------------------------------------------------
  alpha Z        PSCENC =       140.99588627
  Ewald energy   TEWEN  =     -7404.47574665
  -Hartree energ DENC   =     -2354.22490615
  -exchange      EXHF   =         0.00000000
  -V(xc)+E(xc)   XCENC  =      -242.43518041
  PAW double counting   =      8368.06220595    -7707.29813028
  entropy T*S    EENTRO =        -0.00985062
  eigenvalues    EBANDS =       726.78098654
  atomic energy  EATOM  =      9223.86848573
  Solvation  Ediel_sol  =         0.00000000
  ---------------------------------------------------
  free energy    TOTEN  =       751.26375038 eV

  energy without entropy =      751.27360100  energy(sigma->0) =      751.26867569


--------------------------------------------------------------------------------------------------------




--------------------------------------- Iteration      1(   2)  ---------------------------------------


     EDDAV:  cpu time    0.8828: real time    0.8989
       DOS:  cpu time    0.0003: real time    0.0002
    --------------------------------------------
      LOOP:  cpu time    0.8831: real time    0.8991

 eigenvalue-minimisations  :  1610
 total energy-change (2. order) :-0.7946143E+03  (-0.7549417E+03)
 number of electron     168.0000000 magnetization 
 augmentation part      168.0000000 magnetization 

 Free energy of the ion-electron system (eV)
  ---------------------------------------------------
  alpha Z        PSCENC =       140.99588627
  Ewald energy   TEWEN  =     -7404.47574665
  -Hartree energ DENC   =     -2354.22490615
  -exchange      EXHF   =         0.00000000
  -V(xc)+E(xc)   XCENC  =      -242.43518041
  PAW double counting   =      8368.06220595    -7707.29813028
  entropy T*S    EENTRO =        -0.00000000
  eigenvalues    EBANDS =       -67.84319273
  atomic energy  EATOM  =      9223.86848573
  Solvation  Ediel_sol  =         0.00000000
  ---------------------------------------------------
  free energy    TOTEN  =       -43.35057827 eV

  energy without entropy =      -43.35057827  energy(sigma->0) =      -43.35057827


--------------------------------------------------------------------------------------------------------




--------------------------------------- Iteration      1(   3)  ---------------------------------------


     EDDAV:  cpu time    1.1376: real time    1.1641
       DOS:  cpu time    0.0003: real time    0.0002
    --------------------------------------------
      LOOP:  cpu time    1.1378: real time    1.1644

 eigenvalue-minimisations  :  1596
 total energy-change (2. order) :-0.6735312E+02  (-0.6580377E+02)
 number of electron     168.0000000 magnetization 
 augmentation part      168.0000000 magnetization 

 Free energy of the ion-electron system (eV)
  ---------------------------------------------------
  alpha Z        PSCENC =       140.99588627
  Ewald energy   TEWEN  =     -7404.47574665
  -Hartree energ DENC   =     -2354.22490615
  -exchange      EXHF   =         0.00000000
  -V(xc)+E(xc)   XCENC  =      -242.43518041
  PAW double counting   =      8368.06220595    -7707.29813028
  entropy T*S    EENTRO =        -0.00000000
  eigenvalues    EBANDS =      -135.19631298
  atomic energy  EATOM  =      9223.86848573
  Solvation  Ediel_sol  =         0.00000000
  ---------------------------------------------------
  free energy    TOTEN  =      -110.70369851 eV

  energy without entropy =     -110.70369851  energy(sigma->0) =     -110.70369851


--------------------------------------------------------------------------------------------------------




--------------------------------------- Iteration      1(   4)  ---------------------------------------


     EDDAV:  cpu time    1.1704: real time    1.1949
       DOS:  cpu time    0.0002: real time    0.0002
    --------------------------------------------
      LOOP:  cpu time    1.1706: real time    1.1951

 eigenvalue-minimisations  :  1596
 total energy-change (2. order) :-0.1697341E+01  (-0.1680659E+01)
 number of electron     168.0000000 magnetization 
 augmentation part      168.0000000 magnetization 

 Free energy of the ion-electron system (eV)
  ---------------------------------------------------
  alpha Z        PSCENC =       140.99588627
  Ewald energy   TEWEN  =     -7404.47574665
  -Hartree energ DENC   =     -2354.22490615
  -exchange      EXHF   =         0.00000000
  -V(xc)+E(xc)   XCENC  =      -242.43518041
  PAW double counting   =      8368.06220595    -7707.29813028
  entropy T*S    EENTRO =        -0.00000000
  eigenvalues    EBANDS =      -136.89365427
  atomic energy  EATOM  =      9223.86848573
  Solvation  Ediel_sol  =         0.00000000
  ---------------------------------------------------
  free energy    TOTEN  =      -112.40103981 eV

  energy without entropy =     -112.40103981  energy(sigma->0) =     -112.40103981


--------------------------------------------------------------------------------------------------------




--------------------------------------- Iteration      1(   5)  ---------------------------------------


     EDDAV:  cpu time    0.9261: real time    0.9358
       DOS:  cpu time    0.0003: real time    0.0003
    CHARGE:  cpu time    0.0294: real time    0.0299
    MIXING:  cpu time    0.0007: real time    0.0008
    --------------------------------------------
      LOOP:  cpu time    0.9565: real time    0.9668

 eigenvalue-minimisations  :  1554
 total energy-change (2. order) :-0.5147576E-01  (-0.5144169E-01)
 number of electron     167.9999390 magnetization 
 augmentation part        2.6171897 magnetization 

 Broyden mixing:
  rms(total) = 0.25269E+01    rms(broyden)= 0.25268E+01
  rms(prec ) = 0.26741E+01
  weight for this iteration     100.00

 Free energy of the ion-electron system (eV)
  ---------------------------------------------------
  alpha Z        PSCENC =       140.99588627
  Ewald energy   TEWEN  =     -7404.47574665
  -Hartree energ DENC   =     -2354.22490615
  -exchange      EXHF   =         0.00000000
  -V(xc)+E(xc)   XCENC  =      -242.43518041
  PAW double counting   =      8368.06220595    -7707.29813028
  entropy T*S    EENTRO =        -0.00000000
  eigenvalues    EBANDS =      -136.94513003
  atomic energy  EATOM  =      9223.86848573
  Solvation  Ediel_sol  =         0.00000000
  ---------------------------------------------------
  free energy    TOTEN  =      -112.45251557 eV

  energy without entropy =     -112.45251557  energy(sigma->0) =     -112.45251557


--------------------------------------------------------------------------------------------------------




--------------------------------------- Iteration      1(   6)  ---------------------------------------


    POTLOK:  cpu time    0.0126: real time    0.0128
    SETDIJ:  cpu time    0.1582: real time    0.1592
     EDDAV:  cpu time    1.1755: real time    1.1922
       DOS:  cpu time    0.0003: real time    0.0003
    CHARGE:  cpu time    0.0282: real time    0.0284
    MIXING:  cpu time    0.0007: real time    0.0007
    --------------------------------------------
      LOOP:  cpu time    1.3756: real time    1.3937

 eigenvalue-minimisations  :  1568
 total energy-change (2. order) : 0.5940954E+01  (-0.1160775E+01)
 number of electron     167.9999354 magnetization 
 augmentation part        3.4137499 magnetization 

 Broyden mixing:
  rms(total) = 0.18639E+01    rms(broyden)= 0.18639E+01
  rms(prec ) = 0.18775E+01
  weight for this iteration     100.00

 eigenvalues of (default mixing * dielectric matrix)
  average eigenvalue GAMMA=   1.9159
  1.9159

 Free energy of the ion-electron system (eV)
  ---------------------------------------------------
  alpha Z        PSCENC =       140.99588627
  Ewald energy   TEWEN  =     -7404.47574665
  -Hartree energ DENC   =     -2370.38065412
  -exchange      EXHF   =         0.00000000
  -V(xc)+E(xc)   XCENC  =      -239.53151510
  PAW double counting   =     10256.60259106    -9598.49069692
  entropy T*S    EENTRO =        -0.00000000
  eigenvalues    EBANDS =      -115.09991222
  atomic energy  EATOM  =      9223.86848573
  Solvation  Ediel_sol  =         0.00000000
  ---------------------------------------------------
  free energy    TOTEN  =      -106.51156195 eV

  energy without entropy =     -106.51156195  energy(sigma->0) =     -106.51156195


--------------------------------------------------------------------------------------------------------




--------------------------------------- Iteration      1(   7)  ---------------------------------------


    POTLOK:  cpu time    0.0125: real time    0.0128
    SETDIJ:  cpu time    0.1615: real time    0.1624
     EDDAV:  cpu time    0.9636: real time    0.9755
       DOS:  cpu time    0.0003: real time    0.0003
    CHARGE:  cpu time    0.0258: real time    0.0261
    MIXING:  cpu time    0.0007: real time    0.0007
    --------------------------------------------
      LOOP:  cpu time    1.1643: real time    1.1777

 eigenvalue-minimisations  :  1484
 total energy-change (2. order) :-0.2614716E+00  (-0.5933944E+00)
 number of electron     167.9999354 magnetization 
 augmentation part        3.3104572 magnetization 

 Broyden mixing:
  rms(total) = 0.73764E+00    rms(broyden)= 0.73759E+00
  rms(prec ) = 0.75040E+00
  weight for this iteration     100.00

 eigenvalues of (default mixing * dielectric matrix)
  average eigenvalue GAMMA=   1.6129
  0.8932  2.3326

 Free energy of the ion-electron system (eV)
  ---------------------------------------------------
  alpha Z        PSCENC =       140.99588627
  Ewald energy   TEWEN  =     -7404.47574665
  -Hartree energ DENC   =     -2389.24090900
  -exchange      EXHF   =         0.00000000
  -V(xc)+E(xc)   XCENC  =      -237.72513888
  PAW double counting   =     12778.12234093   -12123.50925938
  entropy T*S    EENTRO =        -0.00000000
  eigenvalues    EBANDS =       -94.80869255
  atomic energy  EATOM  =      9223.86848573
  Solvation  Ediel_sol  =         0.00000000
  ---------------------------------------------------
  free energy    TOTEN  =      -106.77303354 eV

  energy without entropy =     -106.77303354  energy(sigma->0) =     -106.77303354


--------------------------------------------------------------------------------------------------------




--------------------------------------- Iteration      1(   8)  ---------------------------------------


    POTLOK:  cpu time    0.0101: real time    0.0103
    SETDIJ:  cpu time    0.1576: real time    0.1583
     EDDAV:  cpu time    0.8252: real time    0.8256
       DOS:  cpu time    0.0003: real time    0.0003
    CHARGE:  cpu time    0.0271: real time    0.0271
    MIXING:  cpu time    0.0009: real time    0.0009
    --------------------------------------------
      LOOP:  cpu time    1.0212: real time    1.0225

 eigenvalue-minimisations  :  1498
 total energy-change (2. order) : 0.1046052E+00  (-0.3675768E-01)
 number of electron     167.9999353 magnetization 
 augmentation part        3.3309970 magnetization 

 Broyden mixing:
  rms(total) = 0.21506E+00    rms(broyden)= 0.21506E+00
  rms(prec ) = 0.21933E+00
  weight for this iteration     100.00

 eigenvalues of (default mixing * dielectric matrix)
  average eigenvalue GAMMA=   1.4772
  2.3028  1.0644  1.0644

 Free energy of the ion-electron system (eV)
  ---------------------------------------------------
  alpha Z        PSCENC =       140.99588627
  Ewald energy   TEWEN  =     -7404.47574665
  -Hartree energ DENC   =     -2377.40515045
  -exchange      EXHF   =         0.00000000
  -V(xc)+E(xc)   XCENC  =      -238.03946308
  PAW double counting   =     14234.01898145   -13580.23979510
  entropy T*S    EENTRO =        -0.00000000
  eigenvalues    EBANDS =      -105.39162649
  atomic energy  EATOM  =      9223.86848573
  Solvation  Ediel_sol  =         0.00000000
  ---------------------------------------------------
  free energy    TOTEN  =      -106.66842831 eV

  energy without entropy =     -106.66842831  energy(sigma->0) =     -106.66842831


--------------------------------------------------------------------------------------------------------




--------------------------------------- Iteration      1(   9)  ---------------------------------------


    POTLOK:  cpu time    0.0121: real time    0.0122
    SETDIJ:  cpu time    0.1595: real time    0.1595
     EDDAV:  cpu time    1.0387: real time    1.0394
       DOS:  cpu time    0.0004: real time    0.0004
    CHARGE:  cpu time    0.0288: real time    0.0288
    MIXING:  cpu time    0.0007: real time    0.0007
    --------------------------------------------
      LOOP:  cpu time    1.2401: real time    1.2409

 eigenvalue-minimisations  :  1554
 total energy-change (2. order) :-0.1482470E-02  (-0.7379259E-02)
 number of electron     167.9999354 magnetization 
 augmentation part        3.3200541 magnetization 

 Broyden mixing:
  rms(total) = 0.63182E-01    rms(broyden)= 0.63181E-01
  rms(prec ) = 0.65350E-01
  weight for this iteration     100.00

 eigenvalues of (default mixing * dielectric matrix)
  average eigenvalue GAMMA=   1.4037
  2.3150  1.2135  1.2135  0.8727

 Free energy of the ion-electron system (eV)
  ---------------------------------------------------
  alpha Z        PSCENC =       140.99588627
  Ewald energy   TEWEN  =     -7404.47574665
  -Hartree energ DENC   =     -2378.96765916
  -exchange      EXHF   =         0.00000000
  -V(xc)+E(xc)   XCENC  =      -237.93936395
  PAW double counting   =     14514.51053084   -13861.07759462
  entropy T*S    EENTRO =        -0.00000000
  eigenvalues    EBANDS =      -103.58444924
  atomic energy  EATOM  =      9223.86848573
  Solvation  Ediel_sol  =         0.00000000
  ---------------------------------------------------
  free energy    TOTEN  =      -106.66991078 eV

  energy without entropy =     -106.66991078  energy(sigma->0) =     -106.66991078


--------------------------------------------------------------------------------------------------------




--------------------------------------- Iteration      1(  10)  ---------------------------------------


    POTLOK:  cpu time    0.0117: real time    0.0118
    SETDIJ:  cpu time    0.1648: real time    0.1651
     EDDAV:  cpu time    1.2347: real time    1.2351
       DOS:  cpu time    0.0003: real time    0.0002
    CHARGE:  cpu time    0.0271: real time    0.0271
    MIXING:  cpu time    0.0009: real time    0.0009
    --------------------------------------------
      LOOP:  cpu time    1.4395: real time    1.4402

 eigenvalue-minimisations  :  1610
 total energy-change (2. order) :-0.6122124E-03  (-0.6750456E-03)
 number of electron     167.9999353 magnetization 
 augmentation part        3.3196253 magnetization 

 Broyden mixing:
  rms(total) = 0.31079E-01    rms(broyden)= 0.31079E-01
  rms(prec ) = 0.31990E-01
  weight for this iteration     100.00

 eigenvalues of (default mixing * dielectric matrix)
  average eigenvalue GAMMA=   1.4186
  2.0578  2.0578  1.0550  1.0550  0.8675

 Free energy of the ion-electron system (eV)
  ---------------------------------------------------
  alpha Z        PSCENC =       140.99588627
  Ewald energy   TEWEN  =     -7404.47574665
  -Hartree energ DENC   =     -2379.54708126
  -exchange      EXHF   =         0.00000000
  -V(xc)+E(xc)   XCENC  =      -237.89556615
  PAW double counting   =     14525.48789576   -13872.05954402
  entropy T*S    EENTRO =        -0.00000000
  eigenvalues    EBANDS =      -103.04485267
  atomic energy  EATOM  =      9223.86848573
  Solvation  Ediel_sol  =         0.00000000
  ---------------------------------------------------
  free energy    TOTEN  =      -106.67052299 eV

  energy without entropy =     -106.67052299  energy(sigma->0) =     -106.67052299


--------------------------------------------------------------------------------------------------------




--------------------------------------- Iteration      1(  11)  ---------------------------------------


    POTLOK:  cpu time    0.0129: real time    0.0130
    SETDIJ:  cpu time    0.1594: real time    0.1594
     EDDAV:  cpu time    0.7546: real time    0.7548
       DOS:  cpu time    0.0003: real time    0.0003
    CHARGE:  cpu time    0.0284: real time    0.0284
    MIXING:  cpu time    0.0009: real time    0.0009
    --------------------------------------------
      LOOP:  cpu time    0.9564: real time    0.9569

 eigenvalue-minimisations  :  1568
 total energy-change (2. order) :-0.5314660E-03  (-0.9220323E-04)
 number of electron     167.9999353 magnetization 
 augmentation part        3.3217877 magnetization 

 Broyden mixing:
  rms(total) = 0.14647E-01    rms(broyden)= 0.14647E-01
  rms(prec ) = 0.15237E-01
  weight for this iteration     100.00

 eigenvalues of (default mixing * dielectric matrix)
  average eigenvalue GAMMA=   1.5213
  2.4460  2.4460  0.9080  1.0539  1.1370  1.1370

 Free energy of the ion-electron system (eV)
  ---------------------------------------------------
  alpha Z        PSCENC =       140.99588627
  Ewald energy   TEWEN  =     -7404.47574665
  -Hartree energ DENC   =     -2379.59749833
  -exchange      EXHF   =         0.00000000
  -V(xc)+E(xc)   XCENC  =      -237.89153751
  PAW double counting   =     14493.88694659   -13840.43348111
  entropy T*S    EENTRO =        -0.00000000
  eigenvalues    EBANDS =      -103.02410945
  atomic energy  EATOM  =      9223.86848573
  Solvation  Ediel_sol  =         0.00000000
  ---------------------------------------------------
  free energy    TOTEN  =      -106.67105446 eV

  energy without entropy =     -106.67105446  energy(sigma->0) =     -106.67105446


--------------------------------------------------------------------------------------------------------




--------------------------------------- Iteration      1(  12)  ---------------------------------------


    POTLOK:  cpu time    0.0124: real time    0.0125
    SETDIJ:  cpu time    0.1588: real time    0.1592
     EDDAV:  cpu time    1.1431: real time    1.1437
       DOS:  cpu time    0.0002: real time    0.0002
    CHARGE:  cpu time    0.0270: real time    0.0270
    MIXING:  cpu time    0.0008: real time    0.0008
    --------------------------------------------
      LOOP:  cpu time    1.3423: real time    1.3435

 eigenvalue-minimisations  :  1498
 total energy-change (2. order) :-0.2880679E-03  (-0.4796164E-04)
 number of electron     167.9999353 magnetization 
 augmentation part        3.3204369 magnetization 

 Broyden mixing:
  rms(total) = 0.55532E-02    rms(broyden)= 0.55530E-02
  rms(prec ) = 0.56931E-02
  weight for this iteration     100.00

 eigenvalues of (default mixing * dielectric matrix)
  average eigenvalue GAMMA=   1.4874
  2.5183  2.5183  1.3625  0.9460  0.9588  1.0538  1.0538

 Free energy of the ion-electron system (eV)
  ---------------------------------------------------
  alpha Z        PSCENC =       140.99588627
  Ewald energy   TEWEN  =     -7404.47574665
  -Hartree energ DENC   =     -2379.81777677
  -exchange      EXHF   =         0.00000000
  -V(xc)+E(xc)   XCENC  =      -237.87604450
  PAW double counting   =     14496.32406465   -13842.87874729
  entropy T*S    EENTRO =        -0.00000000
  eigenvalues    EBANDS =      -102.81146397
  atomic energy  EATOM  =      9223.86848573
  Solvation  Ediel_sol  =         0.00000000
  ---------------------------------------------------
  free energy    TOTEN  =      -106.67134253 eV

  energy without entropy =     -106.67134253  energy(sigma->0) =     -106.67134253


--------------------------------------------------------------------------------------------------------




--------------------------------------- Iteration      1(  13)  ---------------------------------------


    POTLOK:  cpu time    0.0125: real time    0.0126
    SETDIJ:  cpu time    0.1597: real time    0.1597
     EDDAV:  cpu time    0.6309: real time    0.6315
       DOS:  cpu time    0.0003: real time    0.0003
    --------------------------------------------
      LOOP:  cpu time    0.8033: real time    0.8041

 eigenvalue-minimisations  :   854
 total energy-change (2. order) :-0.2641364E-04  (-0.2947523E-05)
 number of electron     167.9999353 magnetization 
 augmentation part        3.3204369 magnetization 

 Free energy of the ion-electron system (eV)
  ---------------------------------------------------
  alpha Z        PSCENC =       140.99588627
  Ewald energy   TEWEN  =     -7404.47574665
  -Hartree energ DENC   =     -2379.86911211
  -exchange      EXHF   =         0.00000000
  -V(xc)+E(xc)   XCENC  =      -237.87190000
  PAW double counting   =     14488.03502662   -13834.58316302
  entropy T*S    EENTRO =        -0.00000000
  eigenvalues    EBANDS =      -102.77084579
  atomic energy  EATOM  =      9223.86848573
  Solvation  Ediel_sol  =         0.00000000
  ---------------------------------------------------
  free energy    TOTEN  =      -106.67136894 eV

  energy without entropy =     -106.67136894  energy(sigma->0) =     -106.67136894


--------------------------------------------------------------------------------------------------------




 average (electrostatic) potential at core
  the test charge radii are     1.1249  1.1712  0.9698
  (the norm of the test charge is              1.0000)
       1 -73.4887       2 -73.4887       3 -73.4887       4 -73.4887       5 -88.7822
       6 -88.7822       7 -88.7822       8 -88.7822       9 -88.8319      10 -88.8319
      11 -88.8319      12 -88.8319      13 -87.0041      14 -86.8139      15 -87.0041
      16 -87.0041      17 -86.9754      18 -86.9754      19 -86.8139      20 -86.8139
      21 -86.8139      22 -86.8027      23 -86.8027      24 -86.8027      25 -87.0041
      26 -86.8027
 
 
 
 E-fermi :   4.6088     XC(G=0):  -9.1018     alpha+bet : -9.8542


 k-point     1 :      -0.0000   -0.0000    0.2500
  band No.  band energies     occupation 
      1      -9.6387      2.00000
      2      -9.4993      2.00000
      3      -9.1831      2.00000
      4      -8.8970      2.00000
      5      -8.4125      2.00000
      6      -8.1867      2.00000
      7      -7.9871      2.00000
      8      -7.9197      2.00000
      9      -7.8922      2.00000
     10      -7.8890      2.00000
     11      -7.8401      2.00000
     12      -7.7978      2.00000
     13      -7.7197      2.00000
     14      -7.7023      2.00000
     15      -5.0976      2.00000
     16      -5.0280      2.00000
     17      -4.7541      2.00000
     18      -4.5077      2.00000
     19      -3.6640      2.00000
     20      -3.4409      2.00000
     21      -3.4374      2.00000
     22      -3.3008      2.00000
     23      -0.9964      2.00000
     24      -0.8781      2.00000
     25      -0.5963      2.00000
     26      -0.5055      2.00000
     27      -0.4235      2.00000
     28      -0.3020      2.00000
     29      -0.2660      2.00000
     30      -0.1261      2.00000
     31      -0.0367      2.00000
     32       0.0994      2.00000
     33       0.1003      2.00000
     34       0.1439      2.00000
     35       0.3389      2.00000
     36       0.4666      2.00000
     37       0.5276      2.00000
     38       0.5629      2.00000
     39       0.5806      2.00000
     40       0.6565      2.00000
     41       0.7499      2.00000
     42       0.8835      2.00000
     43       0.9266      2.00000
     44       0.9637      2.00000
     45       0.9654      2.00000
     46       0.9997      2.00000
     47       1.0760      2.00000
     48       1.1114      2.00000
     49       1.1232      2.00000
     50       1.1257      2.00000
     51       1.2168      2.00000
     52       1.3911      2.00000
     53       1.4291      2.00000
     54       1.5093      2.00000
     55       1.5827      2.00000
     56       1.6101      2.00000
     57       1.6710      2.00000
     58       1.7406      2.00000
     59       1.7787      2.00000
     60       1.8247      2.00000
     61       1.9821      2.00000
     62       2.0052      2.00000
     63       2.1342      2.00000
     64       2.2435      2.00000
     65       2.3741      2.00000
     66       2.4841      2.00000
     67       2.5297      2.00000
     68       2.5487      2.00000
     69       2.7174      2.00000
     70       2.7378      2.00000
     71       2.9573      2.00000
     72       3.0415      2.00000
     73       3.1363      2.00000
     74       3.1838      2.00000
     75       3.2312      2.00000
     76       3.3492      2.00000
     77       3.5192      2.00000
     78       3.5638      2.00000
     79       3.6646      2.00000
     80       3.6799      2.00000
     81       3.8037      2.00000
     82       3.8462      2.00000
     83       4.0829      2.00000
     84       4.3874      2.00000
     85       6.2597      0.00000
     86       6.2988      0.00000
     87       6.3594      0.00000
     88       6.3766      0.00000
     89       6.4545      0.00000
     90       6.5482      0.00000
     91       6.6023      0.00000
     92       6.6529      0.00000
     93       6.9416      0.00000
     94       6.9810      0.00000
     95       7.0567      0.00000
     96       7.1108      0.00000
     97       7.1651      0.00000
     98       7.4933      0.00000
     99       7.5950      0.00000
    100       7.7261      0.00000
    101       7.7953      0.00000
    102       7.9126      0.00000
    103       8.0253      0.00000
    104       8.1844      0.00000
    105       8.2968      0.00000
    106       8.3248      0.00000
    107       8.5618      0.00000
    108       8.7074      0.00000
    109       8.7458      0.00000
    110       8.9052      0.00000
    111       9.3626      0.00000
    112       9.3690      0.00000

 k-point     2 :       0.3333   -0.0000    0.2500
  band No.  band energies     occupation 
      1      -9.4792      2.00000
      2      -9.3506      2.00000
      3      -9.0943      2.00000
      4      -8.8845      2.00000
      5      -8.5802      2.00000
      6      -8.4822      2.00000
      7      -8.1691      2.00000
      8      -7.9927      2.00000
      9      -7.9319      2.00000
     10      -7.8830      2.00000
     11      -7.8710      2.00000
     12      -7.7756      2.00000
     13      -7.7583      2.00000
     14      -7.6347      2.00000
     15      -4.9264      2.00000
     16      -4.7932      2.00000
     17      -4.5609      2.00000
     18      -4.4052      2.00000
     19      -3.8853      2.00000
     20      -3.8158      2.00000
     21      -3.5626      2.00000
     22      -3.1281      2.00000
     23      -0.7294      2.00000
     24      -0.6830      2.00000
     25      -0.6038      2.00000
     26      -0.5084      2.00000
     27      -0.4053      2.00000
     28      -0.3155      2.00000
     29      -0.1785      2.00000
     30      -0.0791      2.00000
     31      -0.0664      2.00000
     32       0.1458      2.00000
     33       0.2551      2.00000
     34       0.2802      2.00000
     35       0.3994      2.00000
     36       0.4898      2.00000
     37       0.5333      2.00000
     38       0.5904      2.00000
     39       0.6450      2.00000
     40       0.6871      2.00000
     41       0.7498      2.00000
     42       0.8008      2.00000
     43       0.9008      2.00000
     44       0.9431      2.00000
     45       0.9821      2.00000
     46       1.0213      2.00000
     47       1.0579      2.00000
     48       1.1476      2.00000
     49       1.2319      2.00000
     50       1.2571      2.00000
     51       1.2626      2.00000
     52       1.3627      2.00000
     53       1.4111      2.00000
     54       1.4368      2.00000
     55       1.4911      2.00000
     56       1.5808      2.00000
     57       1.6171      2.00000
     58       1.7117      2.00000
     59       1.7633      2.00000
     60       1.8052      2.00000
     61       1.8646      2.00000
     62       1.8814      2.00000
     63       2.0783      2.00000
     64       2.1451      2.00000
     65       2.3376      2.00000
     66       2.5235      2.00000
     67       2.5679      2.00000
     68       2.6880      2.00000
     69       2.7501      2.00000
     70       2.7934      2.00000
     71       2.8790      2.00000
     72       3.0296      2.00000
     73       3.0615      2.00000
     74       3.1432      2.00000
     75       3.2740      2.00000
     76       3.3611      2.00000
     77       3.3833      2.00000
     78       3.4968      2.00000
     79       3.6845      2.00000
     80       3.7622      2.00000
     81       3.8256      2.00000
     82       3.8700      2.00000
     83       3.9425      2.00000
     84       4.1729      2.00000
     85       5.7290      0.00000
     86       6.0498      0.00000
     87       6.1960      0.00000
     88       6.3414      0.00000
     89       6.4451      0.00000
     90       6.4691      0.00000
     91       6.6200      0.00000
     92       6.7552      0.00000
     93       6.9343      0.00000
     94       7.0288      0.00000
     95       7.0759      0.00000
     96       7.2187      0.00000
     97       7.2714      0.00000
     98       7.4368      0.00000
     99       7.6540      0.00000
    100       7.7790      0.00000
    101       7.7959      0.00000
    102       7.9145      0.00000
    103       7.9973      0.00000
    104       8.1288      0.00000
    105       8.2258      0.00000
    106       8.2617      0.00000
    107       8.3719      0.00000
    108       8.6886      0.00000
    109       8.7471      0.00000
    110       9.0645      0.00000
    111       9.2255      0.00000
    112       9.2790      0.00000

 k-point     3 :      -0.3333   -0.0000    0.2500
  band No.  band energies     occupation 
      1      -9.4819      2.00000
      2      -9.3311      2.00000
      3      -9.1491      2.00000
      4      -8.7821      2.00000
      5      -8.6764      2.00000
      6      -8.4451      2.00000
      7      -8.1912      2.00000
      8      -7.9696      2.00000
      9      -7.9260      2.00000
     10      -7.8839      2.00000
     11      -7.8683      2.00000
     12      -7.8008      2.00000
     13      -7.7468      2.00000
     14      -7.6348      2.00000
     15      -4.9188      2.00000
     16      -4.8135      2.00000
     17      -4.5780      2.00000
     18      -4.2965      2.00000
     19      -4.0788      2.00000
     20      -3.6838      2.00000
     21      -3.5699      2.00000
     22      -3.1380      2.00000
     23      -0.7253      2.00000
     24      -0.6821      2.00000
     25      -0.6720      2.00000
     26      -0.4815      2.00000
     27      -0.4324      2.00000
     28      -0.2571      2.00000
     29      -0.2072      2.00000
     30      -0.0664      2.00000
     31       0.0440      2.00000
     32       0.1841      2.00000
     33       0.2092      2.00000
     34       0.2688      2.00000
     35       0.3678      2.00000
     36       0.4386      2.00000
     37       0.4971      2.00000
     38       0.5672      2.00000
     39       0.6543      2.00000
     40       0.7217      2.00000
     41       0.7911      2.00000
     42       0.8163      2.00000
     43       0.8903      2.00000
     44       0.9456      2.00000
     45       0.9811      2.00000
     46       1.0359      2.00000
     47       1.0636      2.00000
     48       1.1077      2.00000
     49       1.1702      2.00000
     50       1.2175      2.00000
     51       1.3180      2.00000
     52       1.4206      2.00000
     53       1.4568      2.00000
     54       1.4666      2.00000
     55       1.5100      2.00000
     56       1.5360      2.00000
     57       1.6200      2.00000
     58       1.6625      2.00000
     59       1.7412      2.00000
     60       1.7863      2.00000
     61       1.8194      2.00000
     62       1.9272      2.00000
     63       2.1309      2.00000
     64       2.2389      2.00000
     65       2.3305      2.00000
     66       2.3742      2.00000
     67       2.4995      2.00000
     68       2.5907      2.00000
     69       2.7651      2.00000
     70       2.8737      2.00000
     71       2.9746      2.00000
     72       3.0309      2.00000
     73       3.0538      2.00000
     74       3.2006      2.00000
     75       3.2623      2.00000
     76       3.3082      2.00000
     77       3.4642      2.00000
     78       3.5502      2.00000
     79       3.6326      2.00000
     80       3.6812      2.00000
     81       3.7848      2.00000
     82       3.9039      2.00000
     83       4.0376      2.00000
     84       4.0716      2.00000
     85       5.8883      0.00000
     86       6.0875      0.00000
     87       6.1885      0.00000
     88       6.3259      0.00000
     89       6.3846      0.00000
     90       6.4389      0.00000
     91       6.6239      0.00000
     92       6.8153      0.00000
     93       6.8914      0.00000
     94       6.9621      0.00000
     95       7.0880      0.00000
     96       7.2121      0.00000
     97       7.2764      0.00000
     98       7.4485      0.00000
     99       7.5301      0.00000
    100       7.7018      0.00000
    101       7.7992      0.00000
    102       7.9117      0.00000
    103       7.9595      0.00000
    104       8.1214      0.00000
    105       8.2579      0.00000
    106       8.2764      0.00000
    107       8.5524      0.00000
    108       8.7103      0.00000
    109       8.8392      0.00000
    110       9.0034      0.00000
    111       9.1296      0.00000
    112       9.3270      0.00000

 k-point     4 :       0.3333    0.3333    0.2500
  band No.  band energies     occupation 
      1      -9.3663      2.00000
      2      -9.2551      2.00000
      3      -8.9846      2.00000
      4      -8.8333      2.00000
      5      -8.4968      2.00000
      6      -8.4314      2.00000
      7      -8.3636      2.00000
      8      -8.1860      2.00000
      9      -8.1038      2.00000
     10      -7.9980      2.00000
     11      -7.9783      2.00000
     12      -7.8939      2.00000
     13      -7.6962      2.00000
     14      -7.5892      2.00000
     15      -4.8015      2.00000
     16      -4.7797      2.00000
     17      -4.4501      2.00000
     18      -4.4369      2.00000
     19      -3.9509      2.00000
     20      -3.9476      2.00000
     21      -3.3152      2.00000
     22      -3.1124      2.00000
     23      -0.7604      2.00000
     24      -0.7253      2.00000
     25      -0.5414      2.00000
     26      -0.3467      2.00000
     27      -0.3357      2.00000
     28      -0.3017      2.00000
     29      -0.1463      2.00000
     30      -0.1411      2.00000
     31       0.0924      2.00000
     32       0.2019      2.00000
     33       0.3400      2.00000
     34       0.3518      2.00000
     35       0.4727      2.00000
     36       0.5153      2.00000
     37       0.5462      2.00000
     38       0.6982      2.00000
     39       0.7303      2.00000
     40       0.7921      2.00000
     41       0.8457      2.00000
     42       0.8503      2.00000
     43       0.9124      2.00000
     44       0.9335      2.00000
     45       0.9365      2.00000
     46       1.0129      2.00000
     47       1.0990      2.00000
     48       1.1008      2.00000
     49       1.1231      2.00000
     50       1.2636      2.00000
     51       1.3373      2.00000
     52       1.3766      2.00000
     53       1.4305      2.00000
     54       1.4754      2.00000
     55       1.5172      2.00000
     56       1.5381      2.00000
     57       1.6840      2.00000
     58       1.7137      2.00000
     59       1.7227      2.00000
     60       1.7562      2.00000
     61       1.8709      2.00000
     62       1.9181      2.00000
     63       2.1264      2.00000
     64       2.1882      2.00000
     65       2.2191      2.00000
     66       2.3914      2.00000
     67       2.3980      2.00000
     68       2.5904      2.00000
     69       2.7597      2.00000
     70       2.8180      2.00000
     71       2.8558      2.00000
     72       2.8886      2.00000
     73       3.0951      2.00000
     74       3.1876      2.00000
     75       3.2256      2.00000
     76       3.2537      2.00000
     77       3.3820      2.00000
     78       3.4537      2.00000
     79       3.5985      2.00000
     80       3.6836      2.00000
     81       3.8127      2.00000
     82       3.8929      2.00000
     83       3.9308      2.00000
     84       3.9709      2.00000
     85       5.8128      0.00000
     86       5.8592      0.00000
     87       5.9790      0.00000
     88       6.0575      0.00000
     89       6.2160      0.00000
     90       6.5288      0.00000
     91       6.5689      0.00000
     92       6.7861      0.00000
     93       6.9891      0.00000
     94       7.0029      0.00000
     95       7.1119      0.00000
     96       7.3160      0.00000
     97       7.4195      0.00000
     98       7.4214      0.00000
     99       7.5377      0.00000
    100       7.5812      0.00000
    101       7.6480      0.00000
    102       7.9836      0.00000
    103       7.9982      0.00000
    104       8.0927      0.00000
    105       8.2492      0.00000
    106       8.3214      0.00000
    107       8.3846      0.00000
    108       8.6309      0.00000
    109       8.7032      0.00000
    110       8.8671      0.00000
    111       9.1300      0.00000
    112       9.1518      0.00000

 k-point     5 :      -0.3333    0.3333    0.2500
  band No.  band energies     occupation 
      1      -9.2944      2.00000
      2      -9.2060      2.00000
      3      -9.0415      2.00000
      4      -8.8265      2.00000
      5      -8.6095      2.00000
      6      -8.5348      2.00000
      7      -8.3936      2.00000
      8      -8.1974      2.00000
      9      -8.0058      2.00000
     10      -7.9720      2.00000
     11      -7.9394      2.00000
     12      -7.8718      2.00000
     13      -7.7008      2.00000
     14      -7.6108      2.00000
     15      -4.7877      2.00000
     16      -4.6392      2.00000
     17      -4.4041      2.00000
     18      -4.2799      2.00000
     19      -4.1869      2.00000
     20      -3.8844      2.00000
     21      -3.4238      2.00000
     22      -3.2095      2.00000
     23      -0.7445      2.00000
     24      -0.6454      2.00000
     25      -0.4942      2.00000
     26      -0.3447      2.00000
     27      -0.1989      2.00000
     28      -0.1740      2.00000
     29      -0.1042      2.00000
     30      -0.0552      2.00000
     31      -0.0245      2.00000
     32       0.1432      2.00000
     33       0.2458      2.00000
     34       0.2984      2.00000
     35       0.4271      2.00000
     36       0.4580      2.00000
     37       0.5205      2.00000
     38       0.5884      2.00000
     39       0.6509      2.00000
     40       0.7153      2.00000
     41       0.7910      2.00000
     42       0.8664      2.00000
     43       0.8845      2.00000
     44       0.9296      2.00000
     45       0.9934      2.00000
     46       1.0270      2.00000
     47       1.0736      2.00000
     48       1.1393      2.00000
     49       1.1653      2.00000
     50       1.2311      2.00000
     51       1.3255      2.00000
     52       1.3431      2.00000
     53       1.4057      2.00000
     54       1.4669      2.00000
     55       1.5177      2.00000
     56       1.5751      2.00000
     57       1.5964      2.00000
     58       1.6736      2.00000
     59       1.7635      2.00000
     60       1.8319      2.00000
     61       1.8639      2.00000
     62       1.8910      2.00000
     63       2.0939      2.00000
     64       2.1995      2.00000
     65       2.2929      2.00000
     66       2.3593      2.00000
     67       2.4194      2.00000
     68       2.5403      2.00000
     69       2.6567      2.00000
     70       2.7385      2.00000
     71       2.8857      2.00000
     72       2.9717      2.00000
     73       3.1463      2.00000
     74       3.1588      2.00000
     75       3.2475      2.00000
     76       3.3331      2.00000
     77       3.4647      2.00000
     78       3.4671      2.00000
     79       3.6135      2.00000
     80       3.7560      2.00000
     81       3.7609      2.00000
     82       3.9324      2.00000
     83       4.0636      2.00000
     84       4.1599      2.00000
     85       5.5473      0.00000
     86       5.8919      0.00000
     87       6.0101      0.00000
     88       6.0907      0.00000
     89       6.2063      0.00000
     90       6.3098      0.00000
     91       6.6673      0.00000
     92       6.7527      0.00000
     93       6.8958      0.00000
     94       7.0714      0.00000
     95       7.1149      0.00000
     96       7.1447      0.00000
     97       7.4505      0.00000
     98       7.5138      0.00000
     99       7.6414      0.00000
    100       7.7269      0.00000
    101       7.7987      0.00000
    102       7.8411      0.00000
    103       7.9877      0.00000
    104       8.1285      0.00000
    105       8.1910      0.00000
    106       8.2569      0.00000
    107       8.6493      0.00000
    108       8.6650      0.00000
    109       8.8495      0.00000
    110       8.9521      0.00000
    111       9.0885      0.00000
    112       9.1984      0.00000

 k-point     6 :      -0.3333   -0.3333    0.2500
  band No.  band energies     occupation 
      1      -9.3661      2.00000
      2      -9.2410      2.00000
      3      -9.0511      2.00000
      4      -8.6997      2.00000
      5      -8.6077      2.00000
      6      -8.4512      2.00000
      7      -8.3183      2.00000
      8      -8.1994      2.00000
      9      -8.0349      2.00000
     10      -7.9861      2.00000
     11      -7.9854      2.00000
     12      -7.9708      2.00000
     13      -7.6615      2.00000
     14      -7.6035      2.00000
     15      -4.9173      2.00000
     16      -4.5027      2.00000
     17      -4.4762      2.00000
     18      -4.4517      2.00000
     19      -4.2983      2.00000
     20      -3.6690      2.00000
     21      -3.3207      2.00000
     22      -3.1600      2.00000
     23      -0.7903      2.00000
     24      -0.6884      2.00000
     25      -0.5501      2.00000
     26      -0.4922      2.00000
     27      -0.4084      2.00000
     28      -0.2140      2.00000
     29      -0.0493      2.00000
     30      -0.0040      2.00000
     31       0.0954      2.00000
     32       0.2267      2.00000
     33       0.3298      2.00000
     34       0.3428      2.00000
     35       0.4243      2.00000
     36       0.4936      2.00000
     37       0.6014      2.00000
     38       0.6664      2.00000
     39       0.6978      2.00000
     40       0.7214      2.00000
     41       0.7670      2.00000
     42       0.8915      2.00000
     43       0.9312      2.00000
     44       0.9736      2.00000
     45       0.9799      2.00000
     46       1.0624      2.00000
     47       1.1079      2.00000
     48       1.1491      2.00000
     49       1.1768      2.00000
     50       1.2449      2.00000
     51       1.2538      2.00000
     52       1.3413      2.00000
     53       1.3976      2.00000
     54       1.4387      2.00000
[...]
     37       0.6251      2.00000
     38       0.6659      2.00000
     39       0.6769      2.00000
     40       0.7448      2.00000
     41       0.7649      2.00000
     42       0.9018      2.00000
     43       0.9398      2.00000
     44       0.9759      2.00000
     45       0.9938      2.00000
     46       1.0418      2.00000
     47       1.1257      2.00000
     48       1.1636      2.00000
     49       1.1815      2.00000
     50       1.2613      2.00000
     51       1.2693      2.00000
     52       1.3476      2.00000
     53       1.3860      2.00000
     54       1.4889      2.00000
     55       1.4994      2.00000
     56       1.5101      2.00000
     57       1.7040      2.00000
     58       1.7633      2.00000
     59       1.8033      2.00000
     60       1.8534      2.00000
     61       1.9169      2.00000
     62       1.9480      2.00000
     63       2.0177      2.00000
     64       2.2523      2.00000
     65       2.2800      2.00000
     66       2.3670      2.00000
     67       2.4255      2.00000
     68       2.5809      2.00000
     69       2.7467      2.00000
     70       2.8317      2.00000
     71       2.8431      2.00000
     72       2.9939      2.00000
     73       3.0126      2.00000
     74       3.1960      2.00000
     75       3.3539      2.00000
     76       3.3908      2.00000
     77       3.3978      2.00000
     78       3.4656      2.00000
     79       3.6444      2.00000
     80       3.6690      2.00000
     81       3.7417      2.00000
     82       3.8579      2.00000
     83       3.9723      2.00000
     84       4.1146      2.00000
     85       5.7294      0.00000
     86       5.8308      0.00000
     87       6.0591      0.00000
     88       6.2795      0.00000
     89       6.3940      0.00000
     90       6.4953      0.00000
     91       6.5703      0.00000
     92       6.5799      0.00000
     93       6.8183      0.00000
     94       7.1325      0.00000
     95       7.2095      0.00000
     96       7.2783      0.00000
     97       7.4142      0.00000
     98       7.4287      0.00000
     99       7.5506      0.00000
    100       7.5819      0.00000
    101       7.7177      0.00000
    102       7.8956      0.00000
    103       8.2046      0.00000
    104       8.2054      0.00000
    105       8.2846      0.00000
    106       8.3654      0.00000
    107       8.6086      0.00000
    108       8.6848      0.00000
    109       8.8030      0.00000
    110       8.9852      0.00000
    111       9.0840      0.00000
    112       9.2388      0.00000


--------------------------------------------------------------------------------------------------------


 soft charge-density along one line, spin component           1
         0         1         2         3         4         5         6         7         8         9
 total charge-density along one line
 
 pseudopotential strength for first ion, spin component:           1
 -5.571  -0.007  -0.002   0.002  -0.001  -5.741  -0.007  -0.002
 -0.007  -5.573   0.002   0.002  -0.002  -0.007  -5.743   0.002
 -0.002   0.002  -5.584  -0.003   0.001  -0.002   0.002  -5.753
  0.002   0.002  -0.003  -5.576  -0.008   0.002   0.002  -0.003
 -0.001  -0.002   0.001  -0.008  -5.571  -0.001  -0.002   0.001
 -5.741  -0.007  -0.002   0.002  -0.001  -5.879  -0.007  -0.002
 -0.007  -5.743   0.002   0.002  -0.002  -0.007  -5.881   0.002
 -0.002   0.002  -5.753  -0.003   0.001  -0.002   0.002  -5.891
  0.002   0.002  -0.003  -5.746  -0.007   0.002   0.002  -0.002
 -0.001  -0.002   0.001  -0.007  -5.741  -0.001  -0.002   0.001
 -0.001  -0.004   0.008   0.002  -0.004  -0.001  -0.004   0.007
 -0.001  -0.007   0.013   0.003  -0.007  -0.001  -0.007   0.013
  0.005  -0.002  -0.003   0.001  -0.005   0.005  -0.002  -0.002
  0.001   0.005  -0.003   0.005  -0.000   0.001   0.005  -0.003
  0.005   0.001  -0.003  -0.003   0.005   0.004   0.001  -0.003
  0.006  -0.004  -0.003  -0.000  -0.006   0.005  -0.004  -0.003
 -0.000   0.006  -0.004   0.007   0.000  -0.000   0.006  -0.004
  0.006  -0.000  -0.003  -0.004   0.007   0.006  -0.000  -0.003
 total augmentation occupancy for first ion, spin component:           1
  3.545  -0.110   0.190   0.181  -0.435  -1.405   0.090  -0.188  -0.152   0.409   0.033  -0.011   0.243   0.219  -0.121  -0.013
 -0.110   4.548  -1.609   0.187  -0.256   0.090  -2.439   1.576  -0.173   0.219   0.462  -0.085   0.200   0.061   0.269  -0.012
  0.190  -1.609   4.257   0.085   0.098  -0.188   1.576  -2.250  -0.076  -0.127  -0.815   0.156  -0.027  -0.135  -0.260   0.000
  0.181   0.187   0.085   3.166  -0.224  -0.152  -0.173  -0.076  -1.068   0.192   0.037   0.006   0.219  -0.144  -0.037  -0.012
 -0.435  -0.256   0.098  -0.224   3.041   0.409   0.219  -0.126   0.192  -0.922   0.567  -0.114  -0.162  -0.104  -0.028   0.007
 -1.405   0.090  -0.188  -0.152   0.409   1.240  -0.073   0.184   0.126  -0.385  -0.027   0.008  -0.224  -0.195   0.102   0.016
  0.090  -2.439   1.576  -0.173   0.219  -0.073   2.299  -1.537   0.160  -0.185  -0.430   0.091  -0.178  -0.056  -0.237   0.012
 -0.188   1.576  -2.250  -0.076  -0.126   0.184  -1.537   2.193   0.068   0.148   0.750  -0.166   0.027   0.122   0.235  -0.002
 -0.152  -0.173  -0.076  -1.068   0.192   0.126   0.160   0.068   0.944  -0.164  -0.047   0.009  -0.195   0.127   0.027   0.013
  0.409   0.219  -0.127   0.192  -0.922  -0.385  -0.185   0.148  -0.164   0.781  -0.523   0.126   0.151   0.091   0.019  -0.011
  0.033   0.462  -0.815   0.037   0.567  -0.027  -0.430   0.750  -0.047  -0.523   1.857  -0.416  -0.035  -0.003  -0.043   0.003
 -0.011  -0.085   0.156   0.006  -0.114   0.008   0.091  -0.166   0.009   0.126  -0.416   0.106   0.008   0.002   0.015  -0.001
  0.243   0.200  -0.027   0.219  -0.162  -0.224  -0.178   0.027  -0.195   0.151  -0.035   0.008   0.143  -0.022  -0.002  -0.010
  0.219   0.061  -0.135  -0.144  -0.104  -0.195  -0.056   0.122   0.127   0.091  -0.003   0.002  -0.022   0.183  -0.001   0.002
 -0.121   0.269  -0.260  -0.037  -0.028   0.102  -0.237   0.235   0.027   0.019  -0.043   0.015  -0.002  -0.001   0.078   0.000
 -0.013  -0.012   0.000  -0.012   0.007   0.016   0.012  -0.002   0.013  -0.011   0.003  -0.001  -0.010   0.002   0.000   0.001
 -0.012   0.001   0.006   0.010   0.005   0.014   0.002  -0.008  -0.009  -0.006   0.000  -0.000   0.002  -0.013   0.000  -0.000
  0.009  -0.013   0.012  -0.000   0.004  -0.007   0.014  -0.015  -0.001  -0.002   0.006  -0.002   0.000   0.000  -0.005  -0.000


------------------------ aborting loop because EDIFF is reached ----------------------------------------


 


 total charge     
 
# of ion       s       p       d       tot
------------------------------------------
    1        0.304   0.226   9.236   9.767
    2        0.303   0.227   9.249   9.779
    3        0.304   0.226   9.236   9.767
    4        0.303   0.227   9.249   9.779
    5        1.267   0.952   0.069   2.288
    6        1.272   0.941   0.069   2.282
    7        1.267   0.952   0.069   2.288
    8        1.272   0.941   0.069   2.282
    9        1.249   0.988   0.066   2.303
   10        1.250   0.993   0.066   2.309
   11        1.249   0.988   0.066   2.303
   12        1.250   0.993   0.066   2.309
   13        1.365   2.328   0.000   3.693
   14        1.359   2.336   0.000   3.695
   15        1.365   2.328   0.000   3.693
   16        1.362   2.303   0.000   3.665
   17        1.355   2.327   0.000   3.682
   18        1.355   2.327   0.000   3.682
   19        1.351   2.312   0.000   3.663
   20        1.359   2.336   0.000   3.695
   21        1.351   2.312   0.000   3.663
   22        1.350   2.330   0.000   3.680
   23        1.355   2.337   0.000   3.692
   24        1.350   2.330   0.000   3.680
   25        1.362   2.303   0.000   3.665
   26        1.355   2.337   0.000   3.692
--------------------------------------------------
tot         30.285  41.201  37.508 108.993
 
    CHARGE:  cpu time    0.0226: real time    0.0227
    FORLOC:  cpu time    0.0021: real time    0.0021
    FORNL :  cpu time    0.1196: real time    0.1204
    STRESS:  cpu time    0.5267: real time    0.5327
    FORCOR:  cpu time    0.0108: real time    0.0108
    FORHAR:  cpu time    0.0036: real time    0.0036
    MIXING:  cpu time    0.0004: real time    0.0004
    OFIELD:  cpu time    0.0000: real time    0.0000

  FORCE on cell =-STRESS in cart. coord.  units (eV):
  Direction    XX          YY          ZZ          XY          YZ          ZX
  --------------------------------------------------------------------------------------
  Alpha Z   141.32219   141.32219   141.32219
  Ewald   -2929.83079 -2170.82771 -2310.96656    -0.00000    99.73806     0.00000
  Hartree   562.46267  1026.28757   786.99457    -0.00000    63.33841    -0.00000
  E(xc)    -687.26811  -686.54671  -684.40937    -0.00000     0.58141    -0.00000
  Local    -650.55292 -1855.92770 -1480.15453    -0.00000  -151.91426     0.00000
  n-local  1625.79266  1630.68421  1624.60158    -0.93112    -6.66069    -0.39154
  augment   -11.58131   -13.01794   -15.11839     0.00000     3.81448    -0.00000
  Kinetic  1949.64020  1927.96442  1937.69044     5.47383    -9.07376     0.72621
  Fock        0.00000     0.00000     0.00000     0.00000     0.00000     0.00000
  -------------------------------------------------------------------------------------
  Total      -0.01540    -0.06167    -0.04007     0.00000    -0.17635     0.00000
  in kB      -0.03667    -0.14682    -0.09540     0.00000    -0.41981     0.00000
  external pressure =       -0.09 kB  Pullay stress =        0.00 kB


 VOLUME and BASIS-vectors are now :
 -----------------------------------------------------------------------------
  energy-cutoff  :      300.00
  volume of cell :      673.02
      direct lattice vectors                 reciprocal lattice vectors
     4.252812397  5.173323692  0.263365591     0.117569258  0.097342619 -0.013611797
    -4.252812397  5.173323692  0.263365591    -0.117569258  0.097342619 -0.013611797
     0.000000000  2.154112610 15.404796439     0.000000000 -0.003328404  0.065380270

  length of vectors
     6.702167764  6.702167764 15.554676289     0.153242935  0.153242935  0.065464938


 FORCES acting on ions
    electron-ion (+dipol)            ewald-force                    non-local-force                 convergence-correction
 -----------------------------------------------------------------------------------------------
   -.442E+02 0.840E+01 0.225E+02   0.439E+02 -.901E+01 -.222E+02   0.284E+00 0.588E+00 -.210E+00   -.765E-03 0.206E-02 -.184E-02
   -.442E+02 -.840E+01 -.225E+02   0.439E+02 0.901E+01 0.222E+02   0.284E+00 -.588E+00 0.210E+00   -.765E-03 -.206E-02 0.184E-02
   0.442E+02 -.840E+01 -.225E+02   -.439E+02 0.901E+01 0.222E+02   -.284E+00 -.588E+00 0.210E+00   0.765E-03 -.206E-02 0.184E-02
   0.442E+02 0.840E+01 0.225E+02   -.439E+02 -.901E+01 -.222E+02   -.284E+00 0.588E+00 -.210E+00   0.765E-03 0.206E-02 -.184E-02
   -.230E+01 -.315E+02 0.353E+02   0.313E+01 0.388E+02 -.429E+02   -.833E+00 -.734E+01 0.760E+01   -.117E-03 -.147E-02 0.814E-03
   0.230E+01 -.315E+02 0.353E+02   -.313E+01 0.388E+02 -.429E+02   0.833E+00 -.734E+01 0.760E+01   0.117E-03 -.147E-02 0.814E-03
   0.230E+01 0.315E+02 -.353E+02   -.313E+01 -.388E+02 0.429E+02   0.833E+00 0.734E+01 -.760E+01   0.117E-03 0.147E-02 -.814E-03
   -.230E+01 0.315E+02 -.353E+02   0.313E+01 -.388E+02 0.429E+02   -.833E+00 0.734E+01 -.760E+01   -.117E-03 0.147E-02 -.814E-03
   0.159E+02 -.165E+02 0.541E+02   -.227E+02 0.195E+02 -.622E+02   0.680E+01 -.307E+01 0.812E+01   -.202E-04 -.409E-03 -.862E-03
   0.159E+02 0.165E+02 -.541E+02   -.227E+02 -.195E+02 0.622E+02   0.680E+01 0.307E+01 -.812E+01   -.202E-04 0.409E-03 0.862E-03
   -.159E+02 0.165E+02 -.541E+02   0.227E+02 -.195E+02 0.622E+02   -.680E+01 0.307E+01 -.812E+01   0.202E-04 0.409E-03 0.862E-03
   -.159E+02 -.165E+02 0.541E+02   0.227E+02 0.195E+02 -.622E+02   -.680E+01 -.307E+01 0.812E+01   0.202E-04 -.409E-03 -.862E-03
   0.207E+02 -.471E+02 -.170E+02   -.235E+02 0.479E+02 0.124E+02   0.278E+01 -.833E+00 0.457E+01   -.712E-03 0.531E-03 0.443E-02
   0.180E+02 -.130E+02 0.815E+02   -.206E+02 0.114E+02 -.819E+02   0.255E+01 0.159E+01 0.476E+00   0.112E-02 -.159E-02 -.421E-02
   -.207E+02 0.471E+02 0.170E+02   0.235E+02 -.479E+02 -.124E+02   -.278E+01 0.833E+00 -.457E+01   0.712E-03 -.531E-03 -.443E-02
   -.207E+02 -.471E+02 -.170E+02   0.235E+02 0.479E+02 0.124E+02   -.278E+01 -.833E+00 0.457E+01   0.712E-03 0.531E-03 0.443E-02
   -.549E+02 0.112E-11 0.390E-11   0.525E+02 0.269E-13 0.426E-13   0.235E+01 -.520E-17 -.347E-17   0.512E-03 -.370E-12 -.271E-11
   0.549E+02 0.780E-12 -.290E-12   -.525E+02 0.666E-15 -.355E-13   -.235E+01 -.607E-17 -.347E-17   -.512E-03 0.190E-13 0.554E-12
   -.180E+02 -.130E+02 0.815E+02   0.206E+02 0.114E+02 -.819E+02   -.255E+01 0.159E+01 0.476E+00   -.112E-02 -.159E-02 -.421E-02
   -.180E+02 0.130E+02 -.815E+02   0.206E+02 -.114E+02 0.819E+02   -.255E+01 -.159E+01 -.476E+00   -.112E-02 0.159E-02 0.421E-02
   0.180E+02 0.130E+02 -.815E+02   -.206E+02 -.114E+02 0.819E+02   0.255E+01 -.159E+01 -.476E+00   0.112E-02 0.159E-02 0.421E-02
   0.986E+01 0.126E+02 -.587E+02   -.123E+02 -.116E+02 0.589E+02   0.247E+01 -.967E+00 -.288E+00   0.879E-03 -.232E-04 0.355E-02
   -.986E+01 0.126E+02 -.587E+02   0.123E+02 -.116E+02 0.589E+02   -.247E+01 -.967E+00 -.288E+00   -.879E-03 -.232E-04 0.355E-02
   -.986E+01 -.126E+02 0.587E+02   0.123E+02 0.116E+02 -.589E+02   -.247E+01 0.967E+00 0.288E+00   -.879E-03 0.232E-04 -.355E-02
   0.207E+02 0.471E+02 0.170E+02   -.235E+02 -.479E+02 -.124E+02   0.278E+01 0.833E+00 -.457E+01   -.712E-03 -.531E-03 -.443E-02
   0.986E+01 -.126E+02 0.587E+02   -.123E+02 0.116E+02 -.589E+02   0.247E+01 0.967E+00 0.288E+00   0.879E-03 0.232E-04 -.355E-02
 -----------------------------------------------------------------------------------------------
   -.207E-11 0.579E-11 0.112E-10   -.231E-13 0.355E-14 0.497E-13   0.000E+00 0.189E-14 0.111E-15   -.319E-11 0.130E-12 -.958E-11
 
 
 POSITION                                       TOTAL-FORCE (eV/Angst)
 -----------------------------------------------------------------------------------
     -2.10491      3.86768      3.41125        -0.015916     -0.014873      0.019117
     -2.10491      7.55602      4.81788        -0.015916      0.014873     -0.019117
      2.10491      8.63308     12.52028         0.015916      0.014873     -0.019117
      2.10491      4.94474     11.11365         0.015916     -0.014873      0.019117
     -0.15490      7.00285      0.70314        -0.002502      0.030280      0.029624
      0.15490      8.07991      8.40554         0.002502      0.030280      0.029624
      0.15490      5.49791     15.22839         0.002502     -0.030280     -0.029624
     -0.15490      4.42085      7.52599        -0.002502     -0.030280     -0.029624
     -3.32085      6.59742      9.59868        -0.001310     -0.034100     -0.009003
     -3.32085      6.98039     14.03525        -0.001310      0.034100      0.009003
      3.32085      5.90334      6.33285         0.001310      0.034100      0.009003
      3.32085      5.52037      1.89628         0.001310     -0.034100     -0.009003
      1.32889      4.67194      5.48973        -0.008894      0.001191      0.010754
     -1.74691      8.35836      2.44372        -0.011438     -0.010105     -0.011467
     -1.32889      7.82882     10.44180         0.008894     -0.001191     -0.010754
     -1.32889      5.74899     13.19212         0.008894      0.001191      0.010754
      3.94320      6.78891     11.81696        -0.009577     -0.000000      0.000000
     -3.94320      5.71185      4.11456         0.009577     -0.000000      0.000000
      1.74691      9.43542     10.14612         0.011438     -0.010105     -0.011467
      1.74691      4.14240     13.48781         0.011438      0.010105      0.011467
     -1.74691      3.06534      5.78541        -0.011438      0.010105      0.011467
     -1.56620      6.39341      7.02575         0.007994      0.009210     -0.005673
      1.56620      7.47046     14.72815        -0.007994      0.009210     -0.005673
      1.56620      6.10735      8.90577        -0.007994     -0.009210      0.005673
      1.32889      6.75177      2.73940        -0.008894     -0.001191     -0.010754
     -1.56620      5.03030      1.20338         0.007994     -0.009210      0.005673
 -----------------------------------------------------------------------------------
    total drift:                               -0.000000      0.000000      0.000000


--------------------------------------------------------------------------------------------------------



  FREE ENERGIE OF THE ION-ELECTRON SYSTEM (eV)
  ---------------------------------------------------
  free  energy   TOTEN  =      -106.69673772 eV

  energy  without entropy=     -106.69673772  energy(sigma->0) =     -106.69673772
 
 d Force = 0.1032196E-04[-0.120E-04, 0.326E-04]  d Energy =-0.1096672E-04 0.213E-04
 d Force =-0.2420811E-01[-0.242E-01,-0.242E-01]  d Ewald  = 0.1235660E+00-0.148E+00


--------------------------------------------------------------------------------------------------------


    POTLOK:  cpu time    0.1729: real time    0.1729


--------------------------------------------------------------------------------------------------------




--------------------------------------------------------------------------------------------------------


  
 reached required accuracy - stopping structural energy minimisation
     LOOP+:  cpu time    2.6850: real time    2.9064
    4ORBIT:  cpu time    0.0000: real time    0.0000
 


 total charge     
 
# of ion       s       p       d       tot
------------------------------------------
    1        0.304   0.226   9.236   9.767
    2        0.303   0.227   9.249   9.779
    3        0.304   0.226   9.236   9.767
    4        0.303   0.227   9.249   9.779
    5        1.267   0.952   0.069   2.288
    6        1.272   0.941   0.069   2.282
    7        1.267   0.952   0.069   2.288
    8        1.272   0.941   0.069   2.282
    9        1.249   0.988   0.066   2.303
   10        1.250   0.993   0.066   2.309
   11        1.249   0.988   0.066   2.303
   12        1.250   0.993   0.066   2.309
   13        1.365   2.328   0.000   3.693
   14        1.359   2.336   0.000   3.695
   15        1.365   2.328   0.000   3.693
   16        1.362   2.303   0.000   3.665
   17        1.355   2.327   0.000   3.682
   18        1.355   2.327   0.000   3.682
   19        1.351   2.312   0.000   3.663
   20        1.359   2.336   0.000   3.695
   21        1.351   2.312   0.000   3.663
   22        1.350   2.330   0.000   3.680
   23        1.355   2.337   0.000   3.692
   24        1.350   2.330   0.000   3.680
   25        1.362   2.303   0.000   3.665
   26        1.355   2.337   0.000   3.692
--------------------------------------------------
tot         30.285  41.201  37.508 108.993
 

 total amount of memory used by VASP MPI-rank0    43557. kBytes
=======================================================================

   base      :      30000. kBytes
   nonlr-proj:       2313. kBytes
   fftplans  :        922. kBytes
   grid      :       3553. kBytes
   one-center:        404. kBytes
   wavefun   :       6365. kBytes
 
  
  
 General timing and accounting informations for this job:
 ========================================================
  
                  Total CPU time used (sec):      258.500
                            User time (sec):      253.664
                          System time (sec):        4.835
                         Elapsed time (sec):      272.340
  
                   Maximum memory used (kb):       96532.
                   Average memory used (kb):           0.
  
                          Minor page faults:        65462
                          Major page faults:            0
                 Voluntary context switches:         2740
