PROCAR new format
# of k-points:    6         # of bands:  112         # of ions:   26

 k-point     1 :   -0.00000000-0.00000000 0.25000000     weight = 0.11111111

band     1 # energy   -9.63207049 # occ.  2.00000000
 
ion      s      p      d    tot
    1  0.002  0.000  0.000  0.002
    2  0.002  0.000  0.000  0.002
    3  0.002  0.000  0.000  0.002
    4  0.002  0.000  0.000  0.002
    5  0.019  0.001  0.000  0.020
    6  0.019  0.001  0.000  0.020
    7  0.019  0.001  0.000  0.020
    8  0.019  0.001  0.000  0.020
    9  0.017  0.001  0.000  0.018
   10  0.017  0.001  0.000  0.018
   11  0.017  0.001  0.000  0.018
   12  0.017  0.001  0.000  0.018
   13  0.040  0.001  0.000  0.041
   14  0.025  0.000  0.000  0.025
   15  0.040  0.001  0.000  0.041
   16  0.040  0.001  0.000  0.041
   17  0.026  0.000  0.000  0.026
   18  0.026  0.000  0.000  0.026
   19  0.025  0.000  0.000  0.025
   20  0.025  0.000  0.000  0.025
   21  0.025  0.000  0.000  0.025
   22  0.032  0.001  0.000  0.033
   23  0.032  0.001  0.000  0.033
   24  0.032  0.001  0.000  0.033
   25  0.040  0.001  0.000  0.041
   26  0.032  0.001  0.000  0.033
tot    0.587  0.014  0.001  0.601
 
band     2 # energy   -9.49490946 # occ.  2.00000000
 
ion      s      p      d    tot
    1  0.001  0.000  0.000  0.001
    2  0.001  0.000  0.000  0.001
    3  0.001  0.000  0.000  0.001
    4  0.001  0.000  0.000  0.001
    5  0.022  0.001  0.000  0.023
    6  0.022  0.001  0.000  0.023
    7  0.022  0.001  0.000  0.023
    8  0.022  0.001  0.000  0.023
    9  0.014  0.001  0.000  0.015
   10  0.014  0.001  0.000  0.015
   11  0.014  0.001  0.000  0.015
   12  0.014  0.001  0.000  0.015
   13  0.040  0.001  0.000  0.040
   14  0.024  0.000  0.000  0.025
   15  0.040  0.001  0.000  0.040
   16  0.040  0.001  0.000  0.040
   17  0.015  0.000  0.000  0.015
   18  0.015  0.000  0.000  0.015
   19  0.024  0.000  0.000  0.025
   20  0.024  0.000  0.000  0.025
   21  0.024  0.000  0.000  0.025
   22  0.038  0.001  0.000  0.039
   23  0.038  0.001  0.000  0.039
   24  0.038  0.001  0.000  0.039
   25  0.040  0.001  0.000  0.040
   26  0.038  0.001  0.000  0.039
tot    0.587  0.017  0.001  0.605
 
band     3 # energy   -9.16087119 # occ.  2.00000000
 
ion      s      p      d    tot
    1  0.001  0.000  0.000  0.002
    2  0.001  0.000  0.000  0.002
    3  0.001  0.000  0.000  0.002
    4  0.001  0.000  0.000  0.002
    5  0.009  0.001  0.000  0.010
    6  0.009  0.001  0.000  0.010
    7  0.009  0.001  0.000  0.010
    8  0.009  0.001  0.000  0.010
    9  0.021  0.002  0.000  0.023
   10  0.021  0.002  0.000  0.023
   11  0.021  0.002  0.000  0.023
   12  0.021  0.002  0.000  0.023
   13  0.056  0.001  0.000  0.057
   14  0.029  0.000  0.000  0.029
   15  0.056  0.001  0.000  0.057
   16  0.056  0.001  0.000  0.057
   17  0.052  0.001  0.000  0.052
   18  0.052  0.001  0.000  0.052
   19  0.029  0.000  0.000  0.029
   20  0.029  0.000  0.000  0.029
   21  0.029  0.000  0.000  0.029
   22  0.010  0.000  0.000  0.010
   23  0.010  0.000  0.000  0.010
   24  0.010  0.000  0.000  0.010
   25  0.056  0.001  0.000  0.057
   26  0.010  0.000  0.000  0.010
tot    0.603  0.022  0.001  0.626
 
band     4 # energy   -8.86949309 # occ.  2.00000000
 
ion      s      p      d    tot
    1  0.000  0.001  0.001  0.002
    2  0.000  0.001  0.001  0.002
    3  0.000  0.001  0.001  0.002
    4  0.000  0.001  0.001  0.002
    5  0.010  0.002  0.000  0.012
    6  0.010  0.002  0.000  0.012
    7  0.010  0.002  0.000  0.012
    8  0.010  0.002  0.000  0.012
    9  0.018  0.002  0.000  0.020
   10  0.018  0.002  0.000  0.020
   11  0.018  0.002  0.000  0.020
   12  0.018  0.002  0.000  0.020
   13  0.070  0.001  0.000  0.071
   14  0.036  0.001  0.000  0.036
   15  0.070  0.001  0.000  0.071
   16  0.070  0.001  0.000  0.071
   17  0.021  0.001  0.000  0.022
   18  0.021  0.001  0.000  0.022
   19  0.036  0.001  0.000  0.036
   20  0.036  0.001  0.000  0.036
   21  0.036  0.001  0.000  0.036
   22  0.008  0.000  0.000  0.008
   23  0.008  0.000  0.000  0.008
   24  0.008  0.000  0.000  0.008
   25  0.070  0.001  0.000  0.071
   26  0.008  0.000  0.000  0.008
tot    0.610  0.026  0.003  0.640
 
band     5 # energy   -8.40032154 # occ.  2.00000000
 
ion      s      p      d    tot
    1  0.000  0.001  0.002  0.002
    2  0.000  0.001  0.002  0.002
    3  0.000  0.001  0.002  0.002
    4  0.000  0.001  0.002  0.002
    5  0.010  0.002  0.000  0.012
    6  0.010  0.002  0.000  0.012
    7  0.010  0.002  0.000  0.012
    8  0.010  0.002  0.000  0.012
    9  0.010  0.003  0.000  0.013
   10  0.010  0.003  0.000  0.013
   11  0.010  0.003  0.000  0.013
   12  0.010  0.003  0.000  0.013
   13  0.014  0.001  0.000  0.015
   14  0.008  0.000  0.000  0.008
   15  0.014  0.001  0.000  0.015
   16  0.014  0.001  0.000  0.015
   17  0.138  0.001  0.000  0.139
   18  0.138  0.001  0.000  0.139
   19  0.008  0.000  0.000  0.008
   20  0.008  0.000  0.000  0.008
   21  0.008  0.000  0.000  0.008
   22  0.045  0.001  0.000  0.045
   23  0.045  0.001  0.000  0.045
   24  0.045  0.001  0.000  0.045
   25  0.014  0.001  0.000  0.015
   26  0.045  0.001  0.000  0.045
tot    0.621  0.028  0.007  0.656
 
band     6 # energy   -8.16607596 # occ.  2.00000000
 
ion      s      p      d    tot
    1  0.000  0.001  0.002  0.003
    2  0.000  0.001  0.002  0.003
    3  0.000  0.001  0.002  0.003
    4  0.000  0.001  0.002  0.003
    5  0.007  0.002  0.000  0.009
    6  0.007  0.002  0.000  0.009
    7  0.007  0.002  0.000  0.009
    8  0.007  0.002  0.000  0.009
    9  0.006  0.003  0.000  0.009
   10  0.006  0.003  0.000  0.009
   11  0.006  0.003  0.000  0.009
   12  0.006  0.003  0.000  0.009
   13  0.037  0.001  0.000  0.038
   14  0.010  0.000  0.000  0.011
   15  0.037  0.001  0.000  0.038
   16  0.037  0.001  0.000  0.038
   17  0.146  0.000  0.000  0.146
   18  0.146  0.000  0.000  0.146
   19  0.010  0.000  0.000  0.011
   20  0.010  0.000  0.000  0.011
   21  0.010  0.000  0.000  0.011
   22  0.025  0.000  0.000  0.025
   23  0.025  0.000  0.000  0.025
   24  0.025  0.000  0.000  0.025
   25  0.037  0.001  0.000  0.038
   26  0.025  0.000  0.000  0.025
tot    0.635  0.026  0.009  0.670
 
band     7 # energy   -7.96559601 # occ.  2.00000000
 
ion      s      p      d    tot
    1  0.000  0.001  0.002  0.003
    2  0.000  0.001  0.002  0.003
    3  0.000  0.001  0.002  0.003
    4  0.000  0.001  0.002  0.003
    5  0.003  0.003  0.000  0.006
    6  0.003  0.003  0.000  0.006
    7  0.003  0.003  0.000  0.006
    8  0.003  0.003  0.000  0.006
    9  0.006  0.002  0.000  0.008
   10  0.006  0.002  0.000  0.008
   11  0.006  0.002  0.000  0.008
   12  0.006  0.002  0.000  0.008
   13  0.046  0.000  0.000  0.046
   14  0.025  0.000  0.000  0.026
   15  0.046  0.000  0.000  0.046
   16  0.046  0.000  0.000  0.046
   17  0.045  0.000  0.000  0.046
   18  0.045  0.000  0.000  0.046
   19  0.025  0.000  0.000  0.026
   20  0.025  0.000  0.000  0.026
   21  0.025  0.000  0.000  0.026
   22  0.058  0.000  0.000  0.059
   23  0.058  0.000  0.000  0.059
   24  0.058  0.000  0.000  0.059
   25  0.046  0.000  0.000  0.046
   26  0.058  0.000  0.000  0.059
tot    0.646  0.024  0.011  0.681
 
band     8 # energy   -7.90843836 # occ.  2.00000000
 
ion      s      p      d    tot
    1  0.000  0.001  0.002  0.003
    2  0.000  0.001  0.002  0.003
    3  0.000  0.001  0.002  0.003
    4  0.000  0.001  0.002  0.003
    5  0.000  0.002  0.000  0.003
    6  0.000  0.002  0.000  0.003
    7  0.000  0.002  0.000  0.003
    8  0.000  0.002  0.000  0.003
    9  0.000  0.003  0.000  0.003
   10  0.000  0.003  0.000  0.003
   11  0.000  0.003  0.000  0.003
   12  0.000  0.003  0.000  0.003
   13  0.100  0.000  0.000  0.101
   14  0.008  0.000  0.000  0.008
   15  0.100  0.000  0.000  0.101
   16  0.100  0.000  0.000  0.101
   17  0.051  0.000  0.000  0.051
   18  0.051  0.000  0.000  0.051
   19  0.008  0.000  0.000  0.008
   20  0.008  0.000  0.000  0.008
   21  0.008  0.000  0.000  0.008
   22  0.028  0.000  0.000  0.028
   23  0.028  0.000  0.000  0.028
   24  0.028  0.000  0.000  0.028
   25  0.100  0.000  0.000  0.101
   26  0.028  0.000  0.000  0.028
tot    0.648  0.025  0.010  0.683
 
band     9 # energy   -7.89242585 # occ.  2.00000000
 
ion      s      p      d    tot
    1  0.001  0.001  0.002  0.003
    2  0.001  0.001  0.002  0.003
    3  0.001  0.001  0.002  0.003
    4  0.001  0.001  0.002  0.003
    5  0.002  0.003  0.000  0.006
    6  0.002  0.003  0.000  0.006
    7  0.002  0.003  0.000  0.006
    8  0.002  0.003  0.000  0.006
    9  0.001  0.001  0.000  0.002
   10  0.001  0.001  0.000  0.002
   11  0.001  0.001  0.000  0.002
   12  0.001  0.001  0.000  0.002
   13  0.014  0.000  0.000  0.014
   14  0.008  0.000  0.000  0.008
   15  0.014  0.000  0.000  0.014
   16  0.014  0.000  0.000  0.014
   17  0.001  0.000  0.000  0.001
   18  0.001  0.000  0.000  0.001
   19  0.008  0.000  0.000  0.008
   20  0.008  0.000  0.000  0.008
   21  0.008  0.000  0.000  0.008
   22  0.134  0.000  0.000  0.134
   23  0.134  0.000  0.000  0.134
   24  0.134  0.000  0.000  0.134
   25  0.014  0.000  0.000  0.014
   26  0.134  0.000  0.000  0.134
tot    0.642  0.022  0.010  0.674
 
band    10 # energy   -7.89214045 # occ.  2.00000000
 
ion      s      p      d    tot
    1  0.001  0.000  0.002  0.004
    2  0.001  0.000  0.002  0.004
    3  0.001  0.000  0.002  0.004
    4  0.001  0.000  0.002  0.004
    5  0.004  0.003  0.001  0.007
    6  0.004  0.003  0.001  0.007
    7  0.004  0.003  0.001  0.007
    8  0.004  0.003  0.001  0.007
    9  0.003  0.001  0.000  0.003
   10  0.003  0.001  0.000  0.003
   11  0.003  0.001  0.000  0.003
   12  0.003  0.001  0.000  0.003
   13  0.001  0.000  0.000  0.001
   14  0.012  0.000  0.000  0.012
   15  0.001  0.000  0.000  0.001
   16  0.001  0.000  0.000  0.001
   17  0.001  0.000  0.000  0.001
   18  0.001  0.000  0.000  0.001
   19  0.012  0.000  0.000  0.012
   20  0.012  0.000  0.000  0.012
   21  0.012  0.000  0.000  0.012
   22  0.140  0.000  0.000  0.140
   23  0.140  0.000  0.000  0.140
   24  0.140  0.000  0.000  0.140
   25  0.001  0.000  0.000  0.001
   26  0.140  0.000  0.000  0.140
tot    0.647  0.019  0.010  0.675
 
band    11 # energy   -7.82097288 # occ.  2.00000000
 
ion      s      p      d    tot
    1  0.001  0.001  0.001  0.003
    2  0.001  0.001  0.001  0.003
    3  0.001  0.001  0.001  0.003
    4  0.001  0.001  0.001  0.003
    5  0.000  0.002  0.000  0.002
    6  0.000  0.002  0.000  0.002
    7  0.000  0.002  0.000  0.002
    8  0.000  0.002  0.000  0.002
    9  0.000  0.003  0.000  0.004
   10  0.000  0.003  0.000  0.004
   11  0.000  0.003  0.000  0.004
   12  0.000  0.003  0.000  0.004
   13  0.070  0.000  0.000  0.071
   14  0.078  0.000  0.000  0.078
   15  0.070  0.000  0.000  0.071
   16  0.070  0.000  0.000  0.071
   17  0.000  0.000  0.000  0.000
   18  0.000  0.000  0.000  0.000
   19  0.078  0.000  0.000  0.078
   20  0.078  0.000  0.000  0.078
   21  0.078  0.000  0.000  0.078
   22  0.012  0.000  0.000  0.012
   23  0.012  0.000  0.000  0.012
   24  0.012  0.000  0.000  0.012
   25  0.070  0.000  0.000  0.071
   26  0.012  0.000  0.000  0.012
tot    0.647  0.028  0.005  0.679
 
band    12 # energy   -7.77400510 # occ.  2.00000000
 
ion      s      p      d    tot
    1  0.001  0.001  0.001  0.003
    2  0.001  0.001  0.001  0.003
    3  0.001  0.001  0.001  0.003
    4  0.001  0.001  0.001  0.003
    5  0.000  0.002  0.000  0.002
    6  0.000  0.002  0.000  0.002
    7  0.000  0.002  0.000  0.002
    8  0.000  0.002  0.000  0.002
    9  0.000  0.003  0.000  0.004
   10  0.000  0.003  0.000  0.004
   11  0.000  0.003  0.000  0.004
   12  0.000  0.003  0.000  0.004
   13  0.051  0.000  0.000  0.051
   14  0.093  0.000  0.000  0.093
   15  0.051  0.000  0.000  0.051
   16  0.051  0.000  0.000  0.051
   17  0.004  0.000  0.000  0.004
   18  0.004  0.000  0.000  0.004
   19  0.093  0.000  0.000  0.093
   20  0.093  0.000  0.000  0.093
   21  0.093  0.000  0.000  0.093
   22  0.016  0.000  0.000  0.016
   23  0.016  0.000  0.000  0.016
   24  0.016  0.000  0.000  0.016
   25  0.051  0.000  0.000  0.051
   26  0.016  0.000  0.000  0.016
tot    0.650  0.027  0.005  0.682
 
band    13 # energy   -7.68243968 # occ.  2.00000000
 
ion      s      p      d    tot
    1  0.000  0.001  0.001  0.003
    2  0.000  0.001  0.001  0.003
    3  0.000  0.001  0.001  0.003
    4  0.000  0.001  0.001  0.003
    5  0.000  0.002  0.000  0.002
    6  0.000  0.002  0.000  0.002
    7  0.000  0.002  0.000  0.002
    8  0.000  0.002  0.000  0.002
    9  0.000  0.003  0.000  0.004
   10  0.000  0.003  0.000  0.004
   11  0.000  0.003  0.000  0.004
   12  0.000  0.003  0.000  0.004
   13  0.011  0.000  0.000  0.011
   14  0.112  0.000  0.000  0.113
   15  0.011  0.000  0.000  0.011
   16  0.011  0.000  0.000  0.011
   17  0.046  0.000  0.000  0.046
   18  0.046  0.000  0.000  0.046
   19  0.112  0.000  0.000  0.113
   20  0.112  0.000  0.000  0.113
   21  0.112  0.000  0.000  0.113
   22  0.016  0.000  0.000  0.016
   23  0.016  0.000  0.000  0.016
   24  0.016  0.000  0.000  0.016
   25  0.011  0.000  0.000  0.011
   26  0.016  0.000  0.000  0.016
tot    0.653  0.026  0.008  0.687
 
band    14 # energy   -7.66659338 # occ.  2.00000000
 
ion      s      p      d    tot
    1  0.000  0.001  0.002  0.003
    2  0.000  0.001  0.002  0.003
    3  0.000  0.001  0.002  0.003
    4  0.000  0.001  0.002  0.003
    5  0.000  0.001  0.000  0.001
    6  0.000  0.001  0.000  0.001
    7  0.000  0.001  0.000  0.001
    8  0.000  0.001  0.000  0.001
    9  0.000  0.004  0.000  0.004
   10  0.000  0.004  0.000  0.004
   11  0.000  0.004  0.000  0.004
   12  0.000  0.004  0.000  0.004
   13  0.025  0.000  0.000  0.025
   14  0.117  0.000  0.000  0.118
   15  0.025  0.000  0.000  0.025
   16  0.025  0.000  0.000  0.025
   17  0.028  0.000  0.000  0.028
   18  0.028  0.000  0.000  0.028
   19  0.117  0.000  0.000  0.118
   20  0.117  0.000  0.000  0.118
   21  0.117  0.000  0.000  0.118
   22  0.008  0.000  0.000  0.008
   23  0.008  0.000  0.000  0.008
   24  0.008  0.000  0.000  0.008
   25  0.025  0.000  0.000  0.025
   26  0.008  0.000  0.000  0.008
tot    0.657  0.024  0.009  0.690
 
band    15 # energy   -5.06601840 # occ.  2.00000000
 
ion      s      p      d    tot
    1  0.001  0.000  0.001  0.001
    2  0.001  0.000  0.001  0.001
    3  0.001  0.000  0.001  0.001
    4  0.001  0.000  0.001  0.001
    5  0.065  0.000  0.000  0.065
    6  0.065  0.000  0.000  0.065
    7  0.065  0.000  0.000  0.065
    8  0.065  0.000  0.000  0.065
    9  0.058  0.001  0.000  0.059
   10  0.058  0.001  0.000  0.059
   11  0.058  0.001  0.000  0.059
   12  0.058  0.001  0.000  0.059
   13  0.000  0.007  0.000  0.008
   14  0.002  0.004  0.000  0.006
   15  0.000  0.007  0.000  0.008
   16  0.000  0.007  0.000  0.008
   17  0.000  0.008  0.000  0.008
   18  0.000  0.008  0.000  0.008
   19  0.002  0.004  0.000  0.006
   20  0.002  0.004  0.000  0.006
   21  0.002  0.004  0.000  0.006
   22  0.006  0.004  0.000  0.010
   23  0.006  0.004  0.000  0.010
   24  0.006  0.004  0.000  0.010
   25  0.000  0.007  0.000  0.008
   26  0.006  0.004  0.000  0.010
tot    0.529  0.083  0.003  0.614
 
band    16 # energy   -4.99796737 # occ.  2.00000000
 
ion      s      p      d    tot
    1  0.000  0.000  0.001  0.002
    2  0.000  0.000  0.001  0.002
    3  0.000  0.000  0.001  0.002
    4  0.000  0.000  0.001  0.002
    5  0.043  0.001  0.000  0.044
    6  0.043  0.001  0.000  0.044
    7  0.043  0.001  0.000  0.044
    8  0.043  0.001  0.000  0.044
    9  0.074  0.001  0.000  0.075
   10  0.074  0.001  0.000  0.075
   11  0.074  0.001  0.000  0.075
   12  0.074  0.001  0.000  0.075
   13  0.003  0.007  0.000  0.010
   14  0.004  0.005  0.000  0.009
   15  0.003  0.007  0.000  0.010
   16  0.003  0.007  0.000  0.010
   17  0.001  0.010  0.000  0.011
   18  0.001  0.010  0.000  0.011
   19  0.004  0.005  0.000  0.009
   20  0.004  0.005  0.000  0.009
   21  0.004  0.005  0.000  0.009
   22  0.006  0.003  0.000  0.009
   23  0.006  0.003  0.000  0.009
   24  0.006  0.003  0.000  0.009
   25  0.003  0.007  0.000  0.010
   26  0.006  0.003  0.000  0.009
tot    0.526  0.086  0.004  0.616
 
band    17 # energy   -4.73151725 # occ.  2.00000000
 
ion      s      p      d    tot
    1  0.000  0.000  0.001  0.002
    2  0.000  0.000  0.001  0.002
    3  0.000  0.000  0.001  0.002
    4  0.000  0.000  0.001  0.002
    5  0.077  0.001  0.000  0.078
    6  0.077  0.001  0.000  0.078
    7  0.077  0.001  0.000  0.078
    8  0.077  0.001  0.000  0.078
    9  0.037  0.001  0.000  0.038
   10  0.037  0.001  0.000  0.038
   11  0.037  0.001  0.000  0.038
   12  0.037  0.001  0.000  0.038
   13  0.003  0.008  0.000  0.010
   14  0.001  0.005  0.000  0.006
   15  0.003  0.008  0.000  0.010
   16  0.003  0.008  0.000  0.010
   17  0.016  0.003  0.000  0.019
   18  0.016  0.003  0.000  0.019
   19  0.001  0.005  0.000  0.006
   20  0.001  0.005  0.000  0.006
   21  0.001  0.005  0.000  0.006
   22  0.007  0.005  0.000  0.013
   23  0.007  0.005  0.000  0.013
   24  0.007  0.005  0.000  0.013
   25  0.003  0.008  0.000  0.010
   26  0.007  0.005  0.000  0.013
tot    0.537  0.083  0.005  0.625
 
band    18 # energy   -4.48282746 # occ.  2.00000000
 
ion      s      p      d    tot
    1  0.000  0.001  0.001  0.002
    2  0.000  0.001  0.001  0.002
    3  0.000  0.001  0.001  0.002
    4  0.000  0.001  0.001  0.002
    5  0.047  0.001  0.000  0.048
    6  0.047  0.001  0.000  0.048
    7  0.047  0.001  0.000  0.048
    8  0.047  0.001  0.000  0.048
    9  0.061  0.001  0.000  0.062
   10  0.061  0.001  0.000  0.062
   11  0.061  0.001  0.000  0.062
   12  0.061  0.001  0.000  0.062
   13  0.002  0.008  0.000  0.010
   14  0.002  0.006  0.000  0.008
   15  0.002  0.008  0.000  0.010
   16  0.002  0.008  0.000  0.010
   17  0.024  0.003  0.000  0.027
   18  0.024  0.003  0.000  0.027
   19  0.002  0.006  0.000  0.008
   20  0.002  0.006  0.000  0.008
   21  0.002  0.006  0.000  0.008
   22  0.010  0.004  0.000  0.014
   23  0.010  0.004  0.000  0.014
   24  0.010  0.004  0.000  0.014
   25  0.002  0.008  0.000  0.010
   26  0.010  0.004  0.000  0.014
tot    0.536  0.091  0.006  0.633
 
band    19 # energy   -3.65534103 # occ.  2.00000000
 
ion      s      p      d    tot
    1  0.000  0.001  0.003  0.004
    2  0.000  0.001  0.003  0.004
    3  0.000  0.001  0.003  0.004
    4  0.000  0.001  0.003  0.004
    5  0.048  0.001  0.000  0.049
    6  0.048  0.001  0.000  0.049
    7  0.048  0.001  0.000  0.049
    8  0.048  0.001  0.000  0.049
    9  0.058  0.001  0.000  0.059
   10  0.058  0.001  0.000  0.059
   11  0.058  0.001  0.000  0.059
   12  0.058  0.001  0.000  0.059
   13  0.020  0.004  0.000  0.024
   14  0.013  0.004  0.000  0.017
   15  0.020  0.004  0.000  0.024
   16  0.020  0.004  0.000  0.024
   17  0.004  0.011  0.000  0.015
   18  0.004  0.011  0.000  0.015
   19  0.013  0.004  0.000  0.017
   20  0.013  0.004  0.000  0.017
   21  0.013  0.004  0.000  0.017
   22  0.001  0.006  0.000  0.006
   23  0.001  0.006  0.000  0.006
   24  0.001  0.006  0.000  0.006
   25  0.020  0.004  0.000  0.024
   26  0.001  0.006  0.000  0.006
tot    0.570  0.086  0.011  0.667
 
band    20 # energy   -3.42839676 # occ.  2.00000000
 
ion      s      p      d    tot
    1  0.003  0.001  0.001  0.005
    2  0.003  0.001  0.001  0.005
    3  0.003  0.001  0.001  0.005
    4  0.003  0.001  0.001  0.005
    5  0.026  0.001  0.000  0.027
    6  0.026  0.001  0.000  0.027
    7  0.026  0.001  0.000  0.027
    8  0.026  0.001  0.000  0.027
    9  0.079  0.001  0.000  0.079
   10  0.079  0.001  0.000  0.079
   11  0.079  0.001  0.000  0.079
   12  0.079  0.001  0.000  0.079
   13  0.016  0.007  0.000  0.023
   14  0.010  0.006  0.000  0.017
   15  0.016  0.007  0.000  0.023
   16  0.016  0.007  0.000  0.023
   17  0.015  0.006  0.000  0.021
   18  0.015  0.006  0.000  0.021
   19  0.010  0.006  0.000  0.017
   20  0.010  0.006  0.000  0.017
   21  0.010  0.006  0.000  0.017
   22  0.001  0.004  0.000  0.005
   23  0.001  0.004  0.000  0.005
   24  0.001  0.004  0.000  0.005
   25  0.016  0.007  0.000  0.023
   26  0.001  0.004  0.000  0.005
tot    0.573  0.089  0.005  0.667
 
band    21 # energy   -3.41945950 # occ.  2.00000000
 
ion      s      p      d    tot
    1  0.006  0.000  0.004  0.010
    2  0.006  0.000  0.004  0.010
    3  0.006  0.000  0.004  0.010
    4  0.006  0.000  0.004  0.010
    5  0.058  0.000  0.000  0.058
    6  0.058  0.000  0.000  0.058
    7  0.058  0.000  0.000  0.058
    8  0.058  0.000  0.000  0.058
    9  0.031  0.001  0.000  0.032
   10  0.031  0.001  0.000  0.032
   11  0.031  0.001  0.000  0.032
   12  0.031  0.001  0.000  0.032
   13  0.012  0.005  0.000  0.017
   14  0.011  0.005  0.000  0.016
   15  0.012  0.005  0.000  0.017
   16  0.012  0.005  0.000  0.017
   17  0.003  0.002  0.000  0.005
   18  0.003  0.002  0.000  0.005
   19  0.011  0.005  0.000  0.016
   20  0.011  0.005  0.000  0.016
   21  0.011  0.005  0.000  0.016
   22  0.022  0.006  0.000  0.028
   23  0.022  0.006  0.000  0.028
   24  0.022  0.006  0.000  0.028
   25  0.012  0.005  0.000  0.017
   26  0.022  0.006  0.000  0.028
tot    0.565  0.074  0.017  0.657
 
band    22 # energy   -3.29212603 # occ.  2.00000000
 
ion      s      p      d    tot
    1  0.001  0.001  0.003  0.006
    2  0.001  0.001  0.003  0.006
    3  0.001  0.001  0.003  0.006
    4  0.001  0.001  0.003  0.006
    5  0.073  0.000  0.000  0.074
    6  0.073  0.000  0.000  0.074
    7  0.073  0.000  0.000  0.074
    8  0.073  0.000  0.000  0.074
    9  0.020  0.001  0.000  0.021
   10  0.020  0.001  0.000  0.021
   11  0.020  0.001  0.000  0.021
   12  0.020  0.001  0.000  0.021
   13  0.014  0.004  0.000  0.018
   14  0.013  0.003  0.000  0.016
   15  0.014  0.004  0.000  0.018
   16  0.014  0.004  0.000  0.018
   17  0.001  0.003  0.000  0.004
   18  0.001  0.003  0.000  0.004
   19  0.013  0.003  0.000  0.016
   20  0.013  0.003  0.000  0.016
   21  0.013  0.003  0.000  0.016
   22  0.027  0.006  0.000  0.033
   23  0.027  0.006  0.000  0.033
   24  0.027  0.006  0.000  0.033
   25  0.014  0.004  0.000  0.018
   26  0.027  0.006  0.000  0.033
tot    0.597  0.071  0.011  0.679
 
band    23 # energy   -0.98854741 # occ.  2.00000000
 
ion      s      p      d    tot
    1  0.006  0.001  0.013  0.020
    2  0.006  0.001  0.013  0.020
    3  0.006  0.001  0.013  0.020
    4  0.006  0.001  0.013  0.020
    5  0.000  0.018  0.000  0.018
    6  0.000  0.018  0.000  0.018
    7  0.000  0.018  0.000  0.018
    8  0.000  0.018  0.000  0.018
    9  0.000  0.012  0.000  0.013
   10  0.000  0.012  0.000  0.013
   11  0.000  0.012  0.000  0.013
   12  0.000  0.012  0.000  0.013
   13  0.000  0.016  0.000  0.016
   14  0.001  0.017  0.000  0.018
   15  0.000  0.016  0.000  0.016
   16  0.000  0.016  0.000  0.016
   17  0.000  0.008  0.000  0.008
   18  0.000  0.008  0.000  0.008
   19  0.001  0.017  0.000  0.018
   20  0.001  0.017  0.000  0.018
   21  0.001  0.017  0.000  0.018
   22  0.000  0.025  0.000  0.026
   23  0.000  0.025  0.000  0.026
   24  0.000  0.025  0.000  0.026
   25  0.000  0.016  0.000  0.016
   26  0.000  0.025  0.000  0.026
tot    0.032  0.373  0.055  0.460
 
band    24 # energy   -0.87498725 # occ.  2.00000000
 
ion      s      p      d    tot
    1  0.004  0.002  0.006  0.011
    2  0.004  0.002  0.006  0.011
    3  0.004  0.002  0.006  0.011
    4  0.004  0.002  0.006  0.011
    5  0.000  0.019  0.000  0.020
    6  0.000  0.019  0.000  0.020
    7  0.000  0.019  0.000  0.020
    8  0.000  0.019  0.000  0.020
    9  0.001  0.014  0.000  0.015
   10  0.001  0.014  0.000  0.015
   11  0.001  0.014  0.000  0.015
   12  0.001  0.014  0.000  0.015
   13  0.000  0.018  0.000  0.018
   14  0.001  0.010  0.000  0.011
   15  0.000  0.018  0.000  0.018
   16  0.000  0.018  0.000  0.018
   17  0.000  0.006  0.000  0.006
   18  0.000  0.006  0.000  0.006
   19  0.001  0.010  0.000  0.011
   20  0.001  0.010  0.000  0.011
   21  0.001  0.010  0.000  0.011
   22  0.001  0.029  0.000  0.030
   23  0.001  0.029  0.000  0.030
   24  0.001  0.029  0.000  0.030
   25  0.000  0.018  0.000  0.018
   26  0.001  0.029  0.000  0.030
tot    0.027  0.379  0.026  0.432
 
band    25 # energy   -0.56496232 # occ.  2.00000000
 
ion      s      p      d    tot
    1  0.001  0.001  0.054  0.055
    2  0.001  0.001  0.054  0.055
    3  0.001  0.001  0.054  0.055
    4  0.001  0.001  0.054  0.055
    5  0.000  0.004  0.000  0.004
    6  0.000  0.004  0.000  0.004
    7  0.000  0.004  0.000  0.004
    8  0.000  0.004  0.000  0.004
    9  0.000  0.019  0.000  0.020
   10  0.000  0.019  0.000  0.020
   11  0.000  0.019  0.000  0.020
   12  0.000  0.019  0.000  0.020
   13  0.000  0.008  0.000  0.008
   14  0.000  0.021  0.000  0.022
   15  0.000  0.008  0.000  0.008
   16  0.000  0.008  0.000  0.008
   17  0.000  0.038  0.000  0.038
   18  0.000  0.038  0.000  0.038
   19  0.000  0.021  0.000  0.022
   20  0.000  0.021  0.000  0.022
   21  0.000  0.021  0.000  0.022
   22  0.001  0.016  0.000  0.016
   23  0.001  0.016  0.000  0.016
   24  0.001  0.016  0.000  0.016
   25  0.000  0.008  0.000  0.008
   26  0.001  0.016  0.000  0.016
tot    0.008  0.353  0.218  0.579
 
band    26 # energy   -0.48841630 # occ.  2.00000000
 
ion      s      p      d    tot
    1  0.000  0.000  0.038  0.039
    2  0.000  0.000  0.038  0.039
    3  0.000  0.000  0.038  0.039
    4  0.000  0.000  0.038  0.039
    5  0.000  0.011  0.000  0.011
    6  0.000  0.011  0.000  0.011
    7  0.000  0.011  0.000  0.011
    8  0.000  0.011  0.000  0.011
    9  0.000  0.018  0.001  0.019
   10  0.000  0.018  0.001  0.019
   11  0.000  0.018  0.001  0.019
   12  0.000  0.018  0.001  0.019
   13  0.000  0.007  0.000  0.007
   14  0.000  0.013  0.000  0.013
   15  0.000  0.007  0.000  0.007
   16  0.000  0.007  0.000  0.007
   17  0.000  0.047  0.000  0.047
   18  0.000  0.047  0.000  0.047
   19  0.000  0.013  0.000  0.013
   20  0.000  0.013  0.000  0.013
   21  0.000  0.013  0.000  0.013
   22  0.000  0.022  0.000  0.022
   23  0.000  0.022  0.000  0.022
   24  0.000  0.022  0.000  0.022
   25  0.000  0.007  0.000  0.007
   26  0.000  0.022  0.000  0.022
tot    0.004  0.379  0.157  0.541
 
band    27 # energy   -0.41871041 # occ.  2.00000000
 
ion      s      p      d    tot
    1  0.007  0.001  0.023  0.030
    2  0.007  0.001  0.023  0.030
    3  0.007  0.001  0.023  0.030
    4  0.007  0.001  0.023  0.030
    5  0.000  0.018  0.000  0.019
    6  0.000  0.018  0.000  0.019
    7  0.000  0.018  0.000  0.019
    8  0.000  0.018  0.000  0.019
    9  0.000  0.010  0.000  0.010
   10  0.000  0.010  0.000  0.010
   11  0.000  0.010  0.000  0.010
   12  0.000  0.010  0.000  0.010
   13  0.001  0.020  0.000  0.020
   14  0.001  0.013  0.000  0.014
   15  0.001  0.020  0.000  0.020
   16  0.001  0.020  0.000  0.020
   17  0.000  0.013  0.000  0.013
   18  0.000  0.013  0.000  0.013
   19  0.001  0.013  0.000  0.014
   20  0.001  0.013  0.000  0.014
   21  0.001  0.013  0.000  0.014
   22  0.000  0.027  0.000  0.028
   23  0.000  0.027  0.000  0.028
   24  0.000  0.027  0.000  0.028
   25  0.001  0.020  0.000  0.020
   26  0.000  0.027  0.000  0.028
tot    0.034  0.379  0.095  0.508
 
band    28 # energy   -0.30368423 # occ.  2.00000000
 
ion      s      p      d    tot
    1  0.003  0.001  0.033  0.037
    2  0.003  0.001  0.033  0.037
    3  0.003  0.001  0.033  0.037
    4  0.003  0.001  0.033  0.037
    5  0.001  0.014  0.000  0.015
    6  0.001  0.014  0.000  0.015
    7  0.001  0.014  0.000  0.015
    8  0.001  0.014  0.000  0.015
    9  0.000  0.013  0.000  0.014
   10  0.000  0.013  0.000  0.014
   11  0.000  0.013  0.000  0.014
   12  0.000  0.013  0.000  0.014
   13  0.001  0.017  0.000  0.018
   14  0.001  0.019  0.000  0.020
   15  0.001  0.017  0.000  0.018
   16  0.001  0.017  0.000  0.018
   17  0.000  0.014  0.000  0.014
   18  0.000  0.014  0.000  0.014
   19  0.001  0.019  0.000  0.020
   20  0.001  0.019  0.000  0.020
   21  0.001  0.019  0.000  0.020
   22  0.001  0.020  0.000  0.020
   23  0.001  0.020  0.000  0.020
   24  0.001  0.020  0.000  0.020
   25  0.001  0.017  0.000  0.018
   26  0.001  0.020  0.000  0.020
tot    0.026  0.362  0.135  0.523
 
band    29 # energy   -0.25273742 # occ.  2.00000000
 
ion      s      p      d    tot
    1  0.002  0.002  0.048  0.051
    2  0.002  0.002  0.048  0.051
    3  0.002  0.002  0.048  0.051
    4  0.002  0.002  0.048  0.051
    5  0.000  0.014  0.000  0.015
    6  0.000  0.014  0.000  0.015
    7  0.000  0.014  0.000  0.015
    8  0.000  0.014  0.000  0.015
    9  0.000  0.007  0.000  0.007
   10  0.000  0.007  0.000  0.007
   11  0.000  0.007  0.000  0.007
   12  0.000  0.007  0.000  0.007
   13  0.001  0.021  0.000  0.021
   14  0.000  0.012  0.000  0.012
   15  0.001  0.021  0.000  0.021
   16  0.001  0.021  0.000  0.021
   17  0.000  0.014  0.000  0.014
   18  0.000  0.014  0.000  0.014
   19  0.000  0.012  0.000  0.012
   20  0.000  0.012  0.000  0.012
   21  0.000  0.012  0.000  0.012
   22  0.000  0.025  0.000  0.025
   23  0.000  0.025  0.000  0.025
   24  0.000  0.025  0.000  0.025
   25  0.001  0.021  0.000  0.021
   26  0.000  0.025  0.000  0.025
tot    0.013  0.349  0.194  0.556
 
band    30 # energy   -0.10701866 # occ.  2.00000000
 
ion      s      p      d    tot
    1  0.002  0.003  0.017  0.021
    2  0.002  0.003  0.017  0.021
    3  0.002  0.003  0.017  0.021
    4  0.002  0.003  0.017  0.021
    5  0.000  0.011  0.000  0.012
    6  0.000  0.011  0.000  0.012
    7  0.000  0.011  0.000  0.012
    8  0.000  0.011  0.000  0.012
    9  0.000  0.017  0.000  0.018
   10  0.000  0.017  0.000  0.018
   11  0.000  0.017  0.000  0.018
   12  0.000  0.017  0.000  0.018
   13  0.000  0.021  0.000  0.021
   14  0.001  0.020  0.000  0.021
   15  0.000  0.021  0.000  0.021
   16  0.000  0.021  0.000  0.021