/etc/profile: 第 79 行:ulimit: stack size: 无法修改 limit 值: 不允许的操作
/home/customer/.bashrc: 第 12 行:ulimit: stack size: 无法修改 limit 值: 不允许的操作
Intel(R) Parallel Studio XE 2018 Update 3 for Linux*
Copyright (C) 2009-2018 Intel Corporation. All rights reserved.
 running on   14 total cores
 distrk:  each k-point on   14 cores,    1 groups
 distr:  one band on    1 cores,   14 groups
 using from now: INCAR     
 vasp.5.4.4.18Apr17-6-g9f103f2a35 (build Oct 27 2022 13:04:57) complex          
  
 POSCAR found type information on POSCAR  Ag Sb S 
 POSCAR found :  3 types and      26 ions
 scaLAPACK will be used

 ----------------------------------------------------------------------------- 
|                                                                             |
|           W    W    AA    RRRRR   N    N  II  N    N   GGGG   !!!           |
|           W    W   A  A   R    R  NN   N  II  NN   N  G    G  !!!           |
|           W    W  A    A  R    R  N N  N  II  N N  N  G       !!!           |
|           W WW W  AAAAAA  RRRRR   N  N N  II  N  N N  G  GGG   !            |
|           WW  WW  A    A  R   R   N   NN  II  N   NN  G    G                |
|           W    W  A    A  R    R  N    N  II  N    N   GGGG   !!!           |
|                                                                             |
|      For optimal performance we recommend to set                            |
|        NCORE= 4 - approx SQRT( number of cores)                             |
|      NCORE specifies how many cores store one orbital (NPAR=cpu/NCORE).     |
|      This setting can  greatly improve the performance of VASP for DFT.     |
|      The default,   NCORE=1            might be grossly inefficient         |
|      on modern multi-core architectures or massively parallel machines.     |
|      Do your own testing !!!!                                               |
|      Unfortunately you need to use the default for GW and RPA calculations. |
|      (for HF NCORE is supported but not extensively tested yet)             |
|                                                                             |
 ----------------------------------------------------------------------------- 

 LDA part: xc-table for Pade appr. of Perdew
 POSCAR, INCAR and KPOINTS ok, starting setup
 FFT: planning ...
 WAVECAR not read
 entering main loop
       N       E                     dE             d eps       ncg     rms          rms(c)
DAV:   1     0.747057375303E+03    0.74706E+03   -0.48716E+04  1344   0.812E+02
DAV:   2    -0.340732271737E+02   -0.78113E+03   -0.73908E+03  1596   0.191E+02
DAV:   3    -0.106964257914E+03   -0.72891E+02   -0.71027E+02  1596   0.608E+01
DAV:   4    -0.108988644081E+03   -0.20244E+01   -0.19979E+01  1610   0.113E+01
DAV:   5    -0.109047891965E+03   -0.59248E-01   -0.59191E-01  1512   0.188E+00    0.213E+01
DAV:   6    -0.102759933702E+03    0.62880E+01   -0.11020E+01  1554   0.129E+01    0.160E+01
DAV:   7    -0.102897716429E+03   -0.13778E+00   -0.48665E+00  1498   0.527E+00    0.673E+00
DAV:   8    -0.102831461086E+03    0.66255E-01   -0.27759E-01  1582   0.146E+00    0.201E+00
DAV:   9    -0.102832941111E+03   -0.14800E-02   -0.55720E-02  1526   0.681E-01    0.468E-01
DAV:  10    -0.102834131937E+03   -0.11908E-02   -0.49352E-03  1582   0.178E-01    0.319E-01
DAV:  11    -0.102834984538E+03   -0.85260E-03   -0.10551E-03  1540   0.897E-02    0.121E-01
DAV:  12    -0.102835312187E+03   -0.32765E-03   -0.40563E-04  1456   0.594E-02    0.421E-02
DAV:  13    -0.102835372241E+03   -0.60054E-04   -0.85352E-05   910   0.259E-02
   1 F= -.10283537E+03 E0= -.10283537E+03  d E =-.102835E+03
 curvature:   0.00 expect dE= 0.000E+00 dE for cont linesearch  0.000E+00
 trial: gam= 0.00000 g(F)=  0.248E-01 g(S)=  0.139E+00 ort = 0.000E+00 (trialstep = 0.100E+01)
 search vector abs. value=  0.163E+00
 bond charge predicted
       N       E                     dE             d eps       ncg     rms          rms(c)
DAV:   1    -0.103131684413E+03   -0.29637E+00   -0.32811E+00  1470   0.593E+00    0.266E+00
DAV:   2    -0.103003801497E+03    0.12788E+00   -0.41625E-01  1442   0.282E+00    0.842E-01
DAV:   3    -0.102993366695E+03    0.10435E-01   -0.51508E-02  1498   0.586E-01    0.567E-01
DAV:   4    -0.102991069684E+03    0.22970E-02   -0.42283E-03  1540   0.295E-01    0.211E-01
DAV:   5    -0.102990522127E+03    0.54756E-03   -0.24249E-03  1582   0.171E-01    0.147E-01
DAV:   6    -0.102990558066E+03   -0.35939E-04   -0.18732E-04   924   0.500E-02
   2 F= -.10299056E+03 E0= -.10299056E+03  d E =-.155186E+00
 ZBRENT: can't locate minimum, use default step
 trial-energy change:   -0.155186  1 .order   -0.156015   -0.163399   -0.148631
 step:   4.0000(harm= 11.0644)  dis= 0.01599  next Energy=  -103.739330 (dE=-0.904E+00)
 bond charge predicted
       N       E                     dE             d eps       ncg     rms          rms(c)
DAV:   1    -0.104614824824E+03   -0.16243E+01   -0.29881E+01  1484   0.180E+01    0.806E+00
DAV:   2    -0.103429315004E+03    0.11855E+01   -0.40077E+00  1456   0.893E+00    0.261E+00
DAV:   3    -0.103337770173E+03    0.91545E-01   -0.46526E-01  1484   0.169E+00    0.158E+00
DAV:   4    -0.103316729510E+03    0.21041E-01   -0.32855E-02  1540   0.809E-01    0.716E-01
DAV:   5    -0.103311762104E+03    0.49674E-02   -0.17278E-02  1596   0.436E-01    0.465E-01
DAV:   6    -0.103311621604E+03    0.14050E-03   -0.18694E-03  1442   0.155E-01    0.107E-01
DAV:   7    -0.103311575007E+03    0.46597E-04   -0.30641E-04  1162   0.685E-02
   3 F= -.10331158E+03 E0= -.10331158E+03  d E =-.476203E+00
 curvature:  -2.81 expect dE=-0.301E+00 dE for cont linesearch -0.867E-01
 ZBRENT: increasing intervall
 opt :  10.0000  next Energy=  -103.272508 (dE=-0.437E+00)
 bond charge predicted
       N       E                     dE             d eps       ncg     rms          rms(c)
DAV:   1    -0.108685332825E+03   -0.53737E+01   -0.12332E+02  1498   0.370E+01    0.169E+01
DAV:   2    -0.103702322030E+03    0.49830E+01   -0.18279E+01  1470   0.190E+01    0.563E+00
DAV:   3    -0.103339166032E+03    0.36316E+00   -0.17458E+00  1484   0.321E+00    0.286E+00
DAV:   4    -0.103255706124E+03    0.83460E-01   -0.12296E-01  1540   0.134E+00    0.176E+00
DAV:   5    -0.103236766803E+03    0.18939E-01   -0.45223E-02  1596   0.693E-01    0.103E+00
DAV:   6    -0.103232652802E+03    0.41140E-02   -0.12192E-02  1512   0.394E-01    0.202E-01
DAV:   7    -0.103232537934E+03    0.11487E-03   -0.16571E-03  1568   0.140E-01    0.151E-01
DAV:   8    -0.103232536204E+03    0.17303E-05   -0.21623E-04  1036   0.497E-02
   4 F= -.10323254E+03 E0= -.10323254E+03  d E =-.397164E+00
 curvature:   1.26 expect dE= 0.683E+00 dE for cont linesearch  0.804E-01
 ZBRENT: bracketing found
 ZBRENT: interpolating
 opt :   6.4643  next Energy=  -103.399132 (dE=-0.564E+00)
 bond charge predicted
       N       E                     dE             d eps       ncg     rms          rms(c)
DAV:   1    -0.105215152121E+03   -0.19826E+01   -0.42715E+01  1498   0.223E+01    0.102E+01
DAV:   2    -0.103593576796E+03    0.16216E+01   -0.50373E+00  1456   0.984E+00    0.339E+00
DAV:   3    -0.103449618919E+03    0.14396E+00   -0.63270E-01  1498   0.223E+00    0.248E+00
DAV:   4    -0.103409143023E+03    0.40476E-01   -0.58850E-02  1540   0.104E+00    0.730E-01
DAV:   5    -0.103401485653E+03    0.76574E-02   -0.32801E-02  1568   0.642E-01    0.490E-01
DAV:   6    -0.103401728682E+03   -0.24303E-03   -0.23741E-03  1526   0.160E-01    0.219E-01
DAV:   7    -0.103401259044E+03    0.46964E-03   -0.14756E-03  1484   0.161E-01    0.550E-02
DAV:   8    -0.103401262095E+03   -0.30508E-05   -0.13117E-04   840   0.331E-02
   5 F= -.10340126E+03 E0= -.10340126E+03  d E =-.565890E+00
 curvature:  -1.38 expect dE=-0.271E+00 dE for cont linesearch -0.127E-03
 trial: gam= 1.18006 g(F)=  0.170E+00 g(S)=  0.267E-01 ort = 0.389E-02 (trialstep = 0.789E+00)
 search vector abs. value=  0.433E+00
 bond charge predicted
       N       E                     dE             d eps       ncg     rms          rms(c)
DAV:   1    -0.103605389629E+03   -0.20413E+00   -0.34546E+00  1344   0.510E+00    0.192E+00
DAV:   2    -0.103563091888E+03    0.42298E-01   -0.33508E-01  1540   0.218E+00    0.723E-01
DAV:   3    -0.103557137643E+03    0.59542E-02   -0.18280E-02  1568   0.379E-01    0.491E-01
DAV:   4    -0.103554634393E+03    0.25033E-02   -0.42624E-03  1596   0.203E-01    0.207E-01
DAV:   5    -0.103554390019E+03    0.24437E-03   -0.15684E-03  1540   0.129E-01    0.124E-01
DAV:   6    -0.103554389994E+03    0.25368E-07   -0.60034E-05   826   0.282E-02
   6 F= -.10355439E+03 E0= -.10355439E+03  d E =-.153128E+00
 ZBRENT: can't locate minimum, use default step
 trial-energy change:   -0.153128  1 .order   -0.153561   -0.158823   -0.148298
 step:   3.1560(harm= 11.9068)  dis= 0.04098  next Energy=  -104.599661 (dE=-0.120E+01)
 bond charge predicted
       N       E                     dE             d eps       ncg     rms          rms(c)
DAV:   1    -0.104385732897E+03   -0.83134E+00   -0.31160E+01  1344   0.153E+01    0.574E+00
DAV:   2    -0.103994991425E+03    0.39074E+00   -0.31227E+00  1540   0.679E+00    0.210E+00
DAV:   3    -0.103941135494E+03    0.53856E-01   -0.16790E-01  1582   0.116E+00    0.141E+00
DAV:   4    -0.103919712191E+03    0.21423E-01   -0.37376E-02  1568   0.600E-01    0.693E-01
DAV:   5    -0.103917103597E+03    0.26086E-02   -0.11793E-02  1554   0.362E-01    0.390E-01
DAV:   6    -0.103916871034E+03    0.23256E-03   -0.80138E-04  1540   0.110E-01    0.198E-01
DAV:   7    -0.103916830751E+03    0.40283E-04   -0.29262E-04  1162   0.529E-02
   7 F= -.10391683E+03 E0= -.10391683E+03  d E =-.515569E+00
 curvature:  -4.88 expect dE=-0.588E+00 dE for cont linesearch -0.171E+00
 ZBRENT: increasing intervall
 opt :   7.8900  next Energy=  -104.192695 (dE=-0.791E+00)
 bond charge predicted
       N       E                     dE             d eps       ncg     rms          rms(c)
DAV:   1    -0.106251471673E+03   -0.23346E+01   -0.12599E+02  1344   0.310E+01    0.123E+01
DAV:   2    -0.104617512200E+03    0.16340E+01   -0.13549E+01  1540   0.146E+01    0.420E+00
DAV:   3    -0.104400087847E+03    0.21742E+00   -0.69356E-01  1554   0.250E+00    0.283E+00
DAV:   4    -0.104320544959E+03    0.79543E-01   -0.15429E-01  1554   0.117E+00    0.174E+00
DAV:   5    -0.104308805491E+03    0.11739E-01   -0.32485E-02  1554   0.611E-01    0.922E-01
DAV:   6    -0.104304600080E+03    0.42054E-02   -0.10065E-02  1498   0.370E-01    0.254E-01
DAV:   7    -0.104304664451E+03   -0.64370E-04   -0.24690E-03  1554   0.173E-01    0.186E-01
DAV:   8    -0.104304658819E+03    0.56318E-05   -0.36088E-04  1260   0.803E-02
   8 F= -.10430466E+03 E0= -.10430466E+03  d E =-.903397E+00
 curvature:  -7.89 expect dE=-0.112E+01 dE for cont linesearch -0.244E-01
 ZBRENT: extrapolating
 opt :   9.8947  next Energy=  -104.341369 (dE=-0.940E+00)
 bond charge predicted
       N       E                     dE             d eps       ncg     rms          rms(c)
DAV:   1    -0.104673925242E+03   -0.36926E+00   -0.22665E+01  1344   0.135E+01    0.500E+00
DAV:   2    -0.104377205455E+03    0.29672E+00   -0.23756E+00  1554   0.637E+00    0.198E+00
DAV:   3    -0.104339324701E+03    0.37881E-01   -0.13189E-01  1526   0.106E+00    0.129E+00
DAV:   4    -0.104321710115E+03    0.17615E-01   -0.30753E-02  1526   0.599E-01    0.586E-01
DAV:   5    -0.104319774310E+03    0.19358E-02   -0.10846E-02  1568   0.359E-01    0.364E-01
DAV:   6    -0.104319626647E+03    0.14766E-03   -0.65691E-04  1568   0.105E-01    0.196E-01
DAV:   7    -0.104319581748E+03    0.44898E-04   -0.22903E-04   994   0.569E-02
   9 F= -.10431958E+03 E0= -.10431958E+03  d E =-.918320E+00
 curvature: -11.86 expect dE=-0.218E+01 dE for cont linesearch -0.893E-02
 trial: gam= 0.58476 g(F)=  0.103E+00 g(S)=  0.808E-01 ort =-0.181E-01 (trialstep = 0.261E+01)
 search vector abs. value=  0.311E+00
 bond charge predicted
       N       E                     dE             d eps       ncg     rms          rms(c)
DAV:   1    -0.104574797967E+03   -0.25517E+00   -0.20959E+01  1344   0.108E+01    0.333E+00
DAV:   2    -0.104679685579E+03   -0.10489E+00   -0.15436E+00  1596   0.329E+00    0.162E+00
DAV:   3    -0.104669638495E+03    0.10047E-01   -0.35483E-02  1610   0.592E-01    0.125E+00
DAV:   4    -0.104660223045E+03    0.94154E-02   -0.18820E-02  1596   0.434E-01    0.447E-01
DAV:   5    -0.104660289858E+03   -0.66814E-04   -0.62345E-03  1484   0.210E-01    0.190E-01
DAV:   6    -0.104660281064E+03    0.87941E-05   -0.23832E-04  1008   0.480E-02
  10 F= -.10466028E+03 E0= -.10466028E+03  d E =-.340699E+00
 trial-energy change:   -0.340699  1 .order   -0.340265   -0.452825   -0.227705
 step:   5.2502(harm=  5.2502)  dis= 0.09094  next Energy=  -104.775006 (dE=-0.455E+00)
 bond charge predicted
       N       E                     dE             d eps       ncg     rms          rms(c)
DAV:   1    -0.104678611489E+03   -0.18322E-01   -0.21526E+01  1344   0.109E+01    0.338E+00
DAV:   2    -0.104786682001E+03   -0.10807E+00   -0.15794E+00  1596   0.331E+00    0.155E+00
DAV:   3    -0.104776287727E+03    0.10394E-01   -0.35514E-02  1596   0.597E-01    0.119E+00
DAV:   4    -0.104767051512E+03    0.92362E-02   -0.18292E-02  1596   0.426E-01    0.433E-01
DAV:   5    -0.104767089786E+03   -0.38273E-04   -0.60091E-03  1470   0.208E-01    0.186E-01
DAV:   6    -0.104767083653E+03    0.61325E-05   -0.23650E-04  1008   0.479E-02
  11 F= -.10476708E+03 E0= -.10476708E+03  d E =-.447502E+00
 curvature:  -4.71 expect dE=-0.459E+00 dE for cont linesearch -0.105E-04
 trial: gam= 0.44524 g(F)=  0.810E-01 g(S)=  0.165E-01 ort = 0.834E-03 (trialstep = 0.314E+01)
 search vector abs. value=  0.160E+00
 bond charge predicted
       N       E                     dE             d eps       ncg     rms          rms(c)
DAV:   1    -0.105055962298E+03   -0.28887E+00   -0.17064E+01  1344   0.106E+01    0.372E+00
DAV:   2    -0.105020948567E+03    0.35014E-01   -0.14214E+00  1582   0.427E+00    0.140E+00
DAV:   3    -0.105009830200E+03    0.11118E-01   -0.70429E-02  1526   0.817E-01    0.901E-01
DAV:   4    -0.105002239231E+03    0.75910E-02   -0.11377E-02  1582   0.306E-01    0.490E-01
DAV:   5    -0.105001019272E+03    0.12200E-02   -0.48373E-03  1554   0.183E-01    0.187E-01
DAV:   6    -0.105001022148E+03   -0.28765E-05   -0.41385E-04  1414   0.575E-02
  12 F= -.10500102E+03 E0= -.10500102E+03  d E =-.233938E+00
 trial-energy change:   -0.233938  1 .order   -0.239894   -0.307168   -0.172619
 step:   7.1643(harm=  7.1643)  dis= 0.08974  next Energy=  -105.117709 (dE=-0.351E+00)
 bond charge predicted
       N       E                     dE             d eps       ncg     rms          rms(c)
DAV:   1    -0.105198939976E+03   -0.19792E+00   -0.28151E+01  1344   0.136E+01    0.493E+00
DAV:   2    -0.105138796260E+03    0.60144E-01   -0.23685E+00  1582   0.559E+00    0.185E+00
DAV:   3    -0.105120284262E+03    0.18512E-01   -0.11884E-01  1526   0.108E+00    0.118E+00
DAV:   4    -0.105107684520E+03    0.12600E-01   -0.19035E-02  1568   0.396E-01    0.646E-01
DAV:   5    -0.105105609532E+03    0.20750E-02   -0.79250E-03  1568   0.234E-01    0.246E-01
DAV:   6    -0.105105600810E+03    0.87227E-05   -0.68243E-04  1512   0.735E-02
  13 F= -.10510560E+03 E0= -.10510560E+03  d E =-.338517E+00
 curvature:  -5.85 expect dE=-0.349E+00 dE for cont linesearch -0.560E-03
 trial: gam= 0.68034 g(F)=  0.316E-01 g(S)=  0.280E-01 ort =-0.391E-02 (trialstep = 0.394E+01)
 search vector abs. value=  0.128E+00
 bond charge predicted
       N       E                     dE             d eps       ncg     rms          rms(c)
DAV:   1    -0.105281456043E+03   -0.17585E+00   -0.21023E+01  1344   0.113E+01    0.365E+00
DAV:   2    -0.105308456680E+03   -0.27001E-01   -0.14330E+00  1582   0.397E+00    0.152E+00
DAV:   3    -0.105301713588E+03    0.67431E-02   -0.58423E-02  1610   0.745E-01    0.111E+00
DAV:   4    -0.105294283833E+03    0.74298E-02   -0.92771E-03  1540   0.264E-01    0.566E-01
DAV:   5    -0.105292820425E+03    0.14634E-02   -0.57290E-03  1582   0.193E-01    0.197E-01
DAV:   6    -0.105292811574E+03    0.88511E-05   -0.51597E-04  1498   0.605E-02
  14 F= -.10529281E+03 E0= -.10529281E+03  d E =-.187211E+00
 trial-energy change:   -0.187211  1 .order   -0.185817   -0.224484   -0.147150
 step:   9.8510(harm= 11.4467)  dis= 0.07956  next Energy=  -105.407721 (dE=-0.302E+00)
 bond charge predicted
       N       E                     dE             d eps       ncg     rms          rms(c)
DAV:   1    -0.105371432529E+03   -0.78612E-01   -0.47128E+01  1344   0.170E+01    0.589E+00
DAV:   2    -0.105435506376E+03   -0.64074E-01   -0.31980E+00  1596   0.597E+00    0.240E+00
DAV:   3    -0.105421517260E+03    0.13989E-01   -0.13443E-01  1610   0.113E+00    0.178E+00
DAV:   4    -0.105405815658E+03    0.15702E-01   -0.18721E-02  1554   0.374E-01    0.958E-01
DAV:   5    -0.105401944360E+03    0.38713E-02   -0.14376E-02  1554   0.307E-01    0.315E-01
DAV:   6    -0.105401969843E+03   -0.25484E-04   -0.14360E-03  1652   0.101E-01    0.224E-01
DAV:   7    -0.105401925894E+03    0.43949E-04   -0.99099E-05   840   0.287E-02
  15 F= -.10540193E+03 E0= -.10540193E+03  d E =-.296325E+00
 curvature: -12.32 expect dE=-0.342E+00 dE for cont linesearch -0.142E-04
 trial: gam= 0.24257 g(F)=  0.267E-01 g(S)=  0.113E-02 ort =-0.385E-03 (trialstep = 0.512E+01)
 search vector abs. value=  0.352E-01
 bond charge predicted
       N       E                     dE             d eps       ncg     rms          rms(c)
DAV:   1    -0.105502222448E+03   -0.10025E+00   -0.92502E+00  1344   0.754E+00    0.243E+00
DAV:   2    -0.105517384440E+03   -0.15162E-01   -0.66974E-01  1596   0.274E+00    0.101E+00
DAV:   3    -0.105515679199E+03    0.17052E-02   -0.26350E-02  1568   0.511E-01    0.703E-01
DAV:   4    -0.105513149577E+03    0.25296E-02   -0.36848E-03  1568   0.155E-01    0.394E-01
DAV:   5    -0.105512623929E+03    0.52565E-03   -0.23919E-03  1540   0.116E-01    0.139E-01
DAV:   6    -0.105512632357E+03   -0.84273E-05   -0.20113E-04   980   0.388E-02
  16 F= -.10551263E+03 E0= -.10551263E+03  d E =-.110706E+00
 trial-energy change:   -0.110706  1 .order   -0.110296   -0.141954   -0.078638
 step:  10.9995(harm= 11.4901)  dis= 0.04602  next Energy=  -105.558322 (dE=-0.156E+00)
 bond charge predicted
       N       E                     dE             d eps       ncg     rms          rms(c)
DAV:   1    -0.105539071760E+03   -0.26448E-01   -0.12121E+01  1344   0.865E+00    0.284E+00
DAV:   2    -0.105558920434E+03   -0.19849E-01   -0.87906E-01  1596   0.314E+00    0.113E+00
DAV:   3    -0.105556835480E+03    0.20850E-02   -0.34884E-02  1568   0.589E-01    0.775E-01
DAV:   4    -0.105553680238E+03    0.31552E-02   -0.46508E-03  1568   0.175E-01    0.440E-01
DAV:   5    -0.105553002722E+03    0.67752E-03   -0.30241E-03  1554   0.131E-01    0.162E-01
DAV:   6    -0.105553018656E+03   -0.15935E-04   -0.27631E-04  1134   0.443E-02
  17 F= -.10555302E+03 E0= -.10555302E+03  d E =-.151093E+00
 curvature:  -7.25 expect dE=-0.197E+00 dE for cont linesearch -0.391E-02
 trial: gam= 1.11609 g(F)=  0.211E-01 g(S)=  0.606E-02 ort =-0.436E-02 (trialstep = 0.362E+01)
 search vector abs. value=  0.612E-01
 bond charge predicted
       N       E                     dE             d eps       ncg     rms          rms(c)
DAV:   1    -0.105576496395E+03   -0.23494E-01   -0.99936E+00  1344   0.744E+00    0.216E+00
DAV:   2    -0.105607208146E+03   -0.30712E-01   -0.59638E-01  1582   0.232E+00    0.819E-01
DAV:   3    -0.105605423807E+03    0.17843E-02   -0.18183E-02  1582   0.447E-01    0.528E-01
DAV:   4    -0.105603510914E+03    0.19129E-02   -0.33077E-03  1568   0.155E-01    0.283E-01
DAV:   5    -0.105603335121E+03    0.17579E-03   -0.12077E-03  1554   0.872E-02    0.818E-02
DAV:   6    -0.105603345956E+03   -0.10835E-04   -0.61982E-05   882   0.273E-02
  18 F= -.10560335E+03 E0= -.10560335E+03  d E =-.503273E-01
 trial-energy change:   -0.050327  1 .order   -0.052177   -0.080574   -0.023780
 step:   5.8306(harm=  5.1344)  dis= 0.04251  next Energy=  -105.610189 (dE=-0.572E-01)
 bond charge predicted
       N       E                     dE             d eps       ncg     rms          rms(c)
DAV:   1    -0.105598614985E+03    0.47201E-02   -0.37400E+00  1344   0.457E+00    0.127E+00
DAV:   2    -0.105610315841E+03   -0.11701E-01   -0.22359E-01  1582   0.143E+00    0.531E-01
DAV:   3    -0.105609700031E+03    0.61581E-03   -0.69564E-03  1582   0.276E-01    0.342E-01
DAV:   4    -0.105608963988E+03    0.73604E-03   -0.12624E-03  1568   0.958E-02    0.182E-01
DAV:   5    -0.105608905279E+03    0.58709E-04   -0.48585E-04  1400   0.549E-02
  19 F= -.10560891E+03 E0= -.10560891E+03  d E =-.558866E-01
 curvature:  -5.57 expect dE=-0.127E+00 dE for cont linesearch -0.365E-03
 trial: gam= 0.66988 g(F)=  0.148E-01 g(S)=  0.800E-02 ort =-0.200E-02 (trialstep = 0.406E+01)
 search vector abs. value=  0.476E-01
 bond charge predicted
       N       E                     dE             d eps       ncg     rms          rms(c)
DAV:   1    -0.105718590155E+03   -0.10963E+00   -0.93903E+00  1344   0.804E+00    0.272E+00
DAV:   2    -0.105685481195E+03    0.33109E-01   -0.72092E-01  1596   0.340E+00    0.112E+00
DAV:   3    -0.105682854168E+03    0.26270E-02   -0.40622E-02  1568   0.599E-01    0.750E-01
DAV:   4    -0.105679487008E+03    0.33672E-02   -0.41026E-03  1540   0.204E-01    0.413E-01
DAV:   5    -0.105678511089E+03    0.97592E-03   -0.36471E-03  1540   0.150E-01    0.162E-01
DAV:   6    -0.105678504745E+03    0.63438E-05   -0.35772E-04  1260   0.535E-02
  20 F= -.10567850E+03 E0= -.10567850E+03  d E =-.695995E-01
 trial-energy change:   -0.069599  1 .order   -0.070103   -0.087207   -0.053000
 step:  12.7782(harm= 10.3543)  dis= 0.07838  next Energy=  -105.730399 (dE=-0.121E+00)
 bond charge predicted
       N       E                     dE             d eps       ncg     rms          rms(c)
DAV:   1    -0.105876810163E+03   -0.19830E+00   -0.43216E+01  1344   0.173E+01    0.612E+00
DAV:   2    -0.105733747479E+03    0.14306E+00   -0.32685E+00  1582   0.720E+00    0.257E+00
DAV:   3    -0.105722346812E+03    0.11401E-01   -0.18677E-01  1568   0.127E+00    0.179E+00
DAV:   4    -0.105706626467E+03    0.15720E-01   -0.18539E-02  1554   0.438E-01    0.100E+00
DAV:   5    -0.105702004384E+03    0.46221E-02   -0.19447E-02  1540   0.345E-01    0.365E-01
DAV:   6    -0.105701994693E+03    0.96911E-05   -0.19577E-03  1498   0.120E-01    0.233E-01
DAV:   7    -0.105701930393E+03    0.64300E-04   -0.17478E-04   896   0.514E-02
  21 F= -.10570193E+03 E0= -.10570193E+03  d E =-.930251E-01
 curvature:  -9.77 expect dE=-0.181E+00 dE for cont linesearch -0.316E-02
 ZBRENT: interpolating
 opt :  10.7631  next Energy=  -105.705884 (dE=-0.970E-01)
 bond charge predicted
       N       E                     dE             d eps       ncg     rms          rms(c)
DAV:   1    -0.105718096623E+03   -0.16102E-01   -0.22779E+00  1344   0.394E+00    0.129E+00
DAV:   2    -0.105709551404E+03    0.85452E-02   -0.17799E-01  1582   0.167E+00    0.499E-01
DAV:   3    -0.105708946448E+03    0.60496E-03   -0.96768E-03  1568   0.297E-01    0.311E-01
DAV:   4    -0.105708232084E+03    0.71436E-03   -0.10045E-03  1554   0.981E-02    0.170E-01
DAV:   5    -0.105708084864E+03    0.14722E-03   -0.65370E-04  1470   0.635E-02    0.769E-02
DAV:   6    -0.105708092954E+03   -0.80898E-05   -0.56220E-05   714   0.231E-02
  22 F= -.10570809E+03 E0= -.10570809E+03  d E =-.991877E-01
 curvature: -12.22 expect dE=-0.154E+00 dE for cont linesearch -0.138E-02
 trial: gam= 0.71564 g(F)=  0.679E-02 g(S)=  0.584E-02 ort =-0.232E-02 (trialstep = 0.540E+01)
 search vector abs. value=  0.337E-01
 bond charge predicted
       N       E                     dE             d eps       ncg     rms          rms(c)
DAV:   1    -0.105761335578E+03   -0.53251E-01   -0.13564E+01  1344   0.887E+00    0.238E+00
DAV:   2    -0.105778097710E+03   -0.16762E-01   -0.66209E-01  1582   0.246E+00    0.957E-01
DAV:   3    -0.105770571460E+03    0.75263E-02   -0.24445E-02  1652   0.513E-01    0.615E-01
DAV:   4    -0.105765598510E+03    0.49729E-02   -0.64479E-03  1582   0.232E-01    0.312E-01
DAV:   5    -0.105764880805E+03    0.71770E-03   -0.27548E-03  1624   0.144E-01    0.121E-01
DAV:   6    -0.105764870875E+03    0.99306E-05   -0.15585E-04   882   0.403E-02
  23 F= -.10576487E+03 E0= -.10576487E+03  d E =-.567779E-01
 ZBRENT: can't locate minimum, use default step
 trial-energy change:   -0.056778  1 .order   -0.056212   -0.059243   -0.053181
 step:  21.6070(harm= 52.7883)  dis= 0.10064  next Energy=  -105.997566 (dE=-0.289E+00)
 bond charge predicted
       N       E                     dE             d eps       ncg     rms          rms(c)
DAV:   1    -0.105777049275E+03   -0.12168E-01   -0.12286E+02  1344   0.269E+01    0.862E+00
DAV:   2    -0.105943628202E+03   -0.16658E+00   -0.60309E+00  1596   0.751E+00    0.333E+00
DAV:   3    -0.105879942346E+03    0.63686E-01   -0.23201E-01  1652   0.158E+00    0.226E+00
DAV:   4    -0.105835036376E+03    0.44906E-01   -0.54300E-02  1596   0.665E-01    0.119E+00
DAV:   5    -0.105826716601E+03    0.83198E-02   -0.29467E-02  1666   0.472E-01    0.398E-01
DAV:   6    -0.105826730023E+03   -0.13422E-04   -0.22993E-03  1652   0.138E-01    0.295E-01
DAV:   7    -0.105826736905E+03   -0.68816E-05   -0.46824E-04  1484   0.598E-02
  24 F= -.10582674E+03 E0= -.10582674E+03  d E =-.118644E+00
 curvature: -45.96 expect dE=-0.246E+01 dE for cont linesearch -0.202E-01
 ZBRENT: interpolating
 opt :  17.0573  next Energy=  -105.835479 (dE=-0.127E+00)
 bond charge predicted
       N       E                     dE             d eps       ncg     rms          rms(c)
DAV:   1    -0.105833335611E+03   -0.66056E-02   -0.95312E+00  1344   0.740E+00    0.194E+00
DAV:   2    -0.105844034466E+03   -0.10699E-01   -0.46859E-01  1596   0.203E+00    0.756E-01
DAV:   3    -0.105838550303E+03    0.54842E-02   -0.17979E-02  1624   0.437E-01    0.476E-01
DAV:   4    -0.105835366100E+03    0.31842E-02   -0.42422E-03  1596   0.187E-01    0.248E-01
DAV:   5    -0.105834850919E+03    0.51518E-03   -0.17484E-03  1624   0.117E-01    0.103E-01
DAV:   6    -0.105834844196E+03    0.67239E-05   -0.10896E-04   882   0.341E-02
  25 F= -.10583484E+03 E0= -.10583484E+03  d E =-.126751E+00
 curvature: -19.94 expect dE=-0.565E+00 dE for cont linesearch -0.451E-04
 trial: gam= 2.19408 g(F)=  0.129E-01 g(S)=  0.155E-01 ort = 0.276E-03 (trialstep = 0.136E+01)
 search vector abs. value=  0.192E+00
 bond charge predicted
       N       E                     dE             d eps       ncg     rms          rms(c)
DAV:   1    -0.105901107343E+03   -0.66256E-01   -0.56199E+00  1344   0.611E+00    0.185E+00
DAV:   2    -0.105880603884E+03    0.20503E-01   -0.32674E-01  1554   0.239E+00    0.747E-01
DAV:   3    -0.105877424862E+03    0.31790E-02   -0.19864E-02  1638   0.421E-01    0.491E-01
DAV:   4    -0.105874968729E+03    0.24561E-02   -0.29223E-03  1554   0.182E-01    0.242E-01
DAV:   5    -0.105874452713E+03    0.51602E-03   -0.18477E-03  1638   0.120E-01    0.105E-01
DAV:   6    -0.105874449038E+03    0.36754E-05   -0.15236E-04   826   0.422E-02
  26 F= -.10587445E+03 E0= -.10587445E+03  d E =-.396048E-01
 ZBRENT: can't locate minimum, use default step
 trial-energy change:   -0.039605  1 .order   -0.038348   -0.039301   -0.037395
 step:   5.4355(harm= 28.0193)  dis= 0.05885  next Energy=  -106.240026 (dE=-0.405E+00)
 bond charge predicted
       N       E                     dE             d eps       ncg     rms          rms(c)
DAV:   1    -0.106181353347E+03   -0.30690E+00   -0.50963E+01  1344   0.185E+01    0.582E+00
DAV:   2    -0.106003667527E+03    0.17769E+00   -0.29076E+00  1540   0.717E+00    0.238E+00
DAV:   3    -0.105977345600E+03    0.26322E-01   -0.18665E-01  1638   0.127E+00    0.160E+00
DAV:   4    -0.105955391554E+03    0.21954E-01   -0.24765E-02  1568   0.542E-01    0.819E-01
DAV:   5    -0.105950076583E+03    0.53150E-02   -0.19925E-02  1638   0.387E-01    0.332E-01
DAV:   6    -0.105950138090E+03   -0.61508E-04   -0.19173E-03  1484   0.135E-01    0.204E-01
DAV:   7    -0.105950100654E+03    0.37436E-04   -0.31405E-04  1120   0.675E-02
  27 F= -.10595010E+03 E0= -.10595010E+03  d E =-.115256E+00
 curvature: -26.22 expect dE=-0.485E+00 dE for cont linesearch -0.140E-01
 ZBRENT: increasing intervall
 opt :  13.5887  next Energy=  -105.890562 (dE=-0.557E-01)
 bond charge predicted
       N       E                     dE             d eps       ncg     rms          rms(c)
DAV:   1    -0.106862502781E+03   -0.91236E+00   -0.20536E+02  1344   0.376E+01    0.131E+01
DAV:   2    -0.106211097428E+03    0.65141E+00   -0.11481E+01  1526   0.142E+01    0.531E+00
DAV:   3    -0.106113975046E+03    0.97122E-01   -0.78774E-01  1652   0.254E+00    0.371E+00
DAV:   4    -0.106026427689E+03    0.87547E-01   -0.93089E-02  1540   0.106E+00    0.201E+00
DAV:   5    -0.106000100237E+03    0.26327E-01   -0.96077E-02  1596   0.826E-01    0.708E-01
DAV:   6    -0.106000489388E+03   -0.38915E-03   -0.97499E-03  1512   0.294E-01    0.443E-01
DAV:   7    -0.106000366760E+03    0.12263E-03   -0.11433E-03  1666   0.117E-01    0.286E-01
DAV:   8    -0.106000470285E+03   -0.10353E-03   -0.95622E-04  1470   0.943E-02    0.643E-02
DAV:   9    -0.106000467315E+03    0.29702E-05   -0.20353E-04   924   0.407E-02
  28 F= -.10600047E+03 E0= -.10600047E+03  d E =-.165623E+00
 curvature: 111.68 expect dE= 0.292E+01 dE for cont linesearch  0.300E-04
 trial: gam= 0.72697 g(F)=  0.180E-01 g(S)=  0.816E-02 ort =-0.227E-03 (trialstep = 0.380E+01)
 search vector abs. value=  0.127E+00
 bond charge predicted
       N       E                     dE             d eps       ncg     rms          rms(c)
DAV:   1    -0.106016989885E+03   -0.16520E-01   -0.29104E+01  1344   0.127E+01    0.310E+00
DAV:   2    -0.106082416514E+03   -0.65427E-01   -0.11453E+00  1596   0.310E+00    0.125E+00
DAV:   3    -0.106073746356E+03    0.86702E-02   -0.34242E-02  1638   0.620E-01    0.835E-01
DAV:   4    -0.106067847617E+03    0.58987E-02   -0.81612E-03  1540   0.243E-01    0.495E-01
DAV:   5    -0.106066477203E+03    0.13704E-02   -0.45284E-03  1638   0.179E-01    0.133E-01
DAV:   6    -0.106066445633E+03    0.31570E-04   -0.39147E-04  1470   0.584E-02
  29 F= -.10606645E+03 E0= -.10606645E+03  d E =-.659783E-01
 trial-energy change:   -0.065978  1 .order   -0.074071   -0.098772   -0.049371
 step:   7.6074(harm=  7.6074)  dis= 0.07692  next Energy=  -106.099209 (dE=-0.987E-01)
 bond charge predicted
       N       E                     dE             d eps       ncg     rms          rms(c)
DAV:   1    -0.106039326664E+03    0.27151E-01   -0.29063E+01  1344   0.127E+01    0.315E+00
DAV:   2    -0.106104665737E+03   -0.65339E-01   -0.11509E+00  1596   0.310E+00    0.123E+00
DAV:   3    -0.106095958026E+03    0.87077E-02   -0.34907E-02  1624   0.626E-01    0.810E-01
DAV:   4    -0.106090185412E+03    0.57726E-02   -0.81203E-03  1568   0.244E-01    0.483E-01
DAV:   5    -0.106088824904E+03    0.13605E-02   -0.43649E-03  1638   0.177E-01    0.135E-01
DAV:   6    -0.106088791622E+03    0.33282E-04   -0.39573E-04  1470   0.592E-02
  30 F= -.10608879E+03 E0= -.10608879E+03  d E =-.883243E-01
 curvature: -18.62 expect dE=-0.287E+00 dE for cont linesearch -0.147E-03
 trial: gam= 0.15540 g(F)=  0.107E-01 g(S)=  0.468E-02 ort = 0.100E-02 (trialstep = 0.457E+01)
 search vector abs. value=  0.188E-01
 bond charge predicted
       N       E                     dE             d eps       ncg     rms          rms(c)
DAV:   1    -0.106142293282E+03   -0.53468E-01   -0.56173E+00  1344   0.585E+00    0.174E+00
DAV:   2    -0.106143910628E+03   -0.16173E-02   -0.24360E-01  1596   0.177E+00    0.547E-01
DAV:   3    -0.106141561571E+03    0.23491E-02   -0.10590E-02  1624   0.326E-01    0.358E-01
DAV:   4    -0.106140036629E+03    0.15249E-02   -0.25554E-03  1596   0.136E-01    0.162E-01
DAV:   5    -0.106139887453E+03    0.14918E-03   -0.72913E-04  1540   0.710E-02    0.673E-02
DAV:   6    -0.106139888389E+03   -0.93539E-06   -0.48397E-05   882   0.208E-02
  31 F= -.10613989E+03 E0= -.10613989E+03  d E =-.510968E-01
 trial-energy change:   -0.051097  1 .order   -0.054935   -0.071096   -0.038775
 step:  10.0425(harm= 10.0425)  dis= 0.03894  next Energy=  -106.166987 (dE=-0.782E-01)
 bond charge predicted
       N       E                     dE             d eps       ncg     rms          rms(c)
DAV:   1    -0.106172878129E+03   -0.32991E-01   -0.80987E+00  1344   0.702E+00    0.206E+00
DAV:   2    -0.106175086902E+03   -0.22088E-02   -0.35038E-01  1596   0.213E+00    0.658E-01
DAV:   3    -0.106171656412E+03    0.34305E-02   -0.15115E-02  1624   0.390E-01    0.430E-01
DAV:   4    -0.106169427295E+03    0.22291E-02   -0.37206E-03  1610   0.164E-01    0.199E-01
DAV:   5    -0.106169211794E+03    0.21550E-03   -0.11018E-03  1582   0.877E-02    0.851E-02
DAV:   6    -0.106169216749E+03   -0.49555E-05   -0.74158E-05   882   0.255E-02
  32 F= -.10616922E+03 E0= -.10616922E+03  d E =-.804251E-01
 curvature:  -6.06 expect dE=-0.769E-01 dE for cont linesearch -0.528E-02
 ZBRENT: increasing intervall
 opt :  20.9967  next Energy=  -106.164818 (dE=-0.760E-01)
 bond charge predicted
       N       E                     dE             d eps       ncg     rms          rms(c)
DAV:   1    -0.106155957214E+03    0.13255E-01   -0.32383E+01  1344   0.140E+01    0.413E+00
DAV:   2    -0.106165525969E+03   -0.95688E-02   -0.14240E+00  1596   0.423E+00    0.131E+00
DAV:   3    -0.106151654690E+03    0.13871E-01   -0.59390E-02  1596   0.778E-01    0.849E-01
DAV:   4    -0.106142809636E+03    0.88451E-02   -0.14485E-02  1610   0.327E-01    0.406E-01
DAV:   5    -0.106141884634E+03    0.92500E-03   -0.43167E-03  1652   0.176E-01    0.165E-01
DAV:   6    -0.106141892184E+03   -0.75503E-05   -0.33636E-04  1232   0.528E-02
  33 F= -.10614189E+03 E0= -.10614189E+03  d E =-.531006E-01
 curvature:   5.05 expect dE= 0.314E+00 dE for cont linesearch  0.364E-01
 ZBRENT: bracketing found
 ZBRENT: interpolating
 opt :  12.8670  next Energy=  -106.174931 (dE=-0.861E-01)
 bond charge predicted
       N       E                     dE             d eps       ncg     rms          rms(c)
DAV:   1    -0.106189473663E+03   -0.47589E-01   -0.18070E+01  1344   0.106E+01    0.301E+00
DAV:   2    -0.106193005884E+03   -0.35322E-02   -0.75591E-01  1596   0.319E+00    0.108E+00
DAV:   3    -0.106185456415E+03    0.75495E-02   -0.33731E-02  1624   0.575E-01    0.717E-01
DAV:   4    -0.106179961992E+03    0.54944E-02   -0.88672E-03  1596   0.253E-01    0.303E-01
DAV:   5    -0.106179394666E+03    0.56733E-03   -0.26139E-03  1666   0.133E-01    0.144E-01
DAV:   6    -0.106179374459E+03    0.20207E-04   -0.16178E-04   896   0.362E-02
  34 F= -.10617937E+03 E0= -.10617937E+03  d E =-.905828E-01
 curvature:  -0.79 expect dE=-0.158E-01 dE for cont linesearch -0.320E-03
 trial: gam= 1.14226 g(F)=  0.183E-01 g(S)=  0.158E-02 ort = 0.275E-02 (trialstep = 0.231E+01)
 search vector abs. value=  0.507E-01
 bond charge predicted
       N       E                     dE             d eps       ncg     rms          rms(c)
DAV:   1    -0.106214516644E+03   -0.35122E-01   -0.35282E+00  1344   0.442E+00    0.701E-01
DAV:   2    -0.106218966426E+03   -0.44498E-02   -0.82211E-02  1624   0.809E-01    0.351E-01
DAV:   3    -0.106218121157E+03    0.84527E-03   -0.22305E-03  1582   0.147E-01    0.231E-01
DAV:   4    -0.106217621061E+03    0.50010E-03   -0.85144E-04  1568   0.849E-02    0.107E-01
DAV:   5    -0.106217559375E+03    0.61686E-04   -0.23661E-04   980   0.471E-02
  35 F= -.10621756E+03 E0= -.10621756E+03  d E =-.381849E-01
 trial-energy change:   -0.038185  1 .order   -0.040954   -0.053195   -0.028712
 step:   5.0120(harm=  5.0120)  dis= 0.03103  next Energy=  -106.237164 (dE=-0.578E-01)
 bond charge predicted
       N       E                     dE             d eps       ncg     rms          rms(c)
DAV:   1    -0.106230855937E+03   -0.13235E-01   -0.48532E+00  1344   0.518E+00    0.830E-01
DAV:   2    -0.106237009895E+03   -0.61540E-02   -0.11477E-01  1624   0.951E-01    0.399E-01
DAV:   3    -0.106235861306E+03    0.11486E-02   -0.30862E-03  1582   0.174E-01    0.265E-01
DAV:   4    -0.106235210612E+03    0.65069E-03   -0.11292E-03  1596   0.980E-02    0.127E-01
DAV:   5    -0.106235132157E+03    0.78456E-04   -0.34557E-04  1176   0.564E-02
  36 F= -.10623513E+03 E0= -.10623513E+03  d E =-.557577E-01
 curvature:  -5.51 expect dE=-0.672E-01 dE for cont linesearch -0.937E-03
 ZBRENT: extrapolating
 opt :   5.8471  next Energy=  -106.236358 (dE=-0.570E-01)
 bond charge predicted
       N       E                     dE             d eps       ncg     rms          rms(c)
DAV:   1    -0.106235624840E+03   -0.41423E-03   -0.46198E-01  1344   0.160E+00    0.268E-01
DAV:   2    -0.106236209510E+03   -0.58467E-03   -0.11020E-02  1624   0.293E-01    0.119E-01
DAV:   3    -0.106236099498E+03    0.11001E-03   -0.28276E-04  1232   0.542E-02    0.744E-02
DAV:   4    -0.106236041664E+03    0.57834E-04   -0.10806E-04   882   0.318E-02
  37 F= -.10623604E+03 E0= -.10623604E+03  d E =-.566672E-01
 curvature:  -7.22 expect dE=-0.900E-01 dE for cont linesearch -0.577E-05
 trial: gam= 0.53606 g(F)=  0.480E-02 g(S)=  0.767E-02 ort =-0.201E-03 (trialstep = 0.301E+01)
 search vector abs. value=  0.268E-01
 bond charge predicted
       N       E                     dE             d eps       ncg     rms          rms(c)
DAV:   1    -0.106301013375E+03   -0.64914E-01   -0.58417E+00  1372   0.613E+00    0.166E+00
DAV:   2    -0.106265734234E+03    0.35279E-01   -0.25344E-01  1568   0.233E+00    0.685E-01
DAV:   3    -0.106263118275E+03    0.26160E-02   -0.15806E-02  1498   0.357E-01    0.414E-01
DAV:   4    -0.106261339414E+03    0.17789E-02   -0.26055E-03  1596   0.188E-01    0.181E-01
DAV:   5    -0.106261096855E+03    0.24256E-03   -0.11247E-03  1582   0.114E-01    0.112E-01
DAV:   6    -0.106261106198E+03   -0.93434E-05   -0.78526E-05   770   0.360E-02
  38 F= -.10626111E+03 E0= -.10626111E+03  d E =-.250645E-01
 trial-energy change:   -0.025065  1 .order   -0.028601   -0.037288   -0.019915
 step:   6.4707(harm=  6.4707)  dis= 0.02504  next Energy=  -106.276057 (dE=-0.400E-01)
 bond charge predicted
       N       E                     dE             d eps       ncg     rms          rms(c)
DAV:   1    -0.106325511836E+03   -0.64415E-01   -0.76747E+00  1372   0.703E+00    0.191E+00
DAV:   2    -0.106278661693E+03    0.46850E-01   -0.33665E-01  1568   0.270E+00    0.795E-01
DAV:   3    -0.106275209424E+03    0.34523E-02   -0.20974E-02  1512   0.414E-01    0.479E-01
DAV:   4    -0.106272829862E+03    0.23796E-02   -0.34755E-03  1596   0.217E-01    0.210E-01
DAV:   5    -0.106272499691E+03    0.33017E-03   -0.14966E-03  1596   0.132E-01    0.130E-01
DAV:   6    -0.106272509685E+03   -0.99935E-05   -0.10513E-04   784   0.420E-02
  39 F= -.10627251E+03 E0= -.10627251E+03  d E =-.364680E-01
 curvature:  -7.02 expect dE=-0.427E-01 dE for cont linesearch -0.207E-03
 trial: gam= 0.41106 g(F)=  0.523E-02 g(S)=  0.844E-03 ort = 0.890E-03 (trialstep = 0.371E+01)
 search vector abs. value=  0.113E-01
 bond charge predicted
       N       E                     dE             d eps       ncg     rms          rms(c)
DAV:   1    -0.106290002463E+03   -0.17503E-01   -0.53371E+00  1344   0.518E+00    0.655E-01
DAV:   2    -0.106295900041E+03   -0.58976E-02   -0.89244E-02  1596   0.864E-01    0.263E-01
DAV:   3    -0.106295218868E+03    0.68117E-03   -0.19397E-03  1624   0.137E-01    0.185E-01
DAV:   4    -0.106294776458E+03    0.44241E-03   -0.74913E-04  1540   0.770E-02    0.812E-02
DAV:   5    -0.106294749361E+03    0.27097E-04   -0.19958E-04   966   0.396E-02
  40 F= -.10629475E+03 E0= -.10629475E+03  d E =-.222397E-01
 ZBRENT: can't locate minimum, use default step
 trial-energy change:   -0.022240  1 .order   -0.021933   -0.023877   -0.019990
 step:  14.8240(harm= 22.7655)  dis= 0.04813  next Energy=  -106.345845 (dE=-0.733E-01)
 bond charge predicted
       N       E                     dE             d eps       ncg     rms          rms(c)
DAV:   1    -0.106289690871E+03    0.50856E-02   -0.48194E+01  1344   0.156E+01    0.198E+00
DAV:   2    -0.106343704814E+03   -0.54014E-01   -0.81420E-01  1582   0.260E+00    0.798E-01
DAV:   3    -0.106337637281E+03    0.60675E-02   -0.17417E-02  1610   0.419E-01    0.572E-01
DAV:   4    -0.106333694069E+03    0.39432E-02   -0.66918E-03  1610   0.230E-01    0.250E-01
DAV:   5    -0.106333456185E+03    0.23788E-03   -0.20104E-03  1624   0.120E-01    0.112E-01
DAV:   6    -0.106333454251E+03    0.19339E-05   -0.78702E-05   868   0.266E-02
  41 F= -.10633345E+03 E0= -.10633345E+03  d E =-.609446E-01
 curvature: -16.56 expect dE=-0.170E+00 dE for cont linesearch -0.320E-04
 trial: gam= 1.69146 g(F)=  0.589E-02 g(S)=  0.438E-02 ort = 0.148E-03 (trialstep = 0.156E+01)
 search vector abs. value=  0.432E-01
 bond charge predicted
       N       E                     dE             d eps       ncg     rms          rms(c)
DAV:   1    -0.106346090971E+03   -0.12635E-01   -0.40589E+00  1344   0.454E+00    0.647E-01
DAV:   2    -0.106346956594E+03   -0.86562E-03   -0.69391E-02  1596   0.929E-01    0.307E-01
DAV:   3    -0.106346603794E+03    0.35280E-03   -0.25676E-03  1596   0.167E-01    0.194E-01
DAV:   4    -0.106346262624E+03    0.34117E-03   -0.43913E-04  1428   0.597E-02    0.119E-01
DAV:   5    -0.106346194211E+03    0.68413E-04   -0.28336E-04   952   0.472E-02
  42 F= -.10634619E+03 E0= -.10634619E+03  d E =-.127400E-01
 trial-energy change:   -0.012740  1 .order   -0.013361   -0.016365   -0.010357
 step:   4.2390(harm=  4.2390)  dis= 0.02973  next Energy=  -106.355741 (dE=-0.223E-01)
 bond charge predicted
       N       E                     dE             d eps       ncg     rms          rms(c)
DAV:   1    -0.106358528197E+03   -0.12266E-01   -0.12035E+01  1344   0.781E+00    0.112E+00
DAV:   2    -0.106360784584E+03   -0.22564E-02   -0.20694E-01  1596   0.160E+00    0.531E-01
DAV:   3    -0.106359724679E+03    0.10599E-02   -0.77564E-03  1596   0.291E-01    0.331E-01
DAV:   4    -0.106358703504E+03    0.10212E-02   -0.13322E-03  1582   0.104E-01    0.196E-01
DAV:   5    -0.106358494822E+03    0.20868E-03   -0.75739E-04  1526   0.731E-02    0.585E-02
DAV:   6    -0.106358497983E+03   -0.31612E-05   -0.63049E-05   714   0.263E-02
  43 F= -.10635850E+03 E0= -.10635850E+03  d E =-.250437E-01
 curvature:  -8.71 expect dE=-0.383E-01 dE for cont linesearch -0.185E-02
 ZBRENT: increasing intervall
 opt :   9.6044  next Energy=  -106.355322 (dE=-0.219E-01)
 bond charge predicted
       N       E                     dE             d eps       ncg     rms          rms(c)
DAV:   1    -0.106344810038E+03    0.13685E-01   -0.48104E+01  1344   0.156E+01    0.232E+00
DAV:   2    -0.106355263924E+03   -0.10454E-01   -0.85662E-01  1596   0.322E+00    0.105E+00
DAV:   3    -0.106350991647E+03    0.42723E-02   -0.31249E-02  1596   0.589E-01    0.651E-01
DAV:   4    -0.106347027416E+03    0.39642E-02   -0.52824E-03  1582   0.207E-01    0.387E-01
DAV:   5    -0.106346169379E+03    0.85804E-03   -0.29407E-03  1610   0.145E-01    0.114E-01
DAV:   6    -0.106346168576E+03    0.80237E-06   -0.24513E-04   924   0.508E-02
  44 F= -.10634617E+03 E0= -.10634617E+03  d E =-.127143E-01
 curvature:  14.94 expect dE= 0.284E+00 dE for cont linesearch  0.145E-01
 ZBRENT: bracketing found
 ZBRENT: interpolating
 opt :   5.9496  next Energy=  -106.361091 (dE=-0.276E-01)
 bond charge predicted
       N       E                     dE             d eps       ncg     rms          rms(c)
DAV:   1    -0.106360750949E+03   -0.14582E-01   -0.22601E+01  1344   0.108E+01    0.150E+00
DAV:   2    -0.106364724258E+03   -0.39733E-02   -0.36607E-01  1596   0.222E+00    0.767E-01
DAV:   3    -0.106362612308E+03    0.21119E-02   -0.14555E-02  1596   0.396E-01    0.497E-01
DAV:   4    -0.106360434640E+03    0.21777E-02   -0.26408E-03  1568   0.143E-01    0.287E-01
DAV:   5    -0.106359889004E+03    0.54564E-03   -0.15002E-03  1596   0.102E-01    0.821E-02
DAV:   6    -0.106359867766E+03    0.21238E-04   -0.11755E-04   798   0.373E-02
  45 F= -.10635987E+03 E0= -.10635987E+03  d E =-.264135E-01
 curvature:  -2.67 expect dE=-0.247E-01 dE for cont linesearch -0.139E-03
 trial: gam= 0.79805 g(F)=  0.527E-02 g(S)=  0.399E-02 ort =-0.150E-02 (trialstep = 0.243E+01)
 search vector abs. value=  0.344E-01
 bond charge predicted
       N       E                     dE             d eps       ncg     rms          rms(c)
DAV:   1    -0.106372010654E+03   -0.12122E-01   -0.89384E+00  1344   0.668E+00    0.867E-01
DAV:   2    -0.106377712444E+03   -0.57018E-02   -0.12049E-01  1596   0.117E+00    0.379E-01
DAV:   3    -0.106376827846E+03    0.88460E-03   -0.37415E-03  1596   0.220E-01    0.241E-01
DAV:   4    -0.106376159355E+03    0.66849E-03   -0.10303E-03  1596   0.870E-02    0.137E-01
DAV:   5    -0.106376028510E+03    0.13084E-03   -0.31850E-04  1078   0.517E-02    0.399E-02
DAV:   6    -0.106376022729E+03    0.57815E-05   -0.54114E-05   742   0.216E-02
  46 F= -.10637602E+03 E0= -.10637602E+03  d E =-.161550E-01
 trial-energy change:   -0.016155  1 .order   -0.015991   -0.019626   -0.012355
 step:   6.5730(harm=  6.5730)  dis= 0.04451  next Energy=  -106.386357 (dE=-0.265E-01)
 bond charge predicted
       N       E                     dE             d eps       ncg     rms          rms(c)
DAV:   1    -0.106373778351E+03    0.22502E-02   -0.25895E+01  1344   0.114E+01    0.149E+00
DAV:   2    -0.106390764996E+03   -0.16987E-01   -0.35021E-01  1596   0.199E+00    0.637E-01
DAV:   3    -0.106388210887E+03    0.25541E-02   -0.10830E-02  1596   0.377E-01    0.406E-01
DAV:   4    -0.106386309327E+03    0.19016E-02   -0.30356E-03  1596   0.149E-01    0.227E-01
DAV:   5    -0.106385971440E+03    0.33789E-03   -0.10077E-03  1568   0.869E-02    0.681E-02
DAV:   6    -0.106385952247E+03    0.19193E-04   -0.67766E-05   840   0.267E-02
  47 F= -.10638595E+03 E0= -.10638595E+03  d E =-.260845E-01
 curvature: -14.02 expect dE=-0.707E-01 dE for cont linesearch -0.497E-04
 trial: gam= 0.38378 g(F)=  0.359E-02 g(S)=  0.145E-02 ort = 0.349E-03 (trialstep = 0.326E+01)
 search vector abs. value=  0.104E-01
 bond charge predicted
       N       E                     dE             d eps       ncg     rms          rms(c)
DAV:   1    -0.106398927523E+03   -0.12956E-01   -0.49989E+00  1344   0.496E+00    0.615E-01
DAV:   2    -0.106402419166E+03   -0.34916E-02   -0.59149E-02  1610   0.788E-01    0.224E-01
DAV:   3    -0.106401967452E+03    0.45171E-03   -0.16939E-03  1610   0.129E-01    0.147E-01
DAV:   4    -0.106401682881E+03    0.28457E-03   -0.45785E-04  1512   0.647E-02    0.684E-02
DAV:   5    -0.106401658020E+03    0.24861E-04   -0.12887E-04   812   0.365E-02
  48 F= -.10640166E+03 E0= -.10640166E+03  d E =-.157058E-01
 ZBRENT: can't locate minimum, use default step
 trial-energy change:   -0.015706  1 .order   -0.015573   -0.016885   -0.014262
 step:  13.0503(harm= 21.0013)  dis= 0.05005  next Energy=  -106.440297 (dE=-0.543E-01)
 bond charge predicted
       N       E                     dE             d eps       ncg     rms          rms(c)
DAV:   1    -0.106402124171E+03   -0.44129E-03   -0.45153E+01  1344   0.149E+01    0.187E+00
DAV:   2    -0.106434944364E+03   -0.32820E-01   -0.55044E-01  1610   0.237E+00    0.670E-01
DAV:   3    -0.106430844769E+03    0.40996E-02   -0.15404E-02  1610   0.383E-01    0.433E-01
DAV:   4    -0.106428288208E+03    0.25566E-02   -0.40561E-03  1596   0.193E-01    0.204E-01
DAV:   5    -0.106428059616E+03    0.22859E-03   -0.13667E-03  1582   0.109E-01    0.814E-02
DAV:   6    -0.106428060489E+03   -0.87283E-06   -0.70841E-05   826   0.291E-02
  49 F= -.10642806E+03 E0= -.10642806E+03  d E =-.421082E-01
 curvature: -16.82 expect dE=-0.107E+00 dE for cont linesearch -0.481E-03
 trial: gam= 1.37821 g(F)=  0.515E-02 g(S)=  0.120E-02 ort = 0.545E-03 (trialstep = 0.196E+01)
 search vector abs. value=  0.276E-01
 bond charge predicted
       N       E                     dE             d eps       ncg     rms          rms(c)
DAV:   1    -0.106440834493E+03   -0.12775E-01   -0.54670E+00  1344   0.519E+00    0.607E-01
DAV:   2    -0.106441701927E+03   -0.86743E-03   -0.57864E-02  1596   0.872E-01    0.263E-01
DAV:   3    -0.106441164925E+03    0.53700E-03   -0.21393E-03  1596   0.155E-01    0.157E-01
DAV:   4    -0.106440807970E+03    0.35695E-03   -0.57448E-04  1512   0.678E-02    0.797E-02
DAV:   5    -0.106440743641E+03    0.64330E-04   -0.10987E-04   770   0.323E-02
  50 F= -.10644074E+03 E0= -.10644074E+03  d E =-.126832E-01
 ZBRENT: can't locate minimum, use default step
 trial-energy change:   -0.012683  1 .order   -0.012682   -0.013964   -0.011399
 step:   7.8588(harm= 10.6987)  dis= 0.05316  next Energy=  -106.466080 (dE=-0.380E-01)
 bond charge predicted
       N       E                     dE             d eps       ncg     rms          rms(c)
DAV:   1    -0.106454882072E+03   -0.14074E-01   -0.49706E+01  1344   0.157E+01    0.179E+00
DAV:   2    -0.106463472094E+03   -0.85900E-02   -0.51624E-01  1596   0.264E+00    0.801E-01
DAV:   3    -0.106458622200E+03    0.48499E-02   -0.19783E-02  1582   0.475E-01    0.470E-01
DAV:   4    -0.106455360150E+03    0.32621E-02   -0.53635E-03  1610   0.207E-01    0.237E-01
DAV:   5    -0.106454860966E+03    0.49918E-03   -0.11550E-03  1624   0.960E-02    0.852E-02
DAV:   6    -0.106454816411E+03    0.44555E-04   -0.10793E-04   798   0.369E-02
  51 F= -.10645482E+03 E0= -.10645482E+03  d E =-.267559E-01
 curvature: -18.55 expect dE=-0.165E+00 dE for cont linesearch -0.176E-03
 trial: gam= 1.55559 g(F)=  0.562E-02 g(S)=  0.329E-02 ort = 0.511E-03 (trialstep = 0.112E+01)
 search vector abs. value=  0.772E-01
 bond charge predicted
       N       E                     dE             d eps       ncg     rms          rms(c)
DAV:   1    -0.106462726451E+03   -0.78655E-02   -0.55299E+00  1344   0.510E+00    0.346E-01
DAV:   2    -0.106465888921E+03   -0.31625E-02   -0.43062E-02  1596   0.685E-01    0.155E-01
DAV:   3    -0.106465719638E+03    0.16928E-03   -0.10708E-03  1568   0.103E-01    0.995E-02
DAV:   4    -0.106465592617E+03    0.12702E-03   -0.16566E-04   952   0.399E-02    0.533E-02
DAV:   5    -0.106465575438E+03    0.17180E-04   -0.12514E-04   784   0.336E-02
  52 F= -.10646558E+03 E0= -.10646558E+03  d E =-.107590E-01
 ZBRENT: can't locate minimum, use default step
 trial-energy change:   -0.010759  1 .order   -0.010884   -0.010890   -0.010877
 step:   4.4896(harm=942.4815)  dis= 0.05453  next Energy=  -111.027008 (dE=-0.457E+01)
 bond charge predicted
       N       E                     dE             d eps       ncg     rms          rms(c)
DAV:   1    -0.106462911280E+03    0.26813E-02   -0.49960E+01  1344   0.153E+01    0.105E+00
DAV:   2    -0.106492576195E+03   -0.29665E-01   -0.40466E-01  1596   0.206E+00    0.481E-01
DAV:   3    -0.106491056887E+03    0.15193E-02   -0.98172E-03  1610   0.303E-01    0.301E-01
DAV:   4    -0.106489930262E+03    0.11266E-02   -0.16877E-03  1638   0.119E-01    0.160E-01
DAV:   5    -0.106489749694E+03    0.18057E-03   -0.68845E-04  1512   0.781E-02    0.516E-02
DAV:   6    -0.106489757395E+03   -0.77009E-05   -0.59645E-05   812   0.241E-02
  53 F= -.10648976E+03 E0= -.10648976E+03  d E =-.349410E-01
 curvature: -26.78 expect dE=-0.221E+00 dE for cont linesearch -0.111E-01
 ZBRENT: increasing intervall
 opt :  11.2240  next Energy=  -106.500773 (dE=-0.460E-01)
 bond charge predicted
       N       E                     dE             d eps       ncg     rms          rms(c)
DAV:   1    -0.106375131416E+03    0.11462E+00   -0.20281E+02  1344   0.311E+01    0.225E+00
DAV:   2    -0.106508469300E+03   -0.13334E+00   -0.17966E+00  1596   0.418E+00    0.102E+00
DAV:   3    -0.106502587005E+03    0.58823E-02   -0.40360E-02  1610   0.592E-01    0.642E-01
DAV:   4    -0.106498213418E+03    0.43736E-02   -0.69257E-03  1652   0.239E-01    0.335E-01
DAV:   5    -0.106497511041E+03    0.70238E-03   -0.26300E-03  1582   0.153E-01    0.105E-01
DAV:   6    -0.106497540377E+03   -0.29335E-04   -0.24110E-04   966   0.487E-02
  54 F= -.10649754E+03 E0= -.10649754E+03  d E =-.427240E-01
 curvature: -26.51 expect dE=-0.242E+00 dE for cont linesearch -0.190E-02
 ZBRENT: bracketing found
 ZBRENT: interpolating
 opt :   9.2495  next Energy=  -106.499860 (dE=-0.450E-01)
 bond charge predicted
       N       E                     dE             d eps       ncg     rms          rms(c)
DAV:   1    -0.106492256373E+03    0.52547E-02   -0.17194E+01  1344   0.902E+00    0.612E-01
DAV:   2    -0.106501957044E+03   -0.97007E-02   -0.13018E-01  1596   0.121E+00    0.280E-01
DAV:   3    -0.106501409647E+03    0.54740E-03   -0.32940E-03  1610   0.187E-01    0.181E-01
DAV:   4    -0.106501005642E+03    0.40401E-03   -0.59394E-04  1526   0.717E-02    0.928E-02
DAV:   5    -0.106500927541E+03    0.78101E-04   -0.19166E-04   854   0.450E-02
  55 F= -.10650093E+03 E0= -.10650093E+03  d E =-.461111E-01
 curvature: -32.44 expect dE=-0.278E+00 dE for cont linesearch -0.496E-03
 trial: gam= 0.66841 g(F)=  0.641E-02 g(S)=  0.215E-02 ort =-0.109E-02 (trialstep = 0.275E+01)
 search vector abs. value=  0.416E-01
 bond charge predicted
       N       E                     dE             d eps       ncg     rms          rms(c)
DAV:   1    -0.106517295317E+03   -0.16290E-01   -0.19513E+01  1344   0.961E+00    0.985E-01
DAV:   2    -0.106518744424E+03   -0.14491E-02   -0.19035E-01  1596   0.173E+00    0.456E-01
DAV:   3    -0.106518732765E+03    0.11659E-04   -0.77200E-03  1554   0.293E-01    0.228E-01
DAV:   4    -0.106518266473E+03    0.46629E-03   -0.94233E-04  1582   0.762E-02    0.122E-01
DAV:   5    -0.106518242067E+03    0.24406E-04   -0.17641E-04   966   0.353E-02
  56 F= -.10651824E+03 E0= -.10651824E+03  d E =-.173145E-01
 trial-energy change:   -0.017315  1 .order   -0.017583   -0.021519   -0.013648
 step:   7.5125(harm=  7.5125)  dis= 0.07068  next Energy=  -106.530344 (dE=-0.294E-01)
 bond charge predicted
       N       E                     dE             d eps       ncg     rms          rms(c)
DAV:   1    -0.106524397782E+03   -0.61313E-02   -0.58639E+01  1344   0.167E+01    0.172E+00
DAV:   2    -0.106530198084E+03   -0.58003E-02   -0.59888E-01  1596   0.299E+00    0.814E-01
DAV:   3    -0.106530349408E+03   -0.15132E-03   -0.23618E-02  1554   0.518E-01    0.402E-01
DAV:   4    -0.106529037505E+03    0.13119E-02   -0.26917E-03  1596   0.129E-01    0.221E-01
DAV:   5    -0.106528954173E+03    0.83331E-04   -0.60935E-04  1582   0.622E-02
  57 F= -.10652895E+03 E0= -.10652895E+03  d E =-.280266E-01
 curvature: -19.95 expect dE=-0.247E+00 dE for cont linesearch -0.574E-05
 trial: gam= 1.12506 g(F)=  0.619E-02 g(S)=  0.616E-02 ort = 0.109E-03 (trialstep = 0.236E+01)
 search vector abs. value=  0.653E-01
 bond charge predicted
       N       E                     dE             d eps       ncg     rms          rms(c)
DAV:   1    -0.106541515668E+03   -0.12478E-01   -0.20842E+01  1344   0.100E+01    0.935E-01
DAV:   2    -0.106551933658E+03   -0.10418E-01   -0.18096E-01  1596   0.156E+00    0.316E-01
DAV:   3    -0.106551603239E+03    0.33042E-03   -0.63702E-03  1554   0.272E-01    0.184E-01
DAV:   4    -0.106551201997E+03    0.40124E-03   -0.75021E-04  1540   0.757E-02    0.997E-02
DAV:   5    -0.106551094032E+03    0.10797E-03   -0.18706E-04   854   0.411E-02    0.364E-02
DAV:   6    -0.106551083032E+03    0.10999E-04   -0.10167E-04   714   0.285E-02
  58 F= -.10655108E+03 E0= -.10655108E+03  d E =-.221289E-01
 trial-energy change:   -0.022129  1 .order   -0.025080   -0.029443   -0.020717
 step:   7.9595(harm=  7.9595)  dis= 0.08999  next Energy=  -106.578626 (dE=-0.497E-01)
 bond charge predicted
       N       E                     dE             d eps       ncg     rms          rms(c)
DAV:   1    -0.106510480195E+03    0.40614E-01   -0.11940E+02  1344   0.242E+01    0.214E+00
DAV:   2    -0.106575547579E+03   -0.65067E-01   -0.10395E+00  1596   0.376E+00    0.806E-01
DAV:   3    -0.106573168560E+03    0.23790E-02   -0.36749E-02  1554   0.676E-01    0.457E-01
DAV:   4    -0.106570593309E+03    0.25753E-02   -0.47245E-03  1596   0.188E-01    0.260E-01
DAV:   5    -0.106569910727E+03    0.68258E-03   -0.13657E-03  1582   0.102E-01    0.101E-01
DAV:   6    -0.106569843430E+03    0.67297E-04   -0.36919E-04  1260   0.529E-02
  59 F= -.10656984E+03 E0= -.10656984E+03  d E =-.408893E-01
 curvature: -20.81 expect dE=-0.176E+00 dE for cont linesearch -0.142E-03
 trial: gam= 0.97058 g(F)=  0.619E-02 g(S)=  0.228E-02 ort = 0.668E-03 (trialstep = 0.319E+01)
 search vector abs. value=  0.712E-01
 bond charge predicted
       N       E                     dE             d eps       ncg     rms          rms(c)
DAV:   1    -0.106557925142E+03    0.11986E-01   -0.39261E+01  1344   0.137E+01    0.996E-01
DAV:   2    -0.106585751960E+03   -0.27827E-01   -0.33742E-01  1596   0.188E+00    0.431E-01
DAV:   3    -0.106585630298E+03    0.12166E-03   -0.74263E-03  1568   0.282E-01    0.232E-01
DAV:   4    -0.106585229839E+03    0.40046E-03   -0.92916E-04  1582   0.936E-02    0.142E-01
DAV:   5    -0.106585191335E+03    0.38504E-04   -0.41388E-04  1344   0.572E-02
  60 F= -.10658519E+03 E0= -.10658519E+03  d E =-.153479E-01
 trial-energy change:   -0.015348  1 .order   -0.016622   -0.029077   -0.004167
 step:   4.0624(harm=  3.7197)  dis= 0.04717  next Energy=  -106.585738 (dE=-0.159E-01)
 bond charge predicted
       N       E                     dE             d eps       ncg     rms          rms(c)
DAV:   1    -0.106584489243E+03    0.74060E-03   -0.29568E+00  1344   0.376E+00    0.280E-01
DAV:   2    -0.106586558804E+03   -0.20696E-02   -0.24730E-02  1596   0.517E-01    0.130E-01
DAV:   3    -0.106586557530E+03    0.12741E-05   -0.56833E-04  1400   0.805E-02
  61 F= -.10658656E+03 E0= -.10658656E+03  d E =-.167141E-01
 curvature:  -8.52 expect dE=-0.309E-01 dE for cont linesearch -0.255E-03
 ZBRENT: increasing intervall
 opt :   5.8139  next Energy=  -106.589386 (dE=-0.195E-01)
 bond charge predicted
       N       E                     dE             d eps       ncg     rms          rms(c)
DAV:   1    -0.106578856576E+03    0.77022E-02   -0.11843E+01  1344   0.752E+00    0.534E-01
DAV:   2    -0.106587047970E+03   -0.81914E-02   -0.98969E-02  1596   0.103E+00    0.261E-01
DAV:   3    -0.106586992573E+03    0.55397E-04   -0.22765E-03  1568   0.158E-01    0.143E-01
DAV:   4    -0.106586852990E+03    0.13958E-03   -0.31352E-04  1316   0.553E-02    0.851E-02
DAV:   5    -0.106586847986E+03    0.50039E-05   -0.15376E-04   798   0.367E-02
  62 F= -.10658685E+03 E0= -.10658685E+03  d E =-.170046E-01
 curvature: -94.37 expect dE=-0.399E+00 dE for cont linesearch -0.327E-03
 trial: gam= 0.26207 g(F)=  0.396E-02 g(S)=  0.266E-03 ort =-0.497E-03 (trialstep = 0.371E+01)
 search vector abs. value=  0.886E-02
 bond charge predicted
       N       E                     dE             d eps       ncg     rms          rms(c)
DAV:   1    -0.106596162539E+03   -0.93095E-02   -0.52132E+00  1344   0.509E+00    0.508E-01
DAV:   2    -0.106600797659E+03   -0.46351E-02   -0.62962E-02  1596   0.814E-01    0.227E-01
DAV:   3    -0.106600688656E+03    0.10900E-03   -0.16006E-03  1582   0.134E-01    0.133E-01
DAV:   4    -0.106600551009E+03    0.13765E-03   -0.20427E-04   924   0.467E-02    0.866E-02
DAV:   5    -0.106600525606E+03    0.25403E-04   -0.20380E-04   784   0.397E-02
  63 F= -.10660053E+03 E0= -.10660053E+03  d E =-.136776E-01
 ZBRENT: can't locate minimum, use default step
 trial-energy change:   -0.013678  1 .order   -0.013832   -0.015211   -0.012453
 step:  14.8482(harm= 20.4756)  dis= 0.05036  next Energy=  -106.628799 (dE=-0.420E-01)
 bond charge predicted
       N       E                     dE             d eps       ncg     rms          rms(c)
DAV:   1    -0.106578650949E+03    0.21900E-01   -0.47070E+01  1344   0.153E+01    0.159E+00
DAV:   2    -0.106621497452E+03   -0.42847E-01   -0.58964E-01  1596   0.245E+00    0.655E-01
DAV:   3    -0.106620498140E+03    0.99931E-03   -0.14686E-02  1582   0.400E-01    0.382E-01
DAV:   4    -0.106619345729E+03    0.11524E-02   -0.20004E-03  1568   0.138E-01    0.253E-01
DAV:   5    -0.106619084783E+03    0.26095E-03   -0.98044E-04  1484   0.858E-02    0.102E-01
DAV:   6    -0.106619091924E+03   -0.71407E-05   -0.17296E-04   854   0.404E-02
  64 F= -.10661909E+03 E0= -.10661909E+03  d E =-.322439E-01
 curvature: -19.64 expect dE=-0.142E+00 dE for cont linesearch -0.199E-03
 trial: gam= 1.61366 g(F)=  0.616E-02 g(S)=  0.109E-02 ort = 0.300E-03 (trialstep = 0.168E+01)
 search vector abs. value=  0.313E-01
 bond charge predicted
       N       E                     dE             d eps       ncg     rms          rms(c)
DAV:   1    -0.106626555729E+03   -0.74709E-02   -0.33869E+00  1344   0.414E+00    0.459E-01
DAV:   2    -0.106628908044E+03   -0.23523E-02   -0.44663E-02  1596   0.739E-01    0.209E-01
DAV:   3    -0.106628838735E+03    0.69309E-04   -0.17914E-03  1568   0.152E-01    0.127E-01
DAV:   4    -0.106628726554E+03    0.11218E-03   -0.15229E-04   868   0.370E-02    0.833E-02
DAV:   5    -0.106628676481E+03    0.50074E-04   -0.17781E-04   798   0.371E-02
  65 F= -.10662868E+03 E0= -.10662868E+03  d E =-.958456E-02
 trial-energy change:   -0.009585  1 .order   -0.009687   -0.013011   -0.006364
 step:   3.2917(harm=  3.2917)  dis= 0.01884  next Energy=  -106.631825 (dE=-0.127E-01)
 bond charge predicted
       N       E                     dE             d eps       ncg     rms          rms(c)
DAV:   1    -0.106629187622E+03   -0.46107E-03   -0.31044E+00  1344   0.396E+00    0.423E-01
DAV:   2    -0.106631347887E+03   -0.21603E-02   -0.40441E-02  1596   0.703E-01    0.207E-01
DAV:   3    -0.106631289068E+03    0.58819E-04   -0.16545E-03  1582   0.145E-01    0.119E-01
DAV:   4    -0.106631181923E+03    0.10714E-03   -0.14082E-04   868   0.359E-02    0.792E-02
DAV:   5    -0.106631136030E+03    0.45893E-04   -0.17013E-04   742   0.362E-02
  66 F= -.10663114E+03 E0= -.10663114E+03  d E =-.120441E-01
 curvature:  -6.66 expect dE=-0.330E-01 dE for cont linesearch -0.955E-04
 trial: gam= 0.34590 g(F)=  0.442E-02 g(S)=  0.538E-03 ort = 0.670E-03 (trialstep = 0.200E+01)
 search vector abs. value=  0.916E-02
 bond charge predicted
       N       E                     dE             d eps       ncg     rms          rms(c)
DAV:   1    -0.106639635557E+03   -0.84536E-02   -0.99851E-01  1344   0.230E+00    0.364E-01
DAV:   2    -0.106640554189E+03   -0.91863E-03   -0.17629E-02  1596   0.425E-01    0.126E-01
DAV:   3    -0.106640456074E+03    0.98115E-04   -0.50948E-04  1554   0.769E-02
  67 F= -.10664046E+03 E0= -.10664046E+03  d E =-.932004E-02
 ZBRENT: can't locate minimum, use default step
 trial-energy change:   -0.009320  1 .order   -0.009560   -0.010394   -0.008726
 step:   8.0150(harm= 12.4824)  dis= 0.01810  next Energy=  -106.663512 (dE=-0.324E-01)
 bond charge predicted
       N       E                     dE             d eps       ncg     rms          rms(c)
DAV:   1    -0.106646171414E+03   -0.56172E-02   -0.89764E+00  1344   0.689E+00    0.107E+00
DAV:   2    -0.106654162957E+03   -0.79915E-02   -0.15716E-01  1596   0.127E+00    0.394E-01
DAV:   3    -0.106653160241E+03    0.10027E-02   -0.45419E-03  1596   0.226E-01    0.228E-01
DAV:   4    -0.106652529328E+03    0.63091E-03   -0.12694E-03  1596   0.106E-01    0.124E-01
DAV:   5    -0.106652454387E+03    0.74941E-04   -0.36302E-04  1232   0.552E-02
  68 F= -.10665245E+03 E0= -.10665245E+03  d E =-.213184E-01
 curvature:  -9.02 expect dE=-0.518E-01 dE for cont linesearch -0.286E-02
 ZBRENT: interpolating
 opt :   6.3240  next Energy=  -106.653896 (dE=-0.228E-01)
 bond charge predicted
       N       E                     dE             d eps       ncg     rms          rms(c)
DAV:   1    -0.106652765154E+03   -0.23583E-03   -0.71308E-01  1344   0.195E+00    0.288E-01
DAV:   2    -0.106653413053E+03   -0.64790E-03   -0.12329E-02  1596   0.363E-01    0.114E-01
DAV:   3    -0.106653328207E+03    0.84846E-04   -0.35192E-04  1414   0.648E-02
  69 F= -.10665333E+03 E0= -.10665333E+03  d E =-.221922E-01
 curvature:  -4.55 expect dE=-0.159E-01 dE for cont linesearch -0.815E-03
 ZBRENT: interpolating
 opt :   7.0499  next Energy=  -106.653794 (dE=-0.227E-01)
 bond charge predicted
       N       E                     dE             d eps       ncg     rms          rms(c)
DAV:   1    -0.106653321386E+03    0.91667E-04   -0.13162E-01  1344   0.840E-01    0.149E-01
DAV:   2    -0.106653488166E+03   -0.16678E-03   -0.25826E-03  1582   0.162E-01    0.349E-02
DAV:   3    -0.106653483142E+03    0.50244E-05   -0.62294E-05   686   0.294E-02
  70 F= -.10665348E+03 E0= -.10665348E+03  d E =-.223471E-01
 curvature:  -2.59 expect dE=-0.777E-02 dE for cont linesearch -0.157E-03
 ZBRENT: interpolating
 opt :   6.7830  next Energy=  -106.653583 (dE=-0.224E-01)
 bond charge predicted
       N       E                     dE             d eps       ncg     rms          rms(c)
DAV:   1    -0.106653526973E+03   -0.38807E-04   -0.17665E-02  1344   0.308E-01    0.533E-02
DAV:   2    -0.106653548058E+03   -0.21085E-04   -0.32562E-04  1092   0.588E-02
  71 F= -.10665355E+03 E0= -.10665355E+03  d E =-.224120E-01
 curvature:  -1.64 expect dE=-0.405E-02 dE for cont linesearch -0.218E-04
 trial: gam= 0.53764 g(F)=  0.187E-02 g(S)=  0.597E-03 ort = 0.349E-03 (trialstep = 0.296E+01)
 search vector abs. value=  0.549E-02
 bond charge predicted
       N       E                     dE             d eps       ncg     rms          rms(c)
DAV:   1    -0.106658464717E+03   -0.49377E-02   -0.13529E+00  1344   0.271E+00    0.416E-01
DAV:   2    -0.106658675786E+03   -0.21107E-03   -0.26454E-02  1596   0.633E-01    0.210E-01
DAV:   3    -0.106658599119E+03    0.76666E-04   -0.12593E-03  1554   0.127E-01    0.121E-01
DAV:   4    -0.106658480550E+03    0.11857E-03   -0.15905E-04   896   0.354E-02    0.740E-02
DAV:   5    -0.106658446051E+03    0.34500E-04   -0.15106E-04   784   0.322E-02
  72 F= -.10665845E+03 E0= -.10665845E+03  d E =-.489799E-02
 trial-energy change:   -0.004898  1 .order   -0.005526   -0.007861   -0.003191
 step:   4.9819(harm=  4.9819)  dis= 0.00817  next Energy=  -106.660165 (dE=-0.662E-02)
 bond charge predicted
       N       E                     dE             d eps       ncg     rms          rms(c)
DAV:   1    -0.106659229960E+03   -0.74941E-03   -0.63199E-01  1344   0.185E+00    0.281E-01
DAV:   2    -0.106659349023E+03   -0.11906E-03   -0.12369E-02  1596   0.431E-01    0.147E-01
DAV:   3    -0.106659314078E+03    0.34945E-04   -0.59646E-04  1484   0.875E-02
  73 F= -.10665931E+03 E0= -.10665931E+03  d E =-.576602E-02
 curvature:  -5.15 expect dE=-0.206E-01 dE for cont linesearch -0.205E-05
 trial: gam= 1.21923 g(F)=  0.343E-02 g(S)=  0.570E-03 ort = 0.468E-04 (trialstep = 0.151E+01)
 search vector abs. value=  0.123E-01
 bond charge predicted
       N       E                     dE             d eps       ncg     rms          rms(c)
DAV:   1    -0.106664310180E+03   -0.49612E-02   -0.79674E-01  1344   0.205E+00    0.290E-01
DAV:   2    -0.106665182494E+03   -0.87231E-03   -0.13897E-02  1624   0.348E-01    0.137E-01
DAV:   3    -0.106665015364E+03    0.16713E-03   -0.24371E-04  1106   0.558E-02    0.895E-02
DAV:   4    -0.106664904773E+03    0.11059E-03   -0.31809E-04  1106   0.502E-02    0.389E-02
DAV:   5    -0.106664904930E+03   -0.15677E-06   -0.57454E-05   672   0.211E-02
  74 F= -.10666490E+03 E0= -.10666490E+03  d E =-.559085E-02
 ZBRENT: can't locate minimum, use default step
 trial-energy change:   -0.005591  1 .order   -0.005613   -0.006102   -0.005125
 step:   6.0206(harm=  9.3993)  dis= 0.01560  next Energy=  -106.678367 (dE=-0.191E-01)
 bond charge predicted
       N       E                     dE             d eps       ncg     rms          rms(c)
DAV:   1    -0.106666414898E+03   -0.15101E-02   -0.71820E+00  1344   0.616E+00    0.925E-01
DAV:   2    -0.106675575092E+03   -0.91602E-02   -0.13034E-01  1610   0.106E+00    0.353E-01
DAV:   3    -0.106674313355E+03    0.12617E-02   -0.24416E-03  1610   0.174E-01    0.234E-01
DAV:   4    -0.106673543111E+03    0.77024E-03   -0.17463E-03  1596   0.116E-01    0.111E-01
DAV:   5    -0.106673511027E+03    0.32084E-04   -0.33612E-04   994   0.520E-02
  75 F= -.10667351E+03 E0= -.10667351E+03  d E =-.141969E-01
 curvature: -11.62 expect dE=-0.551E-01 dE for cont linesearch -0.741E-03
 trial: gam= 1.03145 g(F)=  0.423E-02 g(S)=  0.504E-03 ort = 0.884E-03 (trialstep = 0.151E+01)
 search vector abs. value=  0.196E-01
 bond charge predicted
       N       E                     dE             d eps       ncg     rms          rms(c)
DAV:   1    -0.106677757219E+03   -0.42141E-02   -0.12120E+00  1344   0.254E+00    0.364E-01
DAV:   2    -0.106678862391E+03   -0.11052E-02   -0.21819E-02  1610   0.488E-01    0.154E-01
DAV:   3    -0.106678730153E+03    0.13224E-03   -0.68287E-04  1568   0.936E-02    0.957E-02
DAV:   4    -0.106678628988E+03    0.10116E-03   -0.14062E-04   798   0.352E-02    0.581E-02
DAV:   5    -0.106678605662E+03    0.23326E-04   -0.12677E-04   714   0.319E-02
  76 F= -.10667861E+03 E0= -.10667861E+03  d E =-.509464E-02
 trial-energy change:   -0.005095  1 .order   -0.005979   -0.008511   -0.003447
 step:   2.5323(harm=  2.5323)  dis= 0.00863  next Energy=  -106.680664 (dE=-0.715E-02)
 bond charge predicted
       N       E                     dE             d eps       ncg     rms          rms(c)
DAV:   1    -0.106680260197E+03   -0.16312E-02   -0.56196E-01  1344   0.173E+00    0.244E-01
DAV:   2    -0.106680759601E+03   -0.49940E-03   -0.10078E-02  1610   0.331E-01    0.109E-01
DAV:   3    -0.106680689731E+03    0.69870E-04   -0.30327E-04  1316   0.632E-02
  77 F= -.10668069E+03 E0= -.10668069E+03  d E =-.717870E-02
 curvature:  -4.40 expect dE=-0.198E-01 dE for cont linesearch -0.106E-02
 ZBRENT: increasing intervall
 opt :   4.5836  next Energy=  -106.684905 (dE=-0.114E-01)
 bond charge predicted
       N       E                     dE             d eps       ncg     rms          rms(c)
DAV:   1    -0.106681490583E+03   -0.73098E-03   -0.22474E+00  1344   0.346E+00    0.468E-01
DAV:   2    -0.106683253987E+03   -0.17634E-02   -0.39063E-02  1610   0.658E-01    0.232E-01
DAV:   3    -0.106682949870E+03    0.30412E-03   -0.12263E-03  1596   0.125E-01    0.149E-01
DAV:   4    -0.106682711486E+03    0.23838E-03   -0.38010E-04  1316   0.544E-02    0.873E-02
DAV:   5    -0.106682666410E+03    0.45076E-04   -0.17189E-04   742   0.385E-02
  78 F= -.10668267E+03 E0= -.10668267E+03  d E =-.915538E-02
 curvature: -17.54 expect dE=-0.895E-01 dE for cont linesearch -0.564E-04
 trial: gam= 0.75213 g(F)=  0.397E-02 g(S)=  0.113E-02 ort = 0.251E-03 (trialstep = 0.212E+01)
 search vector abs. value=  0.166E-01
 bond charge predicted
       N       E                     dE             d eps       ncg     rms          rms(c)
DAV:   1    -0.106689891414E+03   -0.71799E-02   -0.20223E+00  1344   0.327E+00    0.414E-01
DAV:   2    -0.106692097732E+03   -0.22063E-02   -0.34070E-02  1596   0.547E-01    0.174E-01
DAV:   3    -0.106691822188E+03    0.27554E-03   -0.72783E-04  1596   0.899E-02    0.121E-01
DAV:   4    -0.106691661827E+03    0.16036E-03   -0.30002E-04  1078   0.501E-02    0.617E-02
DAV:   5    -0.106691646657E+03    0.15170E-04   -0.12264E-04   728   0.332E-02
  79 F= -.10669165E+03 E0= -.10669165E+03  d E =-.898025E-02
 trial-energy change:   -0.008980  1 .order   -0.009589   -0.011225   -0.007953
 step:   7.2788(harm=  7.2788)  dis= 0.02444  next Energy=  -106.701919 (dE=-0.193E-01)
 bond charge predicted
       N       E                     dE             d eps       ncg     rms          rms(c)
DAV:   1    -0.106684940302E+03    0.67215E-02   -0.11943E+01  1344   0.794E+00    0.101E+00
DAV:   2    -0.106698150119E+03   -0.13210E-01   -0.20192E-01  1596   0.133E+00    0.431E-01
DAV:   3    -0.106696554582E+03    0.15955E-02   -0.43166E-03  1596   0.217E-01    0.297E-01
DAV:   4    -0.106695638557E+03    0.91603E-03   -0.18843E-03  1596   0.121E-01    0.155E-01
DAV:   5    -0.106695540101E+03    0.98456E-04   -0.52916E-04  1470   0.663E-02
  80 F= -.10669554E+03 E0= -.10669554E+03  d E =-.128737E-01
 curvature: -11.41 expect dE=-0.711E-01 dE for cont linesearch -0.228E-02
 ZBRENT: interpolating
 opt :   5.5923  next Energy=  -106.697076 (dE=-0.144E-01)
 bond charge predicted
       N       E                     dE             d eps       ncg     rms          rms(c)
DAV:   1    -0.106696875373E+03   -0.12368E-02   -0.12795E+00  1344   0.260E+00    0.310E-01
DAV:   2    -0.106698243187E+03   -0.13678E-02   -0.20953E-02  1596   0.436E-01    0.152E-01
DAV:   3    -0.106698058029E+03    0.18516E-03   -0.45639E-04  1554   0.714E-02    0.108E-01
DAV:   4    -0.106697936903E+03    0.12113E-03   -0.19846E-04   812   0.419E-02    0.550E-02
DAV:   5    -0.106697923627E+03    0.13276E-04   -0.12105E-04   686   0.319E-02
  81 F= -.10669792E+03 E0= -.10669792E+03  d E =-.152572E-01
 curvature:  -7.68 expect dE=-0.256E-01 dE for cont linesearch -0.827E-06
 trial: gam= 0.57235 g(F)=  0.274E-02 g(S)=  0.597E-03 ort = 0.423E-04 (trialstep = 0.282E+01)
 search vector abs. value=  0.882E-02
 bond charge predicted
       N       E                     dE             d eps       ncg     rms          rms(c)
DAV:   1    -0.106706627256E+03   -0.86904E-02   -0.19157E+00  1344   0.325E+00    0.533E-01
DAV:   2    -0.106706784435E+03   -0.15718E-03   -0.43162E-02  1596   0.785E-01    0.244E-01
DAV:   3    -0.106706614878E+03    0.16956E-03   -0.17860E-03  1554   0.148E-01    0.143E-01
DAV:   4    -0.106706430244E+03    0.18463E-03   -0.30547E-04  1204   0.457E-02    0.879E-02
DAV:   5    -0.106706403865E+03    0.26379E-04   -0.17583E-04   784   0.338E-02
  82 F= -.10670640E+03 E0= -.10670640E+03  d E =-.848024E-02
 trial-energy change:   -0.008480  1 .order   -0.007382   -0.009472   -0.005291
 step:   3.9296(harm=  6.3789)  dis= 0.00995  next Energy=  -106.707518 (dE=-0.959E-02)
 bond charge predicted
       N       E                     dE             d eps       ncg     rms          rms(c)
DAV:   1    -0.106708349706E+03   -0.19195E-02   -0.29937E-01  1344   0.128E+00    0.211E-01
DAV:   2    -0.106708374122E+03   -0.24416E-04   -0.67221E-03  1596   0.309E-01    0.102E-01
DAV:   3    -0.106708349325E+03    0.24797E-04   -0.27017E-04  1106   0.589E-02
  83 F= -.10670835E+03 E0= -.10670835E+03  d E =-.104257E-01
 curvature:  -4.41 expect dE=-0.134E-01 dE for cont linesearch -0.130E-02
 ZBRENT: increasing intervall
 opt :   6.1565  next Energy=  -106.711359 (dE=-0.134E-01)
 bond charge predicted
       N       E                     dE             d eps       ncg     rms          rms(c)
DAV:   1    -0.106712011607E+03   -0.36375E-02   -0.11958E+00  1344   0.256E+00    0.408E-01
DAV:   2    -0.106712001565E+03    0.10042E-04   -0.26594E-02  1596   0.618E-01    0.206E-01
DAV:   3    -0.106711886078E+03    0.11549E-03   -0.11195E-03  1554   0.116E-01    0.121E-01
DAV:   4    -0.106711757130E+03    0.12895E-03   -0.19848E-04   896   0.381E-02    0.742E-02
DAV:   5    -0.106711747261E+03    0.98683E-05   -0.16676E-04   826   0.322E-02
  84 F= -.10671175E+03 E0= -.10671175E+03  d E =-.138236E-01
 curvature: -10.18 expect dE=-0.360E-01 dE for cont linesearch -0.816E-03
 ZBRENT: increasing intervall
 opt :  10.6104  next Energy=  -106.712047 (dE=-0.141E-01)
 bond charge predicted
       N       E                     dE             d eps       ncg     rms          rms(c)
DAV:   1    -0.106713563630E+03   -0.18065E-02   -0.47817E+00  1344   0.512E+00    0.845E-01
DAV:   2    -0.106714095104E+03   -0.53147E-03   -0.10904E-01  1596   0.124E+00    0.390E-01
DAV:   3    -0.106713690986E+03    0.40412E-03   -0.45478E-03  1568   0.237E-01    0.223E-01
DAV:   4    -0.106713234842E+03    0.45614E-03   -0.80564E-04  1568   0.723E-02    0.140E-01
DAV:   5    -0.106713161844E+03    0.72998E-04   -0.27662E-04  1050   0.417E-02
  85 F= -.10671316E+03 E0= -.10671316E+03  d E =-.152382E-01
 curvature:  -3.73 expect dE=-0.114E-01 dE for cont linesearch -0.687E-05
 trial: gam= 0.63024 g(F)=  0.279E-02 g(S)=  0.267E-03 ort = 0.127E-03 (trialstep = 0.437E+01)
 search vector abs. value=  0.672E-02
 bond charge predicted
       N       E                     dE             d eps       ncg     rms          rms(c)
DAV:   1    -0.106722784730E+03   -0.95499E-02   -0.30298E+00  1358   0.420E+00    0.800E-01
DAV:   2    -0.106718973045E+03    0.38117E-02   -0.74669E-02  1610   0.116E+00    0.355E-01
DAV:   3    -0.106718688497E+03    0.28455E-03   -0.41277E-03  1554   0.204E-01    0.191E-01
DAV:   4    -0.106718327670E+03    0.36083E-03   -0.59898E-04  1554   0.674E-02    0.101E-01
DAV:   5    -0.106718288959E+03    0.38711E-04   -0.16902E-04   812   0.364E-02
  86 F= -.10671829E+03 E0= -.10671829E+03  d E =-.512711E-02
 trial-energy change:   -0.005127  1 .order   -0.004316   -0.013729    0.005098
 step:   3.3880(harm=  3.1904)  dis= 0.00691  next Energy=  -106.718855 (dE=-0.569E-02)
 bond charge predicted
       N       E                     dE             d eps       ncg     rms          rms(c)
DAV:   1    -0.106718901843E+03   -0.57417E-03   -0.15526E-01  1358   0.953E-01    0.191E-01
DAV:   2    -0.106718722898E+03    0.17894E-03   -0.37181E-03  1610   0.260E-01    0.776E-02
DAV:   3    -0.106718697369E+03    0.25529E-04   -0.17233E-04   784   0.447E-02
  87 F= -.10671870E+03 E0= -.10671870E+03  d E =-.553553E-02
 curvature:  -3.32 expect dE=-0.547E-02 dE for cont linesearch -0.583E-04
 ZBRENT: interpolating
 opt :   3.6127  next Energy=  -106.718736 (dE=-0.557E-02)
 bond charge predicted
       N       E                     dE             d eps       ncg     rms          rms(c)
DAV:   1    -0.106718754137E+03   -0.31238E-04   -0.80443E-03  1358   0.217E-01    0.485E-02
DAV:   2    -0.106718744387E+03    0.97495E-05   -0.17881E-04   672   0.563E-02
  88 F= -.10671874E+03 E0= -.10671874E+03  d E =-.558254E-02
 curvature:  -2.20 expect dE=-0.296E-02 dE for cont linesearch -0.561E-05
 trial: gam= 0.26460 g(F)=  0.120E-02 g(S)=  0.148E-03 ort = 0.131E-03 (trialstep = 0.422E+01)
 search vector abs. value=  0.188E-02
 bond charge predicted
       N       E                     dE             d eps       ncg     rms          rms(c)
DAV:   1    -0.106721147922E+03   -0.23938E-02   -0.55326E-01  1344   0.176E+00    0.362E-01
DAV:   2    -0.106722419140E+03   -0.12712E-02   -0.16645E-02  1610   0.350E-01    0.133E-01
DAV:   3    -0.106722294973E+03    0.12417E-03   -0.33231E-04  1232   0.585E-02    0.798E-02
DAV:   4    -0.106722229097E+03    0.65876E-04   -0.16763E-04   882   0.353E-02
  89 F= -.10672223E+03 E0= -.10672223E+03  d E =-.348471E-02
 trial-energy change:   -0.003485  1 .order   -0.003693   -0.005823   -0.001563
 step:   5.7712(harm=  5.7712)  dis= 0.00488  next Energy=  -106.722724 (dE=-0.398E-02)
 bond charge predicted
       N       E                     dE             d eps       ncg     rms          rms(c)
DAV:   1    -0.106722360142E+03   -0.65169E-04   -0.73657E-02  1344   0.643E-01    0.137E-01
DAV:   2    -0.106722516587E+03   -0.15645E-03   -0.21721E-03  1652   0.126E-01    0.510E-02
DAV:   3    -0.106722499501E+03    0.17086E-04   -0.44394E-05   812   0.223E-02
  90 F= -.10672250E+03 E0= -.10672250E+03  d E =-.375511E-02
 curvature:  -3.94 expect dE=-0.854E-02 dE for cont linesearch -0.174E-03
 trial: gam= 1.44360 g(F)=  0.192E-02 g(S)=  0.244E-03 ort =-0.288E-03 (trialstep = 0.162E+01)
 search vector abs. value=  0.526E-02
 bond charge predicted
       N       E                     dE             d eps       ncg     rms          rms(c)
DAV:   1    -0.106723805969E+03   -0.12894E-02   -0.26832E-01  1344   0.125E+00    0.330E-01
DAV:   2    -0.106723997881E+03   -0.19191E-03   -0.11289E-02  1624   0.391E-01    0.134E-01
DAV:   3    -0.106723935453E+03    0.62428E-04   -0.50134E-04  1470   0.799E-02
  91 F= -.10672394E+03 E0= -.10672394E+03  d E =-.143595E-02
 trial-energy change:   -0.001436  1 .order   -0.001811   -0.002840   -0.000782
 step:   2.2406(harm=  2.2406)  dis= 0.00361  next Energy=  -106.724459 (dE=-0.196E-02)
 bond charge predicted
       N       E                     dE             d eps       ncg     rms          rms(c)
DAV:   1    -0.106724067622E+03   -0.69742E-04   -0.37902E-02  1344   0.470E-01    0.118E-01
DAV:   2    -0.106724046668E+03    0.20955E-04   -0.14785E-03  1652   0.146E-01    0.689E-02
DAV:   3    -0.106724025647E+03    0.21021E-04   -0.60607E-05   756   0.283E-02
  92 F= -.10672403E+03 E0= -.10672403E+03  d E =-.152615E-02
 curvature:  -3.37 expect dE=-0.393E-02 dE for cont linesearch -0.515E-05
 trial: gam= 0.20508 g(F)=  0.942E-03 g(S)=  0.223E-03 ort =-0.897E-04 (trialstep = 0.175E+01)
 search vector abs. value=  0.135E-02
 bond charge predicted
       N       E                     dE             d eps       ncg     rms          rms(c)
DAV:   1    -0.106725570883E+03   -0.15242E-02   -0.54336E-02  1344   0.588E-01    0.159E-01
DAV:   2    -0.106725483658E+03    0.87225E-04   -0.25685E-03  1596   0.206E-01    0.724E-02
DAV:   3    -0.106725459404E+03    0.24254E-04   -0.14930E-04   840   0.430E-02
  93 F= -.10672546E+03 E0= -.10672546E+03  d E =-.143376E-02
 trial-energy change:   -0.001434  1 .order   -0.001324   -0.002005   -0.000644
 step:   2.5746(harm=  2.5746)  dis= 0.00200  next Energy=  -106.725503 (dE=-0.148E-02)
 bond charge predicted
       N       E                     dE             d eps       ncg     rms          rms(c)
DAV:   1    -0.106725682673E+03   -0.19902E-03   -0.12156E-02  1344   0.278E-01    0.744E-02
DAV:   2    -0.106725643954E+03    0.38719E-04   -0.55794E-04  1554   0.974E-02
  94 F= -.10672564E+03 E0= -.10672564E+03  d E =-.161831E-02
 curvature:  -1.51 expect dE=-0.111E-02 dE for cont linesearch -0.493E-04
 ZBRENT: increasing intervall
 opt :   4.2296  next Energy=  -106.725728 (dE=-0.170E-02)
 bond charge predicted
       N       E                     dE             d eps       ncg     rms          rms(c)
DAV:   1    -0.106725841769E+03   -0.15910E-03   -0.49426E-02  1344   0.559E-01    0.155E-01
DAV:   2    -0.106725729921E+03    0.11185E-03   -0.23057E-03  1596   0.191E-01    0.740E-02
DAV:   3    -0.106725692495E+03    0.37426E-04   -0.12766E-04   840   0.406E-02
  95 F= -.10672569E+03 E0= -.10672569E+03  d E =-.166685E-02
 curvature:  -2.57 expect dE=-0.207E-02 dE for cont linesearch -0.323E-04
 trial: gam= 0.81599 g(F)=  0.641E-03 g(S)=  0.165E-03 ort =-0.130E-03 (trialstep = 0.203E+01)
 search vector abs. value=  0.149E-02
 bond charge predicted
       N       E                     dE             d eps       ncg     rms          rms(c)
DAV:   1    -0.106727076292E+03   -0.13464E-02   -0.10895E-01  1344   0.857E-01    0.239E-01
DAV:   2    -0.106726414115E+03    0.66218E-03   -0.51151E-03  1596   0.332E-01    0.115E-01
DAV:   3    -0.106726324790E+03    0.89325E-04   -0.37394E-04  1288   0.606E-02
  96 F= -.10672632E+03 E0= -.10672632E+03  d E =-.632295E-03
 trial-energy change:   -0.000632  1 .order   -0.000906   -0.001421   -0.000391
 step:   2.7996(harm=  2.7996)  dis= 0.00197  next Energy=  -106.726673 (dE=-0.980E-03)
 bond charge predicted
       N       E                     dE             d eps       ncg     rms          rms(c)
DAV:   1    -0.106726371897E+03    0.42218E-04   -0.15375E-02  1358   0.328E-01    0.922E-02
DAV:   2    -0.106726235847E+03    0.13605E-03   -0.79582E-04  1512   0.133E-01    0.562E-02
DAV:   3    -0.106726213139E+03    0.22708E-04   -0.56050E-05   700   0.236E-02
  97 F= -.10672621E+03 E0= -.10672621E+03  d E =-.520644E-03
 curvature:  -2.98 expect dE=-0.145E-02 dE for cont linesearch -0.147E-03
 ZBRENT: interpolating
 opt :   2.3492  next Energy=  -106.726356 (dE=-0.663E-03)
 bond charge predicted
       N       E                     dE             d eps       ncg     rms          rms(c)
DAV:   1    -0.106726284677E+03   -0.48830E-04   -0.55629E-03  1344   0.189E-01    0.579E-02
DAV:   2    -0.106726258723E+03    0.25953E-04   -0.22207E-04   756   0.671E-02
  98 F= -.10672626E+03 E0= -.10672626E+03  d E =-.566228E-03
 curvature:  -0.63 expect dE=-0.257E-03 dE for cont linesearch -0.313E-06
 trial: gam= 0.26561 g(F)=  0.317E-03 g(S)=  0.926E-04 ort = 0.273E-04 (trialstep = 0.209E+01)
 search vector abs. value=  0.530E-03
 bond charge predicted
       N       E                     dE             d eps       ncg     rms          rms(c)
DAV:   1    -0.106726478052E+03   -0.19338E-03   -0.46043E-02  1344   0.507E-01    0.921E-02
DAV:   2    -0.106726504035E+03   -0.25983E-04   -0.10505E-03  1596   0.107E-01    0.360E-02
DAV:   3    -0.106726494735E+03    0.93002E-05   -0.40053E-05   714   0.236E-02
  99 F= -.10672649E+03 E0= -.10672649E+03  d E =-.236011E-03
 trial-energy change:   -0.000236  1 .order   -0.000444   -0.000874   -0.000015
 step:   2.1286(harm=  2.1286)  dis= 0.00146  next Energy=  -106.726703 (dE=-0.444E-03)
