<?xml version="1.0" encoding="ISO-8859-1"?>
<modeling>
 <generator>
  <i name="program" type="string">vasp </i>
  <i name="version" type="string">5.4.4.18Apr17-6-g9f103f2a35  </i>
  <i name="subversion" type="string">(build Oct 27 2022 13:04:57) complex            parallel </i>
  <i name="platform" type="string">LinuxIFC </i>
  <i name="date" type="string">2024 06 30 </i>
  <i name="time" type="string">17:38:31 </i>
 </generator>
 <incar>
  <i type="string" name="SYSTEM"> CIS</i>
  <i type="int" name="ISTART">     0</i>
  <i type="string" name="PREC">medium</i>
  <i type="int" name="ICHARG">     2</i>
  <i type="int" name="IBRION">     2</i>
  <i name="EDIFF">      0.00010000</i>
  <i name="EDIFFG">     -0.05000000</i>
  <i type="int" name="NSW">    99</i>
  <i type="int" name="ISIF">     3</i>
  <i name="ENCUT">    300.00000000</i>
  <i name="POTIM">      0.10000000</i>
  <i type="string" name="LREAL"> Auto</i>
  <i type="int" name="ISMEAR">     0</i>
  <i name="SIGMA">      0.05000000</i>
  <i type="int" name="LMAXMIX">     4</i>
  <i type="logical" name="LWAVE"> F  </i>
  <i type="logical" name="LCHARG"> F  </i>
  <i type="int" name="LORBIT">    10</i>
  <i type="logical" name="LASPH"> T  </i>
  <v type="int" name="KPOINT_BSE">    -1     0     0     0</v>
  <i type="logical" name="LASPH"> T  </i>
 </incar>
 <structure name="primitive_cell" >
  <crystal>
   <varray name="basis" >
    <v>       4.23431056       5.18804535       0.27052389 </v>
    <v>      -4.23431056       5.18804535       0.27052389 </v>
    <v>       0.00000000       2.17844402      15.46741826 </v>
   </varray>
   <i name="volume">    674.57941492 </i>
   <varray name="rec_basis" >
    <v>       0.11808298       0.09708842      -0.01367401 </v>
    <v>      -0.11808298       0.09708842      -0.01367401 </v>
    <v>       0.00000000      -0.00339614       0.06513035 </v>
   </varray>
  </crystal>
  <varray name="positions" >
   <v>       0.09129474      -0.42806210       0.21123216 </v>
   <v>       0.01319346       0.42462464       0.36758019 </v>
   <v>       0.28846728      -0.34523114       0.06231787 </v>
   <v>      -0.22188780       0.46298084       0.15662767 </v>
   <v>       0.03861596      -0.03861596       0.25000000 </v>
   <v>      -0.09634422       0.11928861       0.10619233 </v>
   <v>       0.42806210      -0.09129474       0.28876784 </v>
   <v>      -0.46298084       0.22188780       0.34337233 </v>
   <v>      -0.42462464      -0.01319346       0.13241981 </v>
   <v>      -0.11928861       0.09634422       0.39380767 </v>
   <v>       0.34654527       0.30921566      -0.02437096 </v>
   <v>      -0.34654527      -0.30921566       0.02437096 </v>
   <v>       0.34523114      -0.28846728       0.43768213 </v>
   <v>       0.30921566       0.34654527       0.47562904 </v>
   <v>       0.09634422      -0.11928861      -0.10619233 </v>
   <v>      -0.30921566      -0.34654527      -0.47562904 </v>
   <v>      -0.28846728       0.34523114      -0.06231787 </v>
   <v>       0.22188780      -0.46298084      -0.15662767 </v>
   <v>      -0.34523114       0.28846728      -0.43768213 </v>
   <v>       0.42462464       0.01319346      -0.13241981 </v>
   <v>      -0.01319346      -0.42462464      -0.36758019 </v>
   <v>       0.11928861      -0.09634422      -0.39380767 </v>
   <v>      -0.09129474       0.42806210      -0.21123216 </v>
   <v>      -0.03861596       0.03861596      -0.25000000 </v>
   <v>       0.46298084      -0.22188780      -0.34337233 </v>
   <v>      -0.42806210       0.09129474      -0.28876784 </v>
  </varray>
 </structure>
 <varray name="primitive_index" >
  <v type="int" >        1 </v>
  <v type="int" >       21 </v>
  <v type="int" >       26 </v>
  <v type="int" >       25 </v>
  <v type="int" >       18 </v>
  <v type="int" >       12 </v>
  <v type="int" >        2 </v>
  <v type="int" >       13 </v>
  <v type="int" >       14 </v>
  <v type="int" >       11 </v>
  <v type="int" >        7 </v>
  <v type="int" >        5 </v>
  <v type="int" >       22 </v>
  <v type="int" >        8 </v>
  <v type="int" >       10 </v>
  <v type="int" >        6 </v>
  <v type="int" >       23 </v>
  <v type="int" >       16 </v>
  <v type="int" >       24 </v>
  <v type="int" >       20 </v>
  <v type="int" >       19 </v>
  <v type="int" >        9 </v>
  <v type="int" >        3 </v>
  <v type="int" >       17 </v>
  <v type="int" >       15 </v>
  <v type="int" >        4 </v>
 </varray>
 <kpoints>
  <generation param="Monkhorst-Pack">
   <v type="int" name="divisions">       3        3        2 </v>
   <v name="usershift">      0.00000000       0.00000000       0.00000000 </v>
   <v name="genvec1">      0.33333333      -0.00000000       0.00000000 </v>
   <v name="genvec2">     -0.00000000       0.33333333       0.00000000 </v>
   <v name="genvec3">     -0.00000000      -0.00000000       0.50000000 </v>
   <v name="shift">      0.00000000       0.00000000       0.50000000 </v>
  </generation>
  <varray name="kpointlist" >
   <v>      -0.00000000      -0.00000000       0.25000000 </v>
   <v>       0.33333333      -0.00000000       0.25000000 </v>
   <v>      -0.33333333      -0.00000000       0.25000000 </v>
   <v>       0.33333333       0.33333333       0.25000000 </v>
   <v>      -0.33333333       0.33333333       0.25000000 </v>
   <v>      -0.33333333      -0.33333333       0.25000000 </v>
  </varray>
  <varray name="weights" >
   <v>       0.11111111 </v>
   <v>       0.22222222 </v>
   <v>       0.22222222 </v>
   <v>       0.11111111 </v>
   <v>       0.22222222 </v>
   <v>       0.11111111 </v>
  </varray>
 </kpoints>
 <parameters>
  <separator name="general" >
   <i type="string" name="SYSTEM">CIS</i>
   <i type="logical" name="LCOMPAT"> F  </i>
  </separator>
  <separator name="electronic" >
   <i type="string" name="PREC">medium</i>
   <i name="ENMAX">    300.00000000</i>
   <i name="ENAUG">    412.49600000</i>
   <i name="EDIFF">      0.00010000</i>
   <i type="int" name="IALGO">    38</i>
   <i type="int" name="IWAVPR">    11</i>
   <i type="int" name="NBANDS">   112</i>
   <i name="NELECT">    168.00000000</i>
   <i type="int" name="TURBO">     0</i>
   <i type="int" name="IRESTART">     0</i>
   <i type="int" name="NREBOOT">     0</i>
   <i type="int" name="NMIN">     0</i>
   <i name="EREF">      0.00000000</i>
   <separator name="electronic smearing" >
    <i type="int" name="ISMEAR">     0</i>
    <i name="SIGMA">      0.05000000</i>
    <i name="KSPACING">      0.50000000</i>
    <i type="logical" name="KGAMMA"> T  </i>
   </separator>
   <separator name="electronic projectors" >
    <i type="logical" name="LREAL"> T  </i>
    <v name="ROPT">     -0.00200000     -0.00200000     -0.00200000</v>
    <i type="int" name="LMAXPAW">  -100</i>
    <i type="int" name="LMAXMIX">     4</i>
    <i type="logical" name="NLSPLINE"> F  </i>
   </separator>
   <separator name="electronic startup" >
    <i type="int" name="ISTART">     0</i>
    <i type="int" name="ICHARG">     2</i>
    <i type="int" name="INIWAV">     1</i>
   </separator>
   <separator name="electronic spin" >
    <i type="int" name="ISPIN">     1</i>
    <i type="logical" name="LNONCOLLINEAR"> F  </i>
    <v name="MAGMOM">      1.00000000      1.00000000      1.00000000      1.00000000      1.00000000      1.00000000      1.00000000      1.00000000      1.00000000      1.00000000      1.00000000      1.00000000      1.00000000      1.00000000      1.00000000      1.00000000      1.00000000      1.00000000      1.00000000      1.00000000
      1.00000000      1.00000000      1.00000000      1.00000000      1.00000000      1.00000000</v>
    <i name="NUPDOWN">     -1.00000000</i>
    <i type="logical" name="LSORBIT"> F  </i>
    <v name="SAXIS">      0.00000000      0.00000000      1.00000000</v>
    <i type="logical" name="LSPIRAL"> F  </i>
    <v name="QSPIRAL">      0.00000000      0.00000000      0.00000000</v>
    <i type="logical" name="LZEROZ"> F  </i>
   </separator>
   <separator name="electronic exchange-correlation" >
    <i type="logical" name="LASPH"> T  </i>
    <i type="logical" name="LMETAGGA"> F  </i>
   </separator>
   <separator name="electronic convergence" >
    <i type="int" name="NELM">    60</i>
    <i type="int" name="NELMDL">    -5</i>
    <i type="int" name="NELMIN">     2</i>
    <i name="ENINI">    300.00000000</i>
    <separator name="electronic convergence detail" >
     <i type="logical" name="LDIAG"> T  </i>
     <i type="logical" name="LSUBROT"> F  </i>
     <i name="WEIMIN">      0.00100000</i>
     <i name="EBREAK">      0.00000022</i>
     <i name="DEPER">      0.30000000</i>
     <i type="int" name="NRMM">     4</i>
     <i name="TIME">      0.40000000</i>
    </separator>
   </separator>
   <separator name="electronic mixer" >
    <i name="AMIX">      0.40000000</i>
    <i name="BMIX">      1.00000000</i>
    <i name="AMIN">      0.10000000</i>
    <i name="AMIX_MAG">      1.60000000</i>
    <i name="BMIX_MAG">      1.00000000</i>
    <separator name="electronic mixer details" >
     <i type="int" name="IMIX">     4</i>
     <i type="logical" name="MIXFIRST"> F  </i>
     <i type="int" name="MAXMIX">   -45</i>
     <i name="WC">    100.00000000</i>
     <i type="int" name="INIMIX">     1</i>
     <i type="int" name="MIXPRE">     1</i>
     <i type="int" name="MREMOVE">     5</i>
    </separator>
   </separator>
   <separator name="electronic dipolcorrection" >
    <i type="logical" name="LDIPOL"> F  </i>
    <i type="logical" name="LMONO"> F  </i>
    <i type="int" name="IDIPOL">     0</i>
    <i name="EPSILON">      1.00000000</i>
    <v name="DIPOL">   -100.00000000   -100.00000000   -100.00000000</v>
    <i name="EFIELD">      0.00000000</i>
   </separator>
  </separator>
  <separator name="grids" >
   <i type="int" name="NGX">    28</i>
   <i type="int" name="NGY">    28</i>
   <i type="int" name="NGZ">    70</i>
   <i type="int" name="NGXF">    48</i>
   <i type="int" name="NGYF">    48</i>
   <i type="int" name="NGZF">   108</i>
   <i type="logical" name="ADDGRID"> F  </i>
  </separator>
  <separator name="ionic" >
   <i type="int" name="NSW">    99</i>
   <i type="int" name="IBRION">     2</i>
   <i type="int" name="MDALGO">     0</i>
   <i type="int" name="ISIF">     3</i>
   <i name="PSTRESS">      0.00000000</i>
   <i name="EDIFFG">     -0.05000000</i>
   <i type="int" name="NFREE">     1</i>
   <i name="POTIM">      0.10000000</i>
   <i name="SMASS">     -3.00000000</i>
   <i name="SCALEE">      1.00000000</i>
  </separator>
  <separator name="ionic md" >
   <i name="TEBEG">      0.00010000</i>
   <i name="TEEND">      0.00010000</i>
   <i type="int" name="NBLOCK">     1</i>
   <i type="int" name="KBLOCK">    99</i>
   <i type="int" name="NPACO">   256</i>
   <i name="APACO">     16.00000000</i>
  </separator>
  <separator name="symmetry" >
   <i type="int" name="ISYM">     2</i>
   <i name="SYMPREC">      0.00001000</i>
  </separator>
  <separator name="dos" >
   <i type="int" name="LORBIT">    10</i>
   <v name="RWIGS">     -1.00000000     -1.00000000     -1.00000000</v>
   <i type="int" name="NEDOS">   301</i>
   <i name="EMIN">     10.00000000</i>
   <i name="EMAX">    -10.00000000</i>
   <i name="EFERMI">      0.00000000</i>
  </separator>
  <separator name="writing" >
   <i type="int" name="NWRITE">     2</i>
   <i type="logical" name="LWAVE"> F  </i>
   <i type="logical" name="LDOWNSAMPLE"> F  </i>
   <i type="logical" name="LCHARG"> F  </i>
   <i type="logical" name="LPARD"> F  </i>
   <i type="logical" name="LVTOT"> F  </i>
   <i type="logical" name="LVHAR"> F  </i>
   <i type="logical" name="LELF"> F  </i>
   <i type="logical" name="LOPTICS"> F  </i>
   <v name="STM">      0.00000000      0.00000000      0.00000000      0.00000000      0.00000000      0.00000000      0.00000000</v>
  </separator>
  <separator name="performance" >
   <i type="int" name="NPAR">    14</i>
   <i type="int" name="NSIM">     4</i>
   <i type="int" name="NBLK">    -1</i>
   <i type="logical" name="LPLANE"> T  </i>
   <i type="logical" name="LSCALAPACK"> T  </i>
   <i type="logical" name="LSCAAWARE"> F  </i>
   <i type="logical" name="LSCALU"> F  </i>
   <i type="logical" name="LASYNC"> F  </i>
   <i type="logical" name="LORBITALREAL"> F  </i>
  </separator>
  <separator name="miscellaneous" >
   <i type="int" name="IDIOT">     3</i>
   <i type="int" name="ISPECIAL">     0</i>
   <i type="logical" name="LMUSIC"> F  </i>
   <v name="POMASS">    107.86800000    121.75000000     32.06600000</v>
   <v name="DARWINR">      0.00000000      0.00000000      0.00000000</v>
   <v name="DARWINV">      1.00000000      1.00000000      1.00000000</v>
   <i type="logical" name="LCORR"> T  </i>
  </separator>
  <i type="logical" name="GGA_COMPAT"> T  </i>
  <i type="logical" name="LBERRY"> F  </i>
  <i type="int" name="ICORELEVEL">     0</i>
  <i type="logical" name="LDAU"> F  </i>
  <i type="int" name="I_CONSTRAINED_M">     0</i>
  <separator name="electronic exchange-correlation" >
   <i type="string" name="GGA">--</i>
   <i type="int" name="VOSKOWN">     0</i>
   <i type="logical" name="LHFCALC"> F  </i>
   <i type="string" name="PRECFOCK"></i>
   <i type="logical" name="LSYMGRAD"> F  </i>
   <i type="logical" name="LHFONE"> F  </i>
   <i type="logical" name="LRHFCALC"> F  </i>
   <i type="logical" name="LTHOMAS"> F  </i>
   <i type="logical" name="LMODELHF"> F  </i>
   <i name="ENCUT4O">     -1.00000000</i>
   <i type="int" name="EXXOEP">     0</i>
   <i type="int" name="FOURORBIT">     0</i>
   <i name="AEXX">      0.00000000</i>
   <i name="HFALPHA">      0.00000000</i>
   <i name="MCALPHA">      0.00000000</i>
   <i name="ALDAX">      1.00000000</i>
   <i name="AGGAX">      1.00000000</i>
   <i name="ALDAC">      1.00000000</i>
   <i name="AGGAC">      1.00000000</i>
   <i type="int" name="NKREDX">     1</i>
   <i type="int" name="NKREDY">     1</i>
   <i type="int" name="NKREDZ">     1</i>
   <i type="logical" name="SHIFTRED"> F  </i>
   <i type="logical" name="ODDONLY"> F  </i>
   <i type="logical" name="EVENONLY"> F  </i>
   <i type="int" name="LMAXFOCK">     0</i>
   <i type="int" name="NMAXFOCKAE">     0</i>
   <i type="logical" name="LFOCKAEDFT"> F  </i>
   <i name="HFSCREEN">      0.00000000</i>
   <i name="HFSCREENC">      0.00000000</i>
   <i type="int" name="NBANDSGWLOW">     0</i>
  </separator>
  <separator name="vdW DFT" >
   <i type="logical" name="LUSE_VDW"> F  </i>
   <i name="Zab_VDW">     -0.84910000</i>
   <i name="PARAM1">      0.12340000</i>
   <i name="PARAM2">      1.00000000</i>
   <i name="PARAM3">      0.00000000</i>
  </separator>
  <separator name="model GW" >
   <i type="int" name="MODEL_GW">     0</i>
   <i name="MODEL_EPS0">     15.56721727</i>
   <i name="MODEL_ALPHA">      1.00000000</i>
  </separator>
  <separator name="linear response parameters" >
   <i type="logical" name="LEPSILON"> F  </i>
   <i type="logical" name="LRPA"> F  </i>
   <i type="logical" name="LNABLA"> F  </i>
   <i type="logical" name="LVEL"> F  </i>
   <i type="int" name="KINTER">     0</i>
   <i name="CSHIFT">      0.10000000</i>
   <i name="OMEGAMAX">     -1.00000000</i>
   <i name="DEG_THRESHOLD">      0.00200000</i>
   <i name="RTIME">     -0.10000000</i>
   <i name="WPLASMAI">      0.00000000</i>
   <v name="DFIELD">      0.00000000      0.00000000      0.00000000</v>
   <v name="WPLASMA">      0.00000000      0.00000000      0.00000000      0.00000000      0.00000000      0.00000000      0.00000000      0.00000000      0.00000000</v>
  </separator>
  <separator name="orbital magnetization" >
   <i type="logical" name="NUCIND"> F  </i>
   <v name="MAGPOS">      0.00000000      0.00000000      0.00000000</v>
   <i type="logical" name="LNICSALL"> T  </i>
   <i type="logical" name="ORBITALMAG"> F  </i>
   <i type="logical" name="LMAGBLOCH"> F  </i>
   <i type="logical" name="LCHIMAG"> F  </i>
   <i type="logical" name="LGAUGE"> T  </i>
   <i type="int" name="MAGATOM">     0</i>
   <v name="MAGDIPOL">      0.00000000      0.00000000      0.00000000</v>
   <v name="AVECCONST">      0.00000000      0.00000000      0.00000000</v>
  </separator>
  <separator name="response functions" >
   <i type="logical" name="LADDER"> F  </i>
   <i type="logical" name="LRPAFORCE"> F  </i>
   <i type="logical" name="LFXC"> F  </i>
   <i type="logical" name="LHARTREE"> T  </i>
   <i type="int" name="IBSE">     0</i>
   <v type="int" name="KPOINT">    -1     0     0     0</v>
   <i type="logical" name="LTCTE"> F  </i>
   <i type="logical" name="LTETE"> F  </i>
   <i type="logical" name="LTRIPLET"> F  </i>
   <i type="logical" name="LFXCEPS"> F  </i>
   <i type="logical" name="LFXHEG"> F  </i>
   <i type="int" name="NATURALO">     2</i>
   <i type="logical" name="L2ORDER"> F  </i>
   <i type="logical" name="LMP2LT"> F  </i>
   <i type="logical" name="LUSEW"> F  </i>
   <i name="ENCUTGW">     -2.00000000</i>
   <i name="ENCUTGWSOFT">     -2.00000000</i>
   <i name="ENCUTLF">     -1.00000000</i>
   <i type="int" name="LMAXMP2">    -1</i>
   <i name="SCISSOR">      0.00000000</i>
   <i type="int" name="NOMEGA">     0</i>
   <i type="int" name="NOMEGAR">     0</i>
   <i type="int" name="NBANDSGW">    -1</i>
   <i type="int" name="NBANDSO">    -1</i>
   <i type="int" name="NBANDSV">    -1</i>
   <i type="int" name="NELM">     1</i>
   <i type="int" name="NELMHF">     1</i>
   <i type="int" name="DIM">     3</i>
   <i type="int" name="ANTIRES">     0</i>
   <i name="OMEGAMAX">    -30.00000000</i>
   <i name="OMEGAMIN">    -30.00000000</i>
   <i name="OMEGATL">   -200.00000000</i>
   <i type="int" name="OMEGAGRID">   140</i>
   <i name="CSHIFT">     -0.10000000</i>
   <i type="logical" name="SELFENERGY"> F  </i>
   <i type="logical" name="LSPECTRAL"> F  </i>
   <i type="logical" name="LSPECTRALGW"> F  </i>
   <i type="logical" name="LSINGLES"> F  </i>
   <i type="logical" name="LFERMIGW"> F  </i>
   <i type="logical" name="ODDONLYGW"> F  </i>
   <i type="logical" name="EVENONLYGW"> F  </i>
   <i type="int" name="NKREDLFX">     1</i>
   <i type="int" name="NKREDLFY">     1</i>
   <i type="int" name="NKREDLFZ">     1</i>
   <i type="int" name="MAXMEM">  2800</i>
   <i type="int" name="TELESCOPE">     0</i>
   <i type="int" name="TAUPAR">     1</i>
   <i type="int" name="OMEGAPAR">    -1</i>
   <i name="LAMBDA">      1.00000000</i>
  </separator>
  <separator name="External order field" >
   <i name="OFIELD_KAPPA">      0.00000000</i>
   <v name="OFIELD_K">      0.00000000      0.00000000      0.00000000</v>
   <i name="OFIELD_Q6_NEAR">      0.00000000</i>
   <i name="OFIELD_Q6_FAR">      0.00000000</i>
   <i name="OFIELD_A">      0.00000000</i>
  </separator>
 </parameters>
 <atominfo>
  <atoms>      26 </atoms>
  <types>       3 </types>
  <array name="atoms" >
   <dimension dim="1">ion</dimension>
   <field type="string">element</field>
   <field type="int">atomtype</field>
   <set>
    <rc><c>Ag</c><c>   1</c></rc>
    <rc><c>Ag</c><c>   1</c></rc>
    <rc><c>Ag</c><c>   1</c></rc>
    <rc><c>Ag</c><c>   1</c></rc>
    <rc><c>Sb</c><c>   2</c></rc>
    <rc><c>Sb</c><c>   2</c></rc>
    <rc><c>Sb</c><c>   2</c></rc>
    <rc><c>Sb</c><c>   2</c></rc>
    <rc><c>Sb</c><c>   2</c></rc>
    <rc><c>Sb</c><c>   2</c></rc>
    <rc><c>Sb</c><c>   2</c></rc>
    <rc><c>Sb</c><c>   2</c></rc>
    <rc><c>S </c><c>   3</c></rc>
    <rc><c>S </c><c>   3</c></rc>
    <rc><c>S </c><c>   3</c></rc>
    <rc><c>S </c><c>   3</c></rc>
    <rc><c>S </c><c>   3</c></rc>
    <rc><c>S </c><c>   3</c></rc>
    <rc><c>S </c><c>   3</c></rc>
    <rc><c>S </c><c>   3</c></rc>
    <rc><c>S </c><c>   3</c></rc>
    <rc><c>S </c><c>   3</c></rc>
    <rc><c>S </c><c>   3</c></rc>
    <rc><c>S </c><c>   3</c></rc>
    <rc><c>S </c><c>   3</c></rc>
    <rc><c>S </c><c>   3</c></rc>
   </set>
  </array>
  <array name="atomtypes" >
   <dimension dim="1">type</dimension>
   <field type="int">atomspertype</field>
   <field type="string">element</field>
   <field>mass</field>
   <field>valence</field>
   <field type="string">pseudopotential</field>
   <set>
    <rc><c>   4</c><c>Ag</c><c>    107.86800000</c><c>     11.00000000</c><c>  PAW_PBE Ag 02Apr2005                  </c></rc>
    <rc><c>   8</c><c>Sb</c><c>    121.75000000</c><c>      5.00000000</c><c>  PAW_PBE Sb 06Sep2000                  </c></rc>
    <rc><c>  14</c><c>S </c><c>     32.06600000</c><c>      6.00000000</c><c>  PAW_PBE S 06Sep2000                   </c></rc>
   </set>
  </array>
 </atominfo>
 <structure name="initialpos" >
  <crystal>
   <varray name="basis" >
    <v>       4.23431056       5.18804535       0.27052389 </v>
    <v>      -4.23431056       5.18804535       0.27052389 </v>
    <v>       0.00000000       2.17844402      15.46741826 </v>
   </varray>
   <i name="volume">    674.57941492 </i>
   <varray name="rec_basis" >
    <v>       0.11808298       0.09708842      -0.01367401 </v>
    <v>      -0.11808298       0.09708842      -0.01367401 </v>
    <v>       0.00000000      -0.00339614       0.06513035 </v>
   </varray>
  </crystal>
  <varray name="positions" >
   <v>       0.09129474       0.57193790       0.21123216 </v>
   <v>       0.42806210       0.90870526       0.28876784 </v>
   <v>       0.90870526       0.42806210       0.78876784 </v>
   <v>       0.57193790       0.09129474       0.71123216 </v>
   <v>       0.65345473       0.69078434       0.02437096 </v>
   <v>       0.69078434       0.65345473       0.52437096 </v>
   <v>       0.34654527       0.30921566       0.97562904 </v>
   <v>       0.30921566       0.34654527       0.47562904 </v>
   <v>       0.11928861       0.90365578       0.60619233 </v>
   <v>       0.09634422       0.88071139       0.89380767 </v>
   <v>       0.88071139       0.09634422       0.39380767 </v>
   <v>       0.90365578       0.11928861       0.10619233 </v>
   <v>       0.53701916       0.22188780       0.34337233 </v>
   <v>       0.57537536       0.98680654       0.13241981 </v>
   <v>       0.46298084       0.77811220       0.65662767 </v>
   <v>       0.22188780       0.53701916       0.84337233 </v>
   <v>       0.96138404       0.03861596       0.75000000 </v>
   <v>       0.03861596       0.96138404       0.25000000 </v>
   <v>       0.98680654       0.57537536       0.63241981 </v>
   <v>       0.42462464       0.01319346       0.86758019 </v>
   <v>       0.01319346       0.42462464       0.36758019 </v>
   <v>       0.34523114       0.71153272       0.43768213 </v>
   <v>       0.71153272       0.34523114       0.93768213 </v>
   <v>       0.65476886       0.28846728       0.56231787 </v>
   <v>       0.77811220       0.46298084       0.15662767 </v>
   <v>       0.28846728       0.65476886       0.06231787 </v>
  </varray>
 </structure>
 <calculation>
  <scstep>
   <time name="dav">    1.11    1.14</time>
   <time name="total">    1.30    1.38</time>
   <energy>
    <i name="alphaZ">    140.99588627 </i>
    <i name="ewald">  -7404.47574665 </i>
    <i name="hartreedc">  -2354.22490615 </i>
    <i name="XCdc">   -242.43518041 </i>
    <i name="pawpsdc">   8368.06220595 </i>
    <i name="pawaedc">  -7707.29813028 </i>
    <i name="eentropy">     -0.00985062 </i>
    <i name="bandstr">    726.78098654 </i>
    <i name="atom">   9223.86848573 </i>
    <i name="e_fr_energy">    751.26375038 </i>
    <i name="e_wo_entrp">    751.27360100 </i>
    <i name="e_0_energy">    751.26867569 </i>
   </energy>
  </scstep>
  <scstep>
   <time name="dav">    0.88    0.90</time>
   <time name="total">    0.88    0.90</time>
   <energy>
    <i name="e_fr_energy">    -43.35057827 </i>
    <i name="e_wo_entrp">    -43.35057827 </i>
    <i name="e_0_energy">    -43.35057827 </i>
   </energy>
  </scstep>
  <scstep>
   <time name="dav">    1.14    1.16</time>
   <time name="total">    1.14    1.16</time>
   <energy>
    <i name="e_fr_energy">   -110.70369851 </i>
    <i name="e_wo_entrp">   -110.70369851 </i>
    <i name="e_0_energy">   -110.70369851 </i>
   </energy>
  </scstep>
  <scstep>
   <time name="dav">    1.17    1.19</time>
   <time name="total">    1.17    1.20</time>
   <energy>
    <i name="e_fr_energy">   -112.40103981 </i>
    <i name="e_wo_entrp">   -112.40103981 </i>
    <i name="e_0_energy">   -112.40103981 </i>
   </energy>
  </scstep>
  <scstep>
   <time name="dav">    0.93    0.94</time>
   <time name="total">    0.96    0.97</time>
   <energy>
    <i name="e_fr_energy">   -112.45251557 </i>
    <i name="e_wo_entrp">   -112.45251557 </i>
    <i name="e_0_energy">   -112.45251557 </i>
   </energy>
  </scstep>
  <scstep>
   <time name="dav">    1.18    1.19</time>
   <time name="total">    1.38    1.39</time>
   <energy>
    <i name="e_fr_energy">   -106.51156195 </i>
    <i name="e_wo_entrp">   -106.51156195 </i>
    <i name="e_0_energy">   -106.51156195 </i>
   </energy>
  </scstep>
  <scstep>
   <time name="dav">    0.96    0.98</time>
   <time name="total">    1.16    1.18</time>
   <energy>
    <i name="e_fr_energy">   -106.77303354 </i>
    <i name="e_wo_entrp">   -106.77303354 </i>
    <i name="e_0_energy">   -106.77303354 </i>
   </energy>
  </scstep>
  <scstep>
   <time name="dav">    0.83    0.83</time>
   <time name="total">    1.02    1.02</time>
   <energy>
    <i name="e_fr_energy">   -106.66842831 </i>
    <i name="e_wo_entrp">   -106.66842831 </i>
    <i name="e_0_energy">   -106.66842831 </i>
   </energy>
  </scstep>
  <scstep>
   <time name="dav">    1.04    1.04</time>
   <time name="total">    1.24    1.24</time>
   <energy>
    <i name="e_fr_energy">   -106.66991078 </i>
    <i name="e_wo_entrp">   -106.66991078 </i>
    <i name="e_0_energy">   -106.66991078 </i>
   </energy>
  </scstep>
  <scstep>
   <time name="dav">    1.23    1.24</time>
   <time name="total">    1.44    1.44</time>
   <energy>
    <i name="e_fr_energy">   -106.67052299 </i>
    <i name="e_wo_entrp">   -106.67052299 </i>
    <i name="e_0_energy">   -106.67052299 </i>
   </energy>
  </scstep>
  <scstep>
   <time name="dav">    0.75    0.75</time>
   <time name="total">    0.96    0.96</time>
   <energy>
    <i name="e_fr_energy">   -106.67105446 </i>
    <i name="e_wo_entrp">   -106.67105446 </i>
    <i name="e_0_energy">   -106.67105446 </i>
   </energy>
  </scstep>
  <scstep>
   <time name="dav">    1.14    1.14</time>
   <time name="total">    1.34    1.34</time>
   <energy>
    <i name="e_fr_energy">   -106.67134253 </i>
    <i name="e_wo_entrp">   -106.67134253 </i>
    <i name="e_0_energy">   -106.67134253 </i>
   </energy>
  </scstep>
  <scstep>
   <time name="dav">    0.63    0.63</time>
   <time name="total">    0.80    0.80</time>
   <energy>
    <i name="alphaZ">    140.99588627 </i>
    <i name="ewald">  -7404.47574665 </i>
    <i name="hartreedc">  -2379.86911211 </i>
    <i name="XCdc">   -237.87190000 </i>
    <i name="pawpsdc">  14488.03502662 </i>
    <i name="pawaedc"> -13834.58316302 </i>
    <i name="eentropy">     -0.00000000 </i>
    <i name="bandstr">   -102.77084579 </i>
    <i name="atom">   9223.86848573 </i>
    <i name="e_fr_energy">   -106.67136894 </i>
    <i name="e_wo_entrp">   -106.67136894 </i>
    <i name="e_0_energy">   -106.67136894 </i>
   </energy>
  </scstep>
  <structure>
   <crystal>
    <varray name="basis" >
     <v>       4.23431056       5.18804535       0.27052389 </v>
     <v>      -4.23431056       5.18804535       0.27052389 </v>
     <v>       0.00000000       2.17844402      15.46741826 </v>
    </varray>
    <i name="volume">    674.57941492 </i>
    <varray name="rec_basis" >
     <v>       0.11808298       0.09708842      -0.01367401 </v>
     <v>      -0.11808298       0.09708842      -0.01367401 </v>
     <v>       0.00000000      -0.00339614       0.06513035 </v>
    </varray>
   </crystal>
   <varray name="positions" >
    <v>       0.09129474       0.57193790       0.21123216 </v>
    <v>       0.42806210       0.90870526       0.28876784 </v>
    <v>       0.90870526       0.42806210       0.78876784 </v>
    <v>       0.57193790       0.09129474       0.71123216 </v>
    <v>       0.65345473       0.69078434       0.02437096 </v>
    <v>       0.69078434       0.65345473       0.52437096 </v>
    <v>       0.34654527       0.30921566       0.97562904 </v>
    <v>       0.30921566       0.34654527       0.47562904 </v>
    <v>       0.11928861       0.90365578       0.60619233 </v>
    <v>       0.09634422       0.88071139       0.89380767 </v>
    <v>       0.88071139       0.09634422       0.39380767 </v>
    <v>       0.90365578       0.11928861       0.10619233 </v>
    <v>       0.53701916       0.22188780       0.34337233 </v>
    <v>       0.57537536       0.98680654       0.13241981 </v>
    <v>       0.46298084       0.77811220       0.65662767 </v>
    <v>       0.22188780       0.53701916       0.84337233 </v>
    <v>       0.96138404       0.03861596       0.75000000 </v>
    <v>       0.03861596       0.96138404       0.25000000 </v>
    <v>       0.98680654       0.57537536       0.63241981 </v>
    <v>       0.42462464       0.01319346       0.86758019 </v>
    <v>       0.01319346       0.42462464       0.36758019 </v>
    <v>       0.34523114       0.71153272       0.43768213 </v>
    <v>       0.71153272       0.34523114       0.93768213 </v>
    <v>       0.65476886       0.28846728       0.56231787 </v>
    <v>       0.77811220       0.46298084       0.15662767 </v>
    <v>       0.28846728       0.65476886       0.06231787 </v>
   </varray>
  </structure>
  <varray name="forces" >
   <v>      -0.03752400      -0.02052865      -0.02172283 </v>
   <v>      -0.03752400       0.02052865       0.02172283 </v>
   <v>       0.03752400       0.02052865       0.02172283 </v>
   <v>       0.03752400      -0.02052865      -0.02172283 </v>
   <v>       0.19011527      -0.08751572      -0.09253369 </v>
   <v>      -0.19011527      -0.08751572      -0.09253369 </v>
   <v>      -0.19011527       0.08751572       0.09253369 </v>
   <v>       0.19011527       0.08751572       0.09253369 </v>
   <v>       0.08058244      -0.01562291       0.03491468 </v>
   <v>       0.08058244       0.01562291      -0.03491468 </v>
   <v>      -0.08058244       0.01562291      -0.03491468 </v>
   <v>      -0.08058244      -0.01562291       0.03491468 </v>
   <v>       0.02655147      -0.00256824      -0.02199455 </v>
   <v>       0.01323597      -0.00223515       0.00333658 </v>
   <v>      -0.02655147       0.00256824       0.02199455 </v>
   <v>      -0.02655147      -0.00256824      -0.02199455 </v>
   <v>      -0.01537000      -0.00000000       0.00000000 </v>
   <v>       0.01537000      -0.00000000       0.00000000 </v>
   <v>      -0.01323597      -0.00223515       0.00333658 </v>
   <v>      -0.01323597       0.00223515      -0.00333658 </v>
   <v>       0.01323597       0.00223515      -0.00333658 </v>
   <v>      -0.01541702      -0.00653905      -0.00122364 </v>
   <v>       0.01541702      -0.00653905      -0.00122364 </v>
   <v>       0.01541702       0.00653905       0.00122364 </v>
   <v>       0.02655147       0.00256824       0.02199455 </v>
   <v>      -0.01541702       0.00653905       0.00122364 </v>
  </varray>
  <varray name="stress" >
   <v>       0.24082956       0.00000000       0.00000000 </v>
   <v>       0.00000000      -2.85313668      -1.21553144 </v>
   <v>       0.00000000      -1.21553138      -0.10784192 </v>
  </varray>
  <energy>
   <i name="e_fr_energy">   -106.67136894 </i>
   <i name="e_wo_entrp">   -106.67136894 </i>
   <i name="e_0_energy">     -0.00000000 </i>
  </energy>
  <time name="totalsc">   16.00   16.36</time>
 </calculation>
 <calculation>
  <scstep>
   <time name="dav">    0.88    0.89</time>
   <time name="total">    1.10    1.13</time>
   <energy>
    <i name="alphaZ">    141.05584343 </i>
    <i name="ewald">  -7405.13072160 </i>
    <i name="hartreedc">  -2380.59504062 </i>
    <i name="XCdc">   -237.81500388 </i>
    <i name="pawpsdc">  14489.44422812 </i>
    <i name="pawaedc"> -13835.99575937 </i>
    <i name="eentropy">     -0.00000000 </i>
    <i name="bandstr">   -101.50597340 </i>
    <i name="atom">   9223.86848573 </i>
    <i name="e_fr_energy">   -106.67394158 </i>
    <i name="e_wo_entrp">   -106.67394158 </i>
    <i name="e_0_energy">   -106.67394158 </i>
   </energy>
  </scstep>
  <scstep>
   <time name="dav">    1.09    1.09</time>
   <time name="total">    1.28    1.28</time>
   <energy>
    <i name="e_fr_energy">   -106.67372439 </i>
    <i name="e_wo_entrp">   -106.67372439 </i>
    <i name="e_0_energy">   -106.67372439 </i>
   </energy>
  </scstep>
  <scstep>
   <time name="dav">    0.68    0.68</time>
   <time name="total">    0.85    0.85</time>
   <energy>
    <i name="alphaZ">    141.05584343 </i>
    <i name="ewald">  -7405.13072160 </i>
    <i name="hartreedc">  -2379.89897092 </i>
    <i name="XCdc">   -237.83971203 </i>
    <i name="pawpsdc">  14495.92497635 </i>
    <i name="pawaedc"> -13842.48045388 </i>
    <i name="eentropy">     -0.00000000 </i>
    <i name="bandstr">   -102.17314708 </i>
    <i name="atom">   9223.86848573 </i>
    <i name="e_fr_energy">   -106.67370000 </i>
    <i name="e_wo_entrp">   -106.67370000 </i>
    <i name="e_0_energy">   -106.67370000 </i>
   </energy>
  </scstep>
  <structure>
   <crystal>
    <varray name="basis" >
     <v>       4.23446989       5.18568117       0.26953401 </v>
     <v>      -4.23446989       5.18568117       0.26953401 </v>
     <v>       0.00000000       2.17453527      15.46674390 </v>
    </varray>
    <i name="volume">    674.29267834 </i>
    <varray name="rec_basis" >
     <v>       0.11807853       0.09712913      -0.01365580 </v>
     <v>      -0.11807853       0.09712913      -0.01365580 </v>
     <v>       0.00000000      -0.00338528       0.06513080 </v>
    </varray>
   </crystal>
   <varray name="positions" >
    <v>       0.09123562       0.57196429       0.21121918 </v>
    <v>       0.42803571       0.90876438       0.28878082 </v>
    <v>       0.90876438       0.42803571       0.78878082 </v>
    <v>       0.57196429       0.09123562       0.71121918 </v>
    <v>       0.65360156       0.69049796       0.02431568 </v>
    <v>       0.69049796       0.65360156       0.52431568 </v>
    <v>       0.34639844       0.30950204       0.97568432 </v>
    <v>       0.30950204       0.34639844       0.47568432 </v>
    <v>       0.11936117       0.90354473       0.60621478 </v>
    <v>       0.09645527       0.88063883       0.89378522 </v>
    <v>       0.88063883       0.09645527       0.39378522 </v>
    <v>       0.90354473       0.11936117       0.10621478 </v>
    <v>       0.53704991       0.22185804       0.34335859 </v>
    <v>       0.57538791       0.98678893       0.13242198 </v>
    <v>       0.46295009       0.77814196       0.65664141 </v>
    <v>       0.22185804       0.53704991       0.84335859 </v>
    <v>       0.96136653       0.03863347       0.75000000 </v>
    <v>       0.03863347       0.96136653       0.25000000 </v>
    <v>       0.98678893       0.57538791       0.63242198 </v>
    <v>       0.42461209       0.01321107       0.86757802 </v>
    <v>       0.01321107       0.42461209       0.36757802 </v>
    <v>       0.34520761       0.71154432       0.43768158 </v>
    <v>       0.71154432       0.34520761       0.93768158 </v>
    <v>       0.65479239       0.28845568       0.56231842 </v>
    <v>       0.77814196       0.46295009       0.15664141 </v>
    <v>       0.28845568       0.65479239       0.06231842 </v>
   </varray>
  </structure>
  <varray name="forces" >
   <v>      -0.03329851      -0.01221822      -0.01703837 </v>
   <v>      -0.03329851       0.01221822       0.01703837 </v>
   <v>       0.03329851       0.01221822       0.01703837 </v>
   <v>       0.03329851      -0.01221822      -0.01703837 </v>
   <v>       0.08507123       0.04959989      -0.03646413 </v>
   <v>      -0.08507123       0.04959989      -0.03646413 </v>
   <v>      -0.08507123      -0.04959989       0.03646413 </v>
   <v>       0.08507123      -0.04959989       0.03646413 </v>
   <v>       0.08291248      -0.05125919       0.01450997 </v>
   <v>       0.08291248       0.05125919      -0.01450997 </v>
   <v>      -0.08291248       0.05125919      -0.01450997 </v>
   <v>      -0.08291248      -0.05125919       0.01450997 </v>
   <v>       0.01290424      -0.00930937      -0.03114451 </v>
   <v>       0.01063033      -0.00826210       0.00329829 </v>
   <v>      -0.01290424       0.00930937       0.03114451 </v>
   <v>      -0.01290424      -0.00930937      -0.03114451 </v>
   <v>      -0.01373896       0.00000000       0.00000000 </v>
   <v>       0.01373896       0.00000000       0.00000000 </v>
   <v>      -0.01063033      -0.00826210       0.00329829 </v>
   <v>      -0.01063033       0.00826210      -0.00329829 </v>
   <v>       0.01063033       0.00826210      -0.00329829 </v>
   <v>      -0.01445456      -0.00920579      -0.00393411 </v>
   <v>       0.01445456      -0.00920579      -0.00393411 </v>
   <v>       0.01445456       0.00920579       0.00393411 </v>
   <v>       0.01290424       0.00930937       0.03114451 </v>
   <v>      -0.01445456       0.00920579       0.00393411 </v>
  </varray>
  <varray name="stress" >
   <v>       1.90412394       0.00000000       0.00000000 </v>
   <v>       0.00000000      -1.20899235      -0.88047413 </v>
   <v>       0.00000000      -0.88047436       0.43088901 </v>
  </varray>
  <energy>
   <i name="e_fr_energy">   -106.67370000 </i>
   <i name="e_wo_entrp">   -106.67370000 </i>
   <i name="e_0_energy">     -0.00000000 </i>
  </energy>
  <time name="totalsc">    4.51    4.65</time>
 </calculation>
 <calculation>
  <scstep>
   <time name="dav">    0.93    0.95</time>
   <time name="total">    1.14    1.21</time>
   <energy>
    <i name="alphaZ">    141.10344270 </i>
    <i name="ewald">  -7405.64828017 </i>
    <i name="hartreedc">  -2380.42328751 </i>
    <i name="XCdc">   -237.79829208 </i>
    <i name="pawpsdc">  14497.28414739 </i>
    <i name="pawaedc"> -13843.84690153 </i>
    <i name="eentropy">     -0.00000000 </i>
    <i name="bandstr">   -101.21404821 </i>
    <i name="atom">   9223.86848573 </i>
    <i name="e_fr_energy">   -106.67473368 </i>
    <i name="e_wo_entrp">   -106.67473368 </i>
    <i name="e_0_energy">   -106.67473368 </i>
   </energy>
  </scstep>
  <scstep>
   <time name="dav">    1.02    1.04</time>
   <time name="total">    1.21    1.23</time>
   <energy>
    <i name="e_fr_energy">   -106.67456445 </i>
    <i name="e_wo_entrp">   -106.67456445 </i>
    <i name="e_0_energy">   -106.67456445 </i>
   </energy>
  </scstep>
  <scstep>
   <time name="dav">    0.76    0.78</time>
   <time name="total">    0.94    0.96</time>
   <energy>
    <i name="alphaZ">    141.10344270 </i>
    <i name="ewald">  -7405.64828017 </i>
    <i name="hartreedc">  -2379.83188914 </i>
    <i name="XCdc">   -237.81829019 </i>
    <i name="pawpsdc">  14502.51261037 </i>
    <i name="pawaedc"> -13849.07938619 </i>
    <i name="eentropy">     -0.00000000 </i>
    <i name="bandstr">   -101.78123968 </i>
    <i name="atom">   9223.86848573 </i>
    <i name="e_fr_energy">   -106.67454657 </i>
    <i name="e_wo_entrp">   -106.67454657 </i>
    <i name="e_0_energy">   -106.67454657 </i>
   </energy>
  </scstep>
  <structure>
   <crystal>
    <varray name="basis" >
     <v>       4.23459626       5.18380608       0.26874890 </v>
     <v>      -4.23459626       5.18380608       0.26874890 </v>
     <v>       0.00000000       2.17143513      15.46620904 </v>
    </varray>
    <i name="volume">    674.06521517 </i>
    <varray name="rec_basis" >
     <v>       0.11807501       0.09716145      -0.01364134 </v>
     <v>      -0.11807501       0.09716145      -0.01364134 </v>
     <v>       0.00000000      -0.00337666       0.06513116 </v>
    </varray>
   </crystal>
   <varray name="positions" >
    <v>       0.09118872       0.57198520       0.21120888 </v>
    <v>       0.42801480       0.90881128       0.28879112 </v>
    <v>       0.90881128       0.42801480       0.78879112 </v>
    <v>       0.57198520       0.09118872       0.71120888 </v>
    <v>       0.65371797       0.69027079       0.02427183 </v>
    <v>       0.69027079       0.65371797       0.52427183 </v>
    <v>       0.34628203       0.30972921       0.97572817 </v>
    <v>       0.30972921       0.34628203       0.47572817 </v>
    <v>       0.11941873       0.90345666       0.60623259 </v>
    <v>       0.09654334       0.88058127       0.89376741 </v>
    <v>       0.88058127       0.09654334       0.39376741 </v>
    <v>       0.90345666       0.11941873       0.10623259 </v>
    <v>       0.53707429       0.22183444       0.34334769 </v>
    <v>       0.57539786       0.98677496       0.13242370 </v>
    <v>       0.46292571       0.77816556       0.65665231 </v>
    <v>       0.22183444       0.53707429       0.84334769 </v>
    <v>       0.96135264       0.03864736       0.75000000 </v>
    <v>       0.03864736       0.96135264       0.25000000 </v>
    <v>       0.98677496       0.57539786       0.63242370 </v>
    <v>       0.42460214       0.01322504       0.86757630 </v>
    <v>       0.01322504       0.42460214       0.36757630 </v>
    <v>       0.34518895       0.71155352       0.43768114 </v>
    <v>       0.71155352       0.34518895       0.93768114 </v>
    <v>       0.65481105       0.28844648       0.56231886 </v>
    <v>       0.77816556       0.46292571       0.15665231 </v>
    <v>       0.28844648       0.65481105       0.06231886 </v>
   </varray>
  </structure>
  <varray name="forces" >
   <v>      -0.02965672      -0.01173915      -0.01803604 </v>
   <v>      -0.02965672       0.01173915       0.01803604 </v>
   <v>       0.02965672       0.01173915       0.01803604 </v>
   <v>       0.02965672      -0.01173915      -0.01803604 </v>
   <v>       0.03477055       0.03483878      -0.05238433 </v>
   <v>      -0.03477055       0.03483878      -0.05238433 </v>
   <v>      -0.03477055      -0.03483878       0.05238433 </v>
   <v>       0.03477055      -0.03483878       0.05238433 </v>
   <v>       0.08902608      -0.05643680       0.02044117 </v>
   <v>       0.08902608       0.05643680      -0.02044117 </v>
   <v>      -0.08902608       0.05643680      -0.02044117 </v>
   <v>      -0.08902608      -0.05643680       0.02044117 </v>
   <v>       0.00547225      -0.01048538      -0.03240597 </v>
   <v>       0.00780001      -0.00895757       0.01007126 </v>
   <v>      -0.00547225       0.01048538       0.03240597 </v>
   <v>      -0.00547225      -0.01048538      -0.03240597 </v>
   <v>       0.00011289      -0.00000000      -0.00000000 </v>
   <v>      -0.00011289      -0.00000000      -0.00000000 </v>
   <v>      -0.00780001      -0.00895757       0.01007126 </v>
   <v>      -0.00780001       0.00895757      -0.01007126 </v>
   <v>       0.00780001       0.00895757      -0.01007126 </v>
   <v>      -0.00803004      -0.01878515      -0.00371045 </v>
   <v>       0.00803004      -0.01878515      -0.00371045 </v>
   <v>       0.00803004       0.01878515       0.00371045 </v>
   <v>       0.00547225       0.01048538       0.03240597 </v>
   <v>      -0.00803004       0.01878515       0.00371045 </v>
  </varray>
  <varray name="stress" >
   <v>       1.75073202       0.00000000       0.00000000 </v>
   <v>       0.00000000      -1.02069820      -0.83429809 </v>
   <v>       0.00000000      -0.83429834       0.44226978 </v>
  </varray>
  <energy>
   <i name="e_fr_energy">   -106.67454657 </i>
   <i name="e_wo_entrp">   -106.67454657 </i>
   <i name="e_0_energy">     -0.00000000 </i>
  </energy>
  <time name="totalsc">    4.42    4.70</time>
 </calculation>
 <calculation>
  <scstep>
   <time name="dav">    1.07    1.10</time>
   <time name="total">    1.28    1.34</time>
   <energy>
    <i name="alphaZ">    141.19876220 </i>
    <i name="ewald">  -7406.67831376 </i>
    <i name="hartreedc">  -2380.89282945 </i>
    <i name="XCdc">   -237.73572531 </i>
    <i name="pawpsdc">  14503.29145169 </i>
    <i name="pawaedc"> -13849.86522636 </i>
    <i name="eentropy">     -0.00000000 </i>
    <i name="bandstr">    -99.86280722 </i>
    <i name="atom">   9223.86848573 </i>
    <i name="e_fr_energy">   -106.67620247 </i>
    <i name="e_wo_entrp">   -106.67620247 </i>
    <i name="e_0_energy">   -106.67620247 </i>
   </energy>
  </scstep>
  <scstep>
   <time name="dav">    0.92    0.94</time>
   <time name="total">    1.12    1.15</time>
   <energy>
    <i name="e_fr_energy">   -106.67559128 </i>
    <i name="e_wo_entrp">   -106.67559128 </i>
    <i name="e_0_energy">   -106.67559128 </i>
   </energy>
  </scstep>
  <scstep>
   <time name="dav">    1.11    1.13</time>
   <time name="total">    1.28    1.31</time>
   <energy>
    <i name="alphaZ">    141.19876220 </i>
    <i name="ewald">  -7406.67831376 </i>
    <i name="hartreedc">  -2379.73607894 </i>
    <i name="XCdc">   -237.77574627 </i>
    <i name="pawpsdc">  14514.07032382 </i>
    <i name="pawaedc"> -13860.65109936 </i>
    <i name="eentropy">     -0.00000000 </i>
    <i name="bandstr">   -100.97186047 </i>
    <i name="atom">   9223.86848573 </i>
    <i name="e_fr_energy">   -106.67552704 </i>
    <i name="e_wo_entrp">   -106.67552704 </i>
    <i name="e_0_energy">   -106.67552704 </i>
   </energy>
  </scstep>
  <structure>
   <crystal>
    <varray name="basis" >
     <v>       4.23484900       5.18005590       0.26717869 </v>
     <v>      -4.23484900       5.18005590       0.26717869 </v>
     <v>       0.00000000       2.16523485      15.46513934 </v>
    </varray>
    <i name="volume">    673.61017178 </i>
    <varray name="rec_basis" >
     <v>       0.11806796       0.09722616      -0.01361239 </v>
     <v>      -0.11806796       0.09722616      -0.01361239 </v>
     <v>       0.00000000      -0.00335940       0.06513190 </v>
    </varray>
   </crystal>
   <varray name="positions" >
    <v>       0.09109492       0.57202702       0.21118829 </v>
    <v>       0.42797298       0.90890508       0.28881171 </v>
    <v>       0.90890508       0.42797298       0.78881171 </v>
    <v>       0.57202702       0.09109492       0.71118829 </v>
    <v>       0.65395072       0.68981640       0.02418411 </v>
    <v>       0.68981640       0.65395072       0.52418411 </v>
    <v>       0.34604928       0.31018360       0.97581589 </v>
    <v>       0.31018360       0.34604928       0.47581589 </v>
    <v>       0.11953383       0.90328051       0.60626820 </v>
    <v>       0.09671949       0.88046617       0.89373180 </v>
    <v>       0.88046617       0.09671949       0.39373180 </v>
    <v>       0.90328051       0.11953383       0.10626820 </v>
    <v>       0.53712304       0.22178723       0.34332590 </v>
    <v>       0.57541776       0.98674702       0.13242714 </v>
    <v>       0.46287696       0.77821277       0.65667410 </v>
    <v>       0.22178723       0.53712304       0.84332590 </v>
    <v>       0.96132487       0.03867513       0.75000000 </v>
    <v>       0.03867513       0.96132487       0.25000000 </v>
    <v>       0.98674702       0.57541776       0.63242714 </v>
    <v>       0.42458224       0.01325298       0.86757286 </v>
    <v>       0.01325298       0.42458224       0.36757286 </v>
    <v>       0.34515162       0.71157192       0.43768026 </v>
    <v>       0.71157192       0.34515162       0.93768026 </v>
    <v>       0.65484838       0.28842808       0.56231974 </v>
    <v>       0.77821277       0.46287696       0.15667410 </v>
    <v>       0.28842808       0.65484838       0.06231974 </v>
   </varray>
  </structure>
  <varray name="forces" >
   <v>      -0.03127624      -0.01142511      -0.01613985 </v>
   <v>      -0.03127624       0.01142511       0.01613985 </v>
   <v>       0.03127624       0.01142511       0.01613985 </v>
   <v>       0.03127624      -0.01142511      -0.01613985 </v>
   <v>      -0.02210160       0.15164414      -0.08260044 </v>
   <v>       0.02210160       0.15164414      -0.08260044 </v>
   <v>       0.02210160      -0.15164414       0.08260044 </v>
   <v>      -0.02210160      -0.15164414       0.08260044 </v>
   <v>       0.10053282      -0.06641201       0.03141471 </v>
   <v>       0.10053282       0.06641201      -0.03141471 </v>
   <v>      -0.10053282       0.06641201      -0.03141471 </v>
   <v>      -0.10053282      -0.06641201       0.03141471 </v>
   <v>      -0.01004171      -0.01241066      -0.03563499 </v>
   <v>       0.00000170      -0.01002728       0.01015159 </v>
   <v>       0.01004171       0.01241066       0.03563499 </v>
   <v>       0.01004171      -0.01241066      -0.03563499 </v>
   <v>       0.01403701       0.00000000       0.00000000 </v>
   <v>      -0.01403701       0.00000000       0.00000000 </v>
   <v>      -0.00000170      -0.01002728       0.01015159 </v>
   <v>      -0.00000170       0.01002728      -0.01015159 </v>
   <v>       0.00000170       0.01002728      -0.01015159 </v>
   <v>      -0.00352971      -0.02389495       0.00243228 </v>
   <v>       0.00352971      -0.02389495       0.00243228 </v>
   <v>       0.00352971       0.02389495      -0.00243228 </v>
   <v>      -0.01004171       0.01241066       0.03563499 </v>
   <v>      -0.00352971       0.02389495      -0.00243228 </v>
  </varray>
  <varray name="stress" >
   <v>       2.68841991       0.00000000       0.00000000 </v>
   <v>       0.00000000      -0.67138203      -0.70584419 </v>
   <v>       0.00000000      -0.70584438       0.89210681 </v>
  </varray>
  <energy>
   <i name="e_fr_energy">   -106.67552704 </i>
   <i name="e_wo_entrp">   -106.67552704 </i>
   <i name="e_0_energy">     -0.00000000 </i>
  </energy>
  <time name="totalsc">    4.72    4.96</time>
 </calculation>
 <calculation>
  <scstep>
   <time name="dav">    1.07    1.10</time>
   <time name="total">    1.28    1.34</time>
   <energy>
    <i name="alphaZ">    141.17334471 </i>
    <i name="ewald">  -7405.80767539 </i>
    <i name="hartreedc">  -2379.91273337 </i>
    <i name="XCdc">   -237.79652773 </i>
    <i name="pawpsdc">  14516.09093553 </i>
    <i name="pawaedc"> -13862.68173303 </i>
    <i name="eentropy">     -0.00000000 </i>
    <i name="bandstr">   -101.61198585 </i>
    <i name="atom">   9223.86848573 </i>
    <i name="e_fr_energy">   -106.67788939 </i>
    <i name="e_wo_entrp">   -106.67788939 </i>
    <i name="e_0_energy">   -106.67788939 </i>
   </energy>
  </scstep>
  <scstep>
   <time name="dav">    0.89    0.90</time>
   <time name="total">    1.10    1.11</time>
   <energy>
    <i name="e_fr_energy">   -106.67769706 </i>
    <i name="e_wo_entrp">   -106.67769706 </i>
    <i name="e_0_energy">   -106.67769706 </i>
   </energy>
  </scstep>
  <scstep>
   <time name="dav">    0.66    0.67</time>
   <time name="total">    0.84    0.84</time>
   <energy>
    <i name="alphaZ">    141.17334471 </i>
    <i name="ewald">  -7405.80767539 </i>
    <i name="hartreedc">  -2380.23484185 </i>
    <i name="XCdc">   -237.78477574 </i>
    <i name="pawpsdc">  14512.33346679 </i>
    <i name="pawaedc"> -13858.92812263 </i>
    <i name="eentropy">     -0.00000000 </i>
    <i name="bandstr">   -101.29749050 </i>
    <i name="atom">   9223.86848573 </i>
    <i name="e_fr_energy">   -106.67760887 </i>
    <i name="e_wo_entrp">   -106.67760887 </i>
    <i name="e_0_energy">   -106.67760887 </i>
   </energy>
  </scstep>
  <structure>
   <crystal>
    <varray name="basis" >
     <v>       4.23684397       5.17778031       0.26591448 </v>
     <v>      -4.23684397       5.17778031       0.26591448 </v>
     <v>       0.00000000       2.16042925      15.46669235 </v>
    </varray>
    <i name="volume">    673.73145164 </i>
    <varray name="rec_basis" >
     <v>       0.11801237       0.09726422      -0.01358613 </v>
     <v>      -0.11801237       0.09726422      -0.01358613 </v>
     <v>       0.00000000      -0.00334447       0.06512223 </v>
    </varray>
   </crystal>
   <varray name="positions" >
    <v>       0.09100621       0.57207430       0.21116875 </v>
    <v>       0.42792570       0.90899379       0.28883125 </v>
    <v>       0.90899379       0.42792570       0.78883125 </v>
    <v>       0.57207430       0.09100621       0.71116875 </v>
    <v>       0.65419000       0.68980263       0.02408477 </v>
    <v>       0.68980263       0.65419000       0.52408477 </v>
    <v>       0.34581000       0.31019737       0.97591523 </v>
    <v>       0.31019737       0.34581000       0.47591523 </v>
    <v>       0.11963612       0.90301022       0.60630728 </v>
    <v>       0.09698978       0.88036388       0.89369272 </v>
    <v>       0.88036388       0.09698978       0.39369272 </v>
    <v>       0.90301022       0.11963612       0.10630728 </v>
    <v>       0.53712528       0.22177092       0.34329288 </v>
    <v>       0.57541525       0.98672317       0.13243578 </v>
    <v>       0.46287472       0.77822908       0.65670712 </v>
    <v>       0.22177092       0.53712528       0.84329288 </v>
    <v>       0.96132943       0.03867057       0.75000000 </v>
    <v>       0.03867057       0.96132943       0.25000000 </v>
    <v>       0.98672317       0.57541525       0.63243578 </v>
    <v>       0.42458475       0.01327683       0.86756422 </v>
    <v>       0.01327683       0.42458475       0.36756422 </v>
    <v>       0.34510662       0.71156028       0.43768230 </v>
    <v>       0.71156028       0.34510662       0.93768230 </v>
    <v>       0.65489338       0.28843972       0.56231770 </v>
    <v>       0.77822908       0.46287472       0.15670712 </v>
    <v>       0.28843972       0.65489338       0.06231770 </v>
   </varray>
  </structure>
  <varray name="forces" >
   <v>      -0.03371706      -0.00710974      -0.01685611 </v>
   <v>      -0.03371706       0.00710974       0.01685611 </v>
   <v>       0.03371706       0.00710974       0.01685611 </v>
   <v>       0.03371706      -0.00710974      -0.01685611 </v>
   <v>      -0.10222181       0.09810696      -0.03322484 </v>
   <v>       0.10222181       0.09810696      -0.03322484 </v>
   <v>       0.10222181      -0.09810696       0.03322484 </v>
   <v>      -0.10222181      -0.09810696       0.03322484 </v>
   <v>      -0.02660541      -0.06715519       0.01116762 </v>
   <v>      -0.02660541       0.06715519      -0.01116762 </v>
   <v>       0.02660541       0.06715519      -0.01116762 </v>
   <v>       0.02660541      -0.06715519       0.01116762 </v>
   <v>      -0.02021630      -0.01417998      -0.02362046 </v>
   <v>      -0.00243374      -0.01769250       0.00815923 </v>
   <v>       0.02021630       0.01417998       0.02362046 </v>
   <v>       0.02021630      -0.01417998      -0.02362046 </v>
   <v>       0.00812588      -0.00000000       0.00000000 </v>
   <v>      -0.00812588      -0.00000000       0.00000000 </v>
   <v>       0.00243374      -0.01769250       0.00815923 </v>
   <v>       0.00243374       0.01769250      -0.00815923 </v>
   <v>      -0.00243374       0.01769250      -0.00815923 </v>
   <v>      -0.00549849      -0.03209444      -0.00129690 </v>
   <v>       0.00549849      -0.03209444      -0.00129690 </v>
   <v>       0.00549849       0.03209444       0.00129690 </v>
   <v>      -0.02021630       0.01417998       0.02362046 </v>
   <v>      -0.00549849       0.03209444       0.00129690 </v>
  </varray>
  <varray name="stress" >
   <v>       3.16969223       0.00000000       0.00000000 </v>
   <v>       0.00000000       0.79691706      -0.40194465 </v>
   <v>       0.00000000      -0.40194474       2.17087530 </v>
  </varray>
  <energy>
   <i name="e_fr_energy">   -106.67760887 </i>
   <i name="e_wo_entrp">   -106.67760887 </i>
   <i name="e_0_energy">     -0.00000000 </i>
  </energy>
  <time name="totalsc">    4.52    4.70</time>
 </calculation>
 <calculation>
  <scstep>
   <time name="dav">    0.97    0.98</time>
   <time name="total">    1.18    1.23</time>
   <energy>
    <i name="alphaZ">    141.15828880 </i>
    <i name="ewald">  -7405.28916931 </i>
    <i name="hartreedc">  -2380.39064006 </i>
    <i name="XCdc">   -237.79642139 </i>
    <i name="pawpsdc">  14510.13493301 </i>
    <i name="pawaedc"> -13856.72970908 </i>
    <i name="eentropy">     -0.00000000 </i>
    <i name="bandstr">   -101.63343039 </i>
    <i name="atom">   9223.86848573 </i>
    <i name="e_fr_energy">   -106.67766268 </i>
    <i name="e_wo_entrp">   -106.67766268 </i>
    <i name="e_0_energy">   -106.67766268 </i>
   </energy>
  </scstep>
  <scstep>
   <time name="dav">    0.92    0.93</time>
   <time name="total">    1.09    1.10</time>
   <energy>
    <i name="alphaZ">    141.15828880 </i>
    <i name="ewald">  -7405.28916931 </i>
    <i name="hartreedc">  -2380.58612898 </i>
    <i name="XCdc">   -237.78991004 </i>
    <i name="pawpsdc">  14508.44539734 </i>
    <i name="pawaedc"> -13855.04254076 </i>
    <i name="eentropy">     -0.00000000 </i>
    <i name="bandstr">   -101.44203063 </i>
    <i name="atom">   9223.86848573 </i>
    <i name="e_fr_energy">   -106.67760786 </i>
    <i name="e_wo_entrp">   -106.67760786 </i>
    <i name="e_0_energy">   -106.67760786 </i>
   </energy>
  </scstep>
  <structure>
   <crystal>
    <varray name="basis" >
     <v>       4.23802872       5.17642890       0.26516370 </v>
     <v>      -4.23802872       5.17642890       0.26516370 </v>
     <v>       0.00000000       2.15757535      15.46761464 </v>
    </varray>
    <i name="volume">    673.80331168 </i>
    <varray name="rec_basis" >
     <v>       0.11797938       0.09728684      -0.01357053 </v>
     <v>      -0.11797938       0.09728684      -0.01357053 </v>
     <v>       0.00000000      -0.00333561       0.06511649 </v>
    </varray>
   </crystal>
   <varray name="positions" >
    <v>       0.09095354       0.57210235       0.21115714 </v>
    <v>       0.42789765       0.90904646       0.28884286 </v>
    <v>       0.90904646       0.42789765       0.78884286 </v>
    <v>       0.57210235       0.09095354       0.71115714 </v>
    <v>       0.65433206       0.68979449       0.02402579 </v>
    <v>       0.68979449       0.65433206       0.52402579 </v>
    <v>       0.34566794       0.31020551       0.97597421 </v>
    <v>       0.31020551       0.34566794       0.47597421 </v>
    <v>       0.11969681       0.90284975       0.60633048 </v>
    <v>       0.09715025       0.88030319       0.89366952 </v>
    <v>       0.88030319       0.09715025       0.39366952 </v>
    <v>       0.90284975       0.11969681       0.10633048 </v>
    <v>       0.53712659       0.22176122       0.34327327 </v>
    <v>       0.57541376       0.98670902       0.13244091 </v>
    <v>       0.46287341       0.77823878       0.65672673 </v>
    <v>       0.22176122       0.53712659       0.84327327 </v>
    <v>       0.96133213       0.03866787       0.75000000 </v>
    <v>       0.03866787       0.96133213       0.25000000 </v>
    <v>       0.98670902       0.57541376       0.63244091 </v>
    <v>       0.42458624       0.01329098       0.86755909 </v>
    <v>       0.01329098       0.42458624       0.36755909 </v>
    <v>       0.34507989       0.71155336       0.43768352 </v>
    <v>       0.71155336       0.34507989       0.93768352 </v>
    <v>       0.65492011       0.28844664       0.56231648 </v>
    <v>       0.77823878       0.46287341       0.15672673 </v>
    <v>       0.28844664       0.65492011       0.06231648 </v>
   </varray>
  </structure>
  <varray name="forces" >
   <v>      -0.03010641      -0.00727328      -0.01534770 </v>
   <v>      -0.03010641       0.00727328       0.01534770 </v>
   <v>       0.03010641       0.00727328       0.01534770 </v>
   <v>       0.03010641      -0.00727328      -0.01534770 </v>
   <v>      -0.14674826      -0.02844653       0.00439174 </v>
   <v>       0.14674826      -0.02844653       0.00439174 </v>
   <v>       0.14674826       0.02844653      -0.00439174 </v>
   <v>      -0.14674826       0.02844653      -0.00439174 </v>
   <v>      -0.04617247       0.07127210      -0.00109752 </v>
   <v>      -0.04617247      -0.07127210       0.00109752 </v>
   <v>       0.04617247      -0.07127210       0.00109752 </v>
   <v>       0.04617247       0.07127210      -0.00109752 </v>
   <v>      -0.02162760      -0.01280398      -0.01450498 </v>
   <v>      -0.01439765      -0.02753991       0.00867237 </v>
   <v>       0.02162760       0.01280398       0.01450498 </v>
   <v>       0.02162760      -0.01280398      -0.01450498 </v>
   <v>       0.01196385       0.00000000      -0.00000000 </v>
   <v>      -0.01196385       0.00000000      -0.00000000 </v>
   <v>       0.01439765      -0.02753991       0.00867237 </v>
   <v>       0.01439765       0.02753991      -0.00867237 </v>
   <v>      -0.01439765       0.02753991      -0.00867237 </v>
   <v>       0.00220324      -0.04214762      -0.00219907 </v>
   <v>      -0.00220324      -0.04214762      -0.00219907 </v>
   <v>      -0.00220324       0.04214762       0.00219907 </v>
   <v>      -0.02162760       0.01280398       0.01450498 </v>
   <v>       0.00220324       0.04214762       0.00219907 </v>
  </varray>
  <varray name="stress" >
   <v>       2.76231753       0.00000000       0.00000000 </v>
   <v>       0.00000000       2.02506154      -0.27748988 </v>
   <v>       0.00000000      -0.27748961       1.75824222 </v>
  </varray>
  <energy>
   <i name="e_fr_energy">   -106.67760786 </i>
   <i name="e_wo_entrp">   -106.67760786 </i>
   <i name="e_0_energy">     -0.00000000 </i>
  </energy>
  <time name="totalsc">    3.47    3.63</time>
 </calculation>
 <calculation>
  <scstep>
   <time name="dav">    0.90    0.93</time>
   <time name="total">    1.11    1.17</time>
   <energy>
    <i name="alphaZ">    141.16438694 </i>
    <i name="ewald">  -7405.49942567 </i>
    <i name="hartreedc">  -2380.56080466 </i>
    <i name="XCdc">   -237.78428372 </i>
    <i name="pawpsdc">  14508.42519114 </i>
    <i name="pawaedc"> -13855.01961062 </i>
    <i name="eentropy">     -0.00000000 </i>
    <i name="bandstr">   -101.27154765 </i>
    <i name="atom">   9223.86848573 </i>
    <i name="e_fr_energy">   -106.67760850 </i>
    <i name="e_wo_entrp">   -106.67760850 </i>
    <i name="e_0_energy">   -106.67760850 </i>
   </energy>
  </scstep>
  <scstep>
   <time name="dav">    0.60    0.62</time>
   <time name="total">    0.77    0.78</time>
   <energy>
    <i name="alphaZ">    141.16438694 </i>
    <i name="ewald">  -7405.49942567 </i>
    <i name="hartreedc">  -2380.49830852 </i>
    <i name="XCdc">   -237.78658326 </i>
    <i name="pawpsdc">  14508.63561336 </i>
    <i name="pawaedc"> -13855.22859413 </i>
    <i name="eentropy">     -0.00000000 </i>
    <i name="bandstr">   -101.33318682 </i>
    <i name="atom">   9223.86848573 </i>
    <i name="e_fr_energy">   -106.67761237 </i>
    <i name="e_wo_entrp">   -106.67761237 </i>
    <i name="e_0_energy">   -106.67761237 </i>
   </energy>
  </scstep>
  <structure>
   <crystal>
    <varray name="basis" >
     <v>       4.23754859       5.17697658       0.26546797 </v>
     <v>      -4.23754859       5.17697658       0.26546797 </v>
     <v>       0.00000000       2.15873193      15.46724087 </v>
    </varray>
    <i name="volume">    673.77420414 </i>
    <varray name="rec_basis" >
     <v>       0.11799275       0.09727767      -0.01357685 </v>
     <v>      -0.11799275       0.09727767      -0.01357685 </v>
     <v>       0.00000000      -0.00333920       0.06511882 </v>
    </varray>
   </crystal>
   <varray name="positions" >
    <v>       0.09097488       0.57209099       0.21116185 </v>
    <v>       0.42790901       0.90902512       0.28883815 </v>
    <v>       0.90902512       0.42790901       0.78883815 </v>
    <v>       0.57209099       0.09097488       0.71116185 </v>
    <v>       0.65427450       0.68979778       0.02404969 </v>
    <v>       0.68979778       0.65427450       0.52404969 </v>
    <v>       0.34572550       0.31020222       0.97595031 </v>
    <v>       0.31020222       0.34572550       0.47595031 </v>
    <v>       0.11967223       0.90291477       0.60632108 </v>
    <v>       0.09708523       0.88032777       0.89367892 </v>
    <v>       0.88032777       0.09708523       0.39367892 </v>
    <v>       0.90291477       0.11967223       0.10632108 </v>
    <v>       0.53712606       0.22176515       0.34328122 </v>
    <v>       0.57541437       0.98671475       0.13243883 </v>
    <v>       0.46287394       0.77823485       0.65671878 </v>
    <v>       0.22176515       0.53712606       0.84328122 </v>
    <v>       0.96133104       0.03866896       0.75000000 </v>
    <v>       0.03866896       0.96133104       0.25000000 </v>
    <v>       0.98671475       0.57541437       0.63243883 </v>
    <v>       0.42458563       0.01328525       0.86756117 </v>
    <v>       0.01328525       0.42458563       0.36756117 </v>
    <v>       0.34509073       0.71155617       0.43768302 </v>
    <v>       0.71155617       0.34509073       0.93768302 </v>
    <v>       0.65490927       0.28844383       0.56231698 </v>
    <v>       0.77823485       0.46287394       0.15671878 </v>
    <v>       0.28844383       0.65490927       0.06231698 </v>
   </varray>
  </structure>
  <varray name="forces" >
   <v>      -0.04120654      -0.01024029      -0.02057206 </v>
   <v>      -0.04120654       0.01024029       0.02057206 </v>
   <v>       0.04120654       0.01024029       0.02057206 </v>
   <v>       0.04120654      -0.01024029      -0.02057206 </v>
   <v>      -0.13161113       0.01438754      -0.02210150 </v>
   <v>       0.13161113       0.01438754      -0.02210150 </v>
   <v>       0.13161113      -0.01438754       0.02210150 </v>
   <v>      -0.13161113      -0.01438754       0.02210150 </v>
   <v>      -0.03498503       0.00216147       0.01267371 </v>
   <v>      -0.03498503      -0.00216147      -0.01267371 </v>
   <v>       0.03498503      -0.00216147      -0.01267371 </v>
   <v>       0.03498503       0.00216147       0.01267371 </v>
   <v>      -0.01726757      -0.01477619      -0.02125089 </v>
   <v>      -0.01254793      -0.02550532       0.00956502 </v>
   <v>       0.01726757       0.01477619       0.02125089 </v>
   <v>       0.01726757      -0.01477619      -0.02125089 </v>
   <v>       0.01072303      -0.00000000      -0.00000000 </v>
   <v>      -0.01072303      -0.00000000      -0.00000000 </v>
   <v>       0.01254793      -0.02550532       0.00956502 </v>
   <v>       0.01254793       0.02550532      -0.00956502 </v>
   <v>      -0.01254793       0.02550532      -0.00956502 </v>
   <v>      -0.00124400      -0.04110046      -0.00255126 </v>
   <v>       0.00124400      -0.04110046      -0.00255126 </v>
   <v>       0.00124400       0.04110046       0.00255126 </v>
   <v>      -0.01726757       0.01477619       0.02125089 </v>
   <v>      -0.00124400       0.04110046       0.00255126 </v>
  </varray>
  <varray name="stress" >
   <v>       2.54060295       0.00000000       0.00000000 </v>
   <v>       0.00000000       2.12562435      -0.12568200 </v>
   <v>       0.00000000      -0.12568170       1.78367374 </v>
  </varray>
  <energy>
   <i name="e_fr_energy">   -106.67761237 </i>
   <i name="e_wo_entrp">   -106.67761237 </i>
   <i name="e_0_energy">     -0.00000000 </i>
  </energy>
  <time name="totalsc">    3.20    3.43</time>
 </calculation>
 <calculation>
  <scstep>
   <time name="dav">    1.01    1.04</time>
   <time name="total">    1.22    1.31</time>
   <energy>
    <i name="alphaZ">    140.99119752 </i>
    <i name="ewald">  -7402.18180703 </i>
    <i name="hartreedc">  -2379.76219979 </i>
    <i name="XCdc">   -237.92666382 </i>
    <i name="pawpsdc">  14508.58023937 </i>
    <i name="pawaedc"> -13855.17400011 </i>
    <i name="eentropy">     -0.00000000 </i>
    <i name="bandstr">   -105.07545011 </i>
    <i name="atom">   9223.86848573 </i>
    <i name="e_fr_energy">   -106.68019824 </i>
    <i name="e_wo_entrp">   -106.68019824 </i>
    <i name="e_0_energy">   -106.68019824 </i>
   </energy>
  </scstep>
  <scstep>
   <time name="dav">    1.18    1.21</time>
   <time name="total">    1.38    1.41</time>
   <energy>
    <i name="e_fr_energy">   -106.67881461 </i>
    <i name="e_wo_entrp">   -106.67881461 </i>
    <i name="e_0_energy">   -106.67881461 </i>
   </energy>
  </scstep>
  <scstep>
   <time name="dav">    0.53    0.53</time>
   <time name="total">    0.70    0.70</time>
   <energy>
    <i name="alphaZ">    140.99119752 </i>
    <i name="ewald">  -7402.18180703 </i>
    <i name="hartreedc">  -2381.93578239 </i>
    <i name="XCdc">   -237.85245262 </i>
    <i name="pawpsdc">  14487.49789973 </i>
    <i name="pawaedc"> -13834.08551955 </i>
    <i name="eentropy">     -0.00000000 </i>
    <i name="bandstr">   -102.98076556 </i>
    <i name="atom">   9223.86848573 </i>
    <i name="e_fr_energy">   -106.67874417 </i>
    <i name="e_wo_entrp">   -106.67874417 </i>
    <i name="e_0_energy">   -106.67874417 </i>
   </energy>
  </scstep>
  <structure>
   <crystal>
    <varray name="basis" >
     <v>       4.24040697       5.17783422       0.26483377 </v>
     <v>      -4.24040697       5.17783422       0.26483377 </v>
     <v>       0.00000000       2.15690874      15.47281909 </v>
    </varray>
    <i name="volume">    674.60184848 </i>
    <varray name="rec_basis" >
     <v>       0.11791321       0.09725892      -0.01355788 </v>
     <v>      -0.11791321       0.09725892      -0.01355788 </v>
     <v>       0.00000000      -0.00332938       0.06509358 </v>
    </varray>
   </crystal>
   <varray name="positions" >
    <v>       0.09087151       0.57215888       0.21113824 </v>
    <v>       0.42784112       0.90912849       0.28886176 </v>
    <v>       0.90912849       0.42784112       0.78886176 </v>
    <v>       0.57215888       0.09087151       0.71113824 </v>
    <v>       0.65423723       0.68997984       0.02398603 </v>
    <v>       0.68997984       0.65423723       0.52398603 </v>
    <v>       0.34576277       0.31002016       0.97601397 </v>
    <v>       0.31002016       0.34576277       0.47601397 </v>
    <v>       0.11967620       0.90283148       0.60634867 </v>
    <v>       0.09716852       0.88032380       0.89365133 </v>
    <v>       0.88032380       0.09716852       0.39365133 </v>
    <v>       0.90283148       0.11967620       0.10634867 </v>
    <v>       0.53709224       0.22176709       0.34325086 </v>
    <v>       0.57536838       0.98669101       0.13245070 </v>
    <v>       0.46290776       0.77823291       0.65674914 </v>
    <v>       0.22176709       0.53709224       0.84325086 </v>
    <v>       0.96134706       0.03865294       0.75000000 </v>
    <v>       0.03865294       0.96134706       0.25000000 </v>
    <v>       0.98669101       0.57536838       0.63245070 </v>
    <v>       0.42463162       0.01330899       0.86754930 </v>
    <v>       0.01330899       0.42463162       0.36754930 </v>
    <v>       0.34502426       0.71150883       0.43768368 </v>
    <v>       0.71150883       0.34502426       0.93768368 </v>
    <v>       0.65497574       0.28849117       0.56231632 </v>
    <v>       0.77823291       0.46290776       0.15674914 </v>
    <v>       0.28849117       0.65497574       0.06231632 </v>
   </varray>
  </structure>
  <varray name="forces" >
   <v>      -0.03216230      -0.01059732      -0.01862748 </v>
   <v>      -0.03216230       0.01059732       0.01862748 </v>
   <v>       0.03216230       0.01059732       0.01862748 </v>
   <v>       0.03216230      -0.01059732      -0.01862748 </v>
   <v>      -0.08543304      -0.18678964       0.06529249 </v>
   <v>       0.08543304      -0.18678964       0.06529249 </v>
   <v>       0.08543304       0.18678964      -0.06529249 </v>
   <v>      -0.08543304       0.18678964      -0.06529249 </v>
   <v>      -0.06187580       0.01963756      -0.04184381 </v>
   <v>      -0.06187580      -0.01963756       0.04184381 </v>
   <v>       0.06187580      -0.01963756       0.04184381 </v>
   <v>       0.06187580       0.01963756      -0.04184381 </v>
   <v>      -0.02335594      -0.01114927      -0.00243344 </v>
   <v>      -0.00512097      -0.02803042       0.00494048 </v>
   <v>       0.02335594       0.01114927       0.00243344 </v>
   <v>       0.02335594      -0.01114927      -0.00243344 </v>
   <v>       0.00138031      -0.00000000      -0.00000000 </v>
   <v>      -0.00138031      -0.00000000      -0.00000000 </v>
   <v>       0.00512097      -0.02803042       0.00494048 </v>
   <v>       0.00512097       0.02803042      -0.00494048 </v>
   <v>      -0.00512097       0.02803042      -0.00494048 </v>
   <v>       0.00348439      -0.03730536       0.00898378 </v>
   <v>      -0.00348439      -0.03730536       0.00898378 </v>
   <v>      -0.00348439       0.03730536      -0.00898378 </v>
   <v>      -0.02335594       0.01114927       0.00243344 </v>
   <v>       0.00348439       0.03730536      -0.00898378 </v>
  </varray>
  <varray name="stress" >
   <v>       1.30154126       0.00000000       0.00000000 </v>
   <v>       0.00000000      -0.32985280       0.69290610 </v>
   <v>       0.00000000       0.69290635       0.59070705 </v>
  </varray>
  <energy>
   <i name="e_fr_energy">   -106.67874417 </i>
   <i name="e_wo_entrp">   -106.67874417 </i>
   <i name="e_0_energy">     -0.00000000 </i>
  </energy>
  <time name="totalsc">    4.64    4.94</time>
 </calculation>
 <calculation>
  <scstep>
   <time name="dav">    0.49    0.50</time>
   <time name="total">    0.70    0.75</time>
   <energy>
    <i name="alphaZ">    140.98503417 </i>
    <i name="ewald">  -7402.06365991 </i>
    <i name="hartreedc">  -2381.91883453 </i>
    <i name="XCdc">   -237.86030055 </i>
    <i name="pawpsdc">  14483.87429576 </i>
    <i name="pawaedc"> -13830.44288761 </i>
    <i name="eentropy">     -0.00000000 </i>
    <i name="bandstr">   -103.12081675 </i>
    <i name="atom">   9223.86848573 </i>
    <i name="e_fr_energy">   -106.67868369 </i>
    <i name="e_wo_entrp">   -106.67868369 </i>
    <i name="e_0_energy">   -106.67868369 </i>
   </energy>
  </scstep>
  <scstep>
   <time name="dav">    0.46    0.47</time>
   <time name="total">    0.63    0.64</time>
   <energy>
    <i name="alphaZ">    140.98503417 </i>
    <i name="ewald">  -7402.06365991 </i>
    <i name="hartreedc">  -2382.08183369 </i>
    <i name="XCdc">   -237.85595437 </i>
    <i name="pawpsdc">  14483.72066521 </i>
    <i name="pawaedc"> -13830.28803076 </i>
    <i name="eentropy">     -0.00000000 </i>
    <i name="bandstr">   -102.96337573 </i>
    <i name="atom">   9223.86848573 </i>
    <i name="e_fr_energy">   -106.67866935 </i>
    <i name="e_wo_entrp">   -106.67866935 </i>
    <i name="e_0_energy">   -106.67866935 </i>
   </energy>
  </scstep>
  <structure>
   <crystal>
    <varray name="basis" >
     <v>       4.24050878       5.17786477       0.26481118 </v>
     <v>      -4.24050878       5.17786477       0.26481118 </v>
     <v>       0.00000000       2.15684380      15.47301779 </v>
    </varray>
    <i name="volume">    674.63133960 </i>
    <varray name="rec_basis" >
     <v>       0.11791038       0.09725826      -0.01355720 </v>
     <v>      -0.11791038       0.09725826      -0.01355720 </v>
     <v>       0.00000000      -0.00332903       0.06509268 </v>
    </varray>
   </crystal>
   <varray name="positions" >
    <v>       0.09086783       0.57216130       0.21113739 </v>
    <v>       0.42783870       0.90913217       0.28886261 </v>
    <v>       0.90913217       0.42783870       0.78886261 </v>
    <v>       0.57216130       0.09086783       0.71113739 </v>
    <v>       0.65423590       0.68998632       0.02398377 </v>
    <v>       0.68998632       0.65423590       0.52398377 </v>
    <v>       0.34576410       0.31001368       0.97601623 </v>
    <v>       0.31001368       0.34576410       0.47601623 </v>
    <v>       0.11967634       0.90282851       0.60634965 </v>
    <v>       0.09717149       0.88032366       0.89365035 </v>
    <v>       0.88032366       0.09717149       0.39365035 </v>
    <v>       0.90282851       0.11967634       0.10634965 </v>
    <v>       0.53709103       0.22176716       0.34324978 </v>
    <v>       0.57536675       0.98669016       0.13245112 </v>
    <v>       0.46290897       0.77823284       0.65675022 </v>
    <v>       0.22176716       0.53709103       0.84324978 </v>
    <v>       0.96134763       0.03865237       0.75000000 </v>
    <v>       0.03865237       0.96134763       0.25000000 </v>
    <v>       0.98669016       0.57536675       0.63245112 </v>
    <v>       0.42463325       0.01330984       0.86754888 </v>
    <v>       0.01330984       0.42463325       0.36754888 </v>
    <v>       0.34502190       0.71150715       0.43768371 </v>
    <v>       0.71150715       0.34502190       0.93768371 </v>
    <v>       0.65497810       0.28849285       0.56231629 </v>
    <v>       0.77823284       0.46290897       0.15675022 </v>
    <v>       0.28849285       0.65497810       0.06231629 </v>
   </varray>
  </structure>
  <varray name="forces" >
   <v>      -0.02971070      -0.00986769      -0.01729699 </v>
   <v>      -0.02971070       0.00986769       0.01729699 </v>
   <v>       0.02971070       0.00986769       0.01729699 </v>
   <v>       0.02971070      -0.00986769      -0.01729699 </v>
   <v>      -0.08585622      -0.18577473       0.06460623 </v>
   <v>       0.08585622      -0.18577473       0.06460623 </v>
   <v>       0.08585622       0.18577473      -0.06460623 </v>
   <v>      -0.08585622       0.18577473      -0.06460623 </v>
   <v>      -0.06179580       0.01979578      -0.04218737 </v>
   <v>      -0.06179580      -0.01979578       0.04218737 </v>
   <v>       0.06179580      -0.01979578       0.04218737 </v>
   <v>       0.06179580       0.01979578      -0.04218737 </v>
   <v>      -0.02329286      -0.01193143      -0.00273220 </v>
   <v>      -0.00481291      -0.02834203       0.00442507 </v>
   <v>       0.02329286       0.01193143       0.00273220 </v>
   <v>       0.02329286      -0.01193143      -0.00273220 </v>
   <v>       0.00209349      -0.00000000       0.00000000 </v>
   <v>      -0.00209349      -0.00000000       0.00000000 </v>
   <v>       0.00481291      -0.02834203       0.00442507 </v>
   <v>       0.00481291       0.02834203      -0.00442507 </v>
   <v>      -0.00481291       0.02834203      -0.00442507 </v>
   <v>       0.00329842      -0.03782206       0.00940253 </v>
   <v>      -0.00329842      -0.03782206       0.00940253 </v>
   <v>      -0.00329842       0.03782206      -0.00940253 </v>
   <v>      -0.02329286       0.01193143       0.00273220 </v>
   <v>       0.00329842       0.03782206      -0.00940253 </v>
  </varray>
  <varray name="stress" >
   <v>       0.94539684       0.00000000       0.00000000 </v>
   <v>       0.00000000      -0.40175426       0.81120896 </v>
   <v>       0.00000000       0.81120899       0.29644969 </v>
  </varray>
  <energy>
   <i name="e_fr_energy">   -106.67866935 </i>
   <i name="e_wo_entrp">   -106.67866935 </i>
   <i name="e_0_energy">     -0.00000000 </i>
  </energy>
  <time name="totalsc">    2.62    2.77</time>
 </calculation>
 <calculation>
  <scstep>
   <time name="dav">    0.92    0.94</time>
   <time name="total">    1.13    1.18</time>
   <energy>
    <i name="alphaZ">    140.87459782 </i>
    <i name="ewald">  -7399.75188826 </i>
    <i name="hartreedc">  -2381.77933387 </i>
    <i name="XCdc">   -237.94008108 </i>
    <i name="pawpsdc">  14484.39243151 </i>
    <i name="pawaedc"> -13830.95764151 </i>
    <i name="eentropy">     -0.00000000 </i>
    <i name="bandstr">   -105.38682766 </i>
    <i name="atom">   9223.86848573 </i>
    <i name="e_fr_energy">   -106.68025732 </i>
    <i name="e_wo_entrp">   -106.68025732 </i>
    <i name="e_0_energy">   -106.68025732 </i>
   </energy>
  </scstep>
  <scstep>
   <time name="dav">    1.05    1.08</time>
   <time name="total">    1.24    1.27</time>
   <energy>
    <i name="e_fr_energy">   -106.67968751 </i>
[...]
        <r>  0.0037  0.0024  0.0017 </r>
        <r>  0.0000  0.0508  0.0019 </r>
        <r>  0.0000  0.0508  0.0019 </r>
        <r>  0.0000  0.0508  0.0019 </r>
        <r>  0.0000  0.0508  0.0019 </r>
        <r>  0.0001  0.0128  0.0019 </r>
        <r>  0.0001  0.0128  0.0019 </r>
        <r>  0.0001  0.0128  0.0019 </r>
        <r>  0.0001  0.0128  0.0019 </r>
        <r>  0.0005  0.0241  0.0000 </r>
        <r>  0.0010  0.0119  0.0000 </r>
        <r>  0.0005  0.0241  0.0000 </r>
        <r>  0.0005  0.0241  0.0000 </r>
        <r>  0.0003  0.0046  0.0000 </r>
        <r>  0.0003  0.0046  0.0000 </r>
        <r>  0.0010  0.0119  0.0000 </r>
        <r>  0.0010  0.0119  0.0000 </r>
        <r>  0.0010  0.0119  0.0000 </r>
        <r>  0.0002  0.0077  0.0000 </r>
        <r>  0.0002  0.0077  0.0000 </r>
        <r>  0.0002  0.0077  0.0000 </r>
        <r>  0.0005  0.0241  0.0000 </r>
        <r>  0.0002  0.0077  0.0000 </r>
       </set>
       <set comment="band 98">
        <r>  0.0064  0.0009  0.0012 </r>
        <r>  0.0064  0.0009  0.0012 </r>
        <r>  0.0064  0.0009  0.0012 </r>
        <r>  0.0064  0.0009  0.0012 </r>
        <r>  0.0004  0.0447  0.0021 </r>
        <r>  0.0004  0.0447  0.0021 </r>
        <r>  0.0004  0.0447  0.0021 </r>
        <r>  0.0004  0.0447  0.0021 </r>
        <r>  0.0003  0.0115  0.0023 </r>
        <r>  0.0003  0.0115  0.0023 </r>
        <r>  0.0003  0.0115  0.0023 </r>
        <r>  0.0003  0.0115  0.0023 </r>
        <r>  0.0003  0.0272  0.0000 </r>
        <r>  0.0014  0.0137  0.0000 </r>
        <r>  0.0003  0.0272  0.0000 </r>
        <r>  0.0003  0.0272  0.0000 </r>
        <r>  0.0012  0.0017  0.0000 </r>
        <r>  0.0012  0.0017  0.0000 </r>
        <r>  0.0014  0.0137  0.0000 </r>
        <r>  0.0014  0.0137  0.0000 </r>
        <r>  0.0014  0.0137  0.0000 </r>
        <r>  0.0008  0.0077  0.0000 </r>
        <r>  0.0008  0.0077  0.0000 </r>
        <r>  0.0008  0.0077  0.0000 </r>
        <r>  0.0003  0.0272  0.0000 </r>
        <r>  0.0008  0.0077  0.0000 </r>
       </set>
       <set comment="band 99">
        <r>  0.0137  0.0055  0.0028 </r>
        <r>  0.0137  0.0055  0.0028 </r>
        <r>  0.0137  0.0055  0.0028 </r>
        <r>  0.0137  0.0055  0.0028 </r>
        <r>  0.0014  0.0098  0.0024 </r>
        <r>  0.0014  0.0098  0.0024 </r>
        <r>  0.0014  0.0098  0.0024 </r>
        <r>  0.0014  0.0098  0.0024 </r>
        <r>  0.0043  0.0284  0.0022 </r>
        <r>  0.0043  0.0284  0.0022 </r>
        <r>  0.0043  0.0284  0.0022 </r>
        <r>  0.0043  0.0284  0.0022 </r>
        <r>  0.0010  0.0090  0.0000 </r>
        <r>  0.0002  0.0179  0.0000 </r>
        <r>  0.0010  0.0090  0.0000 </r>
        <r>  0.0010  0.0090  0.0000 </r>
        <r>  0.0032  0.0029  0.0000 </r>
        <r>  0.0032  0.0029  0.0000 </r>
        <r>  0.0002  0.0179  0.0000 </r>
        <r>  0.0002  0.0179  0.0000 </r>
        <r>  0.0002  0.0179  0.0000 </r>
        <r>  0.0003  0.0058  0.0000 </r>
        <r>  0.0003  0.0058  0.0000 </r>
        <r>  0.0003  0.0058  0.0000 </r>
        <r>  0.0010  0.0090  0.0000 </r>
        <r>  0.0003  0.0058  0.0000 </r>
       </set>
       <set comment="band 100">
        <r>  0.0005  0.0015  0.0029 </r>
        <r>  0.0005  0.0015  0.0029 </r>
        <r>  0.0005  0.0015  0.0029 </r>
        <r>  0.0005  0.0015  0.0029 </r>
        <r>  0.0008  0.0286  0.0010 </r>
        <r>  0.0008  0.0286  0.0010 </r>
        <r>  0.0008  0.0286  0.0010 </r>
        <r>  0.0008  0.0286  0.0010 </r>
        <r>  0.0000  0.0360  0.0026 </r>
        <r>  0.0000  0.0360  0.0026 </r>
        <r>  0.0000  0.0360  0.0026 </r>
        <r>  0.0000  0.0360  0.0026 </r>
        <r>  0.0002  0.0078  0.0000 </r>
        <r>  0.0001  0.0101  0.0000 </r>
        <r>  0.0002  0.0078  0.0000 </r>
        <r>  0.0002  0.0078  0.0000 </r>
        <r>  0.0021  0.0332  0.0000 </r>
        <r>  0.0021  0.0332  0.0000 </r>
        <r>  0.0001  0.0101  0.0000 </r>
        <r>  0.0001  0.0101  0.0000 </r>
        <r>  0.0001  0.0101  0.0000 </r>
        <r>  0.0017  0.0098  0.0000 </r>
        <r>  0.0017  0.0098  0.0000 </r>
        <r>  0.0017  0.0098  0.0000 </r>
        <r>  0.0002  0.0078  0.0000 </r>
        <r>  0.0017  0.0098  0.0000 </r>
       </set>
       <set comment="band 101">
        <r>  0.0088  0.0010  0.0016 </r>
        <r>  0.0088  0.0010  0.0016 </r>
        <r>  0.0088  0.0010  0.0016 </r>
        <r>  0.0088  0.0010  0.0016 </r>
        <r>  0.0039  0.0361  0.0012 </r>
        <r>  0.0039  0.0361  0.0012 </r>
        <r>  0.0039  0.0361  0.0012 </r>
        <r>  0.0039  0.0361  0.0012 </r>
        <r>  0.0002  0.0209  0.0023 </r>
        <r>  0.0002  0.0209  0.0023 </r>
        <r>  0.0002  0.0209  0.0023 </r>
        <r>  0.0002  0.0209  0.0023 </r>
        <r>  0.0046  0.0116  0.0000 </r>
        <r>  0.0004  0.0129  0.0000 </r>
        <r>  0.0046  0.0116  0.0000 </r>
        <r>  0.0046  0.0116  0.0000 </r>
        <r>  0.0001  0.0017  0.0000 </r>
        <r>  0.0001  0.0017  0.0000 </r>
        <r>  0.0004  0.0129  0.0000 </r>
        <r>  0.0004  0.0129  0.0000 </r>
        <r>  0.0004  0.0129  0.0000 </r>
        <r>  0.0037  0.0178  0.0000 </r>
        <r>  0.0037  0.0178  0.0000 </r>
        <r>  0.0037  0.0178  0.0000 </r>
        <r>  0.0046  0.0116  0.0000 </r>
        <r>  0.0037  0.0178  0.0000 </r>
       </set>
       <set comment="band 102">
        <r>  0.0023  0.0009  0.0026 </r>
        <r>  0.0023  0.0009  0.0026 </r>
        <r>  0.0023  0.0009  0.0026 </r>
        <r>  0.0023  0.0009  0.0026 </r>
        <r>  0.0003  0.0326  0.0018 </r>
        <r>  0.0003  0.0326  0.0018 </r>
        <r>  0.0003  0.0326  0.0018 </r>
        <r>  0.0003  0.0326  0.0018 </r>
        <r>  0.0007  0.0302  0.0014 </r>
        <r>  0.0007  0.0302  0.0014 </r>
        <r>  0.0007  0.0302  0.0014 </r>
        <r>  0.0007  0.0302  0.0014 </r>
        <r>  0.0002  0.0176  0.0000 </r>
        <r>  0.0003  0.0077  0.0000 </r>
        <r>  0.0002  0.0176  0.0000 </r>
        <r>  0.0002  0.0176  0.0000 </r>
        <r>  0.0016  0.0085  0.0000 </r>
        <r>  0.0016  0.0085  0.0000 </r>
        <r>  0.0003  0.0077  0.0000 </r>
        <r>  0.0003  0.0077  0.0000 </r>
        <r>  0.0003  0.0077  0.0000 </r>
        <r>  0.0009  0.0151  0.0000 </r>
        <r>  0.0009  0.0151  0.0000 </r>
        <r>  0.0009  0.0151  0.0000 </r>
        <r>  0.0002  0.0176  0.0000 </r>
        <r>  0.0009  0.0151  0.0000 </r>
       </set>
       <set comment="band 103">
        <r>  0.0207  0.0019  0.0019 </r>
        <r>  0.0207  0.0019  0.0019 </r>
        <r>  0.0207  0.0019  0.0019 </r>
        <r>  0.0207  0.0019  0.0019 </r>
        <r>  0.0001  0.0258  0.0011 </r>
        <r>  0.0001  0.0258  0.0011 </r>
        <r>  0.0001  0.0258  0.0011 </r>
        <r>  0.0001  0.0258  0.0011 </r>
        <r>  0.0004  0.0266  0.0018 </r>
        <r>  0.0004  0.0266  0.0018 </r>
        <r>  0.0004  0.0266  0.0018 </r>
        <r>  0.0004  0.0266  0.0018 </r>
        <r>  0.0026  0.0090  0.0000 </r>
        <r>  0.0032  0.0125  0.0000 </r>
        <r>  0.0026  0.0090  0.0000 </r>
        <r>  0.0026  0.0090  0.0000 </r>
        <r>  0.0016  0.0134  0.0000 </r>
        <r>  0.0016  0.0134  0.0000 </r>
        <r>  0.0032  0.0125  0.0000 </r>
        <r>  0.0032  0.0125  0.0000 </r>
        <r>  0.0032  0.0125  0.0000 </r>
        <r>  0.0035  0.0090  0.0000 </r>
        <r>  0.0035  0.0090  0.0000 </r>
        <r>  0.0035  0.0090  0.0000 </r>
        <r>  0.0026  0.0090  0.0000 </r>
        <r>  0.0035  0.0090  0.0000 </r>
       </set>
       <set comment="band 104">
        <r>  0.0024  0.0012  0.0021 </r>
        <r>  0.0024  0.0012  0.0021 </r>
        <r>  0.0024  0.0012  0.0021 </r>
        <r>  0.0024  0.0012  0.0021 </r>
        <r>  0.0003  0.0143  0.0016 </r>
        <r>  0.0003  0.0143  0.0016 </r>
        <r>  0.0003  0.0143  0.0016 </r>
        <r>  0.0003  0.0143  0.0016 </r>
        <r>  0.0035  0.0413  0.0023 </r>
        <r>  0.0035  0.0413  0.0023 </r>
        <r>  0.0035  0.0413  0.0023 </r>
        <r>  0.0035  0.0413  0.0023 </r>
        <r>  0.0011  0.0186  0.0000 </r>
        <r>  0.0015  0.0028  0.0000 </r>
        <r>  0.0011  0.0186  0.0000 </r>
        <r>  0.0011  0.0186  0.0000 </r>
        <r>  0.0011  0.0608  0.0000 </r>
        <r>  0.0011  0.0608  0.0000 </r>
        <r>  0.0015  0.0028  0.0000 </r>
        <r>  0.0015  0.0028  0.0000 </r>
        <r>  0.0015  0.0028  0.0000 </r>
        <r>  0.0012  0.0079  0.0000 </r>
        <r>  0.0012  0.0079  0.0000 </r>
        <r>  0.0012  0.0079  0.0000 </r>
        <r>  0.0011  0.0186  0.0000 </r>
        <r>  0.0012  0.0079  0.0000 </r>
       </set>
       <set comment="band 105">
        <r>  0.0018  0.0029  0.0034 </r>
        <r>  0.0018  0.0029  0.0034 </r>
        <r>  0.0018  0.0029  0.0034 </r>
        <r>  0.0018  0.0029  0.0034 </r>
        <r>  0.0001  0.0353  0.0015 </r>
        <r>  0.0001  0.0353  0.0015 </r>
        <r>  0.0001  0.0353  0.0015 </r>
        <r>  0.0001  0.0353  0.0015 </r>
        <r>  0.0013  0.0251  0.0021 </r>
        <r>  0.0013  0.0251  0.0021 </r>
        <r>  0.0013  0.0251  0.0021 </r>
        <r>  0.0013  0.0251  0.0021 </r>
        <r>  0.0013  0.0124  0.0000 </r>
        <r>  0.0022  0.0085  0.0000 </r>
        <r>  0.0013  0.0124  0.0000 </r>
        <r>  0.0013  0.0124  0.0000 </r>
        <r>  0.0013  0.0027  0.0000 </r>
        <r>  0.0013  0.0027  0.0000 </r>
        <r>  0.0022  0.0085  0.0000 </r>
        <r>  0.0022  0.0085  0.0000 </r>
        <r>  0.0022  0.0085  0.0000 </r>
        <r>  0.0010  0.0212  0.0000 </r>
        <r>  0.0010  0.0212  0.0000 </r>
        <r>  0.0010  0.0212  0.0000 </r>
        <r>  0.0013  0.0124  0.0000 </r>
        <r>  0.0010  0.0212  0.0000 </r>
       </set>
       <set comment="band 106">
        <r>  0.0032  0.0051  0.0038 </r>
        <r>  0.0032  0.0051  0.0038 </r>
        <r>  0.0032  0.0051  0.0038 </r>
        <r>  0.0032  0.0051  0.0038 </r>
        <r>  0.0002  0.0234  0.0010 </r>
        <r>  0.0002  0.0234  0.0010 </r>
        <r>  0.0002  0.0234  0.0010 </r>
        <r>  0.0002  0.0234  0.0010 </r>
        <r>  0.0016  0.0288  0.0016 </r>
        <r>  0.0016  0.0288  0.0016 </r>
        <r>  0.0016  0.0288  0.0016 </r>
        <r>  0.0016  0.0288  0.0016 </r>
        <r>  0.0016  0.0123  0.0000 </r>
        <r>  0.0022  0.0236  0.0000 </r>
        <r>  0.0016  0.0123  0.0000 </r>
        <r>  0.0016  0.0123  0.0000 </r>
        <r>  0.0005  0.0061  0.0000 </r>
        <r>  0.0005  0.0061  0.0000 </r>
        <r>  0.0022  0.0236  0.0000 </r>
        <r>  0.0022  0.0236  0.0000 </r>
        <r>  0.0022  0.0236  0.0000 </r>
        <r>  0.0046  0.0161  0.0000 </r>
        <r>  0.0046  0.0161  0.0000 </r>
        <r>  0.0046  0.0161  0.0000 </r>
        <r>  0.0016  0.0123  0.0000 </r>
        <r>  0.0046  0.0161  0.0000 </r>
       </set>
       <set comment="band 107">
        <r>  0.0106  0.0031  0.0038 </r>
        <r>  0.0106  0.0031  0.0038 </r>
        <r>  0.0106  0.0031  0.0038 </r>
        <r>  0.0106  0.0031  0.0038 </r>
        <r>  0.0003  0.0279  0.0004 </r>
        <r>  0.0003  0.0279  0.0004 </r>
        <r>  0.0003  0.0279  0.0004 </r>
        <r>  0.0003  0.0279  0.0004 </r>
        <r>  0.0006  0.0329  0.0014 </r>
        <r>  0.0006  0.0329  0.0014 </r>
        <r>  0.0006  0.0329  0.0014 </r>
        <r>  0.0006  0.0329  0.0014 </r>
        <r>  0.0001  0.0126  0.0000 </r>
        <r>  0.0023  0.0101  0.0000 </r>
        <r>  0.0001  0.0126  0.0000 </r>
        <r>  0.0001  0.0126  0.0000 </r>
        <r>  0.0010  0.0196  0.0000 </r>
        <r>  0.0010  0.0196  0.0000 </r>
        <r>  0.0023  0.0101  0.0000 </r>
        <r>  0.0023  0.0101  0.0000 </r>
        <r>  0.0023  0.0101  0.0000 </r>
        <r>  0.0022  0.0096  0.0000 </r>
        <r>  0.0022  0.0096  0.0000 </r>
        <r>  0.0022  0.0096  0.0000 </r>
        <r>  0.0001  0.0126  0.0000 </r>
        <r>  0.0022  0.0096  0.0000 </r>
       </set>
       <set comment="band 108">
        <r>  0.0012  0.0015  0.0049 </r>
        <r>  0.0012  0.0015  0.0049 </r>
        <r>  0.0012  0.0015  0.0049 </r>
        <r>  0.0012  0.0015  0.0049 </r>
        <r>  0.0021  0.0257  0.0008 </r>
        <r>  0.0021  0.0257  0.0008 </r>
        <r>  0.0021  0.0257  0.0008 </r>
        <r>  0.0021  0.0257  0.0008 </r>
        <r>  0.0005  0.0318  0.0018 </r>
        <r>  0.0005  0.0318  0.0018 </r>
        <r>  0.0005  0.0318  0.0018 </r>
        <r>  0.0005  0.0318  0.0018 </r>
        <r>  0.0014  0.0123  0.0000 </r>
        <r>  0.0004  0.0139  0.0000 </r>
        <r>  0.0014  0.0123  0.0000 </r>
        <r>  0.0014  0.0123  0.0000 </r>
        <r>  0.0001  0.0321  0.0000 </r>
        <r>  0.0001  0.0321  0.0000 </r>
        <r>  0.0004  0.0139  0.0000 </r>
        <r>  0.0004  0.0139  0.0000 </r>
        <r>  0.0004  0.0139  0.0000 </r>
        <r>  0.0003  0.0195  0.0000 </r>
        <r>  0.0003  0.0195  0.0000 </r>
        <r>  0.0003  0.0195  0.0000 </r>
        <r>  0.0014  0.0123  0.0000 </r>
        <r>  0.0003  0.0195  0.0000 </r>
       </set>
       <set comment="band 109">
        <r>  0.0272  0.0010  0.0039 </r>
        <r>  0.0272  0.0010  0.0039 </r>
        <r>  0.0272  0.0010  0.0039 </r>
        <r>  0.0272  0.0010  0.0039 </r>
        <r>  0.0011  0.0148  0.0043 </r>
        <r>  0.0011  0.0148  0.0043 </r>
        <r>  0.0011  0.0148  0.0043 </r>
        <r>  0.0011  0.0148  0.0043 </r>
        <r>  0.0006  0.0171  0.0026 </r>
        <r>  0.0006  0.0171  0.0026 </r>
        <r>  0.0006  0.0171  0.0026 </r>
        <r>  0.0006  0.0171  0.0026 </r>
        <r>  0.0006  0.0089  0.0000 </r>
        <r>  0.0003  0.0100  0.0000 </r>
        <r>  0.0006  0.0089  0.0000 </r>
        <r>  0.0006  0.0089  0.0000 </r>
        <r>  0.0010  0.0056  0.0000 </r>
        <r>  0.0010  0.0056  0.0000 </r>
        <r>  0.0003  0.0100  0.0000 </r>
        <r>  0.0003  0.0100  0.0000 </r>
        <r>  0.0003  0.0100  0.0000 </r>
        <r>  0.0007  0.0128  0.0000 </r>
        <r>  0.0007  0.0128  0.0000 </r>
        <r>  0.0007  0.0128  0.0000 </r>
        <r>  0.0006  0.0089  0.0000 </r>
        <r>  0.0007  0.0128  0.0000 </r>
       </set>
       <set comment="band 110">
        <r>  0.0184  0.0026  0.0027 </r>
        <r>  0.0184  0.0026  0.0027 </r>
        <r>  0.0184  0.0026  0.0027 </r>
        <r>  0.0184  0.0026  0.0027 </r>
        <r>  0.0002  0.0209  0.0033 </r>
        <r>  0.0002  0.0209  0.0033 </r>
        <r>  0.0002  0.0209  0.0033 </r>
        <r>  0.0002  0.0209  0.0033 </r>
        <r>  0.0002  0.0196  0.0028 </r>
        <r>  0.0002  0.0196  0.0028 </r>
        <r>  0.0002  0.0196  0.0028 </r>
        <r>  0.0002  0.0196  0.0028 </r>
        <r>  0.0013  0.0100  0.0000 </r>
        <r>  0.0004  0.0101  0.0000 </r>
        <r>  0.0013  0.0100  0.0000 </r>
        <r>  0.0013  0.0100  0.0000 </r>
        <r>  0.0012  0.0034  0.0000 </r>
        <r>  0.0012  0.0034  0.0000 </r>
        <r>  0.0004  0.0101  0.0000 </r>
        <r>  0.0004  0.0101  0.0000 </r>
        <r>  0.0004  0.0101  0.0000 </r>
        <r>  0.0005  0.0153  0.0000 </r>
        <r>  0.0005  0.0153  0.0000 </r>
        <r>  0.0005  0.0153  0.0000 </r>
        <r>  0.0013  0.0100  0.0000 </r>
        <r>  0.0005  0.0153  0.0000 </r>
       </set>
       <set comment="band 111">
        <r>  0.0318  0.0055  0.0051 </r>
        <r>  0.0318  0.0055  0.0051 </r>
        <r>  0.0318  0.0055  0.0051 </r>
        <r>  0.0318  0.0055  0.0051 </r>
        <r>  0.0008  0.0091  0.0027 </r>
        <r>  0.0008  0.0091  0.0027 </r>
        <r>  0.0008  0.0091  0.0027 </r>
        <r>  0.0008  0.0091  0.0027 </r>
        <r>  0.0003  0.0122  0.0025 </r>
        <r>  0.0003  0.0122  0.0025 </r>
        <r>  0.0003  0.0122  0.0025 </r>
        <r>  0.0003  0.0122  0.0025 </r>
        <r>  0.0009  0.0031  0.0000 </r>
        <r>  0.0008  0.0154  0.0000 </r>
        <r>  0.0009  0.0031  0.0000 </r>
        <r>  0.0009  0.0031  0.0000 </r>
        <r>  0.0027  0.0073  0.0000 </r>
        <r>  0.0027  0.0073  0.0000 </r>
        <r>  0.0008  0.0154  0.0000 </r>
        <r>  0.0008  0.0154  0.0000 </r>
        <r>  0.0008  0.0154  0.0000 </r>
        <r>  0.0001  0.0154  0.0000 </r>
        <r>  0.0001  0.0154  0.0000 </r>
        <r>  0.0001  0.0154  0.0000 </r>
        <r>  0.0009  0.0031  0.0000 </r>
        <r>  0.0001  0.0154  0.0000 </r>
       </set>
       <set comment="band 112">
        <r>  0.0451  0.0050  0.0049 </r>
        <r>  0.0451  0.0050  0.0049 </r>
        <r>  0.0451  0.0050  0.0049 </r>
        <r>  0.0451  0.0050  0.0049 </r>
        <r>  0.0002  0.0077  0.0025 </r>
        <r>  0.0002  0.0077  0.0025 </r>
        <r>  0.0002  0.0077  0.0025 </r>
        <r>  0.0002  0.0077  0.0025 </r>
        <r>  0.0009  0.0064  0.0019 </r>
        <r>  0.0009  0.0064  0.0019 </r>
        <r>  0.0009  0.0064  0.0019 </r>
        <r>  0.0009  0.0064  0.0019 </r>
        <r>  0.0003  0.0070  0.0000 </r>
        <r>  0.0027  0.0105  0.0000 </r>
        <r>  0.0003  0.0070  0.0000 </r>
        <r>  0.0003  0.0070  0.0000 </r>
        <r>  0.0000  0.0112  0.0000 </r>
        <r>  0.0000  0.0112  0.0000 </r>
        <r>  0.0027  0.0105  0.0000 </r>
        <r>  0.0027  0.0105  0.0000 </r>
        <r>  0.0027  0.0105  0.0000 </r>
        <r>  0.0006  0.0212  0.0000 </r>
        <r>  0.0006  0.0212  0.0000 </r>
        <r>  0.0006  0.0212  0.0000 </r>
        <r>  0.0003  0.0070  0.0000 </r>
        <r>  0.0006  0.0212  0.0000 </r>
       </set>
      </set>
     </set>
    </set>
   </array>
  </projected>
 </calculation>
 <structure name="finalpos" >
  <crystal>
   <varray name="basis" >
    <v>       4.25281240       5.17332369       0.26336559 </v>
    <v>      -4.25281240       5.17332369       0.26336559 </v>
    <v>       0.00000000       2.15411261      15.40479644 </v>
   </varray>
   <i name="volume">    673.02184490 </i>
   <varray name="rec_basis" >
    <v>       0.11756926       0.09734262      -0.01361180 </v>
    <v>      -0.11756926       0.09734262      -0.01361180 </v>
    <v>       0.00000000      -0.00332840       0.06538027 </v>
   </varray>
  </crystal>
  <varray name="positions" >
   <v>       0.08258446       0.57753008       0.21015536 </v>
   <v>       0.42246992       0.91741554       0.28984464 </v>
   <v>       0.91741554       0.42246992       0.78984464 </v>
   <v>       0.57753008       0.08258446       0.71015536 </v>
   <v>       0.65389354       0.69031641       0.02266314 </v>
   <v>       0.69031641       0.65389354       0.52266314 </v>
   <v>       0.34610646       0.30968359       0.97733686 </v>
   <v>       0.30968359       0.34610646       0.47733686 </v>
   <v>       0.12112584       0.90198457       0.60560514 </v>
   <v>       0.09801543       0.87887416       0.89439486 </v>
   <v>       0.87887416       0.09801543       0.39439486 </v>
   <v>       0.90198457       0.12112584       0.10560514 </v>
   <v>       0.53629025       0.22381711       0.34336968 </v>
   <v>       0.57497815       0.98574431       0.13195100 </v>
   <v>       0.46370975       0.77618289       0.65663032 </v>
   <v>       0.22381711       0.53629025       0.84336968 </v>
   <v>       0.96359854       0.03640146       0.75000000 </v>
   <v>       0.03640146       0.96359854       0.25000000 </v>
   <v>       0.98574431       0.57497815       0.63195100 </v>
   <v>       0.42502185       0.01425569       0.86804900 </v>
   <v>       0.01425569       0.42502185       0.36804900 </v>
   <v>       0.34258108       0.71085493       0.43806583 </v>
   <v>       0.71085493       0.34258108       0.93806583 </v>
   <v>       0.65741892       0.28914507       0.56193417 </v>
   <v>       0.77618289       0.46370975       0.15663032 </v>
   <v>       0.28914507       0.65741892       0.06193417 </v>
  </varray>
 </structure>
</modeling>
