CIS                                     
           1
     4.234311    5.188045    0.270524
    -4.234311    5.188045    0.270524
     0.000000    2.178444   15.467418
   Ag   Sb   S 
   4   8  14
Direct configuration=     1
   0.09129474  0.57193790  0.21123216
   0.42806210  0.90870526  0.28876784
   0.90870526  0.42806210  0.78876784
   0.57193790  0.09129474  0.71123216
   0.65345473  0.69078434  0.02437096
   0.69078434  0.65345473  0.52437096
   0.34654527  0.30921566  0.97562904
   0.30921566  0.34654527  0.47562904
   0.11928861  0.90365578  0.60619233
   0.09634422  0.88071139  0.89380767
   0.88071139  0.09634422  0.39380767
   0.90365578  0.11928861  0.10619233
   0.53701916  0.22188780  0.34337233
   0.57537536  0.98680654  0.13241981
   0.46298084  0.77811220  0.65662767
   0.22188780  0.53701916  0.84337233
   0.96138404  0.03861596  0.75000000
   0.03861596  0.96138404  0.25000000
   0.98680654  0.57537536  0.63241981
   0.42462464  0.01319346  0.86758019
   0.01319346  0.42462464  0.36758019
   0.34523114  0.71153272  0.43768213
   0.71153272  0.34523114  0.93768213
   0.65476886  0.28846728  0.56231787
   0.77811220  0.46298084  0.15662767
   0.28846728  0.65476886  0.06231787
CIS                                     
           1
     4.234470    5.185681    0.269534
    -4.234470    5.185681    0.269534
     0.000000    2.174535   15.466744
   Ag   Sb   S 
   4   8  14
Direct configuration=     2
   0.09123562  0.57196429  0.21121918
   0.42803571  0.90876438  0.28878082
   0.90876438  0.42803571  0.78878082
   0.57196429  0.09123562  0.71121918
   0.65360156  0.69049796  0.02431568
   0.69049796  0.65360156  0.52431568
   0.34639844  0.30950204  0.97568432
   0.30950204  0.34639844  0.47568432
   0.11936117  0.90354473  0.60621478
   0.09645527  0.88063883  0.89378522
   0.88063883  0.09645527  0.39378522
   0.90354473  0.11936117  0.10621478
   0.53704991  0.22185804  0.34335859
   0.57538791  0.98678893  0.13242198
   0.46295009  0.77814196  0.65664141
   0.22185804  0.53704991  0.84335859
   0.96136653  0.03863347  0.75000000
   0.03863347  0.96136653  0.25000000
   0.98678893  0.57538791  0.63242198
   0.42461209  0.01321107  0.86757802
   0.01321107  0.42461209  0.36757802
   0.34520761  0.71154432  0.43768158
   0.71154432  0.34520761  0.93768158
   0.65479239  0.28845568  0.56231842
   0.77814196  0.46295009  0.15664141
   0.28845568  0.65479239  0.06231842
CIS                                     
           1
     4.234596    5.183806    0.268749
    -4.234596    5.183806    0.268749
     0.000000    2.171435   15.466209
   Ag   Sb   S 
   4   8  14
Direct configuration=     3
   0.09118872  0.57198520  0.21120888
   0.42801480  0.90881128  0.28879112
   0.90881128  0.42801480  0.78879112
   0.57198520  0.09118872  0.71120888
   0.65371797  0.69027079  0.02427183
   0.69027079  0.65371797  0.52427183
   0.34628203  0.30972921  0.97572817
   0.30972921  0.34628203  0.47572817
   0.11941873  0.90345666  0.60623259
   0.09654334  0.88058127  0.89376741
   0.88058127  0.09654334  0.39376741
   0.90345666  0.11941873  0.10623259
   0.53707429  0.22183444  0.34334769
   0.57539786  0.98677496  0.13242370
   0.46292571  0.77816556  0.65665231
   0.22183444  0.53707429  0.84334769
   0.96135264  0.03864736  0.75000000
   0.03864736  0.96135264  0.25000000
   0.98677496  0.57539786  0.63242370
   0.42460214  0.01322504  0.86757630
   0.01322504  0.42460214  0.36757630
   0.34518895  0.71155352  0.43768114
   0.71155352  0.34518895  0.93768114
   0.65481105  0.28844648  0.56231886
   0.77816556  0.46292571  0.15665231
   0.28844648  0.65481105  0.06231886
CIS                                     
           1
     4.234849    5.180056    0.267179
    -4.234849    5.180056    0.267179
     0.000000    2.165235   15.465139
   Ag   Sb   S 
   4   8  14
Direct configuration=     4
   0.09109492  0.57202702  0.21118829
   0.42797298  0.90890508  0.28881171
   0.90890508  0.42797298  0.78881171
   0.57202702  0.09109492  0.71118829
   0.65395072  0.68981640  0.02418411
   0.68981640  0.65395072  0.52418411
   0.34604928  0.31018360  0.97581589
   0.31018360  0.34604928  0.47581589
   0.11953383  0.90328051  0.60626820
   0.09671949  0.88046617  0.89373180
   0.88046617  0.09671949  0.39373180
   0.90328051  0.11953383  0.10626820
   0.53712304  0.22178723  0.34332590
   0.57541776  0.98674702  0.13242714
   0.46287696  0.77821277  0.65667410
   0.22178723  0.53712304  0.84332590
   0.96132487  0.03867513  0.75000000
   0.03867513  0.96132487  0.25000000
   0.98674702  0.57541776  0.63242714
   0.42458224  0.01325298  0.86757286
   0.01325298  0.42458224  0.36757286
   0.34515162  0.71157192  0.43768026
   0.71157192  0.34515162  0.93768026
   0.65484838  0.28842808  0.56231974
   0.77821277  0.46287696  0.15667410
   0.28842808  0.65484838  0.06231974
CIS                                     
           1
     4.236844    5.177780    0.265914
    -4.236844    5.177780    0.265914
     0.000000    2.160429   15.466692
   Ag   Sb   S 
   4   8  14
Direct configuration=     5
   0.09100621  0.57207430  0.21116875
   0.42792570  0.90899379  0.28883125
   0.90899379  0.42792570  0.78883125
   0.57207430  0.09100621  0.71116875
   0.65419000  0.68980263  0.02408477
   0.68980263  0.65419000  0.52408477
   0.34581000  0.31019737  0.97591523
   0.31019737  0.34581000  0.47591523
   0.11963612  0.90301022  0.60630728
   0.09698978  0.88036388  0.89369272
   0.88036388  0.09698978  0.39369272
   0.90301022  0.11963612  0.10630728
   0.53712528  0.22177092  0.34329288
   0.57541525  0.98672317  0.13243578
   0.46287472  0.77822908  0.65670712
   0.22177092  0.53712528  0.84329288
   0.96132943  0.03867057  0.75000000
   0.03867057  0.96132943  0.25000000
   0.98672317  0.57541525  0.63243578
   0.42458475  0.01327683  0.86756422
   0.01327683  0.42458475  0.36756422
   0.34510662  0.71156028  0.43768230
   0.71156028  0.34510662  0.93768230
   0.65489338  0.28843972  0.56231770
   0.77822908  0.46287472  0.15670712
   0.28843972  0.65489338  0.06231770
CIS                                     
           1
     4.238029    5.176429    0.265164
    -4.238029    5.176429    0.265164
     0.000000    2.157575   15.467615
   Ag   Sb   S 
   4   8  14
Direct configuration=     6
   0.09095354  0.57210235  0.21115714
   0.42789765  0.90904646  0.28884286
   0.90904646  0.42789765  0.78884286
   0.57210235  0.09095354  0.71115714
   0.65433206  0.68979449  0.02402579
   0.68979449  0.65433206  0.52402579
   0.34566794  0.31020551  0.97597421
   0.31020551  0.34566794  0.47597421
   0.11969681  0.90284975  0.60633048
   0.09715025  0.88030319  0.89366952
   0.88030319  0.09715025  0.39366952
   0.90284975  0.11969681  0.10633048
   0.53712659  0.22176122  0.34327327
   0.57541376  0.98670902  0.13244091
   0.46287341  0.77823878  0.65672673
   0.22176122  0.53712659  0.84327327
   0.96133213  0.03866787  0.75000000
   0.03866787  0.96133213  0.25000000
   0.98670902  0.57541376  0.63244091
   0.42458624  0.01329098  0.86755909
   0.01329098  0.42458624  0.36755909
   0.34507989  0.71155336  0.43768352
   0.71155336  0.34507989  0.93768352
   0.65492011  0.28844664  0.56231648
   0.77823878  0.46287341  0.15672673
   0.28844664  0.65492011  0.06231648
CIS                                     
           1
     4.237549    5.176977    0.265468
    -4.237549    5.176977    0.265468
     0.000000    2.158732   15.467241
   Ag   Sb   S 
   4   8  14
Direct configuration=     7
   0.09097488  0.57209099  0.21116185
   0.42790901  0.90902512  0.28883815
   0.90902512  0.42790901  0.78883815
   0.57209099  0.09097488  0.71116185
   0.65427450  0.68979778  0.02404969
   0.68979778  0.65427450  0.52404969
   0.34572550  0.31020222  0.97595031
   0.31020222  0.34572550  0.47595031
   0.11967223  0.90291477  0.60632108
   0.09708523  0.88032777  0.89367892
   0.88032777  0.09708523  0.39367892
   0.90291477  0.11967223  0.10632108
   0.53712606  0.22176515  0.34328122
   0.57541437  0.98671475  0.13243883
   0.46287394  0.77823485  0.65671878
   0.22176515  0.53712606  0.84328122
   0.96133104  0.03866896  0.75000000
   0.03866896  0.96133104  0.25000000
   0.98671475  0.57541437  0.63243883
   0.42458563  0.01328525  0.86756117
   0.01328525  0.42458563  0.36756117
   0.34509073  0.71155617  0.43768302
   0.71155617  0.34509073  0.93768302
   0.65490927  0.28844383  0.56231698
   0.77823485  0.46287394  0.15671878
   0.28844383  0.65490927  0.06231698
CIS                                     
           1
     4.240407    5.177834    0.264834
    -4.240407    5.177834    0.264834
     0.000000    2.156909   15.472819
   Ag   Sb   S 
   4   8  14
Direct configuration=     8
   0.09087151  0.57215888  0.21113824
   0.42784112  0.90912849  0.28886176
   0.90912849  0.42784112  0.78886176
   0.57215888  0.09087151  0.71113824
   0.65423723  0.68997984  0.02398603
   0.68997984  0.65423723  0.52398603
   0.34576277  0.31002016  0.97601397
   0.31002016  0.34576277  0.47601397
   0.11967620  0.90283148  0.60634867
   0.09716852  0.88032380  0.89365133
   0.88032380  0.09716852  0.39365133
   0.90283148  0.11967620  0.10634867
   0.53709224  0.22176709  0.34325086
   0.57536838  0.98669101  0.13245070
   0.46290776  0.77823291  0.65674914
   0.22176709  0.53709224  0.84325086
   0.96134706  0.03865294  0.75000000
   0.03865294  0.96134706  0.25000000
   0.98669101  0.57536838  0.63245070
   0.42463162  0.01330899  0.86754930
   0.01330899  0.42463162  0.36754930
   0.34502426  0.71150883  0.43768368
   0.71150883  0.34502426  0.93768368
   0.65497574  0.28849117  0.56231632
   0.77823291  0.46290776  0.15674914
   0.28849117  0.65497574  0.06231632
CIS                                     
           1
     4.240509    5.177865    0.264811
    -4.240509    5.177865    0.264811
     0.000000    2.156844   15.473018
   Ag   Sb   S 
   4   8  14
Direct configuration=     9
   0.09086783  0.57216130  0.21113739
   0.42783870  0.90913217  0.28886261
   0.90913217  0.42783870  0.78886261
   0.57216130  0.09086783  0.71113739
   0.65423590  0.68998632  0.02398377
   0.68998632  0.65423590  0.52398377
   0.34576410  0.31001368  0.97601623
   0.31001368  0.34576410  0.47601623
   0.11967634  0.90282851  0.60634965
   0.09717149  0.88032366  0.89365035
   0.88032366  0.09717149  0.39365035
   0.90282851  0.11967634  0.10634965
   0.53709103  0.22176716  0.34324978
   0.57536675  0.98669016  0.13245112
   0.46290897  0.77823284  0.65675022
   0.22176716  0.53709103  0.84324978
   0.96134763  0.03865237  0.75000000
   0.03865237  0.96134763  0.25000000
   0.98669016  0.57536675  0.63245112
   0.42463325  0.01330984  0.86754888
   0.01330984  0.42463325  0.36754888
   0.34502190  0.71150715  0.43768371
   0.71150715  0.34502190  0.93768371
   0.65497810  0.28849285  0.56231629
   0.77823284  0.46290897  0.15675022
   0.28849285  0.65497810  0.06231629
CIS                                     
           1
     4.242565    5.178137    0.264934
    -4.242565    5.178137    0.264934
     0.000000    2.157129   15.476862
   Ag   Sb   S 
   4   8  14
Direct configuration=    10
   0.09078054  0.57221862  0.21111657
   0.42778138  0.90921946  0.28888343
   0.90921946  0.42778138  0.78888343
   0.57221862  0.09078054  0.71111657
   0.65401380  0.69002744  0.02398143
   0.69002744  0.65401380  0.52398143
   0.34598620  0.30997256  0.97601857
   0.30997256  0.34598620  0.47601857
   0.11964541  0.90284948  0.60634567
   0.09715052  0.88035459  0.89365433
   0.88035459  0.09715052  0.39365433
   0.90284948  0.11964541  0.10634567
   0.53704526  0.22177947  0.34323178
   0.57531751  0.98666126  0.13246043
   0.46295474  0.77822053  0.65676822
   0.22177947  0.53704526  0.84323178
   0.96135833  0.03864167  0.75000000
   0.03864167  0.96135833  0.25000000
   0.98666126  0.57531751  0.63246043
   0.42468249  0.01333874  0.86753957
   0.01333874  0.42468249  0.36753957
   0.34496093  0.71145153  0.43768918
   0.71145153  0.34496093  0.93768918
   0.65503907  0.28854847  0.56231082
   0.77822053  0.46295474  0.15676822
   0.28854847  0.65503907  0.06231082
CIS                                     
           1
     4.242611    5.178144    0.264937
    -4.242611    5.178144    0.264937
     0.000000    2.157136   15.476948
   Ag   Sb   S 
   4   8  14
Direct configuration=    11
   0.09077858  0.57221991  0.21111611
   0.42778009  0.90922142  0.28888389
   0.90922142  0.42778009  0.78888389
   0.57221991  0.09077858  0.71111611
   0.65400883  0.69002836  0.02398138
   0.69002836  0.65400883  0.52398138
   0.34599117  0.30997164  0.97601862
   0.30997164  0.34599117  0.47601862
   0.11964471  0.90284995  0.60634558
   0.09715005  0.88035529  0.89365442
   0.88035529  0.09715005  0.39365442
   0.90284995  0.11964471  0.10634558
   0.53704423  0.22177974  0.34323137
   0.57531641  0.98666062  0.13246064
   0.46295577  0.77822026  0.65676863
   0.22177974  0.53704423  0.84323137
   0.96135857  0.03864143  0.75000000
   0.03864143  0.96135857  0.25000000
   0.98666062  0.57531641  0.63246064
   0.42468359  0.01333938  0.86753936
   0.01333938  0.42468359  0.36753936
   0.34495957  0.71145028  0.43768930
   0.71145028  0.34495957  0.93768930
   0.65504043  0.28854972  0.56231070
   0.77822026  0.46295577  0.15676863
   0.28854972  0.65504043  0.06231070
CIS                                     
           1
     4.243436    5.178487    0.264947
    -4.243436    5.178487    0.264947
     0.000000    2.157264   15.477786
   Ag   Sb   S 
   4   8  14
Direct configuration=    12
   0.09071796  0.57225704  0.21110183
   0.42774296  0.90928204  0.28889817
   0.90928204  0.42774296  0.78889817
   0.57225704  0.09071796  0.71110183
   0.65401049  0.69004332  0.02397059
   0.69004332  0.65401049  0.52397059
   0.34598951  0.30995668  0.97602941
   0.30995668  0.34598951  0.47602941
   0.11962453  0.90288884  0.60632127
   0.09711116  0.88037547  0.89367873
   0.88037547  0.09711116  0.39367873
   0.90288884  0.11962453  0.10632127
   0.53701108  0.22179230  0.34323076
   0.57528565  0.98663641  0.13246514
   0.46298892  0.77820770  0.65676924
   0.22179230  0.53701108  0.84323076
   0.96136471  0.03863529  0.75000000
   0.03863529  0.96136471  0.25000000
   0.98663641  0.57528565  0.63246514
   0.42471435  0.01336359  0.86753486
   0.01336359  0.42471435  0.36753486
   0.34492209  0.71141388  0.43769515
   0.71141388  0.34492209  0.93769515
   0.65507791  0.28858612  0.56230485
   0.77820770  0.46298892  0.15676924
   0.28858612  0.65507791  0.06230485
CIS                                     
           1
     4.244187    5.178799    0.264955
    -4.244187    5.178799    0.264955
     0.000000    2.157380   15.478547
   Ag   Sb   S 
   4   8  14
Direct configuration=    13
   0.09066287  0.57229078  0.21108885
   0.42770922  0.90933713  0.28891115
   0.90933713  0.42770922  0.78891115
   0.57229078  0.09066287  0.71108885
   0.65401200  0.69005691  0.02396078
   0.69005691  0.65401200  0.52396078
   0.34598800  0.30994309  0.97603922
   0.30994309  0.34598800  0.47603922
   0.11960618  0.90292418  0.60629918
   0.09707582  0.88039382  0.89370082
   0.88039382  0.09707582  0.39370082
   0.90292418  0.11960618  0.10629918
   0.53698095  0.22180371  0.34323019
   0.57525770  0.98661441  0.13246923
   0.46301905  0.77819629  0.65676981
   0.22180371  0.53698095  0.84323019
   0.96137028  0.03862972  0.75000000
   0.03862972  0.96137028  0.25000000
   0.98661441  0.57525770  0.63246923
   0.42474230  0.01338559  0.86753077
   0.01338559  0.42474230  0.36753077
   0.34488803  0.71138079  0.43770047
   0.71138079  0.34488803  0.93770047
   0.65511197  0.28861921  0.56229953
   0.77819629  0.46301905  0.15676981
   0.28861921  0.65511197  0.06229953
CIS                                     
           1
     4.243859    5.178662    0.264951
    -4.243859    5.178662    0.264951
     0.000000    2.157329   15.478214
   Ag   Sb   S 
   4   8  14
Direct configuration=    14
   0.09068696  0.57227602  0.21109453
   0.42772398  0.90931304  0.28890547
   0.90931304  0.42772398  0.78890547
   0.57227602  0.09068696  0.71109453
   0.65401134  0.69005096  0.02396507
   0.69005096  0.65401134  0.52396507
   0.34598866  0.30994904  0.97603493
   0.30994904  0.34598866  0.47603493
   0.11961420  0.90290872  0.60630884
   0.09709128  0.88038580  0.89369116
   0.88038580  0.09709128  0.39369116
   0.90290872  0.11961420  0.10630884
   0.53699413  0.22179872  0.34323044
   0.57526993  0.98662403  0.13246744
   0.46300587  0.77820128  0.65676956
   0.22179872  0.53699413  0.84323044
   0.96136785  0.03863215  0.75000000
   0.03863215  0.96136785  0.25000000
   0.98662403  0.57526993  0.63246744
   0.42473007  0.01337597  0.86753256
   0.01337597  0.42473007  0.36753256
   0.34490293  0.71139526  0.43769815
   0.71139526  0.34490293  0.93769815
   0.65509707  0.28860474  0.56230185
   0.77820128  0.46300587  0.15676956
   0.28860474  0.65509707  0.06230185
CIS                                     
           1
     4.243648    5.178574    0.264949
    -4.243648    5.178574    0.264949
     0.000000    2.157297   15.478000
   Ag   Sb   S 
   4   8  14
Direct configuration=    15
   0.09070246  0.57226653  0.21109818
   0.42773347  0.90929754  0.28890182
   0.90929754  0.42773347  0.78890182
   0.57226653  0.09070246  0.71109818
   0.65401091  0.69004714  0.02396783
   0.69004714  0.65401091  0.52396783
   0.34598909  0.30995286  0.97603217
   0.30995286  0.34598909  0.47603217
   0.11961936  0.90289878  0.60631506
   0.09710122  0.88038064  0.89368494
   0.88038064  0.09710122  0.39368494
   0.90289878  0.11961936  0.10631506
   0.53700260  0.22179551  0.34323060
   0.57527779  0.98663022  0.13246629
   0.46299740  0.77820449  0.65676940
   0.22179551  0.53700260  0.84323060
   0.96136628  0.03863372  0.75000000
   0.03863372  0.96136628  0.25000000
   0.98663022  0.57527779  0.63246629
   0.42472221  0.01336978  0.86753371
   0.01336978  0.42472221  0.36753371
   0.34491251  0.71140457  0.43769665
   0.71140457  0.34491251  0.93769665
   0.65508749  0.28859543  0.56230335
   0.77820449  0.46299740  0.15676940
   0.28859543  0.65508749  0.06230335
CIS                                     
           1
     4.243542    5.178531    0.264948
    -4.243542    5.178531    0.264948
     0.000000    2.157280   15.477893
   Ag   Sb   S 
   4   8  14
Direct configuration=    16
   0.09071021  0.57226179  0.21110000
   0.42773821  0.90928979  0.28890000
   0.90928979  0.42773821  0.78890000
   0.57226179  0.09071021  0.71110000
   0.65401070  0.69004523  0.02396921
   0.69004523  0.65401070  0.52396921
   0.34598930  0.30995477  0.97603079
   0.30995477  0.34598930  0.47603079
   0.11962194  0.90289381  0.60631817
   0.09710619  0.88037806  0.89368183
   0.88037806  0.09710619  0.39368183
   0.90289381  0.11962194  0.10631817
   0.53700684  0.22179391  0.34323068
   0.57528172  0.98663331  0.13246572
   0.46299316  0.77820609  0.65676932
   0.22179391  0.53700684  0.84323068
   0.96136549  0.03863451  0.75000000
   0.03863451  0.96136549  0.25000000
   0.98663331  0.57528172  0.63246572
   0.42471828  0.01336669  0.86753428
   0.01336669  0.42471828  0.36753428
   0.34491730  0.71140922  0.43769590
   0.71140922  0.34491730  0.93769590
   0.65508270  0.28859078  0.56230410
   0.77820609  0.46299316  0.15676932
   0.28859078  0.65508270  0.06230410
CIS                                     
           1
     4.243602    5.178555    0.264949
    -4.243602    5.178555    0.264949
     0.000000    2.157290   15.477954
   Ag   Sb   S 
   4   8  14
Direct configuration=    17
   0.09070580  0.57226449  0.21109896
   0.42773551  0.90929420  0.28890104
   0.90929420  0.42773551  0.78890104
   0.57226449  0.09070580  0.71109896
   0.65401082  0.69004632  0.02396842
   0.69004632  0.65401082  0.52396842
   0.34598918  0.30995368  0.97603158
   0.30995368  0.34598918  0.47603158
   0.11962048  0.90289664  0.60631640
   0.09710336  0.88037952  0.89368360
   0.88037952  0.09710336  0.39368360
   0.90289664  0.11962048  0.10631640
   0.53700443  0.22179482  0.34323063
   0.57527948  0.98663155  0.13246604
   0.46299557  0.77820518  0.65676937
   0.22179482  0.53700443  0.84323063
   0.96136594  0.03863406  0.75000000
   0.03863406  0.96136594  0.25000000
   0.98663155  0.57527948  0.63246604
   0.42472052  0.01336845  0.86753396
   0.01336845  0.42472052  0.36753396
   0.34491458  0.71140657  0.43769633
   0.71140657  0.34491458  0.93769633
   0.65508542  0.28859343  0.56230367
   0.77820518  0.46299557  0.15676937
   0.28859343  0.65508542  0.06230367
CIS                                     
           1
     4.243572    5.178543    0.264948
    -4.243572    5.178543    0.264948
     0.000000    2.157285   15.477923
   Ag   Sb   S 
   4   8  14
Direct configuration=    18
   0.09070800  0.57226314  0.21109948
   0.42773686  0.90929200  0.28890052
   0.90929200  0.42773686  0.78890052
   0.57226314  0.09070800  0.71109948
   0.65401076  0.69004577  0.02396881
   0.69004577  0.65401076  0.52396881
   0.34598924  0.30995423  0.97603119
   0.30995423  0.34598924  0.47603119
   0.11962121  0.90289523  0.60631728
   0.09710477  0.88037879  0.89368272
   0.88037879  0.09710477  0.39368272
   0.90289523  0.11962121  0.10631728
   0.53700564  0.22179437  0.34323065
   0.57528060  0.98663243  0.13246588
   0.46299436  0.77820563  0.65676935
   0.22179437  0.53700564  0.84323065
   0.96136572  0.03863428  0.75000000
   0.03863428  0.96136572  0.25000000
   0.98663243  0.57528060  0.63246588
   0.42471940  0.01336757  0.86753412
   0.01336757  0.42471940  0.36753412
   0.34491594  0.71140790  0.43769611
   0.71140790  0.34491594  0.93769611
   0.65508406  0.28859210  0.56230389
   0.77820563  0.46299436  0.15676935
   0.28859210  0.65508406  0.06230389
CIS                                     
           1
     4.243588    5.178550    0.264948
    -4.243588    5.178550    0.264948
     0.000000    2.157287   15.477940
   Ag   Sb   S 
   4   8  14
Direct configuration=    19
   0.09070681  0.57226387  0.21109920
   0.42773613  0.90929319  0.28890080
   0.90929319  0.42773613  0.78890080
   0.57226387  0.09070681  0.71109920
   0.65401079  0.69004607  0.02396860
   0.69004607  0.65401079  0.52396860
   0.34598921  0.30995393  0.97603140
   0.30995393  0.34598921  0.47603140
   0.11962081  0.90289599  0.60631680
   0.09710401  0.88037919  0.89368320
   0.88037919  0.09710401  0.39368320
   0.90289599  0.11962081  0.10631680
   0.53700498  0.22179461  0.34323064
   0.57528000  0.98663196  0.13246597
   0.46299502  0.77820539  0.65676936
   0.22179461  0.53700498  0.84323064
   0.96136584  0.03863416  0.75000000
   0.03863416  0.96136584  0.25000000
   0.98663196  0.57528000  0.63246597
   0.42472000  0.01336804  0.86753403
   0.01336804  0.42472000  0.36753403
   0.34491520  0.71140718  0.43769623
   0.71140718  0.34491520  0.93769623
   0.65508480  0.28859282  0.56230377
   0.77820539  0.46299502  0.15676936
   0.28859282  0.65508480  0.06230377
CIS                                     
           1
     4.243885    5.178562    0.264993
    -4.243885    5.178562    0.264993
     0.000000    2.157415   15.478152
   Ag   Sb   S 
   4   8  14
Direct configuration=    20
   0.09067061  0.57228491  0.21109062
   0.42771509  0.90932939  0.28890938
   0.90932939  0.42771509  0.78890938
   0.57228491  0.09067061  0.71109062
   0.65399309  0.69004408  0.02396785
   0.69004408  0.65399309  0.52396785
   0.34600691  0.30995592  0.97603215
   0.30995592  0.34600691  0.47603215
   0.11960948  0.90289904  0.60630517
   0.09710096  0.88039052  0.89369483
   0.88039052  0.09710096  0.39369483
   0.90289904  0.11960948  0.10630517
   0.53698423  0.22180236  0.34323196
   0.57526372  0.98661737  0.13246816
   0.46301577  0.77819764  0.65676804
   0.22180236  0.53698423  0.84323196
   0.96136943  0.03863057  0.75000000
   0.03863057  0.96136943  0.25000000
   0.98661737  0.57526372  0.63246816
   0.42473628  0.01338263  0.86753184
   0.01338263  0.42473628  0.36753184
   0.34489402  0.71138640  0.43769992
   0.71138640  0.34489402  0.93769992
   0.65510598  0.28861360  0.56230008
   0.77819764  0.46301577  0.15676804
   0.28861360  0.65510598  0.06230008
CIS                                     
           1
     4.244240    5.178577    0.265047
    -4.244240    5.178577    0.265047
     0.000000    2.157569   15.478407
   Ag   Sb   S 
   4   8  14
Direct configuration=    21
   0.09062721  0.57231015  0.21108033
   0.42768985  0.90937279  0.28891967
   0.90937279  0.42768985  0.78891967
   0.57231015  0.09062721  0.71108033
   0.65397186  0.69004169  0.02396694
   0.69004169  0.65397186  0.52396694
   0.34602814  0.30995831  0.97603306
   0.30995831  0.34602814  0.47603306
   0.11959590  0.90290271  0.60629123
   0.09709729  0.88040410  0.89370877
   0.88040410  0.09709729  0.39370877
   0.90290271  0.11959590  0.10629123
   0.53695934  0.22181166  0.34323355
   0.57524420  0.98659987  0.13247080
   0.46304066  0.77818834  0.65676645
   0.22181166  0.53695934  0.84323355
   0.96137374  0.03862626  0.75000000
   0.03862626  0.96137374  0.25000000
   0.98659987  0.57524420  0.63247080
   0.42475580  0.01340013  0.86752920
   0.01340013  0.42475580  0.36752920
   0.34486863  0.71136148  0.43770435
   0.71136148  0.34486863  0.93770435
   0.65513137  0.28863852  0.56229565
   0.77818834  0.46304066  0.15676645
   0.28863852  0.65513137  0.06229565
CIS                                     
           1
     4.244528    5.178581    0.265043
    -4.244528    5.178581    0.265043
     0.000000    2.157555   15.478487
   Ag   Sb   S 
   4   8  14
Direct configuration=    22
   0.09058458  0.57233429  0.21107024
   0.42766571  0.90941542  0.28892976
   0.90941542  0.42766571  0.78892976
   0.57233429  0.09058458  0.71107024
   0.65396978  0.69004060  0.02396383
   0.69004060  0.65396978  0.52396383
   0.34603022  0.30995940  0.97603617
   0.30995940  0.34603022  0.47603617
   0.11959335  0.90288335  0.60628642
   0.09711665  0.88040665  0.89371358
   0.88040665  0.09711665  0.39371358
   0.90288335  0.11959335  0.10628642
   0.53693631  0.22182024  0.34323651
   0.57522654  0.98658256  0.13247270
   0.46306369  0.77817976  0.65676349
   0.22182024  0.53693631  0.84323651
   0.96137811  0.03862189  0.75000000
   0.03862189  0.96137811  0.25000000
   0.98658256  0.57522654  0.63247270
   0.42477346  0.01341744  0.86752730
   0.01341744  0.42477346  0.36752730
   0.34484380  0.71133882  0.43770856
   0.71133882  0.34484380  0.93770856
   0.65515620  0.28866118  0.56229144
   0.77817976  0.46306369  0.15676349
   0.28866118  0.65515620  0.06229144
CIS                                     
           1
     4.245389    5.178590    0.265031
    -4.245389    5.178590    0.265031
     0.000000    2.157512   15.478730
   Ag   Sb   S 
   4   8  14
Direct configuration=    23
   0.09045672  0.57240672  0.21103995
   0.42759328  0.90954328  0.28896005
   0.90954328  0.42759328  0.78896005
   0.57240672  0.09045672  0.71103995
   0.65396353  0.69003735  0.02395449
   0.69003735  0.65396353  0.52395449
   0.34603647  0.30996265  0.97604551
   0.30996265  0.34603647  0.47604551
   0.11958572  0.90282527  0.60627197
   0.09717473  0.88041428  0.89372803
   0.88041428  0.09717473  0.39372803
   0.90282527  0.11958572  0.10627197
   0.53686721  0.22184598  0.34324541
   0.57517353  0.98653065  0.13247841
   0.46313279  0.77815402  0.65675459
   0.22184598  0.53686721  0.84324541
   0.96139120  0.03860880  0.75000000
   0.03860880  0.96139120  0.25000000
   0.98653065  0.57517353  0.63247841
   0.42482647  0.01346935  0.86752159
   0.01346935  0.42482647  0.36752159
   0.34476933  0.71127084  0.43772118
   0.71127084  0.34476933  0.93772118
   0.65523067  0.28872916  0.56227882
   0.77815402  0.46313279  0.15675459
   0.28872916  0.65523067  0.06227882
CIS                                     
           1
     4.247113    5.178609    0.265009
    -4.247113    5.178609    0.265009
     0.000000    2.157427   15.479215
   Ag   Sb   S 
   4   8  14
Direct configuration=    24
   0.09020103  0.57255151  0.21097936
   0.42744849  0.90979897  0.28902064
   0.90979897  0.42744849  0.78902064
   0.57255151  0.09020103  0.71097936
   0.65395102  0.69003084  0.02393580
   0.69003084  0.65395102  0.52393580
   0.34604898  0.30996916  0.97606420
   0.30996916  0.34604898  0.47606420
   0.11957044  0.90270912  0.60624308
   0.09729088  0.88042956  0.89375692
   0.88042956  0.09729088  0.39375692
   0.90270912  0.11957044  0.10624308
   0.53672903  0.22189745  0.34326320
   0.57506753  0.98642683  0.13248983
   0.46327097  0.77810255  0.65673680
   0.22189745  0.53672903  0.84326320
   0.96141739  0.03858261  0.75000000
   0.03858261  0.96141739  0.25000000
   0.98642683  0.57506753  0.63248983
   0.42493247  0.01357317  0.86751017
   0.01357317  0.42493247  0.36751017
   0.34462039  0.71113487  0.43774642
   0.71113487  0.34462039  0.93774642
   0.65537961  0.28886513  0.56225358
   0.77810255  0.46327097  0.15673680
   0.28886513  0.65537961  0.06225358
CIS                                     
           1
     4.247495    5.178372    0.264926
    -4.247495    5.178372    0.264926
     0.000000    2.157125   15.478343
   Ag   Sb   S 
   4   8  14
Direct configuration=    25
   0.09010499  0.57260581  0.21095606
   0.42739419  0.90989501  0.28904394
   0.90989501  0.42739419  0.78904394
   0.57260581  0.09010499  0.71095606
   0.65394810  0.69005009  0.02393367
   0.69005009  0.65394810  0.52393367
   0.34605190  0.30994991  0.97606633
   0.30994991  0.34605190  0.47606633
   0.11959549  0.90268840  0.60622896
   0.09731160  0.88040451  0.89377104
   0.88040451  0.09731160  0.39377104
   0.90268840  0.11959549  0.10622896
   0.53668734  0.22191383  0.34327287
   0.57502920  0.98638479  0.13249073
   0.46331266  0.77808617  0.65672713
   0.22191383  0.53668734  0.84327287
   0.96142989  0.03857011  0.75000000