  44  44   1   0
  0.2813856E+02  0.4113756E-09  0.1710449E-08  0.1759567E-08  0.1000000E-15
  1.000000000000000E-004
  CAR 
 CIS                                     
      6.97913756    -12.34252812  301      2.21513937      1.00000000
    -12.343  0.0000E+00  0.0000E+00
    -12.278  0.0000E+00  0.0000E+00
    -12.214  0.0000E+00  0.0000E+00
    -12.149  0.0000E+00  0.0000E+00
    -12.085  0.0000E+00  0.0000E+00
    -12.021  0.0000E+00  0.0000E+00
    -11.956  0.0000E+00  0.0000E+00
    -11.892  0.0000E+00  0.0000E+00
    -11.827  0.0000E+00  0.0000E+00
    -11.763  0.0000E+00  0.0000E+00
    -11.698  0.1150E-11  0.7406E-13
    -11.634  0.5442E-07  0.3505E-08
    -11.570  0.1105E-03  0.7122E-05
    -11.505  0.1114E-01  0.7247E-03
    -11.441  0.7273E-01  0.5409E-02
    -11.376  0.3983E-01  0.7974E-02
    -11.312  0.2451E-02  0.8132E-02
    -11.248  0.4250E-01  0.1087E-01
    -11.183  0.1571E+00  0.2099E-01
    -11.119  0.4951E-01  0.2418E-01
    -11.054  0.8062E-02  0.2469E-01
    -10.990  0.5548E-01  0.2827E-01
    -10.926  0.5580E-01  0.3186E-01
    -10.861  0.8075E-02  0.3238E-01
    -10.797  0.3841E-01  0.3486E-01
    -10.732  0.1421E+00  0.4401E-01
    -10.668  0.1180E+00  0.5161E-01
    -10.604  0.1499E+00  0.6126E-01
    -10.539  0.2142E+00  0.7505E-01
    -10.475  0.1271E+00  0.8324E-01
    -10.410  0.1670E+00  0.9399E-01
    -10.346  0.1400E+00  0.1030E+00
    -10.282  0.1236E+00  0.1110E+00
    -10.217  0.1204E+00  0.1187E+00
    -10.153  0.1420E+00  0.1279E+00
    -10.088  0.2417E-01  0.1294E+00
    -10.024  0.8033E-01  0.1346E+00
     -9.960  0.3146E+00  0.1549E+00
     -9.895  0.4156E+00  0.1816E+00
     -9.831  0.3735E+00  0.2057E+00
     -9.766  0.2686E+00  0.2230E+00
     -9.702  0.3908E+00  0.2481E+00
     -9.637  0.5675E+00  0.2847E+00
     -9.573  0.4236E+00  0.3120E+00
     -9.509  0.3606E+00  0.3352E+00
     -9.444  0.4491E+00  0.3641E+00
     -9.380  0.5046E+00  0.3966E+00
     -9.315  0.1124E+00  0.4039E+00
     -9.251  0.2563E-02  0.4040E+00
     -9.187  0.3866E-05  0.4040E+00
     -9.122  0.2880E-09  0.4040E+00
     -9.058  0.9054E-15  0.4040E+00
     -8.993  0.0000E+00  0.4040E+00
     -8.929  0.0000E+00  0.4040E+00
     -8.865  0.0000E+00  0.4040E+00
     -8.800  0.0000E+00  0.4040E+00
     -8.736  0.0000E+00  0.4040E+00
     -8.671  0.0000E+00  0.4040E+00
     -8.607  0.0000E+00  0.4040E+00
     -8.543  0.0000E+00  0.4040E+00
     -8.478  0.0000E+00  0.4040E+00
     -8.414  0.4123E-14  0.4040E+00
     -8.349  0.1010E-08  0.4040E+00
     -8.285  0.9938E-05  0.4040E+00
     -8.221  0.4352E-02  0.4043E+00
     -8.156  0.1124E+00  0.4116E+00
     -8.092  0.2857E+00  0.4300E+00
     -8.027  0.9609E-01  0.4362E+00
     -7.963  0.3372E-02  0.4364E+00
     -7.899  0.1158E-01  0.4371E+00
     -7.834  0.1226E+00  0.4450E+00
     -7.770  0.2050E+00  0.4582E+00
     -7.705  0.2284E+00  0.4729E+00
     -7.641  0.2460E+00  0.4888E+00
     -7.577  0.8698E-01  0.4944E+00
     -7.512  0.1895E+00  0.5066E+00
     -7.448  0.1713E+00  0.5176E+00
     -7.383  0.1271E+00  0.5258E+00
     -7.319  0.1052E+00  0.5326E+00
     -7.254  0.4497E-01  0.5355E+00
     -7.190  0.5424E-01  0.5390E+00
     -7.126  0.3504E-01  0.5412E+00
     -7.061  0.1527E-01  0.5422E+00
     -6.997  0.1145E+00  0.5496E+00
     -6.932  0.1129E+00  0.5568E+00
     -6.868  0.1905E-01  0.5581E+00
     -6.804  0.5672E-01  0.5617E+00
     -6.739  0.5449E-01  0.5652E+00
     -6.675  0.6639E-02  0.5657E+00
     -6.610  0.5980E-04  0.5657E+00
     -6.546  0.2593E-07  0.5657E+00
     -6.482  0.4609E-12  0.5657E+00
     -6.417  0.0000E+00  0.5657E+00
     -6.353  0.0000E+00  0.5657E+00
     -6.288  0.0000E+00  0.5657E+00
     -6.224  0.0000E+00  0.5657E+00
     -6.160  0.0000E+00  0.5657E+00
     -6.095  0.0000E+00  0.5657E+00
     -6.031  0.0000E+00  0.5657E+00
     -5.966  0.0000E+00  0.5657E+00
     -5.902  0.0000E+00  0.5657E+00
     -5.838  0.0000E+00  0.5657E+00
     -5.773  0.0000E+00  0.5657E+00
     -5.709  0.0000E+00  0.5657E+00
     -5.644  0.0000E+00  0.5657E+00
     -5.580  0.0000E+00  0.5657E+00
     -5.516  0.0000E+00  0.5657E+00
     -5.451  0.0000E+00  0.5657E+00
     -5.387  0.0000E+00  0.5657E+00
     -5.322  0.0000E+00  0.5657E+00
     -5.258  0.0000E+00  0.5657E+00
     -5.194  0.0000E+00  0.5657E+00
     -5.129  0.0000E+00  0.5657E+00
     -5.065  0.0000E+00  0.5657E+00
     -5.000  0.0000E+00  0.5657E+00
     -4.936  0.0000E+00  0.5657E+00
     -4.871  0.0000E+00  0.5657E+00
     -4.807  0.0000E+00  0.5657E+00
     -4.743  0.0000E+00  0.5657E+00
     -4.678  0.0000E+00  0.5657E+00
     -4.614  0.0000E+00  0.5657E+00
     -4.549  0.0000E+00  0.5657E+00
     -4.485  0.0000E+00  0.5657E+00
     -4.421  0.0000E+00  0.5657E+00
     -4.356  0.0000E+00  0.5657E+00
     -4.292  0.0000E+00  0.5657E+00
     -4.227  0.0000E+00  0.5657E+00
     -4.163  0.0000E+00  0.5657E+00
     -4.099  0.0000E+00  0.5657E+00
     -4.034  0.0000E+00  0.5657E+00
     -3.970  0.0000E+00  0.5657E+00
     -3.905  0.0000E+00  0.5657E+00
     -3.841  0.0000E+00  0.5657E+00
     -3.777  0.0000E+00  0.5657E+00
     -3.712  0.0000E+00  0.5657E+00
     -3.648  0.0000E+00  0.5657E+00
     -3.583  0.0000E+00  0.5657E+00
     -3.519  0.0000E+00  0.5657E+00
     -3.455  0.0000E+00  0.5657E+00
     -3.390  0.0000E+00  0.5657E+00
     -3.326  0.0000E+00  0.5657E+00
     -3.261  0.0000E+00  0.5657E+00
     -3.197  0.0000E+00  0.5657E+00
     -3.133  0.0000E+00  0.5657E+00
     -3.068  0.0000E+00  0.5657E+00
     -3.004  0.0000E+00  0.5657E+00
     -2.939  0.0000E+00  0.5657E+00
     -2.875  0.0000E+00  0.5657E+00
     -2.811  0.0000E+00  0.5657E+00
     -2.746  0.1104E-14  0.5657E+00
     -2.682  0.2703E-09  0.5657E+00
     -2.617  0.2624E-05  0.5657E+00
     -2.553  0.1109E-02  0.5657E+00
     -2.488  0.2708E-01  0.5675E+00
     -2.424  0.7044E-01  0.5720E+00
     -2.360  0.6507E-01  0.5762E+00
     -2.295  0.1411E+00  0.5853E+00
     -2.231  0.2521E+00  0.6015E+00
     -2.166  0.2583E+00  0.6182E+00
     -2.102  0.6155E-01  0.6221E+00
     -2.038  0.1604E-02  0.6222E+00
     -1.973  0.5802E-02  0.6226E+00
     -1.909  0.8259E-01  0.6279E+00
     -1.844  0.1625E+00  0.6384E+00
     -1.780  0.1379E+00  0.6473E+00
     -1.716  0.9631E-01  0.6535E+00
     -1.651  0.2581E-01  0.6551E+00
     -1.587  0.1661E+00  0.6658E+00
     -1.522  0.4197E+00  0.6929E+00
     -1.458  0.4240E+00  0.7202E+00
     -1.394  0.2270E+00  0.7348E+00
     -1.329  0.2640E+00  0.7518E+00
     -1.265  0.2733E+00  0.7694E+00
     -1.200  0.2444E+00  0.7851E+00
     -1.136  0.2962E+00  0.8042E+00
     -1.072  0.2782E+00  0.8221E+00
     -1.007  0.3192E+00  0.8427E+00
     -0.943  0.1430E+00  0.8519E+00
     -0.878  0.1765E+00  0.8633E+00
     -0.814  0.2280E+00  0.8779E+00
     -0.750  0.1829E+00  0.8897E+00
     -0.685  0.1804E+00  0.9013E+00
     -0.621  0.1316E+00  0.9098E+00
     -0.556  0.1641E+00  0.9204E+00
     -0.492  0.3123E+00  0.9405E+00
     -0.428  0.4989E+00  0.9726E+00
     -0.363  0.3622E+00  0.9960E+00
     -0.299  0.2386E+00  0.1011E+01
     -0.234  0.3007E+00  0.1031E+01
     -0.170  0.2878E+00  0.1049E+01
     -0.105  0.1711E+00  0.1060E+01
     -0.041  0.1970E+00  0.1073E+01
      0.023  0.3069E+00  0.1093E+01
      0.088  0.3333E+00  0.1114E+01
      0.152  0.3155E+00  0.1134E+01
      0.217  0.3500E+00  0.1157E+01
      0.281  0.3687E+00  0.1181E+01
      0.345  0.3506E+00  0.1203E+01
      0.410  0.4109E+00  0.1230E+01
      0.474  0.4307E+00  0.1258E+01
      0.539  0.5491E+00  0.1293E+01
      0.603  0.4211E+00  0.1320E+01
      0.667  0.2500E+00  0.1336E+01
      0.732  0.3751E+00  0.1360E+01
      0.796  0.4425E+00  0.1389E+01
      0.861  0.4905E+00  0.1420E+01
      0.925  0.4581E+00  0.1450E+01
      0.989  0.3111E+00  0.1470E+01
      1.054  0.4078E+00  0.1496E+01
      1.118  0.5202E+00  0.1530E+01
      1.183  0.4777E+00  0.1560E+01
      1.247  0.2996E+00  0.1580E+01
      1.311  0.3107E+00  0.1600E+01
      1.376  0.4372E+00  0.1628E+01
      1.440  0.4519E+00  0.1657E+01
      1.505  0.3746E+00  0.1681E+01
      1.569  0.2843E+00  0.1699E+01
      1.633  0.2831E+00  0.1718E+01
      1.698  0.2023E+00  0.1731E+01
      1.762  0.1261E+00  0.1739E+01
      1.827  0.1841E+00  0.1751E+01
      1.891  0.2123E+00  0.1764E+01
      1.956  0.1689E+00  0.1775E+01
      2.020  0.3814E-01  0.1778E+01
      2.084  0.9916E-03  0.1778E+01
      2.149  0.1767E-05  0.1778E+01
      2.213  0.1481E-09  0.1778E+01
      2.278  0.5015E-15  0.1778E+01
      2.342  0.0000E+00  0.1778E+01
      2.406  0.0000E+00  0.1778E+01
      2.471  0.0000E+00  0.1778E+01
      2.535  0.0000E+00  0.1778E+01
      2.600  0.0000E+00  0.1778E+01
      2.664  0.0000E+00  0.1778E+01
      2.728  0.0000E+00  0.1778E+01
      2.793  0.0000E+00  0.1778E+01
      2.857  0.0000E+00  0.1778E+01
      2.922  0.0000E+00  0.1778E+01
      2.986  0.0000E+00  0.1778E+01
      3.050  0.0000E+00  0.1778E+01
      3.115  0.0000E+00  0.1778E+01
      3.179  0.0000E+00  0.1778E+01
      3.244  0.0000E+00  0.1778E+01
      3.308  0.0000E+00  0.1778E+01
      3.372  0.3482E-17  0.1778E+01
      3.437  0.3275E-11  0.1778E+01
      3.501  0.1099E-06  0.1778E+01
      3.566  0.1520E-03  0.1778E+01
      3.630  0.1004E-01  0.1778E+01
      3.694  0.5170E-01  0.1782E+01
      3.759  0.7832E-01  0.1787E+01
      3.823  0.6095E-01  0.1791E+01
      3.888  0.9619E-01  0.1797E+01
      3.952  0.2548E+00  0.1813E+01
      4.016  0.2789E+00  0.1831E+01
      4.081  0.2552E+00  0.1848E+01
      4.145  0.2596E+00  0.1864E+01
      4.210  0.1852E+00  0.1876E+01
      4.274  0.2773E+00  0.1894E+01
      4.339  0.3115E+00  0.1914E+01
      4.403  0.1869E+00  0.1926E+01
      4.467  0.1202E+00  0.1934E+01
      4.532  0.1441E+00  0.1943E+01
      4.596  0.2783E+00  0.1961E+01
      4.661  0.2672E+00  0.1978E+01
      4.725  0.3533E+00  0.2001E+01
      4.789  0.4432E+00  0.2030E+01
      4.854  0.2222E+00  0.2044E+01
      4.918  0.1873E+00  0.2056E+01
      4.983  0.2415E+00  0.2072E+01
      5.047  0.3362E+00  0.2093E+01
      5.111  0.3612E+00  0.2117E+01
      5.176  0.2917E+00  0.2135E+01
      5.240  0.3504E+00  0.2158E+01
      5.305  0.2449E+00  0.2174E+01
      5.369  0.1711E+00  0.2185E+01
      5.433  0.7780E-01  0.2190E+01
      5.498  0.7553E-01  0.2195E+01
      5.562  0.1502E+00  0.2204E+01
      5.627  0.2657E-01  0.2206E+01
      5.691  0.1822E-02  0.2206E+01
      5.755  0.3687E-01  0.2209E+01
      5.820  0.1532E+00  0.2218E+01
      5.884  0.1142E+00  0.2226E+01
      5.949  0.3424E-01  0.2228E+01
      6.013  0.1325E+00  0.2236E+01
      6.077  0.2402E+00  0.2252E+01
      6.142  0.1480E+00  0.2261E+01
      6.206  0.1733E-01  0.2263E+01
      6.271  0.1834E-03  0.2263E+01
      6.335  0.9849E-07  0.2263E+01
      6.399  0.2190E-11  0.2263E+01
      6.464  0.0000E+00  0.2263E+01
      6.528  0.0000E+00  0.2263E+01
      6.593  0.0000E+00  0.2263E+01
      6.657  0.0000E+00  0.2263E+01
      6.722  0.0000E+00  0.2263E+01
      6.786  0.0000E+00  0.2263E+01
      6.850  0.0000E+00  0.2263E+01
      6.915  0.0000E+00  0.2263E+01
      6.979  0.0000E+00  0.2263E+01
      6.97913756    -12.34252812  301      2.21513937      1.00000000
    -12.343  0.0000E+00  0.0000E+00  0.0000E+00
    -12.278  0.0000E+00  0.0000E+00  0.0000E+00
    -12.214  0.0000E+00  0.0000E+00  0.0000E+00
    -12.149  0.0000E+00  0.0000E+00  0.0000E+00
    -12.085  0.0000E+00  0.0000E+00  0.0000E+00
    -12.021  0.0000E+00  0.0000E+00  0.0000E+00
    -11.956  0.0000E+00  0.0000E+00  0.0000E+00
    -11.892  0.0000E+00  0.0000E+00  0.0000E+00
    -11.827  0.0000E+00  0.0000E+00  0.0000E+00
    -11.763  0.0000E+00  0.0000E+00  0.0000E+00
    -11.698  0.5089E-13  0.1466E-13  0.0000E+00
    -11.634  0.2406E-08  0.6967E-09  0.0000E+00
    -11.570  0.4875E-05  0.1425E-05  0.0000E+00
    -11.505  0.4899E-03  0.1452E-03  0.0000E+00
    -11.441  0.3186E-02  0.9597E-03  0.0000E+00
    -11.376  0.1739E-02  0.5319E-03  0.0000E+00
    -11.312  0.1015E-03  0.3651E-04  0.0000E+00
    -11.248  0.1569E-02  0.7616E-03  0.0000E+00
    -11.183  0.5775E-02  0.2843E-02  0.0000E+00
    -11.119  0.1810E-02  0.9041E-03  0.0000E+00
    -11.054  0.1224E-03  0.1139E-03  0.0000E+00
    -10.990  0.6072E-03  0.7230E-03  0.0000E+00
    -10.926  0.5341E-03  0.6910E-03  0.0000E+00
    -10.861  0.7260E-04  0.9955E-04  0.0000E+00
    -10.797  0.4106E-03  0.5630E-03  0.0000E+00
    -10.732  0.1352E-02  0.1973E-02  0.0000E+00
    -10.668  0.9457E-03  0.1587E-02  0.0000E+00
    -10.604  0.1523E-02  0.3746E-02  0.0000E+00
    -10.539  0.2959E-02  0.5755E-02  0.0000E+00
    -10.475  0.2495E-02  0.1641E-02  0.0000E+00
    -10.410  0.1626E-02  0.2478E-02  0.0000E+00
    -10.346  0.1092E-02  0.1477E-02  0.0000E+00
    -10.282  0.3248E-02  0.9325E-03  0.0000E+00
    -10.217  0.1986E-02  0.3051E-02  0.0000E+00
    -10.153  0.9006E-03  0.4358E-02  0.0000E+00
    -10.088  0.1473E-03  0.7081E-03  0.0000E+00
    -10.024  0.1121E-02  0.2368E-02  0.0000E+00
     -9.960  0.5272E-02  0.8292E-02  0.0000E+00
     -9.895  0.6480E-02  0.1183E-01  0.0000E+00
     -9.831  0.5470E-02  0.1110E-01  0.0000E+00
     -9.766  0.1764E-02  0.5603E-02  0.0000E+00
     -9.702  0.2053E-02  0.5658E-02  0.0000E+00
     -9.637  0.2520E-02  0.6567E-02  0.0000E+00
     -9.573  0.1921E-02  0.4606E-02  0.0000E+00
     -9.509  0.1302E-02  0.4358E-02  0.0000E+00
     -9.444  0.2427E-02  0.5473E-02  0.0000E+00
     -9.380  0.3443E-02  0.6575E-02  0.0000E+00
     -9.315  0.6242E-03  0.1332E-02  0.0000E+00
     -9.251  0.9362E-05  0.2512E-04  0.0000E+00
     -9.187  0.8080E-08  0.3110E-07  0.0000E+00
     -9.122  0.3466E-12  0.2023E-11  0.0000E+00
     -9.058  0.7294E-18  0.5963E-17  0.0000E+00
     -8.993  0.0000E+00  0.0000E+00  0.0000E+00
     -8.929  0.0000E+00  0.0000E+00  0.0000E+00
     -8.865  0.0000E+00  0.0000E+00  0.0000E+00
     -8.800  0.0000E+00  0.0000E+00  0.0000E+00
     -8.736  0.0000E+00  0.0000E+00  0.0000E+00
     -8.671  0.0000E+00  0.0000E+00  0.0000E+00
     -8.607  0.0000E+00  0.0000E+00  0.0000E+00
     -8.543  0.0000E+00  0.0000E+00  0.0000E+00
     -8.478  0.0000E+00  0.0000E+00  0.0000E+00
     -8.414  0.2623E-16  0.1274E-16  0.0000E+00
     -8.349  0.6047E-11  0.2950E-11  0.0000E+00
     -8.285  0.5534E-07  0.2749E-07  0.0000E+00
     -8.221  0.2184E-04  0.1184E-04  0.0000E+00
     -8.156  0.4582E-03  0.3443E-03  0.0000E+00
     -8.092  0.7562E-03  0.1120E-02  0.0000E+00
     -8.027  0.1388E-03  0.4451E-03  0.0000E+00
     -7.963  0.3596E-05  0.1568E-04  0.0000E+00
     -7.899  0.3658E-04  0.4289E-04  0.0000E+00
     -7.834  0.3406E-03  0.4410E-03  0.0000E+00
     -7.770  0.5592E-03  0.6986E-03  0.0000E+00
     -7.705  0.5795E-03  0.1178E-02  0.0000E+00
     -7.641  0.3169E-03  0.1845E-02  0.0000E+00
     -7.577  0.9876E-04  0.6523E-03  0.0000E+00
     -7.512  0.4075E-03  0.1894E-02  0.0000E+00
     -7.448  0.5200E-03  0.1490E-02  0.0000E+00
     -7.383  0.8306E-03  0.5149E-03  0.0000E+00
     -7.319  0.8741E-03  0.4450E-03  0.0000E+00
     -7.254  0.4174E-03  0.1483E-03  0.0000E+00
     -7.190  0.6336E-03  0.1846E-03  0.0000E+00
     -7.126  0.4993E-03  0.1468E-03  0.0000E+00
     -7.061  0.3780E-03  0.1360E-03  0.0000E+00
     -6.997  0.3202E-02  0.1146E-02  0.0000E+00
     -6.932  0.3228E-02  0.1110E-02  0.0000E+00
     -6.868  0.7143E-03  0.1548E-03  0.0000E+00
     -6.804  0.2900E-02  0.3142E-03  0.0000E+00
     -6.739  0.2860E-02  0.2847E-03  0.0000E+00
     -6.675  0.3539E-03  0.3342E-04  0.0000E+00
     -6.610  0.3201E-05  0.2981E-06  0.0000E+00
     -6.546  0.1389E-08  0.1291E-09  0.0000E+00
     -6.482  0.2469E-13  0.2294E-14  0.0000E+00
     -6.417  0.0000E+00  0.0000E+00  0.0000E+00
     -6.353  0.0000E+00  0.0000E+00  0.0000E+00
     -6.288  0.0000E+00  0.0000E+00  0.0000E+00
     -6.224  0.0000E+00  0.0000E+00  0.0000E+00
     -6.160  0.0000E+00  0.0000E+00  0.0000E+00
     -6.095  0.0000E+00  0.0000E+00  0.0000E+00
     -6.031  0.0000E+00  0.0000E+00  0.0000E+00
     -5.966  0.0000E+00  0.0000E+00  0.0000E+00
     -5.902  0.0000E+00  0.0000E+00  0.0000E+00
     -5.838  0.0000E+00  0.0000E+00  0.0000E+00
     -5.773  0.0000E+00  0.0000E+00  0.0000E+00
     -5.709  0.0000E+00  0.0000E+00  0.0000E+00
     -5.644  0.0000E+00  0.0000E+00  0.0000E+00
     -5.580  0.0000E+00  0.0000E+00  0.0000E+00
     -5.516  0.0000E+00  0.0000E+00  0.0000E+00
     -5.451  0.0000E+00  0.0000E+00  0.0000E+00
     -5.387  0.0000E+00  0.0000E+00  0.0000E+00
     -5.322  0.0000E+00  0.0000E+00  0.0000E+00
     -5.258  0.0000E+00  0.0000E+00  0.0000E+00
     -5.194  0.0000E+00  0.0000E+00  0.0000E+00
     -5.129  0.0000E+00  0.0000E+00  0.0000E+00
     -5.065  0.0000E+00  0.0000E+00  0.0000E+00
     -5.000  0.0000E+00  0.0000E+00  0.0000E+00
     -4.936  0.0000E+00  0.0000E+00  0.0000E+00
     -4.871  0.0000E+00  0.0000E+00  0.0000E+00
     -4.807  0.0000E+00  0.0000E+00  0.0000E+00
     -4.743  0.0000E+00  0.0000E+00  0.0000E+00
     -4.678  0.0000E+00  0.0000E+00  0.0000E+00
     -4.614  0.0000E+00  0.0000E+00  0.0000E+00
     -4.549  0.0000E+00  0.0000E+00  0.0000E+00
     -4.485  0.0000E+00  0.0000E+00  0.0000E+00
     -4.421  0.0000E+00  0.0000E+00  0.0000E+00
     -4.356  0.0000E+00  0.0000E+00  0.0000E+00
     -4.292  0.0000E+00  0.0000E+00  0.0000E+00
     -4.227  0.0000E+00  0.0000E+00  0.0000E+00
     -4.163  0.0000E+00  0.0000E+00  0.0000E+00
     -4.099  0.0000E+00  0.0000E+00  0.0000E+00
     -4.034  0.0000E+00  0.0000E+00  0.0000E+00
     -3.970  0.0000E+00  0.0000E+00  0.0000E+00
     -3.905  0.0000E+00  0.0000E+00  0.0000E+00
     -3.841  0.0000E+00  0.0000E+00  0.0000E+00
     -3.777  0.0000E+00  0.0000E+00  0.0000E+00
     -3.712  0.0000E+00  0.0000E+00  0.0000E+00
     -3.648  0.0000E+00  0.0000E+00  0.0000E+00
     -3.583  0.0000E+00  0.0000E+00  0.0000E+00
     -3.519  0.0000E+00  0.0000E+00  0.0000E+00
     -3.455  0.0000E+00  0.0000E+00  0.0000E+00
     -3.390  0.0000E+00  0.0000E+00  0.0000E+00
     -3.326  0.0000E+00  0.0000E+00  0.0000E+00
     -3.261  0.0000E+00  0.0000E+00  0.0000E+00
     -3.197  0.0000E+00  0.0000E+00  0.0000E+00
     -3.133  0.0000E+00  0.0000E+00  0.0000E+00
     -3.068  0.0000E+00  0.0000E+00  0.0000E+00
     -3.004  0.0000E+00  0.0000E+00  0.0000E+00
     -2.939  0.0000E+00  0.0000E+00  0.0000E+00
     -2.875  0.0000E+00  0.0000E+00  0.0000E+00
     -2.811  0.0000E+00  0.0000E+00  0.0000E+00
     -2.746  0.7074E-18  0.1131E-15  0.0000E+00
     -2.682  0.1732E-12  0.2769E-10  0.0000E+00
     -2.617  0.1682E-08  0.2688E-06  0.0000E+00
     -2.553  0.7137E-06  0.1132E-03  0.0000E+00
     -2.488  0.1789E-04  0.2705E-02  0.0000E+00
     -2.424  0.1140E-03  0.6694E-02  0.0000E+00
     -2.360  0.2159E-02  0.9149E-02  0.0000E+00
     -2.295  0.6918E-02  0.2256E-01  0.0000E+00
     -2.231  0.1701E-01  0.3460E-01  0.0000E+00
     -2.166  0.1888E-01  0.3024E-01  0.0000E+00
     -2.102  0.5318E-02  0.6911E-02  0.0000E+00
     -2.038  0.1678E-03  0.1902E-03  0.0000E+00
     -1.973  0.1899E-04  0.3864E-03  0.0000E+00
     -1.909  0.7725E-03  0.4997E-02  0.0000E+00
     -1.844  0.3798E-02  0.7898E-02  0.0000E+00
     -1.780  0.4511E-02  0.6506E-02  0.0000E+00
     -1.716  0.3132E-02  0.4875E-02  0.0000E+00
     -1.651  0.8501E-03  0.1228E-02  0.0000E+00
     -1.587  0.8083E-02  0.9879E-02  0.0000E+00
     -1.522  0.3153E-01  0.3400E-01  0.0000E+00
     -1.458  0.2894E-01  0.3150E-01  0.0000E+00
     -1.394  0.1055E-01  0.1591E-01  0.0000E+00
     -1.329  0.1333E-01  0.1942E-01  0.0000E+00
     -1.265  0.1173E-01  0.1556E-01  0.0000E+00
     -1.200  0.7305E-02  0.9031E-02  0.0000E+00
     -1.136  0.1742E-01  0.8001E-02  0.0000E+00
     -1.072  0.2052E-01  0.7230E-02  0.0000E+00
     -1.007  0.2644E-01  0.7343E-02  0.0000E+00
     -0.943  0.1541E-01  0.3465E-02  0.0000E+00
     -0.878  0.1138E-01  0.6489E-02  0.0000E+00
     -0.814  0.1074E-01  0.8884E-02  0.0000E+00
     -0.750  0.1117E-01  0.7268E-02  0.0000E+00
     -0.685  0.6128E-02  0.5042E-02  0.0000E+00
     -0.621  0.4364E-02  0.2316E-02  0.0000E+00
     -0.556  0.1477E-01  0.5221E-02  0.0000E+00
     -0.492  0.2421E-01  0.1617E-01  0.0000E+00
     -0.428  0.3468E-01  0.2943E-01  0.0000E+00
     -0.363  0.1942E-01  0.1681E-01  0.0000E+00
     -0.299  0.1675E-01  0.9332E-02  0.0000E+00
     -0.234  0.2199E-01  0.1197E-01  0.0000E+00
     -0.170  0.2994E-01  0.1444E-01  0.0000E+00
     -0.105  0.2807E-01  0.9017E-02  0.0000E+00
     -0.041  0.3507E-01  0.6518E-02  0.0000E+00
      0.023  0.6396E-01  0.1944E-01  0.0000E+00
      0.088  0.8461E-01  0.2039E-01  0.0000E+00
      0.152  0.4946E-01  0.2335E-01  0.0000E+00
      0.217  0.4618E-01  0.4851E-01  0.0000E+00
      0.281  0.3520E-01  0.6406E-01  0.0000E+00
      0.345  0.2736E-01  0.4138E-01  0.0000E+00
      0.410  0.2585E-01  0.5721E-01  0.0000E+00
      0.474  0.3124E-01  0.7563E-01  0.0000E+00
      0.539  0.3123E-01  0.9194E-01  0.0000E+00
      0.603  0.1605E-01  0.6463E-01  0.0000E+00
      0.667  0.1450E-01  0.4686E-01  0.0000E+00
      0.732  0.1279E-01  0.6316E-01  0.0000E+00
      0.796  0.1703E-01  0.6070E-01  0.0000E+00
      0.861  0.1939E-01  0.6249E-01  0.0000E+00
      0.925  0.1301E-01  0.5974E-01  0.0000E+00
      0.989  0.5236E-02  0.5666E-01  0.0000E+00
      1.054  0.5869E-02  0.9249E-01  0.0000E+00
      1.118  0.1117E-01  0.8646E-01  0.0000E+00
      1.183  0.7651E-02  0.7019E-01  0.0000E+00
      1.247  0.3401E-02  0.3919E-01  0.0000E+00
      1.311  0.6319E-02  0.3534E-01  0.0000E+00
      1.376  0.9791E-02  0.3787E-01  0.0000E+00
      1.440  0.3537E-02  0.2139E-01  0.0000E+00
      1.505  0.1229E-02  0.2018E-01  0.0000E+00
      1.569  0.1756E-02  0.2179E-01  0.0000E+00
      1.633  0.1904E-02  0.1842E-01  0.0000E+00
      1.698  0.8337E-03  0.1583E-01  0.0000E+00
      1.762  0.2740E-03  0.1242E-01  0.0000E+00
      1.827  0.1307E-02  0.1380E-01  0.0000E+00
      1.891  0.2247E-02  0.1039E-01  0.0000E+00
      1.956  0.7147E-03  0.5207E-02  0.0000E+00
      2.020  0.1070E-03  0.8387E-03  0.0000E+00
      2.084  0.3101E-05  0.1713E-04  0.0000E+00
      2.149  0.5867E-08  0.2728E-07  0.0000E+00
      2.213  0.4994E-12  0.2219E-11  0.0000E+00
      2.278  0.1699E-17  0.7456E-17  0.0000E+00
      2.342  0.0000E+00  0.0000E+00  0.0000E+00
      2.406  0.0000E+00  0.0000E+00  0.0000E+00
      2.471  0.0000E+00  0.0000E+00  0.0000E+00
      2.535  0.0000E+00  0.0000E+00  0.0000E+00
      2.600  0.0000E+00  0.0000E+00  0.0000E+00
      2.664  0.0000E+00  0.0000E+00  0.0000E+00
      2.728  0.0000E+00  0.0000E+00  0.0000E+00
      2.793  0.0000E+00  0.0000E+00  0.0000E+00
      2.857  0.0000E+00  0.0000E+00  0.0000E+00
      2.922  0.0000E+00  0.0000E+00  0.0000E+00
      2.986  0.0000E+00  0.0000E+00  0.0000E+00
      3.050  0.0000E+00  0.0000E+00  0.0000E+00
      3.115  0.0000E+00  0.0000E+00  0.0000E+00
      3.179  0.0000E+00  0.0000E+00  0.0000E+00
      3.244  0.0000E+00  0.0000E+00  0.0000E+00
      3.308  0.0000E+00  0.0000E+00  0.0000E+00
      3.372  0.3630E-19  0.2365E-18  0.0000E+00
      3.437  0.3414E-13  0.2224E-12  0.0000E+00
      3.501  0.1147E-08  0.7465E-08  0.0000E+00
      3.566  0.1618E-05  0.1032E-04  0.0000E+00
      3.630  0.1473E-03  0.6729E-03  0.0000E+00
      3.694  0.3154E-02  0.2917E-02  0.0000E+00
      3.759  0.1082E-01  0.2462E-02  0.0000E+00
      3.823  0.3716E-02  0.2476E-02  0.0000E+00
      3.888  0.3008E-02  0.5374E-02  0.0000E+00
      3.952  0.8743E-02  0.1326E-01  0.0000E+00
      4.016  0.6180E-02  0.1456E-01  0.0000E+00
      4.081  0.7534E-02  0.1417E-01  0.0000E+00
      4.145  0.8112E-02  0.1286E-01  0.0000E+00
      4.210  0.4767E-02  0.5521E-02  0.0000E+00
      4.274  0.8213E-02  0.9779E-02  0.0000E+00
      4.339  0.2101E-01  0.1167E-01  0.0000E+00
      4.403  0.3510E-01  0.9646E-02  0.0000E+00
      4.467  0.2198E-01  0.5731E-02  0.0000E+00
      4.532  0.1599E-01  0.9863E-02  0.0000E+00
      4.596  0.1936E-01  0.1382E-01  0.0000E+00
      4.661  0.2558E-01  0.2049E-01  0.0000E+00
      4.725  0.1697E-01  0.5659E-01  0.0000E+00
      4.789  0.1567E-01  0.8556E-01  0.0000E+00
      4.854  0.5591E-02  0.3841E-01  0.0000E+00
      4.918  0.1339E-01  0.3283E-01  0.0000E+00
      4.983  0.3646E-01  0.8227E-01  0.0000E+00
      5.047  0.2406E-01  0.9982E-01  0.0000E+00
      5.111  0.2387E-01  0.7392E-01  0.0000E+00
      5.176  0.2214E-01  0.6279E-01  0.0000E+00
      5.240  0.2994E-01  0.9322E-01  0.0000E+00
      5.305  0.4112E-01  0.6052E-01  0.0000E+00
      5.369  0.1415E-01  0.3070E-01  0.0000E+00
      5.433  0.2360E-02  0.1451E-01  0.0000E+00
      5.498  0.5356E-03  0.8171E-02  0.0000E+00
      5.562  0.1041E-02  0.1724E-01  0.0000E+00
      5.627  0.2178E-03  0.3388E-02  0.0000E+00
      5.691  0.9128E-04  0.9551E-03  0.0000E+00
      5.755  0.1619E-02  0.1653E-01  0.0000E+00
      5.820  0.2952E-02  0.2518E-01  0.0000E+00
      5.884  0.1588E-02  0.7103E-02  0.0000E+00
      5.949  0.4599E-02  0.1102E-01  0.0000E+00
      6.013  0.1369E-01  0.2846E-01  0.0000E+00
      6.077  0.2238E-01  0.3750E-01  0.0000E+00
      6.142  0.1025E-01  0.2765E-01  0.0000E+00
      6.206  0.4316E-03  0.3392E-02  0.0000E+00
      6.271  0.1713E-05  0.3590E-04  0.0000E+00
      6.335  0.6549E-09  0.1925E-07  0.0000E+00
      6.399  0.1373E-13  0.4279E-12  0.0000E+00
      6.464  0.0000E+00  0.0000E+00  0.0000E+00
      6.528  0.0000E+00  0.0000E+00  0.0000E+00
      6.593  0.0000E+00  0.0000E+00  0.0000E+00
      6.657  0.0000E+00  0.0000E+00  0.0000E+00
      6.722  0.0000E+00  0.0000E+00  0.0000E+00
      6.786  0.0000E+00  0.0000E+00  0.0000E+00
      6.850  0.0000E+00  0.0000E+00  0.0000E+00
      6.915  0.0000E+00  0.0000E+00  0.0000E+00
      6.979  0.0000E+00  0.0000E+00  0.0000E+00
      6.97913756    -12.34252812  301      2.21513937      1.00000000
    -12.343  0.0000E+00  0.0000E+00  0.0000E+00
    -12.278  0.0000E+00  0.0000E+00  0.0000E+00
    -12.214  0.0000E+00  0.0000E+00  0.0000E+00
    -12.149  0.0000E+00  0.0000E+00  0.0000E+00
    -12.085  0.0000E+00  0.0000E+00  0.0000E+00
    -12.021  0.0000E+00  0.0000E+00  0.0000E+00
    -11.956  0.0000E+00  0.0000E+00  0.0000E+00
    -11.892  0.0000E+00  0.0000E+00  0.0000E+00
    -11.827  0.0000E+00  0.0000E+00  0.0000E+00
    -11.763  0.0000E+00  0.0000E+00  0.0000E+00
    -11.698  0.4965E-13  0.1489E-13  0.0000E+00
    -11.634  0.2354E-08  0.7064E-09  0.0000E+00
    -11.570  0.4795E-05  0.1441E-05  0.0000E+00
    -11.505  0.4855E-03  0.1461E-03  0.0000E+00
    -11.441  0.3185E-02  0.9604E-03  0.0000E+00
    -11.376  0.1753E-02  0.5296E-03  0.0000E+00
    -11.312  0.1022E-03  0.3637E-04  0.0000E+00
    -11.248  0.1557E-02  0.7633E-03  0.0000E+00
    -11.183  0.5785E-02  0.2843E-02  0.0000E+00
    -11.119  0.1830E-02  0.9020E-03  0.0000E+00
    -11.054  0.9396E-04  0.1059E-03  0.0000E+00
    -10.990  0.5164E-03  0.6996E-03  0.0000E+00
    -10.926  0.6692E-03  0.7304E-03  0.0000E+00
    -10.861  0.1033E-03  0.1078E-03  0.0000E+00
    -10.797  0.2722E-03  0.5109E-03  0.0000E+00
    -10.732  0.1310E-02  0.2001E-02  0.0000E+00
    -10.668  0.9206E-03  0.1843E-02  0.0000E+00
    -10.604  0.1526E-02  0.3388E-02  0.0000E+00
    -10.539  0.3879E-02  0.5811E-02  0.0000E+00
    -10.475  0.1554E-02  0.2049E-02  0.0000E+00
    -10.410  0.7801E-03  0.1994E-02  0.0000E+00
    -10.346  0.3138E-02  0.1304E-02  0.0000E+00
    -10.282  0.2666E-02  0.1123E-02  0.0000E+00
    -10.217  0.1006E-02  0.2792E-02  0.0000E+00
    -10.153  0.1044E-02  0.4804E-02  0.0000E+00
    -10.088  0.2411E-03  0.8778E-03  0.0000E+00
    -10.024  0.1434E-02  0.2013E-02  0.0000E+00
     -9.960  0.5138E-02  0.9071E-02  0.0000E+00
     -9.895  0.7134E-02  0.1150E-01  0.0000E+00
     -9.831  0.4621E-02  0.1030E-01  0.0000E+00
     -9.766  0.2370E-02  0.6257E-02  0.0000E+00
     -9.702  0.1617E-02  0.5116E-02  0.0000E+00
     -9.637  0.2515E-02  0.6872E-02  0.0000E+00
     -9.573  0.2023E-02  0.4556E-02  0.0000E+00
     -9.509  0.1447E-02  0.4362E-02  0.0000E+00
     -9.444  0.2323E-02  0.5760E-02  0.0000E+00
     -9.380  0.3392E-02  0.6353E-02  0.0000E+00
     -9.315  0.6546E-03  0.1355E-02  0.0000E+00
     -9.251  0.1078E-04  0.2796E-04  0.0000E+00
     -9.187  0.1120E-07  0.3689E-07  0.0000E+00
     -9.122  0.6318E-12  0.2480E-11  0.0000E+00
     -9.058  0.1672E-17  0.7453E-17  0.0000E+00
     -8.993  0.0000E+00  0.0000E+00  0.0000E+00
     -8.929  0.0000E+00  0.0000E+00  0.0000E+00
     -8.865  0.0000E+00  0.0000E+00  0.0000E+00
     -8.800  0.0000E+00  0.0000E+00  0.0000E+00
     -8.736  0.0000E+00  0.0000E+00  0.0000E+00
     -8.671  0.0000E+00  0.0000E+00  0.0000E+00
     -8.607  0.0000E+00  0.0000E+00  0.0000E+00
     -8.543  0.0000E+00  0.0000E+00  0.0000E+00
     -8.478  0.0000E+00  0.0000E+00  0.0000E+00
     -8.414  0.1364E-16  0.8888E-17  0.0000E+00
     -8.349  0.3752E-11  0.2355E-11  0.0000E+00
     -8.285  0.4091E-07  0.2507E-07  0.0000E+00
     -8.221  0.1909E-04  0.1198E-04  0.0000E+00
     -8.156  0.4579E-03  0.3531E-03  0.0000E+00
     -8.092  0.7823E-03  0.1102E-02  0.0000E+00
     -8.027  0.1120E-03  0.4525E-03  0.0000E+00
     -7.963  0.1529E-05  0.1783E-04  0.0000E+00
     -7.899  0.2673E-04  0.4074E-04  0.0000E+00
     -7.834  0.3239E-03  0.4567E-03  0.0000E+00
     -7.770  0.6387E-03  0.7495E-03  0.0000E+00
     -7.705  0.5588E-03  0.1053E-02  0.0000E+00
     -7.641  0.2587E-03  0.1859E-02  0.0000E+00
     -7.577  0.9439E-04  0.7437E-03  0.0000E+00
     -7.512  0.3707E-03  0.1801E-02  0.0000E+00
     -7.448  0.5719E-03  0.1509E-02  0.0000E+00
     -7.383  0.1004E-02  0.5611E-03  0.0000E+00
     -7.319  0.7041E-03  0.4261E-03  0.0000E+00
     -7.254  0.5166E-03  0.1560E-03  0.0000E+00
     -7.190  0.6459E-03  0.1897E-03  0.0000E+00
     -7.126  0.3321E-03  0.1376E-03  0.0000E+00
     -7.061  0.3759E-03  0.1352E-03  0.0000E+00
     -6.997  0.3270E-02  0.1147E-02  0.0000E+00
     -6.932  0.3199E-02  0.1110E-02  0.0000E+00
     -6.868  0.7235E-03  0.1533E-03  0.0000E+00
     -6.804  0.2976E-02  0.3084E-03  0.0000E+00
     -6.739  0.2825E-02  0.2879E-03  0.0000E+00
     -6.675  0.3415E-03  0.3448E-04  0.0000E+00
     -6.610  0.3070E-05  0.3092E-06  0.0000E+00