       N       E                     dE             d eps       ncg     rms          rms(c)
DAV:   1     0.713871147097E+03    0.71387E+03   -0.46280E+04   672   0.804E+02
DAV:   2    -0.672139386253E+02   -0.78109E+03   -0.74992E+03   924   0.158E+02
DAV:   3    -0.161339488801E+03   -0.94126E+02   -0.93185E+02   798   0.603E+01
DAV:   4    -0.164285268689E+03   -0.29458E+01   -0.29361E+01   952   0.112E+01
DAV:   5    -0.164340894821E+03   -0.55626E-01   -0.55551E-01   854   0.163E+00    0.170E+01
DAV:   6    -0.155883449550E+03    0.84574E+01   -0.15693E+01   770   0.736E+00    0.962E+00
DAV:   7    -0.154897355199E+03    0.98609E+00   -0.77406E+00   812   0.445E+00    0.526E+00
DAV:   8    -0.154767439067E+03    0.12992E+00   -0.58435E-01   840   0.165E+00    0.205E+00
DAV:   9    -0.154752557884E+03    0.14881E-01   -0.15297E-01   798   0.839E-01    0.505E-01
DAV:  10    -0.154753146623E+03   -0.58874E-03   -0.13602E-02   868   0.244E-01    0.303E-01
DAV:  11    -0.154753513343E+03   -0.36672E-03   -0.32487E-03   854   0.128E-01    0.141E-01
DAV:  12    -0.154753730037E+03   -0.21669E-03   -0.11199E-03   756   0.782E-02    0.519E-02
DAV:  13    -0.154753749120E+03   -0.19083E-04   -0.25673E-04   560   0.353E-02
   1 F= -.15475375E+03 E0= -.15475175E+03  d E =-.154754E+03
       N       E                     dE             d eps       ncg     rms          rms(c)
DAV:   1    -0.155612585490E+03   -0.85886E+00   -0.61555E+00   700   0.540E+00    0.127E+00
DAV:   2    -0.155633462433E+03   -0.20877E-01   -0.44832E-01   840   0.139E+00    0.642E-01
DAV:   3    -0.155629508019E+03    0.39544E-02   -0.17325E-02   812   0.273E-01    0.382E-01
DAV:   4    -0.155627968333E+03    0.15397E-02   -0.29977E-03   840   0.120E-01    0.153E-01
DAV:   5    -0.155627649202E+03    0.31913E-03   -0.14046E-03   756   0.793E-02    0.516E-02
DAV:   6    -0.155627662044E+03   -0.12841E-04   -0.20038E-04   462   0.319E-02
   2 F= -.15562766E+03 E0= -.15562756E+03  d E =-.873913E+00
       N       E                     dE             d eps       ncg     rms          rms(c)
DAV:   1    -0.157441493017E+03   -0.18138E+01   -0.54255E+01   672   0.160E+01    0.389E+00
DAV:   2    -0.157655037363E+03   -0.21354E+00   -0.39590E+00   840   0.418E+00    0.213E+00
DAV:   3    -0.157623649950E+03    0.31387E-01   -0.16060E-01   854   0.831E-01    0.134E+00
DAV:   4    -0.157608591520E+03    0.15058E-01   -0.27172E-02   840   0.361E-01    0.566E-01
DAV:   5    -0.157605135357E+03    0.34562E-02   -0.13474E-02   798   0.252E-01    0.190E-01
DAV:   6    -0.157605251334E+03   -0.11598E-03   -0.25201E-03   854   0.104E-01    0.144E-01
DAV:   7    -0.157605319779E+03   -0.68445E-04   -0.29333E-04   616   0.375E-02
   3 F= -.15760532E+03 E0= -.15760532E+03  d E =-.285157E+01
       N       E                     dE             d eps       ncg     rms          rms(c)
DAV:   1    -0.158430836270E+03   -0.82558E+00   -0.20986E+02   672   0.311E+01    0.887E+00
DAV:   2    -0.159366973080E+03   -0.93614E+00   -0.15979E+01   826   0.838E+00    0.494E+00
DAV:   3    -0.159252890332E+03    0.11408E+00   -0.63316E-01   812   0.166E+00    0.331E+00
DAV:   4    -0.159187539687E+03    0.65351E-01   -0.11343E-01   812   0.738E-01    0.147E+00
DAV:   5    -0.159170031264E+03    0.17508E-01   -0.55494E-02   826   0.522E-01    0.447E-01
DAV:   6    -0.159169978793E+03    0.52471E-04   -0.95075E-03   896   0.200E-01    0.329E-01
DAV:   7    -0.159169976042E+03    0.27508E-05   -0.91631E-04   784   0.646E-02
   4 F= -.15916998E+03 E0= -.15916998E+03  d E =-.441623E+01
       N       E                     dE             d eps       ncg     rms          rms(c)
DAV:   1    -0.160865909440E+03   -0.16959E+01   -0.25968E+01   672   0.108E+01    0.359E+00
DAV:   2    -0.160613150918E+03    0.25276E+00   -0.18093E+00   756   0.279E+00    0.145E+00
DAV:   3    -0.160537146436E+03    0.76004E-01   -0.20571E-01   798   0.868E-01    0.816E-01
DAV:   4    -0.160523724021E+03    0.13422E-01   -0.40037E-02   826   0.411E-01    0.420E-01
DAV:   5    -0.160522060015E+03    0.16640E-02   -0.68179E-03   840   0.158E-01    0.199E-01
DAV:   6    -0.160521880124E+03    0.17989E-03   -0.21147E-03   840   0.898E-02    0.952E-02
DAV:   7    -0.160521938708E+03   -0.58584E-04   -0.26556E-04   560   0.354E-02
   5 F= -.16052194E+03 E0= -.16052194E+03  d E =-.135196E+01
       N       E                     dE             d eps       ncg     rms          rms(c)
DAV:   1    -0.166659170655E+03   -0.61373E+01   -0.23928E+02   672   0.333E+01    0.130E+01
DAV:   2    -0.164329933584E+03    0.23292E+01   -0.17469E+01   770   0.862E+00    0.438E+00
DAV:   3    -0.163647698629E+03    0.68223E+00   -0.19004E+00   784   0.272E+00    0.292E+00
DAV:   4    -0.163532077573E+03    0.11562E+00   -0.35144E-01   812   0.123E+00    0.167E+00
DAV:   5    -0.163514919828E+03    0.17158E-01   -0.75212E-02   840   0.511E-01    0.521E-01
DAV:   6    -0.163514260045E+03    0.65978E-03   -0.16552E-02   812   0.273E-01    0.202E-01
DAV:   7    -0.163515409064E+03   -0.11490E-02   -0.43126E-03   812   0.126E-01    0.113E-01
DAV:   8    -0.163515839651E+03   -0.43059E-03   -0.53339E-04   728   0.478E-02    0.326E-02
DAV:   9    -0.163515985553E+03   -0.14590E-03   -0.15302E-04   560   0.253E-02    0.150E-02
DAV:  10    -0.163516119592E+03   -0.13404E-03   -0.15805E-04   616   0.210E-02    0.932E-03
DAV:  11    -0.163516154985E+03   -0.35393E-04   -0.36799E-05   504   0.119E-02
   6 F= -.16351615E+03 E0= -.16351615E+03  d E =-.434618E+01
       N       E                     dE             d eps       ncg     rms          rms(c)
DAV:   1    -0.175680222550E+03   -0.12164E+02   -0.98827E+02   672   0.695E+01    0.373E+01
DAV:   2    -0.166399595814E+03    0.92806E+01   -0.78942E+01   756   0.184E+01    0.100E+01
DAV:   3    -0.163720690969E+03    0.26789E+01   -0.76833E+00   798   0.581E+00    0.892E+00
DAV:   4    -0.163247277638E+03    0.47341E+00   -0.13190E+00   812   0.247E+00    0.526E+00
DAV:   5    -0.163080722892E+03    0.16655E+00   -0.53486E-01   826   0.140E+00    0.709E-01
DAV:   6    -0.163079689264E+03    0.10336E-02   -0.57557E-02   896   0.530E-01    0.508E-01
DAV:   7    -0.163081031641E+03   -0.13424E-02   -0.98313E-03   784   0.209E-01    0.306E-01
DAV:   8    -0.163082899812E+03   -0.18682E-02   -0.34439E-03   700   0.121E-01    0.162E-01
DAV:   9    -0.163083266383E+03   -0.36657E-03   -0.45803E-04   714   0.563E-02    0.513E-02
DAV:  10    -0.163083559317E+03   -0.29293E-03   -0.34024E-04   588   0.388E-02    0.241E-02
DAV:  11    -0.163083671549E+03   -0.11223E-03   -0.73084E-05   574   0.193E-02    0.141E-02
DAV:  12    -0.163083719307E+03   -0.47758E-04   -0.46644E-05   448   0.127E-02
   7 F= -.16308372E+03 E0= -.16308372E+03  d E =-.391374E+01
       N       E                     dE             d eps       ncg     rms          rms(c)
DAV:   1    -0.168080318394E+03   -0.49966E+01   -0.27945E+02   672   0.354E+01    0.114E+01
DAV:   2    -0.165847082971E+03    0.22332E+01   -0.18506E+01   742   0.938E+00    0.650E+00
DAV:   3    -0.164966208780E+03    0.88087E+00   -0.14786E+00   784   0.244E+00    0.392E+00
DAV:   4    -0.164526160866E+03    0.44005E+00   -0.90821E-01   784   0.190E+00    0.125E+00
DAV:   5    -0.164507906200E+03    0.18255E-01   -0.16835E-01   840   0.784E-01    0.730E-01
DAV:   6    -0.164509158990E+03   -0.12528E-02   -0.11508E-02   896   0.220E-01    0.480E-01
DAV:   7    -0.164512530259E+03   -0.33713E-02   -0.66132E-03   700   0.165E-01    0.123E-01
DAV:   8    -0.164512982191E+03   -0.45193E-03   -0.10469E-03   798   0.760E-02    0.699E-02
DAV:   9    -0.164513523198E+03   -0.54101E-03   -0.92820E-04   686   0.594E-02    0.286E-02
DAV:  10    -0.164513644859E+03   -0.12166E-03   -0.92356E-05   546   0.255E-02    0.196E-02
DAV:  11    -0.164513780701E+03   -0.13584E-03   -0.13526E-04   546   0.200E-02    0.107E-02
DAV:  12    -0.164513841088E+03   -0.60387E-04   -0.78953E-05   504   0.154E-02
   8 F= -.16451384E+03 E0= -.16451384E+03  d E =-.534387E+01
       N       E                     dE             d eps       ncg     rms          rms(c)
DAV:   1    -0.165388832337E+03   -0.87505E+00   -0.22873E+01   672   0.108E+01    0.203E+00
DAV:   2    -0.165474985882E+03   -0.86154E-01   -0.16429E+00   812   0.281E+00    0.113E+00
DAV:   3    -0.165461967922E+03    0.13018E-01   -0.75364E-02   868   0.617E-01    0.784E-01
DAV:   4    -0.165451842035E+03    0.10126E-01   -0.12083E-02   854   0.263E-01    0.415E-01
DAV:   5    -0.165447655301E+03    0.41867E-02   -0.11337E-02   812   0.282E-01    0.179E-01
DAV:   6    -0.165447850269E+03   -0.19497E-03   -0.32863E-03   840   0.121E-01    0.130E-01
DAV:   7    -0.165447843148E+03    0.71206E-05   -0.19138E-04   490   0.312E-02
   9 F= -.16544784E+03 E0= -.16544784E+03  d E =-.934002E+00
       N       E                     dE             d eps       ncg     rms          rms(c)
DAV:   1    -0.165977476218E+03   -0.52963E+00   -0.76688E+01   672   0.198E+01    0.395E+00
DAV:   2    -0.166268743206E+03   -0.29127E+00   -0.56064E+00   812   0.519E+00    0.214E+00
DAV:   3    -0.166227930422E+03    0.40813E-01   -0.27555E-01   882   0.119E+00    0.149E+00
DAV:   4    -0.166195157213E+03    0.32773E-01   -0.39517E-02   840   0.470E-01    0.827E-01
DAV:   5    -0.166178901516E+03    0.16256E-01   -0.40074E-02   812   0.534E-01    0.365E-01
DAV:   6    -0.166179606787E+03   -0.70527E-03   -0.11984E-02   868   0.230E-01    0.273E-01
DAV:   7    -0.166179582824E+03    0.23963E-04   -0.90376E-04   770   0.630E-02
  10 F= -.16617958E+03 E0= -.16617958E+03  d E =-.166574E+01
       N       E                     dE             d eps       ncg     rms          rms(c)
DAV:   1    -0.166188651609E+03   -0.90448E-02   -0.14169E+00   672   0.268E+00    0.534E-01
DAV:   2    -0.166194123747E+03   -0.54721E-02   -0.10465E-01   812   0.713E-01    0.273E-01
DAV:   3    -0.166193516833E+03    0.60691E-03   -0.58777E-03   882   0.172E-01    0.175E-01
DAV:   4    -0.166193048208E+03    0.46863E-03   -0.70045E-04   798   0.621E-02    0.980E-02
DAV:   5    -0.166192801831E+03    0.24638E-03   -0.73565E-04   812   0.709E-02    0.499E-02
DAV:   6    -0.166192815810E+03   -0.13979E-04   -0.16897E-04   504   0.305E-02
  11 F= -.16619282E+03 E0= -.16619282E+03  d E =-.167897E+01
       N       E                     dE             d eps       ncg     rms          rms(c)
DAV:   1    -0.166464023486E+03   -0.27122E+00   -0.10780E+01   700   0.715E+00    0.168E+00
DAV:   2    -0.166476993075E+03   -0.12970E-01   -0.68659E-01   826   0.177E+00    0.846E-01
DAV:   3    -0.166465778218E+03    0.11215E-01   -0.30526E-02   812   0.366E-01    0.491E-01
DAV:   4    -0.166460464441E+03    0.53138E-02   -0.80707E-03   798   0.197E-01    0.207E-01
DAV:   5    -0.166459684319E+03    0.78012E-03   -0.31293E-03   868   0.115E-01    0.810E-02
DAV:   6    -0.166459716377E+03   -0.32059E-04   -0.28610E-04   532   0.384E-02
  12 F= -.16645972E+03 E0= -.16645972E+03  d E =-.266901E+00
       N       E                     dE             d eps       ncg     rms          rms(c)
DAV:   1    -0.166845715986E+03   -0.38603E+00   -0.94794E+01   700   0.211E+01    0.526E+00
DAV:   2    -0.167012192369E+03   -0.16648E+00   -0.62342E+00   812   0.534E+00    0.291E+00
DAV:   3    -0.166916139270E+03    0.96053E-01   -0.25074E-01   812   0.106E+00    0.178E+00
DAV:   4    -0.166859120237E+03    0.57019E-01   -0.93846E-02   798   0.644E-01    0.664E-01
DAV:   5    -0.166852536241E+03    0.65840E-02   -0.30360E-02   840   0.357E-01    0.253E-01
DAV:   6    -0.166852836865E+03   -0.30062E-03   -0.33233E-03   798   0.121E-01    0.135E-01
DAV:   7    -0.166852913757E+03   -0.76892E-04   -0.58643E-04   798   0.612E-02
  13 F= -.16685291E+03 E0= -.16685291E+03  d E =-.660098E+00
       N       E                     dE             d eps       ncg     rms          rms(c)
DAV:   1    -0.167018915804E+03   -0.16608E+00   -0.53416E+00   672   0.502E+00    0.110E+00
DAV:   2    -0.167033991104E+03   -0.15075E-01   -0.33221E-01   784   0.123E+00    0.479E-01
DAV:   3    -0.167031091543E+03    0.28996E-02   -0.11439E-02   840   0.228E-01    0.315E-01
DAV:   4    -0.167029629861E+03    0.14617E-02   -0.23594E-03   798   0.112E-01    0.155E-01
DAV:   5    -0.167029406869E+03    0.22299E-03   -0.12144E-03   826   0.732E-02    0.531E-02
DAV:   6    -0.167029433904E+03   -0.27035E-04   -0.15227E-04   420   0.285E-02
  14 F= -.16702943E+03 E0= -.16702943E+03  d E =-.176520E+00
       N       E                     dE             d eps       ncg     rms          rms(c)
DAV:   1    -0.167297036316E+03   -0.26763E+00   -0.48258E+01   672   0.152E+01    0.365E+00
DAV:   2    -0.167429923893E+03   -0.13289E+00   -0.30563E+00   784   0.372E+00    0.138E+00
DAV:   3    -0.167404017444E+03    0.25906E-01   -0.10599E-01   840   0.700E-01    0.953E-01
DAV:   4    -0.167391713493E+03    0.12304E-01   -0.20254E-02   812   0.333E-01    0.489E-01
DAV:   5    -0.167389621013E+03    0.20925E-02   -0.98123E-03   812   0.211E-01    0.164E-01
DAV:   6    -0.167389832562E+03   -0.21155E-03   -0.15664E-03   826   0.833E-02    0.862E-02
DAV:   7    -0.167389918285E+03   -0.85723E-04   -0.19997E-04   532   0.329E-02
  15 F= -.16738992E+03 E0= -.16738992E+03  d E =-.537005E+00
       N       E                     dE             d eps       ncg     rms          rms(c)
DAV:   1    -0.166964855213E+03    0.42498E+00   -0.19387E+02   672   0.307E+01    0.897E+00
DAV:   2    -0.167501688692E+03   -0.53683E+00   -0.13054E+01   770   0.763E+00    0.292E+00
DAV:   3    -0.167400114317E+03    0.10157E+00   -0.45409E-01   826   0.147E+00    0.223E+00
DAV:   4    -0.167350419734E+03    0.49695E-01   -0.80720E-02   798   0.680E-01    0.120E+00
DAV:   5    -0.167340563492E+03    0.98562E-02   -0.40108E-02   840   0.431E-01    0.360E-01
DAV:   6    -0.167341155108E+03   -0.59162E-03   -0.65431E-03   798   0.172E-01    0.184E-01
DAV:   7    -0.167341413995E+03   -0.25889E-03   -0.94737E-04   756   0.666E-02    0.636E-02
DAV:   8    -0.167341456795E+03   -0.42799E-04   -0.87909E-05   532   0.281E-02
  16 F= -.16734146E+03 E0= -.16734146E+03  d E =-.488543E+00
       N       E                     dE             d eps       ncg     rms          rms(c)
DAV:   1    -0.167371102688E+03   -0.29689E-01   -0.61028E+01   672   0.169E+01    0.400E+00
DAV:   2    -0.167561675707E+03   -0.19057E+00   -0.38926E+00   784   0.422E+00    0.212E+00
DAV:   3    -0.167524589827E+03    0.37086E-01   -0.12905E-01   812   0.763E-01    0.137E+00
DAV:   4    -0.167500389271E+03    0.24201E-01   -0.36941E-02   798   0.427E-01    0.550E-01
DAV:   5    -0.167497297104E+03    0.30922E-02   -0.17325E-02   812   0.269E-01    0.175E-01
DAV:   6    -0.167497587368E+03   -0.29026E-03   -0.18368E-03   784   0.931E-02    0.115E-01
DAV:   7    -0.167497690485E+03   -0.10312E-03   -0.29851E-04   602   0.376E-02    0.636E-02
DAV:   8    -0.167497761812E+03   -0.71327E-04   -0.10457E-04   546   0.240E-02
  17 F= -.16749776E+03 E0= -.16749776E+03  d E =-.644848E+00
       N       E                     dE             d eps       ncg     rms          rms(c)
DAV:   1    -0.167636240535E+03   -0.13855E+00   -0.87045E+00   672   0.648E+00    0.120E+00
DAV:   2    -0.167680770192E+03   -0.44530E-01   -0.57435E-01   798   0.160E+00    0.548E-01
DAV:   3    -0.167678996601E+03    0.17736E-02   -0.14521E-02   812   0.275E-01    0.372E-01
DAV:   4    -0.167677686484E+03    0.13101E-02   -0.17620E-03   826   0.996E-02    0.207E-01
DAV:   5    -0.167677220389E+03    0.46610E-03   -0.17234E-03   798   0.959E-02    0.752E-02
DAV:   6    -0.167677234792E+03   -0.14403E-04   -0.33284E-04   644   0.417E-02
  18 F= -.16767723E+03 E0= -.16767723E+03  d E =-.179473E+00
       N       E                     dE             d eps       ncg     rms          rms(c)
DAV:   1    -0.167550937799E+03    0.12628E+00   -0.77597E+01   672   0.194E+01    0.399E+00
DAV:   2    -0.167971313879E+03   -0.42038E+00   -0.53060E+00   798   0.488E+00    0.193E+00
DAV:   3    -0.167954592598E+03    0.16721E-01   -0.13350E-01   826   0.842E-01    0.132E+00
DAV:   4    -0.167941819586E+03    0.12773E-01   -0.16151E-02   784   0.299E-01    0.750E-01
DAV:   5    -0.167936807675E+03    0.50119E-02   -0.19133E-02   798   0.313E-01    0.247E-01
DAV:   6    -0.167936993364E+03   -0.18569E-03   -0.35875E-03   840   0.136E-01    0.152E-01
DAV:   7    -0.167937025712E+03   -0.32348E-04   -0.42114E-04   686   0.447E-02
  19 F= -.16793703E+03 E0= -.16793703E+03  d E =-.439264E+00
       N       E                     dE             d eps       ncg     rms          rms(c)
DAV:   1    -0.167928690755E+03    0.83026E-02   -0.22219E+00   686   0.327E+00    0.602E-01
DAV:   2    -0.167940179036E+03   -0.11488E-01   -0.14796E-01   798   0.812E-01    0.257E-01
DAV:   3    -0.167939732506E+03    0.44653E-03   -0.37145E-03   812   0.140E-01    0.182E-01
DAV:   4    -0.167939420032E+03    0.31247E-03   -0.42598E-04   742   0.491E-02    0.106E-01
DAV:   5    -0.167939302714E+03    0.11732E-03   -0.49789E-04   700   0.513E-02    0.362E-02
DAV:   6    -0.167939307707E+03   -0.49930E-05   -0.88384E-05   448   0.234E-02
  20 F= -.16793931E+03 E0= -.16793931E+03  d E =-.441546E+00
       N       E                     dE             d eps       ncg     rms          rms(c)
DAV:   1    -0.168030371518E+03   -0.91069E-01   -0.57308E+00   672   0.530E+00    0.123E+00
DAV:   2    -0.168031841304E+03   -0.14698E-02   -0.33526E-01   798   0.127E+00    0.578E-01
DAV:   3    -0.168022690133E+03    0.91512E-02   -0.14254E-02   840   0.280E-01    0.373E-01
DAV:   4    -0.168017617973E+03    0.50722E-02   -0.72079E-03   770   0.201E-01    0.117E-01
DAV:   5    -0.168017327530E+03    0.29044E-03   -0.19695E-03   798   0.982E-02    0.656E-02
DAV:   6    -0.168017335861E+03   -0.83307E-05   -0.15192E-04   462   0.291E-02
  21 F= -.16801734E+03 E0= -.16801734E+03  d E =-.780282E-01
       N       E                     dE             d eps       ncg     rms          rms(c)
DAV:   1    -0.168045643700E+03   -0.28316E-01   -0.39729E+00   672   0.442E+00    0.102E+00
DAV:   2    -0.168046734108E+03   -0.10904E-02   -0.23318E-01   798   0.106E+00    0.483E-01
DAV:   3    -0.168040416758E+03    0.63174E-02   -0.99394E-03   826   0.233E-01    0.315E-01
DAV:   4    -0.168036866910E+03    0.35498E-02   -0.50611E-03   770   0.168E-01    0.989E-02
DAV:   5    -0.168036671482E+03    0.19543E-03   -0.13843E-03   826   0.823E-02    0.545E-02
DAV:   6    -0.168036679164E+03   -0.76823E-05   -0.11003E-04   462   0.247E-02
  22 F= -.16803668E+03 E0= -.16803668E+03  d E =-.973715E-01
       N       E                     dE             d eps       ncg     rms          rms(c)
DAV:   1    -0.168081006736E+03   -0.44335E-01   -0.19106E+00   672   0.306E+00    0.598E-01
DAV:   2    -0.168091372568E+03   -0.10366E-01   -0.13513E-01   798   0.780E-01    0.243E-01
DAV:   3    -0.168090931634E+03    0.44093E-03   -0.38699E-03   798   0.148E-01    0.173E-01
DAV:   4    -0.168090650767E+03    0.28087E-03   -0.59782E-04   798   0.560E-02    0.927E-02
DAV:   5    -0.168090562793E+03    0.87974E-04   -0.25928E-04   518   0.421E-02
  23 F= -.16809056E+03 E0= -.16809056E+03  d E =-.538836E-01
       N       E                     dE             d eps       ncg     rms          rms(c)
DAV:   1    -0.168109858053E+03   -0.19207E-01   -0.29582E+00   672   0.381E+00    0.762E-01
DAV:   2    -0.168125715545E+03   -0.15857E-01   -0.20871E-01   798   0.969E-01    0.294E-01
DAV:   3    -0.168125044616E+03    0.67093E-03   -0.61197E-03   798   0.186E-01    0.205E-01
DAV:   4    -0.168124623762E+03    0.42085E-03   -0.92766E-04   812   0.698E-02    0.108E-01
DAV:   5    -0.168124495281E+03    0.12848E-03   -0.39943E-04   686   0.510E-02    0.416E-02
DAV:   6    -0.168124507714E+03   -0.12434E-04   -0.11521E-04   434   0.258E-02
  24 F= -.16812451E+03 E0= -.16812451E+03  d E =-.878286E-01
       N       E                     dE             d eps       ncg     rms          rms(c)
DAV:   1    -0.168124597256E+03   -0.10198E-03   -0.36151E-01   672   0.133E+00    0.266E-01
DAV:   2    -0.168126591342E+03   -0.19941E-02   -0.25822E-02   798   0.340E-01    0.104E-01
DAV:   3    -0.168126509291E+03    0.82051E-04   -0.70370E-04   798   0.634E-02
  25 F= -.16812651E+03 E0= -.16812651E+03  d E =-.898301E-01
       N       E                     dE             d eps       ncg     rms          rms(c)
DAV:   1    -0.168221245071E+03   -0.94654E-01   -0.19990E+00   756   0.301E+00    0.114E+00
DAV:   2    -0.168181951500E+03    0.39294E-01   -0.11090E-01   742   0.744E-01    0.525E-01
DAV:   3    -0.168170829545E+03    0.11122E-01   -0.40369E-02   784   0.368E-01    0.211E-01
DAV:   4    -0.168169630085E+03    0.11995E-02   -0.17778E-03   826   0.111E-01    0.141E-01
DAV:   5    -0.168169125557E+03    0.50453E-03   -0.16388E-03   798   0.796E-02    0.700E-02
DAV:   6    -0.168169134044E+03   -0.84864E-05   -0.11922E-04   462   0.278E-02
  26 F= -.16816913E+03 E0= -.16816913E+03  d E =-.426248E-01
       N       E                     dE             d eps       ncg     rms          rms(c)
DAV:   1    -0.168192747095E+03   -0.23622E-01   -0.70437E-01   756   0.179E+00    0.678E-01
DAV:   2    -0.168178906073E+03    0.13841E-01   -0.39133E-02   756   0.440E-01    0.307E-01
DAV:   3    -0.168175006195E+03    0.38999E-02   -0.14116E-02   784   0.217E-01    0.125E-01
DAV:   4    -0.168174586398E+03    0.41980E-03   -0.60907E-04   798   0.645E-02    0.846E-02
DAV:   5    -0.168174404290E+03    0.18211E-03   -0.57285E-04   784   0.469E-02    0.417E-02
DAV:   6    -0.168174408113E+03   -0.38228E-05   -0.42781E-05   420   0.167E-02
  27 F= -.16817441E+03 E0= -.16817441E+03  d E =-.478988E-01
       N       E                     dE             d eps       ncg     rms          rms(c)
DAV:   1    -0.168208771188E+03   -0.34367E-01   -0.11239E+00   672   0.236E+00    0.454E-01
DAV:   2    -0.168211761887E+03   -0.29907E-02   -0.68636E-02   798   0.613E-01    0.218E-01
DAV:   3    -0.168211467361E+03    0.29453E-03   -0.50384E-03   812   0.155E-01    0.147E-01
DAV:   4    -0.168211200602E+03    0.26676E-03   -0.30702E-04   602   0.469E-02    0.896E-02
DAV:   5    -0.168211035080E+03    0.16552E-03   -0.88668E-04   798   0.695E-02    0.460E-02
DAV:   6    -0.168211040436E+03   -0.53558E-05   -0.12321E-04   420   0.261E-02
  28 F= -.16821104E+03 E0= -.16821104E+03  d E =-.366323E-01
       N       E                     dE             d eps       ncg     rms          rms(c)
DAV:   1    -0.168229933580E+03   -0.18898E-01   -0.33935E+00   672   0.411E+00    0.798E-01
DAV:   2    -0.168238805617E+03   -0.88720E-02   -0.20794E-01   798   0.107E+00    0.384E-01
DAV:   3    -0.168237973151E+03    0.83247E-03   -0.15736E-02   812   0.274E-01    0.255E-01
DAV:   4    -0.168237185137E+03    0.78801E-03   -0.10417E-03   812   0.828E-02    0.152E-01
DAV:   5    -0.168236682174E+03    0.50296E-03   -0.21484E-03   798   0.111E-01    0.761E-02
DAV:   6    -0.168236707936E+03   -0.25763E-04   -0.33382E-04   644   0.407E-02
  29 F= -.16823671E+03 E0= -.16823671E+03  d E =-.622998E-01
       N       E                     dE             d eps       ncg     rms          rms(c)
DAV:   1    -0.168257950037E+03   -0.21268E-01   -0.12796E+00   714   0.248E+00    0.740E-01
DAV:   2    -0.168252228715E+03    0.57213E-02   -0.83744E-02   798   0.629E-01    0.324E-01
DAV:   3    -0.168249393385E+03    0.28353E-02   -0.77392E-03   770   0.173E-01    0.160E-01
DAV:   4    -0.168248653686E+03    0.73970E-03   -0.10083E-03   798   0.707E-02    0.829E-02
DAV:   5    -0.168248501460E+03    0.15223E-03   -0.50782E-04   756   0.445E-02    0.380E-02
DAV:   6    -0.168248509684E+03   -0.82240E-05   -0.52913E-05   378   0.177E-02
  30 F= -.16824851E+03 E0= -.16824851E+03  d E =-.118017E-01
       N       E                     dE             d eps       ncg     rms          rms(c)
DAV:   1    -0.168248560314E+03   -0.58854E-04   -0.58774E-03   756   0.169E-01    0.497E-02
DAV:   2    -0.168248535966E+03    0.24348E-04   -0.36310E-04   602   0.425E-02
  31 F= -.16824854E+03 E0= -.16824854E+03  d E =-.118280E-01
       N       E                     dE             d eps       ncg     rms          rms(c)
DAV:   1    -0.168256326897E+03   -0.77666E-02   -0.96084E-01   672   0.209E+00    0.428E-01
DAV:   2    -0.168260389545E+03   -0.40626E-02   -0.59917E-02   784   0.521E-01    0.191E-01
DAV:   3    -0.168259951544E+03    0.43800E-03   -0.17330E-03   826   0.951E-02    0.129E-01
DAV:   4    -0.168259724578E+03    0.22697E-03   -0.39454E-04   742   0.448E-02    0.583E-02
DAV:   5    -0.168259673086E+03    0.51492E-04   -0.12510E-04   434   0.271E-02
  32 F= -.16825967E+03 E0= -.16825967E+03  d E =-.111371E-01
       N       E                     dE             d eps       ncg     rms          rms(c)
DAV:   1    -0.168232948917E+03    0.26776E-01   -0.67500E+00   672   0.554E+00    0.115E+00
DAV:   2    -0.168261842154E+03   -0.28893E-01   -0.42284E-01   784   0.138E+00    0.516E-01
DAV:   3    -0.168258766197E+03    0.30760E-02   -0.11994E-02   826   0.251E-01    0.345E-01
DAV:   4    -0.168257187946E+03    0.15783E-02   -0.28623E-03   770   0.120E-01    0.152E-01
DAV:   5    -0.168256885541E+03    0.30241E-03   -0.99866E-04   812   0.694E-02    0.504E-02
DAV:   6    -0.168256887984E+03   -0.24435E-05   -0.13603E-04   434   0.266E-02
  33 F= -.16825689E+03 E0= -.16825689E+03  d E =-.835202E-02
       N       E                     dE             d eps       ncg     rms          rms(c)
DAV:   1    -0.168257731011E+03   -0.84547E-03   -0.15910E+00   672   0.269E+00    0.553E-01
DAV:   2    -0.168264218441E+03   -0.64874E-02   -0.97843E-02   784   0.665E-01    0.232E-01
DAV:   3    -0.168263527878E+03    0.69056E-03   -0.29794E-03   798   0.124E-01    0.158E-01
DAV:   4    -0.168263212776E+03    0.31510E-03   -0.59514E-04   756   0.548E-02    0.753E-02
DAV:   5    -0.168263147556E+03    0.65220E-04   -0.20914E-04   476   0.337E-02
  34 F= -.16826315E+03 E0= -.16826315E+03  d E =-.146116E-01
       N       E                     dE             d eps       ncg     rms          rms(c)
DAV:   1    -0.168268128334E+03   -0.49156E-02   -0.48768E-01   672   0.150E+00    0.280E-01
DAV:   2    -0.168269955401E+03   -0.18271E-02   -0.30276E-02   784   0.368E-01    0.135E-01
DAV:   3    -0.168269808578E+03    0.14682E-03   -0.11702E-03   812   0.764E-02    0.907E-02
DAV:   4    -0.168269706848E+03    0.10173E-03   -0.14293E-04   434   0.302E-02    0.529E-02
DAV:   5    -0.168269678982E+03    0.27865E-04   -0.16651E-04   448   0.288E-02
  35 F= -.16826968E+03 E0= -.16826968E+03  d E =-.653143E-02
       N       E                     dE             d eps       ncg     rms          rms(c)
DAV:   1    -0.168260815439E+03    0.88914E-02   -0.43786E+00   672   0.449E+00    0.861E-01
DAV:   2    -0.168276595372E+03   -0.15780E-01   -0.27115E-01   784   0.110E+00    0.385E-01
DAV:   3    -0.168275273619E+03    0.13218E-02   -0.11006E-02   812   0.234E-01    0.259E-01
DAV:   4    -0.168274420121E+03    0.85350E-03   -0.13744E-03   798   0.887E-02    0.150E-01
DAV:   5    -0.168274159867E+03    0.26025E-03   -0.97668E-04   798   0.691E-02    0.646E-02
DAV:   6    -0.168274157974E+03    0.18933E-05   -0.13304E-04   420   0.275E-02
  36 F= -.16827416E+03 E0= -.16827416E+03  d E =-.110104E-01
       N       E                     dE             d eps       ncg     rms          rms(c)
DAV:   1    -0.168274174620E+03   -0.14752E-04   -0.21807E-01   672   0.100E+00    0.192E-01
DAV:   2    -0.168274965786E+03   -0.79117E-03   -0.13300E-02   784   0.246E-01    0.938E-02
DAV:   3    -0.168274899918E+03    0.65868E-04   -0.56032E-04   742   0.524E-02
  37 F= -.16827490E+03 E0= -.16827490E+03  d E =-.117524E-01
       N       E                     dE             d eps       ncg     rms          rms(c)
DAV:   1    -0.168273971214E+03    0.99457E-03   -0.27798E-01   672   0.113E+00    0.200E-01
DAV:   2    -0.168274797170E+03   -0.82596E-03   -0.16473E-02   798   0.275E-01    0.117E-01
DAV:   3    -0.168274684275E+03    0.11290E-03   -0.72936E-04   812   0.593E-02    0.795E-02
DAV:   4    -0.168274599032E+03    0.85242E-04   -0.10112E-04   420   0.254E-02
  38 F= -.16827460E+03 E0= -.16827460E+03  d E =-.114515E-01
       N       E                     dE             d eps       ncg     rms          rms(c)
DAV:   1    -0.168274541131E+03    0.14314E-03   -0.90764E-02   672   0.646E-01    0.127E-01
DAV:   2    -0.168274916796E+03   -0.37566E-03   -0.57382E-03   784   0.160E-01    0.570E-02
DAV:   3    -0.168274884548E+03    0.32248E-04   -0.16001E-04   420   0.305E-02
  39 F= -.16827488E+03 E0= -.16827488E+03  d E =-.117370E-01
       N       E                     dE             d eps       ncg     rms          rms(c)
DAV:   1    -0.168274859629E+03    0.57167E-04   -0.13216E-02   672   0.247E-01    0.397E-02
DAV:   2    -0.168274887448E+03   -0.27819E-04   -0.75554E-04   798   0.588E-02
  40 F= -.16827489E+03 E0= -.16827489E+03  d E =-.117399E-01
       N       E                     dE             d eps       ncg     rms          rms(c)
DAV:   1    -0.168278575570E+03   -0.37159E-02   -0.15556E-01   672   0.864E-01    0.211E-01
DAV:   2    -0.168278536834E+03    0.38736E-04   -0.97796E-03   798   0.219E-01    0.943E-02
DAV:   3    -0.168278334931E+03    0.20190E-03   -0.67315E-04   798   0.550E-02    0.552E-02
DAV:   4    -0.168278260628E+03    0.74303E-04   -0.79464E-05   462   0.219E-02
  41 F= -.16827826E+03 E0= -.16827826E+03  d E =-.337318E-02
       N       E                     dE             d eps       ncg     rms          rms(c)
DAV:   1    -0.168282399702E+03   -0.40648E-02   -0.54099E-01   672   0.161E+00    0.388E-01
DAV:   2    -0.168282246993E+03    0.15271E-03   -0.33632E-02   798   0.407E-01    0.176E-01
DAV:   3    -0.168281560500E+03    0.68649E-03   -0.24007E-03   798   0.104E-01    0.103E-01
DAV:   4    -0.168281296540E+03    0.26396E-03   -0.27196E-04   546   0.406E-02    0.518E-02
DAV:   5    -0.168281222819E+03    0.73722E-04   -0.32507E-04   602   0.394E-02
  42 F= -.16828122E+03 E0= -.16828122E+03  d E =-.633537E-02
       N       E                     dE             d eps       ncg     rms          rms(c)
DAV:   1    -0.168284433213E+03   -0.31367E-02   -0.19980E-01   672   0.964E-01    0.251E-01
DAV:   2    -0.168284343836E+03    0.89377E-04   -0.13172E-02   784   0.245E-01    0.113E-01
DAV:   3    -0.168284054434E+03    0.28940E-03   -0.84636E-04   770   0.591E-02    0.578E-02
DAV:   4    -0.168283955470E+03    0.98964E-04   -0.14062E-04   462   0.261E-02
  43 F= -.16828396E+03 E0= -.16828396E+03  d E =-.273265E-02
       N       E                     dE             d eps       ncg     rms          rms(c)
DAV:   1    -0.168285899361E+03   -0.18449E-02   -0.25189E-01   672   0.108E+00    0.277E-01
DAV:   2    -0.168285721615E+03    0.17775E-03   -0.16427E-02   784   0.274E-01    0.121E-01
DAV:   3    -0.168285351031E+03    0.37058E-03   -0.10974E-03   784   0.672E-02    0.644E-02
DAV:   4    -0.168285230905E+03    0.12013E-03   -0.17365E-04   476   0.290E-02    0.308E-02
DAV:   5    -0.168285205508E+03    0.25397E-04   -0.10823E-04   420   0.217E-02
  44 F= -.16828521E+03 E0= -.16828521E+03  d E =-.398269E-02
       N       E                     dE             d eps       ncg     rms          rms(c)
DAV:   1    -0.168287286539E+03   -0.20556E-02   -0.23395E-01   672   0.105E+00    0.210E-01
DAV:   2    -0.168288242239E+03   -0.95570E-03   -0.14666E-02   770   0.257E-01    0.829E-02
DAV:   3    -0.168288083022E+03    0.15922E-03   -0.31478E-04   714   0.450E-02    0.563E-02
DAV:   4    -0.168287979838E+03    0.10318E-03   -0.20453E-04   476   0.379E-02    0.163E-02
DAV:   5    -0.168287984574E+03   -0.47369E-05   -0.77691E-05   420   0.206E-02
  45 F= -.16828798E+03 E0= -.16828798E+03  d E =-.277907E-02
