 vasp.5.4.4.18Apr17-6-g9f103f2a35 (build Oct 27 2022 13:04:57) complex          
  
 executed on             LinuxIFC date 2024.07.04  10:12:11
 running on   14 total cores
 distrk:  each k-point on   14 cores,    1 groups
 distr:  one band on NCORES_PER_BAND=   1 cores,   14 groups


--------------------------------------------------------------------------------------------------------


 INCAR:
 POTCAR:    PAW_PBE Li 17Jan2003                  
 POTCAR:    PAW_PBE Bi 08Apr2002                  
 POTCAR:    PAW_PBE Se 06Sep2000                  

 ----------------------------------------------------------------------------- 
|                                                                             |
|           W    W    AA    RRRRR   N    N  II  N    N   GGGG   !!!           |
|           W    W   A  A   R    R  NN   N  II  NN   N  G    G  !!!           |
|           W    W  A    A  R    R  N N  N  II  N N  N  G       !!!           |
|           W WW W  AAAAAA  RRRRR   N  N N  II  N  N N  G  GGG   !            |
|           WW  WW  A    A  R   R   N   NN  II  N   NN  G    G                |
|           W    W  A    A  R    R  N    N  II  N    N   GGGG   !!!           |
|                                                                             |
|      For optimal performance we recommend to set                            |
|        NCORE= 4 - approx SQRT( number of cores)                             |
|      NCORE specifies how many cores store one orbital (NPAR=cpu/NCORE).     |
|      This setting can  greatly improve the performance of VASP for DFT.     |
|      The default,   NCORE=1            might be grossly inefficient         |
|      on modern multi-core architectures or massively parallel machines.     |
|      Do your own testing !!!!                                               |
|      Unfortunately you need to use the default for GW and RPA calculations. |
|      (for HF NCORE is supported but not extensively tested yet)             |
|                                                                             |
 ----------------------------------------------------------------------------- 

 POTCAR:    PAW_PBE Li 17Jan2003                  
   VRHFIN =Li: s1p0                                                             
   LEXCH  = PE                                                                  
   EATOM  =     5.3001 eV,    0.3895 Ry                                         
                                                                                
   TITEL  = PAW_PBE Li 17Jan2003                                                
   LULTRA =        F    use ultrasoft PP ?                                      
   IUNSCR =        1    unscreen: 0-lin 1-nonlin 2-no                           
   RPACOR =    1.500    partial core radius                                     
   POMASS =    7.010; ZVAL   =    1.000    mass and valenz                      
   RCORE  =    2.050    outmost cutoff radius                                   
   RWIGS  =    2.600; RWIGS  =    1.376    wigner-seitz radius (au A)           
   ENMAX  =  140.000; ENMIN  =  100.000 eV                                      
   ICORE  =        2    local potential                                         
   LCOR   =        T    correct aug charges                                     
   LPAW   =        T    paw PP                                                  
   EAUG   =  331.638                                                            
   DEXC   =    0.000                                                            
   RMAX   =    2.098    core radius for proj-oper                               
   RAUG   =    1.300    factor for augmentation sphere                          
   RDEP   =    2.094    radius for radial grids                                 
   RDEPT  =    1.810    core radius for aug-charge                              
                                                                                
   Atomic configuration                                                         
    4 entries                                                                   
     n  l   j            E        occ.                                          
     1  0  0.50       -51.8549   2.0000                                         
     2  0  0.50        -2.8742   1.0000                                         
     2  1  0.50        -1.3606   0.0000                                         
     3  2  1.50        -1.3606   0.0000                                         
   Description                                                                  
     l       E           TYP  RCUT    TYP  RCUT                                 
     0     -2.8742052     23  2.050                                             
     0     27.2116520     23  2.050                                             
     1     -1.3605826     23  2.050                                             
     2     -1.3605826     23  2.050                                             
  local pseudopotential read in
  partial core-charges read in
  partial kinetic energy density read in
  atomic valenz-charges read in
  non local Contribution for L=           0  read in
    real space projection operators read in
  non local Contribution for L=           0  read in
    real space projection operators read in
  non local Contribution for L=           1  read in
    real space projection operators read in
    PAW grid and wavefunctions read in
 
   number of l-projection  operators is LMAX  =           3
   number of lm-projection operators is LMMAX =           5
 
 POTCAR:    PAW_PBE Bi 08Apr2002                  
   VRHFIN =Bi:                                                                  
   LEXCH  = PE                                                                  
   EATOM  =   150.8133 eV,   11.0845 Ry                                         
                                                                                
   TITEL  = PAW_PBE Bi 08Apr2002                                                
   LULTRA =        F    use ultrasoft PP ?                                      
   IUNSCR =        1    unscreen: 0-lin 1-nonlin 2-no                           
   RPACOR =    2.200    partial core radius                                     
   POMASS =  208.980; ZVAL   =    5.000    mass and valenz                      
   RCORE  =    3.000    outmost cutoff radius                                   
   RWIGS  =    3.090; RWIGS  =    1.635    wigner-seitz radius (au A)           
   ENMAX  =  105.037; ENMIN  =   78.777 eV                                      
   ICORE  =        3    local potential                                         
   LCOR   =        T    correct aug charges                                     
   LPAW   =        T    paw PP                                                  
   EAUG   =  265.427                                                            
   DEXC   =    0.000                                                            
   RMAX   =    3.067    core radius for proj-oper                               
   RAUG   =    1.300    factor for augmentation sphere                          
   RDEP   =    3.012    radius for radial grids                                 
   RDEPT  =    2.604    core radius for aug-charge                              
                                                                                
   Atomic configuration                                                         
   17 entries                                                                   
     n  l   j            E        occ.                                          
     1  0  0.50    -90639.6582   2.0000                                         
     2  0  0.50    -16282.4667   2.0000                                         
     2  1  1.50    -13922.8287   6.0000                                         
     3  0  0.50     -3930.4763   2.0000                                         
     3  1  1.50     -3256.7013   6.0000                                         
     3  2  2.50     -2581.6169  10.0000                                         
     4  0  0.50      -902.2614   2.0000                                         
     4  1  1.50      -681.5915   6.0000                                         
     4  2  2.50      -429.8249  10.0000                                         
     4  3  3.50      -152.6004  14.0000                                         
     5  0  0.50      -157.7156   2.0000                                         
     5  1  1.50       -95.8054   6.0000                                         
     5  2  2.50       -27.0806  10.0000                                         
     6  0  0.50       -14.4732   2.0000                                         
     6  1  1.50        -4.5702   3.0000                                         
     6  2  2.50        -2.7212   0.0000                                         
     5  3  2.50        -2.7212   0.0000                                         
   Description                                                                  
     l       E           TYP  RCUT    TYP  RCUT                                 
     0    -14.4732299     23  3.000                                             
     0    -12.2452434     23  3.000                                             
     1     -4.5701666     23  3.000                                             
     1    -13.6058260     23  3.000                                             
     2     -2.7211652     23  3.000                                             
     3     -1.3605826      7  3.000                                             
  local pseudopotential read in
  partial core-charges read in
  partial kinetic energy density read in
  kinetic energy density of atom read in
  atomic valenz-charges read in
  non local Contribution for L=           0  read in
    real space projection operators read in
  non local Contribution for L=           0  read in
    real space projection operators read in
  non local Contribution for L=           1  read in
    real space projection operators read in
  non local Contribution for L=           1  read in
    real space projection operators read in
  non local Contribution for L=           2  read in
    real space projection operators read in
    PAW grid and wavefunctions read in
 
   number of l-projection  operators is LMAX  =           5
   number of lm-projection operators is LMMAX =          13
 
 POTCAR:    PAW_PBE Se 06Sep2000                  
   VRHFIN =Se: s2p4                                                             
   LEXCH  = PE                                                                  
   EATOM  =   257.1286 eV,   18.8984 Ry                                         
                                                                                
   TITEL  = PAW_PBE Se 06Sep2000                                                
   LULTRA =        F    use ultrasoft PP ?                                      
   IUNSCR =        1    unscreen: 0-lin 1-nonlin 2-no                           
   RPACOR =    1.900    partial core radius                                     
   POMASS =   78.960; ZVAL   =    6.000    mass and valenz                      
   RCORE  =    2.100    outmost cutoff radius                                   
   RWIGS  =    2.200; RWIGS  =    1.164    wigner-seitz radius (au A)           
   ENMAX  =  211.555; ENMIN  =  158.666 eV                                      
   ICORE  =        3    local potential                                         
   LCOR   =        T    correct aug charges                                     
   LPAW   =        T    paw PP                                                  
   EAUG   =  446.842                                                            
   DEXC   =    0.000                                                            
   RMAX   =    2.147    core radius for proj-oper                               
   RAUG   =    1.300    factor for augmentation sphere                          
   RDEP   =    2.177    radius for radial grids                                 
   RDEPT  =    1.928    core radius for aug-charge                              
                                                                                
   Atomic configuration                                                         
   10 entries                                                                   
     n  l   j            E        occ.                                          
     1  0  0.50    -12503.4787   2.0000                                         
     2  0  0.50     -1606.9547   2.0000                                         
     2  1  1.50     -1413.3140   6.0000                                         
     3  0  0.50      -213.4885   2.0000                                         
     3  1  1.50      -152.9538   6.0000                                         
     3  2  2.50       -53.1221  10.0000                                         
     4  0  0.50       -17.2865   2.0000                                         
     4  1  0.50        -6.5110   4.0000                                         
     4  2  2.50        -6.8029   0.0000                                         
     4  3  2.50        -6.8029   0.0000                                         
   Description                                                                  
     l       E           TYP  RCUT    TYP  RCUT                                 
     0    -17.2865377     23  2.100                                             
     0    -15.3094411     23  2.100                                             
     1     -6.5110275     23  2.100                                             
     1     -0.0695192     23  2.100                                             
     2     -6.8029130     23  2.100                                             
     3     -1.3605826      7  2.100                                             
  local pseudopotential read in
  partial core-charges read in
  partial kinetic energy density read in
  atomic valenz-charges read in
  non local Contribution for L=           0  read in
    real space projection operators read in
  non local Contribution for L=           0  read in
    real space projection operators read in
  non local Contribution for L=           1  read in
    real space projection operators read in
  non local Contribution for L=           1  read in
    real space projection operators read in
  non local Contribution for L=           2  read in
    real space projection operators read in
    PAW grid and wavefunctions read in
 
   number of l-projection  operators is LMAX  =           5
   number of lm-projection operators is LMMAX =          13
 
 Optimization of the real space projectors (new method)

 maximal supplied QI-value         = 18.33
 optimisation between [QCUT,QGAM] = [  8.80, 17.60] = [ 21.68, 86.71] Ry 
 Optimized for a Real-space Cutoff    1.15 Angstroem

   l    n(q)    QCUT    max X(q) W(low)/X(q) W(high)/X(q)  e(spline) 
   0      6     8.799    33.825    0.11E-02    0.11E-02    0.82E-07
   0      6     8.799     8.944    0.75E-03    0.85E-03    0.59E-07
   1      5     8.799     4.214    0.92E-03    0.27E-03    0.41E-07
 Optimization of the real space projectors (new method)

 maximal supplied QI-value         = 12.47
 optimisation between [QCUT,QGAM] = [  8.86, 17.71] = [ 21.96, 87.83] Ry 
 Optimized for a Real-space Cutoff    1.59 Angstroem

   l    n(q)    QCUT    max X(q) W(low)/X(q) W(high)/X(q)  e(spline) 
   0      8     8.855    93.365    0.12E-03    0.22E-03    0.92E-07
   0      8     8.855    75.373    0.13E-03    0.24E-03    0.10E-06
   1      8     8.855    32.978    0.17E-02    0.62E-03    0.17E-06
   1      8     8.855    35.433    0.19E-02    0.68E-03    0.19E-06
   2      7     8.855     8.108    0.22E-03    0.34E-03    0.64E-07
 Optimization of the real space projectors (new method)

 maximal supplied QI-value         = 17.95
 optimisation between [QCUT,QGAM] = [  8.80, 17.59] = [ 21.67, 86.68] Ry 
 Optimized for a Real-space Cutoff    1.19 Angstroem

   l    n(q)    QCUT    max X(q) W(low)/X(q) W(high)/X(q)  e(spline) 
   0      6     8.797   133.320    0.14E-02    0.11E-02    0.95E-07
   0      6     8.797   111.601    0.15E-02    0.12E-02    0.10E-06
   1      6     8.797    47.222    0.19E-02    0.96E-03    0.11E-06
   1      6     8.797    33.775    0.19E-02    0.99E-03    0.11E-06
   2      5     8.797     3.720    0.16E-02    0.14E-02    0.40E-07
  PAW_PBE Li 17Jan2003                  :
 energy of atom  1       EATOM=   -5.3001
 kinetic energy error for atom=    0.0000 (will be added to EATOM!!)
  PAW_PBE Bi 08Apr2002                  :
 energy of atom  2       EATOM= -150.8133
 kinetic energy error for atom=    0.0003 (will be added to EATOM!!)
  PAW_PBE Se 06Sep2000                  :
 energy of atom  3       EATOM= -257.1286
 kinetic energy error for atom=    0.0040 (will be added to EATOM!!)
 
 
 POSCAR: Li16 Bi8 Se20                           
  positions in direct lattice
  No initial velocities read in
 exchange correlation table for  LEXCH =        8
   RHO(1)=    0.500       N(1)  =     2000
   RHO(2)=  100.500       N(2)  =     4000
 


--------------------------------------------------------------------------------------------------------


 ion  position               nearest neighbor table
   1  0.250  0.192  0.920-  28 2.97  28 2.97
   2  0.250  0.692  0.580-  26 2.97  26 2.97
   3  0.750  0.808  0.080-  27 2.97  27 2.97
   4  0.250  0.428  0.917-  29 2.91  29 2.91
   5  0.750  0.572  0.083-  42 2.91  42 2.91
   6  0.250  0.928  0.583-  31 2.91  31 2.91
   7  0.750  0.072  0.417-  30 2.91  30 2.91
   8  0.250  0.185  0.265-  43 2.97
   9  0.750  0.815  0.735-  44 2.97
  10  0.250  0.685  0.235-  41 2.97
  11  0.750  0.315  0.765-  40 2.97
  12  0.250  0.183  0.569-  32 2.89
  13  0.750  0.817  0.431-  33 2.89
  14  0.250  0.683  0.931-  34 2.89
  15  0.750  0.317  0.069-  35 2.89
  16  0.750  0.308  0.420-  25 2.97  25 2.97
  17  0.750  0.570  0.757-  29 2.66  34 2.80  34 2.80  36 2.86  36 2.86  26 3.08
  18  0.250  0.430  0.243-  42 2.66  35 2.80  35 2.80  37 2.86  37 2.86  25 3.08
  19  0.250  0.930  0.257-  30 2.66  33 2.80  33 2.80  39 2.86  39 2.86  27 3.08
  20  0.750  0.070  0.743-  31 2.66  32 2.80  32 2.80  38 2.86  38 2.86  28 3.08
  21  0.250  0.442  0.589-  36 2.70  40 2.75  40 2.75  26 2.97  26 2.97  25 3.00
  22  0.750  0.558  0.411-  37 2.70  41 2.75  41 2.75  25 2.97  25 2.97  26 3.00
  23  0.250  0.942  0.911-  38 2.70  44 2.75  44 2.75  28 2.97  28 2.97  27 3.00
  24  0.750  0.058  0.089-  39 2.70  43 2.75  43 2.75  27 2.97  27 2.97  28 3.00
  25  0.250  0.433  0.418-  22 2.97  22 2.97  16 2.97  16 2.97  21 3.00  18 3.08
  26  0.750  0.567  0.582-  21 2.97  21 2.97   2 2.97   2 2.97  22 3.00  17 3.08
  27  0.250  0.933  0.082-  24 2.97  24 2.97   3 2.97   3 2.97  23 3.00  19 3.08
  28  0.750  0.067  0.918-  23 2.97  23 2.97   1 2.97   1 2.97  24 3.00  20 3.08
  29  0.750  0.548  0.907-  17 2.66   4 2.91   4 2.91
  30  0.250  0.952  0.407-  19 2.66   7 2.91   7 2.91
  31  0.750  0.048  0.593-  20 2.66   6 2.91   6 2.91
  32  0.250  0.181  0.734-  20 2.80  20 2.80  12 2.89
  33  0.750  0.819  0.266-  19 2.80  19 2.80  13 2.89
  34  0.250  0.681  0.766-  17 2.80  17 2.80  14 2.89
  35  0.750  0.319  0.234-  18 2.80  18 2.80  15 2.89
  36  0.250  0.455  0.742-  21 2.70  17 2.86  17 2.86
  37  0.750  0.545  0.258-  22 2.70  18 2.86  18 2.86
  38  0.250  0.955  0.758-  23 2.70  20 2.86  20 2.86
  39  0.750  0.045  0.242-  24 2.70  19 2.86  19 2.86
  40  0.750  0.335  0.598-  21 2.75  21 2.75  11 2.97
  41  0.250  0.665  0.402-  22 2.75  22 2.75  10 2.97
  42  0.250  0.452  0.093-  18 2.66   5 2.91   5 2.91
  43  0.250  0.165  0.098-  24 2.75  24 2.75   8 2.97
  44  0.750  0.835  0.902-  23 2.75  23 2.75   9 2.97
 
  LATTYP: Found a simple orthorhombic cell.
 ALAT       =     4.1137554600
 B/A-ratio  =     4.1578771651
 C/A-ratio  =     4.2772772813
  
  Lattice vectors:
  
 A1 = (   4.1137554600,   0.0000000000,   0.0000000000)
 A2 = (   0.0000000000,  17.1044898900,   0.0000000000)
 A3 = (   0.0000000000,   0.0000000000,  17.5956727700)


Analysis of symmetry for initial positions (statically):
=====================================================================
 Subroutine PRICEL returns:
 Original cell was already a primitive cell.
 

 Routine SETGRP: Setting up the symmetry group for a 
 simple orthorhombic supercell.


 Subroutine GETGRP returns: Found  8 space group operations
 (whereof  2 operations were pure point group operations)
 out of a pool of  8 trial point group operations.


The static configuration has the point symmetry S_2 .
 The point group associated with its full space group is D_2h.


Analysis of symmetry for dynamics (positions and initial velocities):
=====================================================================
 Subroutine PRICEL returns:
 Original cell was already a primitive cell.
 

 Routine SETGRP: Setting up the symmetry group for a 
 simple orthorhombic supercell.


 Subroutine GETGRP returns: Found  8 space group operations
 (whereof  2 operations were pure point group operations)
 out of a pool of  8 trial point group operations.


The dynamic configuration has the point symmetry S_2 .
 The point group associated with its full space group is D_2h.


 Subroutine INISYM returns: Found  8 space group operations
 (whereof  2 operations are pure point group operations),
 and found     1 'primitive' translations

 
 
 KPOINTS: pymatgen with grid density = 807 / numbe

Automatic generation of k-mesh.
Space group operators:
 irot       det(A)        alpha          n_x          n_y          n_z        tau_x        tau_y        tau_z
    1     1.000000     0.000001     1.000000     0.000000     0.000000     0.000000     0.000000     0.000000
    2    -1.000000     0.000001     1.000000     0.000000     0.000000     0.000000     0.000000     0.000000
    3     1.000000   180.000000     0.000000     0.000000     1.000000     0.000000     0.500000     0.500000
    4    -1.000000   180.000000     0.000000     0.000000     1.000000     0.000000     0.500000     0.500000
    5     1.000000   180.000000     0.000000     1.000000     0.000000     0.500000     0.500000     0.500000
    6    -1.000000   180.000000     0.000000     1.000000     0.000000     0.500000     0.500000     0.500000
    7     1.000000   179.999999     1.000000     0.000000     0.000000     0.500000     0.000000     0.000000
    8    -1.000000   179.999999     1.000000     0.000000     0.000000     0.500000     0.000000     0.000000
 
 Subroutine IBZKPT returns following result:
 ===========================================
 
 Found      3 irreducible k-points:
 
 Following reciprocal coordinates:
            Coordinates               Weight
  0.000000  0.250000  0.250000      4.000000
  0.200000  0.250000  0.250000      8.000000
  0.400000  0.250000  0.250000      8.000000
 
 Following cartesian coordinates:
            Coordinates               Weight
  0.000000  0.014616  0.014208      4.000000
  0.048617  0.014616  0.014208      8.000000
  0.097235  0.014616  0.014208      8.000000
 


--------------------------------------------------------------------------------------------------------




 Dimension of arrays:
   k-points           NKPTS =      3   k-points in BZ     NKDIM =      3   number of bands    NBANDS=    112
   number of dos      NEDOS =    301   number of ions     NIONS =     44
   non local maximal  LDIM  =      5   non local SUM 2l+1 LMDIM =     13
   total plane-waves  NPLWV = 103680
   max r-space proj   IRMAX =   1470   max aug-charges    IRDMAX=   4271
   dimension x,y,z NGX =    18 NGY =   72 NGZ =   80
   dimension x,y,z NGXF=    28 NGYF=  120 NGZF=  126
   support grid    NGXF=    28 NGYF=  120 NGZF=  126
   ions per type =              16   8  20
   NGX,Y,Z   is equivalent  to a cutoff of   7.27,  7.00,  7.56 a.u.
   NGXF,Y,Z  is equivalent  to a cutoff of  11.32, 11.66, 11.90 a.u.

 SYSTEM =  CIS                                     
 POSCAR =  Li16 Bi8 Se20                           

 Startparameter for this run:
   NWRITE =      2    write-flag & timer
   PREC   = medium    normal or accurate (medium, high low for compatibility)
   ISTART =      0    job   : 0-new  1-cont  2-samecut
   ICHARG =      2    charge: 1-file 2-atom 10-const
   ISPIN  =      1    spin polarized calculation?
   LNONCOLLINEAR =      F non collinear calculations
   LSORBIT =      F    spin-orbit coupling
   INIWAV =      1    electr: 0-lowe 1-rand  2-diag
   LASPH  =      T    aspherical Exc in radial PAW
   METAGGA=      F    non-selfconsistent MetaGGA calc.

 Electronic Relaxation 1
   ENCUT  =  300.0 eV  22.05 Ry    4.70 a.u.   5.81 24.16 24.85*2*pi/ulx,y,z
   ENINI  =  300.0     initial cutoff
   ENAUG  =  446.8 eV  augmentation charge cutoff
   NELM   =     60;   NELMIN=  2; NELMDL= -5     # of ELM steps 
   EDIFF  = 0.1E-03   stopping-criterion for ELM
   LREAL  =      T    real-space projection
   NLSPLINE    = F    spline interpolate recip. space projectors
   LCOMPAT=      F    compatible to vasp.4.4
   GGA_COMPAT  = T    GGA compatible to vasp.4.4-vasp.4.6
   LMAXPAW     = -100 max onsite density
   LMAXMIX     =    4 max onsite mixed and CHGCAR
   VOSKOWN=      0    Vosko Wilk Nusair interpolation
   ROPT   =   -0.00200  -0.00200  -0.00200
 Ionic relaxation
   EDIFFG = -.5E-01   stopping-criterion for IOM
   NSW    =     99    number of steps for IOM
   NBLOCK =      1;   KBLOCK =     99    inner block; outer block 
   IBRION =      2    ionic relax: 0-MD 1-quasi-New 2-CG
   NFREE  =      1    steps in history (QN), initial steepest desc. (CG)
   ISIF   =      3    stress and relaxation
   IWAVPR =     11    prediction:  0-non 1-charg 2-wave 3-comb
   ISYM   =      2    0-nonsym 1-usesym 2-fastsym
   LCORR  =      T    Harris-Foulkes like correction to forces

   POTIM  = 0.1000    time-step for ionic-motion
   TEIN   =    0.0    initial temperature
   TEBEG  =    0.0;   TEEND  =   0.0 temperature during run
   SMASS  =  -3.00    Nose mass-parameter (am)
   estimated Nose-frequenzy (Omega)   =  0.10E-29 period in steps =****** mass=  -0.387E-27a.u.
   SCALEE = 1.0000    scale energy and forces
   NPACO  =    256;   APACO  = 16.0  distance and # of slots for P.C.
   PSTRESS=    0.0 pullay stress

  Mass of Ions in am
   POMASS =   7.01208.98 78.96
  Ionic Valenz
   ZVAL   =   1.00  5.00  6.00
  Atomic Wigner-Seitz radii
   RWIGS  =  -1.00 -1.00 -1.00
  virtual crystal weights 
   VCA    =   1.00  1.00  1.00
   NELECT =     176.0000    total number of electrons
   NUPDOWN=      -1.0000    fix difference up-down

 DOS related values:
   EMIN   =  10.00;   EMAX   =-10.00  energy-range for DOS
   EFERMI =   0.00
   ISMEAR =     0;   SIGMA  =   0.05  broadening in eV -4-tet -1-fermi 0-gaus

 Electronic relaxation 2 (details)
   IALGO  =     38    algorithm
   LDIAG  =      T    sub-space diagonalisation (order eigenvalues)
   LSUBROT=      F    optimize rotation matrix (better conditioning)
   TURBO    =      0    0=normal 1=particle mesh
   IRESTART =      0    0=no restart 2=restart with 2 vectors
   NREBOOT  =      0    no. of reboots
   NMIN     =      0    reboot dimension
   EREF     =   0.00    reference energy to select bands
   IMIX   =      4    mixing-type and parameters
     AMIX     =   0.40;   BMIX     =  1.00
     AMIX_MAG =   1.60;   BMIX_MAG =  1.00
     AMIN     =   0.10
     WC   =   100.;   INIMIX=   1;  MIXPRE=   1;  MAXMIX= -45

 Intra band minimization:
   WEIMIN = 0.0010     energy-eigenvalue tresh-hold
   EBREAK =  0.22E-06  absolut break condition
   DEPER  =   0.30     relativ break condition  

   TIME   =   0.40     timestep for ELM

  volume/ion in A,a.u.               =      28.14       189.89
  Fermi-wavevector in a.u.,A,eV,Ry     =   0.854399  1.614581  9.932229  0.729998
  Thomas-Fermi vector in A             =   1.970990
 
 Write flags
   LWAVE        =      F    write WAVECAR
   LDOWNSAMPLE  =      F    k-point downsampling of WAVECAR
   LCHARG       =      F    write CHGCAR
   LVTOT        =      F    write LOCPOT, total local potential
   LVHAR        =      F    write LOCPOT, Hartree potential only
   LELF         =      F    write electronic localiz. function (ELF)
   LORBIT       =     10    0 simple, 1 ext, 2 COOP (PROOUT), +10 PAW based schemes


 Dipole corrections
   LMONO  =      F    monopole corrections only (constant potential shift)
   LDIPOL =      F    correct potential (dipole corrections)
   IDIPOL =      0    1-x, 2-y, 3-z, 4-all directions 
   EPSILON=  1.0000000 bulk dielectric constant

 Exchange correlation treatment:
   GGA     =    --    GGA type
   LEXCH   =     8    internal setting for exchange type
   VOSKOWN=      0    Vosko Wilk Nusair interpolation
   LHFCALC =     F    Hartree Fock is set to
   LHFONE  =     F    Hartree Fock one center treatment
   AEXX    =    0.0000 exact exchange contribution

 Linear response parameters
   LEPSILON=     F    determine dielectric tensor
   LRPA    =     F    only Hartree local field effects (RPA)
   LNABLA  =     F    use nabla operator in PAW spheres
   LVEL    =     F    velocity operator in full k-point grid
   LINTERFAST=   F  fast interpolation
   KINTER  =     0    interpolate to denser k-point grid
   CSHIFT  =0.1000    complex shift for real part using Kramers Kronig
   OMEGAMAX=  -1.0    maximum frequency
   DEG_THRESHOLD= 0.2000000E-02 threshold for treating states as degnerate
   RTIME   =   -0.100 relaxation time in fs
  (WPLASMAI=    0.000 imaginary part of plasma frequency in eV, 0.658/RTIME)
   DFIELD  = 0.0000000 0.0000000 0.0000000 field for delta impulse in time
 
 Orbital magnetization related:
   ORBITALMAG=     F  switch on orbital magnetization
   LCHIMAG   =     F  perturbation theory with respect to B field
   DQ        =  0.001000  dq finite difference perturbation B field
   LLRAUG    =     F  two centre corrections for induced B field



--------------------------------------------------------------------------------------------------------


 conjugate gradient relaxation of ions
 charge density and potential will be updated during run
 non-spin polarized calculation
 Variant of blocked Davidson
 Davidson routine will perform the subspace rotation
 perform sub-space diagonalisation
    after iterative eigenvector-optimisation
 modified Broyden-mixing scheme, WC =      100.0
 initial mixing is a Kerker type mixing with AMIX =  0.4000 and BMIX =      1.0000
 Hartree-type preconditioning will be used
 using additional bands           24
 real space projection scheme for non local part
 use partial core corrections
 calculate Harris-corrections to forces 
   (improved forces if not selfconsistent)
 use gradient corrections 
 use of overlap-Matrix (Vanderbilt PP)
 Gauss-broadening in eV      SIGMA  =   0.05


--------------------------------------------------------------------------------------------------------


  energy-cutoff  :      300.00
  volume of cell :     1238.10
      direct lattice vectors                 reciprocal lattice vectors
     4.113755460  0.000000000  0.000000000     0.243086885  0.000000000  0.000000000
     0.000000000 17.104489890  0.000000000     0.000000000  0.058464181  0.000000000
     0.000000000  0.000000000 17.595672770     0.000000000  0.000000000  0.056832155

  length of vectors
     4.113755460 17.104489890 17.595672770     0.243086885  0.058464181  0.056832155


 
 k-points in units of 2pi/SCALE and weight: pymatgen with grid density = 807 / numbe
   0.00000000  0.01461605  0.01420804       0.200
   0.04861738  0.01461605  0.01420804       0.400
   0.09723475  0.01461605  0.01420804       0.400
 
 k-points in reciprocal lattice and weights: pymatgen with grid density = 807 / numbe
   0.00000000  0.25000000  0.25000000       0.200
   0.20000000  0.25000000  0.25000000       0.400
   0.40000000  0.25000000  0.25000000       0.400
 
 position of ions in fractional coordinates (direct lattice) 
   0.25000000  0.19218602  0.91958062
   0.25000000  0.69218602  0.58041938
   0.75000000  0.80781398  0.08041938
   0.25000000  0.42780610  0.91708645
   0.75000000  0.57219390  0.08291355
   0.25000000  0.92780610  0.58291355
   0.75000000  0.07219390  0.41708645
   0.25000000  0.18489487  0.26518294
   0.75000000  0.81510513  0.73481706
   0.25000000  0.68489487  0.23481706
   0.75000000  0.31510513  0.76518294
   0.25000000  0.18330456  0.56938156
   0.75000000  0.81669544  0.43061844
   0.25000000  0.68330456  0.93061844
   0.75000000  0.31669544  0.06938156
   0.75000000  0.30781398  0.41958062
   0.75000000  0.57000813  0.75694783
   0.25000000  0.42999187  0.24305217
   0.25000000  0.92999187  0.25694783
   0.75000000  0.07000813  0.74305217
   0.25000000  0.44168188  0.58860454
   0.75000000  0.55831812  0.41139546
   0.25000000  0.94168188  0.91139546
   0.75000000  0.05831812  0.08860454
   0.25000000  0.43344078  0.41825133
   0.75000000  0.56655922  0.58174867
   0.25000000  0.93344078  0.08174867
   0.75000000  0.06655922  0.91825133
   0.75000000  0.54802805  0.90686239
   0.25000000  0.95197195  0.40686239
   0.75000000  0.04802805  0.59313761
   0.25000000  0.18077916  0.73365928
   0.75000000  0.81922084  0.26634072
   0.25000000  0.68077916  0.76634072
   0.75000000  0.31922084  0.23365928
   0.25000000  0.45471405  0.74177240
   0.75000000  0.54528595  0.25822760
   0.25000000  0.95471405  0.75822760
   0.75000000  0.04528595  0.24177240
   0.75000000  0.33524303  0.59781178
   0.25000000  0.66475697  0.40218822
   0.25000000  0.45197195  0.09313761
   0.25000000  0.16475697  0.09781178
   0.75000000  0.83524303  0.90218822
 
 position of ions in cartesian coordinates  (Angst):
   1.02843887  3.28724384 16.18063968
   1.02843887 11.83948878 10.21286948
   3.08531660 13.81724605  1.41503309
   1.02843887  7.31740511 16.13675308
   3.08531660  9.78708478  1.45891969
   1.02843887 15.86965006 10.25675608
   3.08531660  1.23483983  7.33891669
   1.02843887  3.16253243  4.66607224
   3.08531660 13.94195746 12.92960053
   1.02843887 11.71477738  4.13176415
   3.08531660  5.38971251 13.46390862
   1.02843887  3.13533099 10.01865161
   3.08531660 13.96915890  7.57702116
   1.02843887 11.68757594 16.37485754
   3.08531660  5.41691395  1.22081523
   3.08531660  5.26500111  7.38280329
   3.08531660  9.74969830 13.31900632
   1.02843887  7.35479159  4.27666645
   1.02843887 15.90703654  4.52116994
   3.08531660  1.19745335 13.07450283
   1.02843887  7.55474325 10.35689288
   3.08531660  9.54974664  7.23877989
   1.02843887 16.10698820 16.03661628
   3.08531660  0.99750169  1.55905649
   1.02843887  7.41378344  7.35941354
   3.08531660  9.69070645 10.23625923
   1.02843887 15.96602838  1.43842285
   3.08531660  1.13846151 16.15724992
   3.08531660  9.37374024 15.95685386
   1.02843887 16.28299459  7.15901748
   3.08531660  0.82149530 10.43665529
   1.02843887  3.09213531 12.90922862
   3.08531660 14.01235458  4.68644415
   1.02843887 11.64438026 13.48428054
   3.08531660  5.46010963  4.11139223
   1.02843887  7.77765187 13.05198442
   3.08531660  9.32683802  4.54368835
   1.02843887 16.32989682 13.34152473
   3.08531660  0.77459307  4.25414804
   3.08531660  5.73416102 10.51890046
   1.02843887 11.37032887  7.07677231
   1.02843887  7.73074965  1.63881891
   1.02843887  2.81808393  1.72106407
   3.08531660 14.28640596 15.87460870
 


--------------------------------------------------------------------------------------------------------


 k-point  1 :   0.0000 0.2500 0.2500  plane waves:   14605
 k-point  2 :   0.2000 0.2500 0.2500  plane waves:   14570
 k-point  3 :   0.4000 0.2500 0.2500  plane waves:   14631

 maximum and minimum number of plane-waves per node :     14631    14570

 maximum number of plane-waves:     14631
 maximum index in each direction: 
   IXMAX=    5   IYMAX=   23   IZMAX=   24
   IXMIN=   -6   IYMIN=  -24   IZMIN=  -25


 serial   3D FFT for wavefunctions
 parallel 3D FFT for charge:
    minimum data exchange during FFTs selected (reduces bandwidth)


 total amount of memory used by VASP MPI-rank0    47824. kBytes
=======================================================================

   base      :      30000. kBytes
   nonlr-proj:       4013. kBytes
   fftplans  :       1533. kBytes
   grid      :       6127. kBytes
   one-center:        356. kBytes
   wavefun   :       5795. kBytes
 
     INWAV:  cpu time    0.0000: real time    0.0001
 Broyden mixing: mesh for mixing (old mesh)
   NGX = 11   NGY = 49   NGZ = 49
  (NGX  = 28   NGY  =120   NGZ  =126)
  gives a total of  26411 points

 initial charge density was supplied:
 charge density of overlapping atoms calculated
 number of electron     176.0000000 magnetization 
 keeping initial charge density in first step


--------------------------------------------------------------------------------------------------------


 Maximum index for non-local projection operator         1390
 Maximum index for augmentation-charges          292 (set IRDMAX)


--------------------------------------------------------------------------------------------------------


 First call to EWALD:  gamma=   0.165
 Maximum number of real-space cells 6x 2x 2
 Maximum number of reciprocal cells 1x 4x 4

    FEWALD:  cpu time    0.0024: real time    0.0024


--------------------------------------- Iteration      1(   1)  ---------------------------------------


    POTLOK:  cpu time    0.0334: real time    0.0556
    SETDIJ:  cpu time    0.3257: real time    0.3264
     EDDAV:  cpu time    0.8759: real time    0.8761
       DOS:  cpu time    0.0003: real time    0.0003
    --------------------------------------------
      LOOP:  cpu time    1.2353: real time    1.2584

 eigenvalue-minimisations  :   672
 total energy-change (2. order) : 0.7138711E+03  (-0.4627974E+04)
 number of electron     176.0000000 magnetization 
 augmentation part      176.0000000 magnetization 

 Free energy of the ion-electron system (eV)
  ---------------------------------------------------
  alpha Z        PSCENC =       184.84106473
  Ewald energy   TEWEN  =     -4356.15199014
  -Hartree energ DENC   =     -2108.31310723
  -exchange      EXHF   =         0.00000000
  -V(xc)+E(xc)   XCENC  =      -962.11121950
  PAW double counting   =      6129.35374783    -4829.50552248
  entropy T*S    EENTRO =        -0.01593871
  eigenvalues    EBANDS =       221.97701878
  atomic energy  EATOM  =      6433.79709382
  Solvation  Ediel_sol  =         0.00000000
  ---------------------------------------------------
  free energy    TOTEN  =       713.87114710 eV

  energy without entropy =      713.88708580  energy(sigma->0) =      713.87911645


--------------------------------------------------------------------------------------------------------




--------------------------------------- Iteration      1(   2)  ---------------------------------------


     EDDAV:  cpu time    1.0225: real time    1.0237
       DOS:  cpu time    0.0005: real time    0.0005
    --------------------------------------------
      LOOP:  cpu time    1.0230: real time    1.0242

 eigenvalue-minimisations  :   924
 total energy-change (2. order) :-0.7810851E+03  (-0.7499222E+03)
 number of electron     176.0000000 magnetization 
 augmentation part      176.0000000 magnetization 

 Free energy of the ion-electron system (eV)
  ---------------------------------------------------
  alpha Z        PSCENC =       184.84106473
  Ewald energy   TEWEN  =     -4356.15199014
  -Hartree energ DENC   =     -2108.31310723
  -exchange      EXHF   =         0.00000000
  -V(xc)+E(xc)   XCENC  =      -962.11121950
  PAW double counting   =      6129.35374783    -4829.50552248
  entropy T*S    EENTRO =        -0.00924057
  eigenvalues    EBANDS =      -559.11476508
  atomic energy  EATOM  =      6433.79709382
  Solvation  Ediel_sol  =         0.00000000
  ---------------------------------------------------
  free energy    TOTEN  =       -67.21393863 eV

  energy without entropy =      -67.20469806  energy(sigma->0) =      -67.20931834


--------------------------------------------------------------------------------------------------------




--------------------------------------- Iteration      1(   3)  ---------------------------------------


     EDDAV:  cpu time    0.9729: real time    0.9732
       DOS:  cpu time    0.0002: real time    0.0002
    --------------------------------------------
      LOOP:  cpu time    0.9731: real time    0.9734

 eigenvalue-minimisations  :   798
 total energy-change (2. order) :-0.9412555E+02  (-0.9318522E+02)
 number of electron     176.0000000 magnetization 
 augmentation part      176.0000000 magnetization 

 Free energy of the ion-electron system (eV)
  ---------------------------------------------------
  alpha Z        PSCENC =       184.84106473
  Ewald energy   TEWEN  =     -4356.15199014
  -Hartree energ DENC   =     -2108.31310723
  -exchange      EXHF   =         0.00000000
  -V(xc)+E(xc)   XCENC  =      -962.11121950
  PAW double counting   =      6129.35374783    -4829.50552248
  entropy T*S    EENTRO =        -0.00000000
  eigenvalues    EBANDS =      -653.24955583
  atomic energy  EATOM  =      6433.79709382
  Solvation  Ediel_sol  =         0.00000000
  ---------------------------------------------------
  free energy    TOTEN  =      -161.33948880 eV

  energy without entropy =     -161.33948880  energy(sigma->0) =     -161.33948880


--------------------------------------------------------------------------------------------------------




--------------------------------------- Iteration      1(   4)  ---------------------------------------


     EDDAV:  cpu time    1.0307: real time    1.0309
       DOS:  cpu time    0.0001: real time    0.0001
    --------------------------------------------
      LOOP:  cpu time    1.0309: real time    1.0310

 eigenvalue-minimisations  :   952
 total energy-change (2. order) :-0.2945780E+01  (-0.2936081E+01)
 number of electron     176.0000000 magnetization 
 augmentation part      176.0000000 magnetization 

 Free energy of the ion-electron system (eV)
  ---------------------------------------------------
  alpha Z        PSCENC =       184.84106473
  Ewald energy   TEWEN  =     -4356.15199014
  -Hartree energ DENC   =     -2108.31310723
  -exchange      EXHF   =         0.00000000
  -V(xc)+E(xc)   XCENC  =      -962.11121950
  PAW double counting   =      6129.35374783    -4829.50552248
  entropy T*S    EENTRO =        -0.00000000
  eigenvalues    EBANDS =      -656.19533571
  atomic energy  EATOM  =      6433.79709382
  Solvation  Ediel_sol  =         0.00000000
  ---------------------------------------------------
  free energy    TOTEN  =      -164.28526869 eV

  energy without entropy =     -164.28526869  energy(sigma->0) =     -164.28526869


--------------------------------------------------------------------------------------------------------




--------------------------------------- Iteration      1(   5)  ---------------------------------------


     EDDAV:  cpu time    0.8637: real time    0.8639
       DOS:  cpu time    0.0002: real time    0.0002
    CHARGE:  cpu time    0.0531: real time    0.0531
    MIXING:  cpu time    0.0011: real time    0.0011
    --------------------------------------------
      LOOP:  cpu time    0.9181: real time    0.9184

 eigenvalue-minimisations  :   854
 total energy-change (2. order) :-0.5562613E-01  (-0.5555144E-01)
 number of electron     175.9998833 magnetization 
 augmentation part      -35.6816769 magnetization 

 Broyden mixing:
  rms(total) = 0.16988E+01    rms(broyden)= 0.16987E+01
  rms(prec ) = 0.19343E+01
  weight for this iteration     100.00

 Free energy of the ion-electron system (eV)
  ---------------------------------------------------
  alpha Z        PSCENC =       184.84106473
  Ewald energy   TEWEN  =     -4356.15199014
  -Hartree energ DENC   =     -2108.31310723
  -exchange      EXHF   =         0.00000000
  -V(xc)+E(xc)   XCENC  =      -962.11121950
  PAW double counting   =      6129.35374783    -4829.50552248
  entropy T*S    EENTRO =        -0.00000000
  eigenvalues    EBANDS =      -656.25096185
  atomic energy  EATOM  =      6433.79709382
  Solvation  Ediel_sol  =         0.00000000
  ---------------------------------------------------
  free energy    TOTEN  =      -164.34089482 eV

  energy without entropy =     -164.34089482  energy(sigma->0) =     -164.34089482


--------------------------------------------------------------------------------------------------------




--------------------------------------- Iteration      1(   6)  ---------------------------------------


    POTLOK:  cpu time    0.0178: real time    0.0179
    SETDIJ:  cpu time    0.3274: real time    0.3274
     EDDAV:  cpu time    0.9317: real time    0.9319
       DOS:  cpu time    0.0002: real time    0.0002
    CHARGE:  cpu time    0.0441: real time    0.0441
    MIXING:  cpu time    0.0011: real time    0.0011
    --------------------------------------------
      LOOP:  cpu time    1.3223: real time    1.3227

 eigenvalue-minimisations  :   770
 total energy-change (2. order) : 0.8457445E+01  (-0.1569308E+01)
 number of electron     175.9998870 magnetization 
 augmentation part      -35.1776461 magnetization 

 Broyden mixing:
  rms(total) = 0.96190E+00    rms(broyden)= 0.96189E+00
  rms(prec ) = 0.10443E+01
  weight for this iteration     100.00

 eigenvalues of (default mixing * dielectric matrix)
  average eigenvalue GAMMA=   1.6662
  1.6662

 Free energy of the ion-electron system (eV)
  ---------------------------------------------------
  alpha Z        PSCENC =       184.84106473
  Ewald energy   TEWEN  =     -4356.15199014
  -Hartree energ DENC   =     -2183.56180655
  -exchange      EXHF   =         0.00000000
  -V(xc)+E(xc)   XCENC  =      -956.45438311
  PAW double counting   =      7168.50090723    -5870.41759082
  entropy T*S    EENTRO =        -0.00000000
  eigenvalues    EBANDS =      -576.43674470
  atomic energy  EATOM  =      6433.79709382
  Solvation  Ediel_sol  =         0.00000000
  ---------------------------------------------------
  free energy    TOTEN  =      -155.88344955 eV

  energy without entropy =     -155.88344955  energy(sigma->0) =     -155.88344955


--------------------------------------------------------------------------------------------------------




--------------------------------------- Iteration      1(   7)  ---------------------------------------


    POTLOK:  cpu time    0.0192: real time    0.0193
    SETDIJ:  cpu time    0.3279: real time    0.3281
     EDDAV:  cpu time    0.8349: real time    0.8349
       DOS:  cpu time    0.0003: real time    0.0003
    CHARGE:  cpu time    0.0430: real time    0.0431
    MIXING:  cpu time    0.0009: real time    0.0009
    --------------------------------------------
      LOOP:  cpu time    1.2262: real time    1.2267

 eigenvalue-minimisations  :   812
 total energy-change (2. order) : 0.9860944E+00  (-0.7740579E+00)
 number of electron     175.9998899 magnetization 
 augmentation part      -35.0078428 magnetization 

 Broyden mixing:
  rms(total) = 0.52598E+00    rms(broyden)= 0.52597E+00
  rms(prec ) = 0.54576E+00
  weight for this iteration     100.00

 eigenvalues of (default mixing * dielectric matrix)
  average eigenvalue GAMMA=   1.5901
  0.9250  2.2551

 Free energy of the ion-electron system (eV)
  ---------------------------------------------------
  alpha Z        PSCENC =       184.84106473
  Ewald energy   TEWEN  =     -4356.15199014
  -Hartree energ DENC   =     -2232.30581533
  -exchange      EXHF   =         0.00000000
  -V(xc)+E(xc)   XCENC  =      -952.75131313
  PAW double counting   =      8372.32861624    -7075.63335779
  entropy T*S    EENTRO =        -0.00028213
  eigenvalues    EBANDS =      -529.02137147
  atomic energy  EATOM  =      6433.79709382
  Solvation  Ediel_sol  =         0.00000000
  ---------------------------------------------------
  free energy    TOTEN  =      -154.89735520 eV

  energy without entropy =     -154.89707307  energy(sigma->0) =     -154.89721413


--------------------------------------------------------------------------------------------------------




--------------------------------------- Iteration      1(   8)  ---------------------------------------


    POTLOK:  cpu time    0.0224: real time    0.0225
    SETDIJ:  cpu time    0.3264: real time    0.3269
     EDDAV:  cpu time    0.9740: real time    0.9741
       DOS:  cpu time    0.0002: real time    0.0002
    CHARGE:  cpu time    0.0370: real time    0.0370
    MIXING:  cpu time    0.0009: real time    0.0009
    --------------------------------------------
      LOOP:  cpu time    1.3610: real time    1.3617

 eigenvalue-minimisations  :   840
 total energy-change (2. order) : 0.1299161E+00  (-0.5843530E-01)
 number of electron     175.9998896 magnetization 
 augmentation part      -35.1482143 magnetization 

 Broyden mixing:
  rms(total) = 0.20528E+00    rms(broyden)= 0.20528E+00
  rms(prec ) = 0.21492E+00
  weight for this iteration     100.00

 eigenvalues of (default mixing * dielectric matrix)
  average eigenvalue GAMMA=   1.5883
  2.5346  1.1152  1.1152

 Free energy of the ion-electron system (eV)
  ---------------------------------------------------
  alpha Z        PSCENC =       184.84106473
  Ewald energy   TEWEN  =     -4356.15199014
  -Hartree energ DENC   =     -2232.06686704
  -exchange      EXHF   =         0.00000000
  -V(xc)+E(xc)   XCENC  =      -952.51982924
  PAW double counting   =      8850.22834360    -7553.72708905
  entropy T*S    EENTRO =        -0.00273389
  eigenvalues    EBANDS =      -529.16543185
  atomic energy  EATOM  =      6433.79709382
  Solvation  Ediel_sol  =         0.00000000
  ---------------------------------------------------
  free energy    TOTEN  =      -154.76743907 eV

  energy without entropy =     -154.76470518  energy(sigma->0) =     -154.76607212


--------------------------------------------------------------------------------------------------------




--------------------------------------- Iteration      1(   9)  ---------------------------------------


    POTLOK:  cpu time    0.0137: real time    0.0137
    SETDIJ:  cpu time    0.3207: real time    0.3207
     EDDAV:  cpu time    0.8816: real time    0.8817
       DOS:  cpu time    0.0002: real time    0.0002
    CHARGE:  cpu time    0.0345: real time    0.0345
    MIXING:  cpu time    0.0008: real time    0.0008
    --------------------------------------------
      LOOP:  cpu time    1.2514: real time    1.2515

 eigenvalue-minimisations  :   798
 total energy-change (2. order) : 0.1488118E-01  (-0.1529707E-01)
 number of electron     175.9998892 magnetization 
 augmentation part      -35.1897271 magnetization 

 Broyden mixing:
  rms(total) = 0.50470E-01    rms(broyden)= 0.50469E-01
  rms(prec ) = 0.54492E-01
  weight for this iteration     100.00

 eigenvalues of (default mixing * dielectric matrix)
  average eigenvalue GAMMA=   1.3953
  2.3679  1.1716  1.1716  0.8699

 Free energy of the ion-electron system (eV)
  ---------------------------------------------------
  alpha Z        PSCENC =       184.84106473
  Ewald energy   TEWEN  =     -4356.15199014
  -Hartree energ DENC   =     -2232.71939185
  -exchange      EXHF   =         0.00000000
  -V(xc)+E(xc)   XCENC  =      -952.32916234
  PAW double counting   =      9087.83303001    -7791.27714331
  entropy T*S    EENTRO =        -0.00457705
  eigenvalues    EBANDS =      -528.74148174
  atomic energy  EATOM  =      6433.79709382
  Solvation  Ediel_sol  =         0.00000000
  ---------------------------------------------------
  free energy    TOTEN  =      -154.75255788 eV

  energy without entropy =     -154.74798083  energy(sigma->0) =     -154.75026936


--------------------------------------------------------------------------------------------------------




--------------------------------------- Iteration      1(  10)  ---------------------------------------


    POTLOK:  cpu time    0.0127: real time    0.0128
    SETDIJ:  cpu time    0.3241: real time    0.3241
     EDDAV:  cpu time    1.1968: real time    1.1969
       DOS:  cpu time    0.0002: real time    0.0002
    CHARGE:  cpu time    0.0466: real time    0.0466
    MIXING:  cpu time    0.0014: real time    0.0014
    --------------------------------------------
      LOOP:  cpu time    1.5818: real time    1.5820

 eigenvalue-minimisations  :   868
 total energy-change (2. order) :-0.5887391E-03  (-0.1360200E-02)
 number of electron     175.9998892 magnetization 
 augmentation part      -35.1987403 magnetization 

 Broyden mixing:
  rms(total) = 0.30294E-01    rms(broyden)= 0.30293E-01
  rms(prec ) = 0.34174E-01
  weight for this iteration     100.00

 eigenvalues of (default mixing * dielectric matrix)
  average eigenvalue GAMMA=   1.4466
  2.1614  1.5514  1.5514  0.9845  0.9845

 Free energy of the ion-electron system (eV)
  ---------------------------------------------------
  alpha Z        PSCENC =       184.84106473
  Ewald energy   TEWEN  =     -4356.15199014
  -Hartree energ DENC   =     -2231.88353107
  -exchange      EXHF   =         0.00000000
  -V(xc)+E(xc)   XCENC  =      -952.42540272
  PAW double counting   =      9016.42436808    -7719.77824110
  entropy T*S    EENTRO =        -0.00344262
  eigenvalues    EBANDS =      -529.57306559
  atomic energy  EATOM  =      6433.79709382
  Solvation  Ediel_sol  =         0.00000000
  ---------------------------------------------------
  free energy    TOTEN  =      -154.75314662 eV

  energy without entropy =     -154.74970400  energy(sigma->0) =     -154.75142531


--------------------------------------------------------------------------------------------------------




--------------------------------------- Iteration      1(  11)  ---------------------------------------


    POTLOK:  cpu time    0.0175: real time    0.0176
    SETDIJ:  cpu time    0.3248: real time    0.3249
     EDDAV:  cpu time    0.9673: real time    0.9673
       DOS:  cpu time    0.0002: real time    0.0002
    CHARGE:  cpu time    0.0361: real time    0.0361
    MIXING:  cpu time    0.0011: real time    0.0011
    --------------------------------------------
      LOOP:  cpu time    1.3470: real time    1.3472

 eigenvalue-minimisations  :   854
 total energy-change (2. order) :-0.3667203E-03  (-0.3248701E-03)
 number of electron     175.9998892 magnetization 
 augmentation part      -35.1912716 magnetization 

 Broyden mixing:
  rms(total) = 0.14109E-01    rms(broyden)= 0.14109E-01
  rms(prec ) = 0.16426E-01
  weight for this iteration     100.00

 eigenvalues of (default mixing * dielectric matrix)
  average eigenvalue GAMMA=   1.5166
  2.4203  2.4203  0.9491  0.9491  1.1803  1.1803

 Free energy of the ion-electron system (eV)
  ---------------------------------------------------
  alpha Z        PSCENC =       184.84106473
  Ewald energy   TEWEN  =     -4356.15199014
  -Hartree energ DENC   =     -2232.63933646
  -exchange      EXHF   =         0.00000000
  -V(xc)+E(xc)   XCENC  =      -952.42332837
  PAW double counting   =      8982.05073077    -7685.34999202
  entropy T*S    EENTRO =        -0.00396362
  eigenvalues    EBANDS =      -528.87379206
  atomic energy  EATOM  =      6433.79709382
  Solvation  Ediel_sol  =         0.00000000
  ---------------------------------------------------
  free energy    TOTEN  =      -154.75351334 eV

  energy without entropy =     -154.74954972  energy(sigma->0) =     -154.75153153


--------------------------------------------------------------------------------------------------------




--------------------------------------- Iteration      1(  12)  ---------------------------------------


    POTLOK:  cpu time    0.0146: real time    0.0147
    SETDIJ:  cpu time    0.3266: real time    0.3282
     EDDAV:  cpu time    0.9154: real time    0.9168
       DOS:  cpu time    0.0002: real time    0.0002
    CHARGE:  cpu time    0.0363: real time    0.0363
    MIXING:  cpu time    0.0011: real time    0.0011
    --------------------------------------------
      LOOP:  cpu time    1.2942: real time    1.2973

 eigenvalue-minimisations  :   756
 total energy-change (2. order) :-0.2166945E-03  (-0.1119937E-03)
 number of electron     175.9998892 magnetization 
 augmentation part      -35.1940140 magnetization 

 Broyden mixing:
  rms(total) = 0.51949E-02    rms(broyden)= 0.51948E-02
  rms(prec ) = 0.65567E-02
  weight for this iteration     100.00

 eigenvalues of (default mixing * dielectric matrix)
  average eigenvalue GAMMA=   1.5083
  2.5524  2.5524  1.2997  0.9816  0.9816  1.0952  1.0952

 Free energy of the ion-electron system (eV)
  ---------------------------------------------------
  alpha Z        PSCENC =       184.84106473
  Ewald energy   TEWEN  =     -4356.15199014
  -Hartree energ DENC   =     -2232.56194135
  -exchange      EXHF   =         0.00000000
  -V(xc)+E(xc)   XCENC  =      -952.45965337
  PAW double counting   =      8950.85897254    -7654.11019148
  entropy T*S    EENTRO =        -0.00384737
  eigenvalues    EBANDS =      -528.96323742
  atomic energy  EATOM  =      6433.79709382
  Solvation  Ediel_sol  =         0.00000000
  ---------------------------------------------------
  free energy    TOTEN  =      -154.75373004 eV

  energy without entropy =     -154.74988267  energy(sigma->0) =     -154.75180635


--------------------------------------------------------------------------------------------------------




--------------------------------------- Iteration      1(  13)  ---------------------------------------


    POTLOK:  cpu time    0.0145: real time    0.0146
    SETDIJ:  cpu time    0.3264: real time    0.3264
     EDDAV:  cpu time    0.6065: real time    0.6065
       DOS:  cpu time    0.0002: real time    0.0002
    --------------------------------------------
      LOOP:  cpu time    0.9477: real time    0.9478

 eigenvalue-minimisations  :   560
 total energy-change (2. order) :-0.1908251E-04  (-0.2567267E-04)
 number of electron     175.9998892 magnetization 
 augmentation part      -35.1940140 magnetization 

 Free energy of the ion-electron system (eV)
  ---------------------------------------------------
  alpha Z        PSCENC =       184.84106473
  Ewald energy   TEWEN  =     -4356.15199014
  -Hartree energ DENC   =     -2232.80695676
  -exchange      EXHF   =         0.00000000
  -V(xc)+E(xc)   XCENC  =      -952.45268368
  PAW double counting   =      8950.59276003    -7653.84268643
  entropy T*S    EENTRO =        -0.00400269
  eigenvalues    EBANDS =      -528.72634798
  atomic energy  EATOM  =      6433.79709382
  Solvation  Ediel_sol  =         0.00000000
  ---------------------------------------------------
  free energy    TOTEN  =      -154.75374912 eV

  energy without entropy =     -154.74974643  energy(sigma->0) =     -154.75174777


--------------------------------------------------------------------------------------------------------




 average (electrostatic) potential at core
  the test charge radii are     0.9748  1.4024  1.0808
  (the norm of the test charge is              1.0000)
       1 -29.6270       2 -29.6270       3 -29.6270       4 -29.4429       5 -29.4429
       6 -29.4429       7 -29.4429       8 -29.4864       9 -29.4864      10 -29.4864
      11 -29.4864      12 -29.4517      13 -29.4517      14 -29.4517      15 -29.4517
      16 -29.6270      17 -64.9090      18 -64.9090      19 -64.9090      20 -64.9090
      21 -64.9605      22 -64.9605      23 -64.9605      24 -64.9605      25 -55.2947
      26 -55.2947      27 -55.2947      28 -55.2947      29 -55.1379      30 -55.1379
      31 -55.1379      32 -55.3282      33 -55.3282      34 -55.3282      35 -55.3282
      36 -55.6014      37 -55.6014      38 -55.6014      39 -55.6014      40 -55.4174
      41 -55.4174      42 -55.1379      43 -55.4174      44 -55.4174
 
 
 
 E-fermi :   2.1108     XC(G=0):  -7.9133     alpha+bet : -7.6493


 k-point     1 :       0.0000    0.2500    0.2500
  band No.  band energies     occupation 
      1     -11.9039      2.00000
      2     -11.8942      2.00000
      3     -11.7208      2.00000
      4     -11.7080      2.00000
      5     -11.1341      2.00000
      6     -11.1103      2.00000
      7     -10.9717      2.00000
      8     -10.9347      2.00000
      9     -10.1422      2.00000
     10     -10.1319      2.00000
     11     -10.0876      2.00000
     12     -10.0568      2.00000
     13      -9.9284      2.00000
     14      -9.9018      2.00000
     15      -9.8665      2.00000
     16      -9.8612      2.00000
     17      -9.5839      2.00000
     18      -9.5808      2.00000
     19      -9.4769      2.00000
     20      -9.4765      2.00000
     21      -7.3449      2.00000
     22      -7.3142      2.00000
     23      -7.2280      2.00000
     24      -7.2015      2.00000
     25      -6.7228      2.00000
     26      -6.6768      2.00000
     27      -6.3463      2.00000
     28      -6.3070      2.00000
     29      -2.5973      2.00000
     30      -2.5845      2.00000
     31      -1.6448      2.00000
     32      -1.6048      2.00000
     33      -1.4105      2.00000
     34      -1.3672      2.00000
     35      -1.0472      2.00000
     36      -1.0342      2.00000
     37      -0.9164      2.00000
     38      -0.8936      2.00000
     39      -0.8820      2.00000
     40      -0.8080      2.00000
     41      -0.7614      2.00000
     42      -0.7311      2.00000
     43      -0.7015      2.00000
     44      -0.6285      2.00000
     45      -0.5344      2.00000
     46      -0.4849      2.00000
     47      -0.3501      2.00000
     48      -0.2762      2.00000
     49      -0.2492      2.00000
     50      -0.2134      2.00000
     51      -0.2009      2.00000
     52      -0.1306      2.00000
     53      -0.0652      2.00000
     54      -0.0421      2.00000
     55      -0.0113      2.00000
     56       0.0995      2.00000
     57       0.1803      2.00000
     58       0.2752      2.00000
     59       0.4940      2.00000
     60       0.5531      2.00000
     61       0.6204      2.00000
     62       0.6979      2.00000
     63       0.7672      2.00000
     64       0.8088      2.00000
     65       0.8689      2.00000
     66       0.9006      2.00000
     67       0.9361      2.00000
     68       0.9734      2.00000
     69       1.0764      2.00000
     70       1.0792      2.00000
     71       1.1048      2.00000
     72       1.1341      2.00000
     73       1.1398      2.00000
     74       1.1461      2.00000
     75       1.2394      2.00000
     76       1.2797      2.00000
     77       1.2882      2.00000
     78       1.3019      2.00000
     79       1.3356      2.00000
     80       1.4645      2.00000
     81       1.6203      2.00000
     82       1.6983      2.00000
     83       1.7005      2.00000
     84       1.7013      2.00000
     85       1.8005      2.00000
     86       1.8755      2.00000
     87       1.9509      1.99999
     88       1.9543      1.99999
     89       2.1681      0.10512
     90       2.1907      0.02387
     91       2.2995      0.00000
     92       2.4286      0.00000
     93       3.5294      0.00000
     94       3.6192      0.00000
     95       3.7081      0.00000
     96       3.8356      0.00000
     97       3.9307      0.00000
     98       3.9858      0.00000
     99       4.0390      0.00000
    100       4.1480      0.00000
    101       4.3505      0.00000
    102       4.4530      0.00000
    103       4.5164      0.00000
    104       4.7721      0.00000
    105       4.8943      0.00000
    106       4.9527      0.00000
    107       5.1158      0.00000
    108       5.1498      0.00000
    109       5.1509      0.00000
    110       5.2226      0.00000
    111       5.2650      0.00000
    112       5.2797      0.00000

 k-point     2 :       0.2000    0.2500    0.2500
  band No.  band energies     occupation 
      1     -11.6366      2.00000
      2     -11.6275      2.00000
      3     -11.4603      2.00000
      4     -11.4482      2.00000
      5     -10.8753      2.00000
      6     -10.8526      2.00000
      7     -10.7255      2.00000
      8     -10.6899      2.00000
      9     -10.0375      2.00000
     10     -10.0290      2.00000
     11      -9.9685      2.00000
     12      -9.9407      2.00000
     13      -9.8204      2.00000
     14      -9.8009      2.00000
     15      -9.7866      2.00000
     16      -9.7817      2.00000
     17      -9.5701      2.00000
     18      -9.5666      2.00000
     19      -9.4930      2.00000
     20      -9.4922      2.00000
     21      -7.6216      2.00000
     22      -7.6054      2.00000
     23      -7.5318      2.00000
     24      -7.5189      2.00000
     25      -7.0508      2.00000
     26      -7.0275      2.00000
     27      -6.6811      2.00000
     28      -6.6633      2.00000
     29      -2.3753      2.00000
     30      -2.3720      2.00000
     31      -1.7812      2.00000
     32      -1.7632      2.00000
     33      -1.7415      2.00000
     34      -1.7087      2.00000
     35      -1.6804      2.00000
     36      -1.6059      2.00000
     37      -1.5904      2.00000
     38      -1.5329      2.00000
     39      -1.4095      2.00000
     40      -1.3888      2.00000
     41      -1.0938      2.00000
     42      -1.0784      2.00000
     43      -0.9444      2.00000
     44      -0.8974      2.00000
     45      -0.8289      2.00000
     46      -0.7854      2.00000
     47      -0.6629      2.00000
     48      -0.6295      2.00000
     49      -0.5786      2.00000
     50      -0.4954      2.00000
     51      -0.4083      2.00000
     52      -0.3518      2.00000
     53      -0.2552      2.00000
     54      -0.1552      2.00000
     55      -0.0850      2.00000
     56      -0.0302      2.00000
     57       0.0857      2.00000
     58       0.1601      2.00000
     59       0.2063      2.00000
     60       0.2860      2.00000
     61       0.3916      2.00000
     62       0.4742      2.00000
     63       0.5439      2.00000
     64       0.5850      2.00000
     65       0.6633      2.00000
     66       0.6917      2.00000
     67       0.7603      2.00000
     68       0.8049      2.00000
     69       0.8369      2.00000
     70       0.8664      2.00000
     71       0.9738      2.00000
     72       1.0391      2.00000
     73       1.0587      2.00000
     74       1.1037      2.00000
     75       1.1335      2.00000
     76       1.1377      2.00000
     77       1.2150      2.00000
     78       1.3237      2.00000
     79       1.3799      2.00000
     80       1.3826      2.00000
     81       1.6599      2.00000
     82       1.7001      2.00000
     83       1.7766      2.00000
     84       1.8283      2.00000
     85       1.9195      2.00000
     86       1.9251      2.00000
     87       1.9691      1.99994
     88       2.0455      1.93557
     89       2.3638      0.00000
     90       2.3983      0.00000
     91       2.5019      0.00000
     92       2.6092      0.00000
     93       3.9586      0.00000
     94       4.1589      0.00000
     95       4.2452      0.00000
     96       4.2958      0.00000
     97       4.4535      0.00000
     98       4.4751      0.00000
     99       4.6940      0.00000
    100       4.7183      0.00000
    101       4.7737      0.00000
    102       4.8938      0.00000
    103       4.9184      0.00000
    104       4.9724      0.00000
    105       5.1026      0.00000
    106       5.1345      0.00000
    107       5.1396      0.00000
    108       5.2339      0.00000
    109       5.3213      0.00000
    110       5.3506      0.00000
    111       5.4030      0.00000
    112       5.4762      0.00000

 k-point     3 :       0.4000    0.2500    0.2500
  band No.  band energies     occupation 
      1     -10.9258      2.00000
      2     -10.9191      2.00000
      3     -10.7891      2.00000
      4     -10.7806      2.00000
      5     -10.2240      2.00000
      6     -10.2070      2.00000
      7     -10.1722      2.00000
      8     -10.1523      2.00000
      9     -10.0013      2.00000
     10      -9.9991      2.00000
     11      -9.9342      2.00000
     12      -9.9326      2.00000
     13      -9.7058      2.00000
     14      -9.6994      2.00000
     15      -9.6737      2.00000
     16      -9.6666      2.00000
     17      -9.6412      2.00000
     18      -9.6384      2.00000
     19      -9.6294      2.00000
     20      -9.6286      2.00000
     21      -8.0931      2.00000
     22      -8.0911      2.00000
     23      -8.0623      2.00000
     24      -8.0616      2.00000
     25      -7.7539      2.00000
     26      -7.7526      2.00000
     27      -7.5002      2.00000
     28      -7.4985      2.00000
     29      -2.4855      2.00000
     30      -2.4333      2.00000
     31      -2.3478      2.00000
     32      -2.3123      2.00000
     33      -2.2528      2.00000
     34      -2.2325      2.00000
     35      -2.1698      2.00000
     36      -2.1368      2.00000
     37      -1.8607      2.00000
     38      -1.8335      2.00000
     39      -1.6599      2.00000
     40      -1.6508      2.00000
     41      -1.6148      2.00000
     42      -1.5721      2.00000
     43      -1.4626      2.00000
     44      -1.3868      2.00000
     45      -1.1595      2.00000
     46      -1.0943      2.00000
     47      -1.0600      2.00000
     48      -1.0489      2.00000
     49      -0.7333      2.00000
     50      -0.7083      2.00000
     51      -0.4855      2.00000
     52      -0.4652      2.00000
     53      -0.1390      2.00000
     54      -0.1379      2.00000
     55      -0.1144      2.00000
     56      -0.0947      2.00000
     57       0.0700      2.00000
     58       0.0731      2.00000
     59       0.1938      2.00000
     60       0.2596      2.00000
     61       0.3026      2.00000
     62       0.3627      2.00000
     63       0.4489      2.00000
     64       0.4761      2.00000
     65       0.5106      2.00000
     66       0.5221      2.00000
     67       0.5751      2.00000
     68       0.6035      2.00000
     69       0.6303      2.00000
     70       0.6791      2.00000
     71       0.7165      2.00000
     72       0.7234      2.00000
     73       0.8346      2.00000
     74       0.8985      2.00000
     75       0.9251      2.00000
     76       0.9646      2.00000
     77       1.0437      2.00000
     78       1.0527      2.00000
     79       1.1102      2.00000
     80       1.1182      2.00000
     81       1.2198      2.00000
     82       1.2751      2.00000
     83       1.3069      2.00000
     84       1.4184      2.00000
     85       1.7068      2.00000
     86       1.7201      2.00000
     87       1.7540      2.00000
     88       1.8436      2.00000
     89       2.8883      0.00000
     90       2.9842      0.00000
     91       3.1443      0.00000
     92       3.1821      0.00000
     93       3.9249      0.00000
     94       4.1055      0.00000
     95       4.1475      0.00000
     96       4.3063      0.00000
     97       4.3697      0.00000
     98       4.4464      0.00000
     99       4.6290      0.00000
    100       4.6949      0.00000
    101       4.8166      0.00000
    102       4.8893      0.00000
    103       4.9897      0.00000
    104       5.0771      0.00000
    105       5.1424      0.00000
    106       5.1911      0.00000
    107       5.2389      0.00000
    108       5.2927      0.00000
    109       5.3712      0.00000
    110       5.4289      0.00000
    111       5.4816      0.00000
    112       5.5172      0.00000


--------------------------------------------------------------------------------------------------------


 soft charge-density along one line, spin component           1
         0         1         2         3         4         5         6         7         8         9
 total charge-density along one line
 
 pseudopotential strength for first ion, spin component:           1
  1.151   5.250   0.009  -0.000   0.000
  5.250  22.797   0.033  -0.001   0.000
  0.009   0.033  -0.478  -0.000   0.000
 -0.000  -0.001  -0.000  -0.476  -0.000
  0.000   0.000   0.000  -0.000  -0.477
 total augmentation occupancy for first ion, spin component:           1
  0.476  -0.006  -0.033   0.004   0.000
 -0.006   0.000   0.001  -0.000   0.000
 -0.033   0.001   0.025  -0.000  -0.000
  0.004  -0.000  -0.000   0.030   0.000
  0.000   0.000   0.000   0.000   0.029


------------------------ aborting loop because EDIFF is reached ----------------------------------------


 


 total charge     
 
# of ion       s       p       d       tot
------------------------------------------
    1        0.050   0.060   0.000   0.110
    2        0.050   0.060   0.000   0.110
    3        0.050   0.060   0.000   0.110
    4        0.054   0.064   0.000   0.118
    5        0.054   0.064   0.000   0.118
    6        0.054   0.064   0.000   0.118
    7        0.054   0.064   0.000   0.118
    8        0.045   0.057   0.000   0.102
    9        0.045   0.057   0.000   0.102
   10        0.045   0.057   0.000   0.102
   11        0.045   0.057   0.000   0.102
   12        0.045   0.056   0.000   0.101
   13        0.045   0.056   0.000   0.101
   14        0.045   0.056   0.000   0.101
   15        0.045   0.056   0.000   0.101
   16        0.050   0.060   0.000   0.110
   17        1.833   1.604   0.212   3.649
   18        1.833   1.604   0.212   3.649
   19        1.833   1.604   0.212   3.649
   20        1.833   1.604   0.212   3.649
   21        1.835   1.592   0.208   3.635
   22        1.835   1.592   0.208   3.635
   23        1.834   1.592   0.208   3.634
   24        1.834   1.592   0.208   3.634
   25        1.461   2.349   0.017   3.828
   26        1.461   2.349   0.017   3.828
   27        1.461   2.348   0.017   3.826
   28        1.461   2.348   0.017   3.826
   29        1.456   2.343   0.011   3.810
   30        1.456   2.342   0.011   3.809
   31        1.456   2.342   0.011   3.809
   32        1.460   2.347   0.015   3.822
   33        1.460   2.347   0.015   3.822
   34        1.460   2.347   0.015   3.822
   35        1.460   2.347   0.015   3.822
   36        1.466   2.372   0.022   3.860
   37        1.466   2.372   0.022   3.860
   38        1.466   2.372   0.022   3.860
   39        1.466   2.372   0.022   3.860
   40        1.464   2.348   0.017   3.829
   41        1.464   2.348   0.017   3.829
   42        1.456   2.343   0.011   3.810
   43        1.464   2.348   0.017   3.829
   44        1.464   2.348   0.017   3.829
--------------------------------------------------
tot         44.676  60.763   2.012 107.451
 
    CHARGE:  cpu time    0.0416: real time    0.0416
    FORLOC:  cpu time    0.0058: real time    0.0058
    FORNL :  cpu time    0.1954: real time    0.1958
    STRESS:  cpu time    0.5986: real time    0.5990
    FORCOR:  cpu time    0.0261: real time    0.0266
    FORHAR:  cpu time    0.0093: real time    0.0093
    MIXING:  cpu time    0.0013: real time    0.0013
    OFIELD:  cpu time    0.0000: real time    0.0000

  FORCE on cell =-STRESS in cart. coord.  units (eV):
  Direction    XX          YY          ZZ          XY          YZ          ZX
  --------------------------------------------------------------------------------------
  Alpha Z   184.84106   184.84106   184.84106
  Ewald    -252.15366 -2448.70351 -1655.31614    -0.00000     0.00000    -0.00000
  Hartree  1756.61749   -78.87019   555.22802    -0.00000    -0.00000    -0.00000
  E(xc)    -656.35297  -655.28097  -656.22350     0.00000    -0.00000     0.00000
  Local   -3968.06690    79.11522 -1348.01124     0.00000    -0.00000     0.00000
  n-local  1472.95569  1462.62955  1471.97171     0.24341     0.01048    -0.55514
  augment  -299.91320  -297.60003  -299.83802     0.00000     0.00000    -0.00000
  Kinetic  1781.63879  1753.63932  1753.07119     0.62338    -0.05805    -0.80191
  Fock        0.00000     0.00000     0.00000     0.00000     0.00000     0.00000
  -------------------------------------------------------------------------------------
  Total      19.56631    -0.22956     5.72307     0.00000     0.00000     0.00000
  in kB      25.32008    -0.29707     7.40603     0.00000     0.00000     0.00000
  external pressure =       10.81 kB  Pullay stress =        0.00 kB


 VOLUME and BASIS-vectors are now :
 -----------------------------------------------------------------------------
  energy-cutoff  :      300.00
  volume of cell :     1238.10
      direct lattice vectors                 reciprocal lattice vectors
     4.113755460  0.000000000  0.000000000     0.243086885  0.000000000  0.000000000
     0.000000000 17.104489890  0.000000000     0.000000000  0.058464181  0.000000000
     0.000000000  0.000000000 17.595672770     0.000000000  0.000000000  0.056832155

  length of vectors
     4.113755460 17.104489890 17.595672770     0.243086885  0.058464181  0.056832155


 FORCES acting on ions
    electron-ion (+dipol)            ewald-force                    non-local-force                 convergence-correction
 -----------------------------------------------------------------------------------------------
   -.160E-11 -.267E+02 0.533E+00   -.195E-14 0.252E+02 -.484E+00   0.000E+00 0.375E+00 -.445E-01   0.238E-15 0.314E-03 0.199E-03
   -.998E-12 -.267E+02 -.533E+00   0.431E-15 0.252E+02 0.484E+00   0.000E+00 0.375E+00 0.445E-01   0.250E-15 0.314E-03 -.199E-03
   -.160E-11 0.267E+02 -.533E+00   0.127E-14 -.252E+02 0.484E+00   0.000E+00 -.375E+00 0.445E-01   0.486E-15 -.314E-03 -.199E-03
   -.228E-11 0.158E+02 -.765E+01   -.158E-15 -.141E+02 0.766E+01   0.000E+00 -.470E+00 0.377E-01   0.602E-15 -.139E-02 -.603E-03
   -.228E-11 -.158E+02 0.765E+01   0.205E-15 0.141E+02 -.766E+01   0.000E+00 0.470E+00 -.377E-01   0.645E-15 0.139E-02 0.603E-03
   -.280E-11 0.158E+02 0.765E+01   -.222E-15 -.141E+02 -.766E+01   -.542E-19 -.470E+00 -.377E-01   0.542E-15 -.139E-02 0.603E-03
   -.281E-11 -.158E+02 -.765E+01   -.640E-15 0.141E+02 0.766E+01   0.542E-19 0.470E+00 0.377E-01   0.483E-15 0.139E-02 -.603E-03
   -.715E-12 -.340E+01 -.188E+02   0.947E-15 0.345E+01 0.176E+02   0.108E-18 -.223E-01 0.314E+00   -.119E-15 -.263E-03 0.549E-03
   -.712E-12 0.340E+01 0.188E+02   -.611E-15 -.345E+01 -.176E+02   -.108E-18 0.223E-01 -.314E+00   -.198E-15 0.263E-03 -.549E-03
   -.147E-11 -.340E+01 0.188E+02   -.464E-15 0.345E+01 -.176E+02   0.108E-18 -.223E-01 -.314E+00   -.313E-15 -.263E-03 -.549E-03
   -.146E-11 0.340E+01 -.188E+02   0.394E-15 -.345E+01 0.176E+02   -.108E-18 0.223E-01 0.314E+00   -.107E-15 0.263E-03 0.549E-03
   -.766E-12 0.140E+01 0.186E+02   -.170E-14 -.189E+01 -.173E+02   0.000E+00 0.233E+00 -.371E+00   -.274E-15 0.939E-03 -.884E-03
   -.767E-12 -.140E+01 -.186E+02   0.125E-14 0.189E+01 0.173E+02   0.000E+00 -.233E+00 0.371E+00   -.660E-16 -.939E-03 0.884E-03
   -.138E-11 0.140E+01 -.186E+02   0.861E-15 -.189E+01 0.173E+02   0.000E+00 0.233E+00 0.371E+00   -.115E-15 0.939E-03 0.884E-03
   -.138E-11 -.140E+01 0.186E+02   0.799E-15 0.189E+01 -.173E+02   0.000E+00 -.233E+00 -.371E+00   -.388E-16 -.939E-03 -.884E-03
   -.997E-12 0.267E+02 0.533E+00   -.124E-14 -.252E+02 -.484E+00   0.000E+00 -.375E+00 -.445E-01   0.499E-15 -.314E-03 0.199E-03
   0.126E-11 -.236E+02 -.317E+02   -.199E-14 0.232E+02 0.291E+02   0.000E+00 0.607E+00 0.201E+01   0.494E-14 -.284E-02 -.423E-02
   0.129E-11 0.236E+02 0.317E+02   0.327E-14 -.232E+02 -.291E+02   0.000E+00 -.607E+00 -.201E+01   -.719E-15 0.284E-02 0.423E-02
[...]
         0         1         2         3         4         5         6         7         8         9
 total charge-density along one line
 
 pseudopotential strength for first ion, spin component:           1
  1.164   5.264   0.002   0.001   0.000
  5.264  22.702   0.005   0.002   0.000
  0.002   0.005  -0.414  -0.001   0.000
  0.001   0.002  -0.001  -0.406  -0.000
  0.000   0.000   0.000  -0.000  -0.410
 total augmentation occupancy for first ion, spin component:           1
  0.744  -0.014  -0.062  -0.016  -0.000
 -0.014   0.000   0.002   0.000   0.000
 -0.062   0.002   0.043  -0.003   0.000
 -0.016   0.000  -0.003   0.069  -0.000
 -0.000   0.000   0.000  -0.000   0.060


------------------------ aborting loop because EDIFF is reached ----------------------------------------


 


 total charge     
 
# of ion       s       p       d       tot
------------------------------------------
    1        0.075   0.124   0.000   0.199
    2        0.075   0.124   0.000   0.199
    3        0.075   0.124   0.000   0.199
    4        0.077   0.128   0.000   0.205
    5        0.077   0.128   0.000   0.205
    6        0.077   0.128   0.000   0.205
    7        0.077   0.128   0.000   0.205
    8        0.062   0.099   0.000   0.160
    9        0.062   0.099   0.000   0.160
   10        0.062   0.099   0.000   0.160
   11        0.062   0.099   0.000   0.160
   12        0.068   0.113   0.000   0.181
   13        0.068   0.113   0.000   0.181
   14        0.068   0.113   0.000   0.181
   15        0.068   0.113   0.000   0.181
   16        0.075   0.124   0.000   0.199
   17        1.830   1.462   0.158   3.450
   18        1.830   1.462   0.158   3.450
   19        1.830   1.462   0.158   3.450
   20        1.830   1.462   0.158   3.450
   21        1.834   1.467   0.160   3.461
   22        1.834   1.467   0.160   3.461
   23        1.834   1.467   0.160   3.461
   24        1.834   1.467   0.160   3.461
   25        1.458   2.382   0.017   3.857
   26        1.458   2.382   0.017   3.857
   27        1.458   2.382   0.017   3.857
   28        1.458   2.382   0.017   3.857
   29        1.443   2.425   0.009   3.877
   30        1.443   2.425   0.009   3.877
   31        1.443   2.425   0.009   3.877
   32        1.452   2.375   0.011   3.837
   33        1.452   2.375   0.011   3.837
   34        1.452   2.375   0.011   3.838
   35        1.452   2.375   0.011   3.838
   36        1.461   2.331   0.012   3.804
   37        1.461   2.331   0.012   3.804
   38        1.461   2.331   0.012   3.804
   39        1.461   2.331   0.012   3.804
   40        1.459   2.363   0.013   3.835
   41        1.459   2.363   0.013   3.835
   42        1.443   2.425   0.009   3.877
   43        1.459   2.363   0.013   3.835
   44        1.459   2.363   0.013   3.835
--------------------------------------------------
tot         44.877  61.074   1.518 107.469
 
    CHARGE:  cpu time    0.0568: real time    0.0568
    FORLOC:  cpu time    0.0058: real time    0.0058
    FORNL :  cpu time    0.2199: real time    0.2199
    STRESS:  cpu time    0.6472: real time    0.6473
    FORCOR:  cpu time    0.0218: real time    0.0218
    FORHAR:  cpu time    0.0091: real time    0.0091
    MIXING:  cpu time    0.0010: real time    0.0010
    OFIELD:  cpu time    0.0000: real time    0.0000

  FORCE on cell =-STRESS in cart. coord.  units (eV):
  Direction    XX          YY          ZZ          XY          YZ          ZX
  --------------------------------------------------------------------------------------
  Alpha Z   201.74273   201.74273   201.74273
  Ewald   -1132.18802 -2062.69120 -1946.48803    -0.00000     0.00000     0.00000
  Hartree   960.74712   243.74088   290.80021    -0.00000    -0.00000    -0.00000
  E(xc)    -657.17390  -656.34825  -657.77484     0.00000    -0.00000    -0.00000
  Local   -2305.74018  -651.12355  -811.23337     0.00000    -0.00000     0.00000
  n-local  1458.27890  1449.65553  1461.78994    -0.17519    -0.01159    -0.00395
  augment  -299.06691  -296.90550  -298.16388     0.00000     0.00000     0.00000
  Kinetic  1773.45730  1771.64717  1758.67625     0.19505    -0.00336    -0.06297
  Fock        0.00000     0.00000     0.00000     0.00000     0.00000     0.00000
  -------------------------------------------------------------------------------------
  Total       0.05705    -0.28219    -0.65098     0.00000     0.00000     0.00000
  in kB       0.08057    -0.39856    -0.91944     0.00000     0.00000     0.00000
  external pressure =       -0.41 kB  Pullay stress =        0.00 kB


 VOLUME and BASIS-vectors are now :
 -----------------------------------------------------------------------------
  energy-cutoff  :      300.00
  volume of cell :     1134.37
      direct lattice vectors                 reciprocal lattice vectors
     4.096422087  0.000000000  0.000000000     0.244115469 -0.000000000  0.000000000
     0.000000000 16.414325195  0.000000000    -0.000000000  0.060922395  0.000000000
     0.000000000  0.000000000 16.870474802     0.000000000  0.000000000  0.059275154

  length of vectors
     4.096422087 16.414325195 16.870474802     0.244115469  0.060922395  0.059275154


 FORCES acting on ions
    electron-ion (+dipol)            ewald-force                    non-local-force                 convergence-correction
 -----------------------------------------------------------------------------------------------
   -.103E-11 -.219E+02 0.567E+00   0.241E-14 0.211E+02 -.757E+00   0.110E-18 0.726E+00 0.190E+00   -.381E-15 -.224E-03 0.173E-03
   -.138E-11 -.219E+02 -.567E+00   0.118E-14 0.211E+02 0.757E+00   0.115E-18 0.726E+00 -.190E+00   -.521E-15 -.224E-03 -.173E-03
   -.103E-11 0.219E+02 -.567E+00   -.182E-14 -.211E+02 0.757E+00   -.110E-18 -.726E+00 -.190E+00   -.505E-16 0.224E-03 -.173E-03
   -.105E-11 0.109E+02 -.438E+01   -.124E-15 -.100E+02 0.467E+01   -.181E-19 -.888E+00 -.293E+00   -.116E-15 0.820E-04 0.795E-04
   -.105E-11 -.109E+02 0.438E+01   -.479E-15 0.100E+02 -.467E+01   0.181E-19 0.888E+00 0.293E+00   0.992E-16 -.820E-04 -.795E-04
   -.839E-12 0.109E+02 0.438E+01   0.225E-15 -.100E+02 -.467E+01   -.181E-19 -.888E+00 0.293E+00   -.111E-15 0.820E-04 -.795E-04
   -.836E-12 -.109E+02 -.438E+01   -.849E-15 0.100E+02 0.467E+01   0.181E-19 0.888E+00 -.293E+00   -.516E-16 -.820E-04 0.795E-04
   -.179E-11 -.110E+01 -.125E+02   -.960E-15 0.124E+01 0.120E+02   -.223E-20 -.110E+00 0.545E+00   -.103E-15 -.902E-04 -.448E-04
   -.179E-11 0.110E+01 0.125E+02   0.142E-14 -.124E+01 -.120E+02   0.223E-20 0.110E+00 -.545E+00   0.285E-15 0.902E-04 0.448E-04
   -.840E-12 -.110E+01 0.125E+02   -.378E-16 0.124E+01 -.120E+02   0.520E-19 -.110E+00 -.545E+00   -.714E-16 -.902E-04 0.448E-04
   -.841E-12 0.110E+01 -.125E+02   0.679E-15 -.124E+01 0.120E+02   -.520E-19 0.110E+00 0.545E+00   0.134E-15 0.902E-04 -.448E-04
   -.104E-11 0.749E+00 0.121E+02   -.157E-14 -.114E+01 -.117E+02   0.800E-20 0.393E+00 -.449E+00   -.110E-15 -.175E-03 -.155E-03
   -.104E-11 -.749E+00 -.121E+02   -.642E-15 0.114E+01 0.117E+02   -.800E-20 -.393E+00 0.449E+00   0.219E-15 0.175E-03 0.155E-03
   -.155E-11 0.749E+00 -.121E+02   -.196E-14 -.114E+01 0.117E+02   0.801E-20 0.393E+00 0.449E+00   -.184E-15 -.175E-03 0.155E-03
   -.155E-11 -.749E+00 0.121E+02   0.674E-15 0.114E+01 -.117E+02   -.801E-20 -.393E+00 -.449E+00   0.250E-15 0.175E-03 -.155E-03
   -.138E-11 0.219E+02 0.567E+00   -.320E-14 -.211E+02 -.757E+00   -.115E-18 -.726E+00 0.190E+00   0.413E-16 0.224E-03 0.173E-03
   0.105E-10 0.678E+00 -.302E+02   0.457E-14 -.151E+01 0.286E+02   -.416E-18 0.854E+00 0.157E+01   0.331E-14 -.106E-02 0.461E-03
   0.105E-10 -.678E+00 0.302E+02   -.197E-14 0.151E+01 -.286E+02   0.416E-18 -.854E+00 -.157E+01   -.282E-14 0.106E-02 -.461E-03
   0.169E-11 -.678E+00 -.302E+02   -.672E-14 0.151E+01 0.286E+02   -.174E-19 -.854E+00 0.157E+01   0.458E-15 0.106E-02 0.461E-03
   0.165E-11 0.678E+00 0.302E+02   0.722E-14 -.151E+01 -.286E+02   0.174E-19 0.854E+00 -.157E+01   0.406E-14 -.106E-02 -.461E-03
   0.259E-11 0.285E+02 -.158E+02   -.130E-13 -.273E+02 0.159E+02   -.261E-19 -.128E+01 -.104E+00   -.136E-14 0.888E-03 -.189E-02
   0.256E-11 -.285E+02 0.158E+02   0.149E-13 0.273E+02 -.159E+02   0.261E-19 0.128E+01 0.104E+00   0.522E-14 -.888E-03 0.189E-02
   0.929E-11 0.285E+02 0.158E+02   -.104E-13 -.273E+02 -.159E+02   -.261E-19 -.128E+01 0.104E+00   -.213E-14 0.888E-03 0.189E-02
   0.926E-11 -.285E+02 -.158E+02   0.649E-14 0.273E+02 0.159E+02   0.261E-19 0.128E+01 -.104E+00   0.409E-14 -.888E-03 -.189E-02
   0.151E-10 0.593E+02 0.164E+02   0.135E-13 -.604E+02 -.166E+02   0.240E-18 0.112E+01 0.265E+00   -.819E-14 0.917E-03 0.188E-02
   0.151E-10 -.593E+02 -.164E+02   -.102E-13 0.604E+02 0.166E+02   -.240E-18 -.112E+01 -.265E+00   0.955E-14 -.917E-03 -.188E-02
   0.149E-10 0.593E+02 -.164E+02   0.160E-13 -.604E+02 0.166E+02   0.228E-19 0.112E+01 -.265E+00   -.257E-14 0.917E-03 -.188E-02
   0.149E-10 -.593E+02 0.164E+02   -.178E-13 0.604E+02 -.166E+02   -.228E-19 -.112E+01 0.265E+00   0.331E-14 -.917E-03 0.188E-02
   0.169E-10 0.823E+01 -.753E+02   -.423E-14 -.764E+01 0.764E+02   0.967E-19 -.577E+00 -.109E+01   0.953E-14 -.445E-03 0.287E-03
   0.119E-10 -.823E+01 -.753E+02   -.160E-14 0.764E+01 0.764E+02   0.117E-19 0.577E+00 -.109E+01   -.283E-14 0.445E-03 0.287E-03
   0.119E-10 0.823E+01 0.753E+02   -.248E-15 -.764E+01 -.764E+02   -.117E-19 -.577E+00 0.109E+01   0.662E-14 -.445E-03 -.287E-03
   0.218E-10 -.608E+02 -.237E+02   -.445E-14 0.621E+02 0.241E+02   -.260E-19 -.127E+01 -.407E+00   -.167E-14 -.524E-03 0.907E-03
   0.218E-10 0.608E+02 0.237E+02   0.485E-15 -.621E+02 -.241E+02   0.260E-19 0.127E+01 0.407E+00   -.279E-14 0.524E-03 -.907E-03
   0.196E-10 -.608E+02 0.237E+02   -.240E-14 0.621E+02 -.241E+02   -.259E-19 -.127E+01 0.407E+00   -.832E-14 -.524E-03 -.907E-03
   0.196E-10 0.608E+02 -.237E+02   -.539E-14 -.621E+02 0.241E+02   0.259E-19 0.127E+01 -.407E+00   0.590E-14 0.524E-03 0.907E-03
   0.126E-10 0.560E+02 -.840E+02   0.152E-14 -.572E+02 0.850E+02   0.245E-19 0.120E+01 -.972E+00   0.243E-14 0.303E-02 0.209E-02
   0.126E-10 -.560E+02 0.840E+02   -.422E-14 0.572E+02 -.850E+02   -.245E-19 -.120E+01 0.972E+00   0.332E-14 -.303E-02 -.209E-02
   0.162E-10 0.560E+02 0.840E+02   0.372E-15 -.572E+02 -.850E+02   0.244E-19 0.120E+01 0.972E+00   -.937E-14 0.303E-02 -.209E-02
   0.162E-10 -.560E+02 -.840E+02   -.575E-14 0.572E+02 0.850E+02   -.244E-19 -.120E+01 -.972E+00   0.703E-14 -.303E-02 0.209E-02
   0.211E-10 0.802E+02 0.288E+02   0.779E-14 -.819E+02 -.291E+02   0.252E-18 0.174E+01 0.354E+00   0.115E-14 0.136E-02 -.121E-02
   0.211E-10 -.802E+02 -.288E+02   -.148E-13 0.819E+02 0.291E+02   -.252E-18 -.174E+01 -.354E+00   -.689E-14 -.136E-02 0.121E-02
   0.169E-10 -.823E+01 0.753E+02   0.206E-14 0.764E+01 -.764E+02   -.967E-19 0.577E+00 0.109E+01   -.488E-14 0.445E-03 -.287E-03
   0.200E-10 -.802E+02 0.288E+02   0.235E-15 0.819E+02 -.291E+02   -.281E-18 -.174E+01 0.354E+00   -.897E-14 -.136E-02 -.121E-02
   0.200E-10 0.802E+02 -.288E+02   0.412E-14 -.819E+02 0.291E+02   0.281E-18 0.174E+01 -.354E+00   0.549E-14 0.136E-02 0.121E-02
 -----------------------------------------------------------------------------------------------
   0.369E-09 0.565E-09 -.304E-09   -.290E-13 0.426E-13 -.213E-13   -.250E-27 -.222E-15 0.222E-15   0.802E-14 -.149E-13 0.471E-14
 
 
 POSITION                                       TOTAL-FORCE (eV/Angst)
 -----------------------------------------------------------------------------------
      1.02411      2.60790     15.40070         0.000000      0.009136     -0.000519
      1.02411     10.81506      9.90501         0.000000      0.009136      0.000519
      3.07232     13.80643      1.46977        -0.000000     -0.009136      0.000519
      1.02411      7.97513     15.64484         0.000000      0.018132      0.002058
      3.07232      8.43919      1.22564        -0.000000     -0.018132     -0.002058
      1.02411     16.18229      9.66087         0.000000      0.018132     -0.002058
      3.07232      0.23203      7.20960        -0.000000     -0.018132      0.002058
      1.02411      3.17118      3.87651         0.000000      0.038354      0.004861
      3.07232     13.24314     12.99396        -0.000000     -0.038354     -0.004861
      1.02411     11.37835      4.55873         0.000000      0.038354     -0.004861
      3.07232      5.03598     12.31175        -0.000000     -0.038354      0.004861
      1.02411      3.00506     10.14617         0.000000      0.004852      0.011778
      3.07232     13.40927      6.72431        -0.000000     -0.004852     -0.011778
      1.02411     11.21222     15.15954         0.000000      0.004852     -0.011778
      3.07232      5.20211      1.71093        -0.000000     -0.004852      0.011778
      3.07232      5.59926      6.96547        -0.000000     -0.009136     -0.000519
      3.07232      9.27005     12.88366         0.000000      0.021267      0.000654
      1.02411      7.14427      3.98681        -0.000000     -0.021267     -0.000654
      1.02411     15.35143      4.44843        -0.000000     -0.021267      0.000654
      3.07232      1.06289     12.42205         0.000000      0.021267     -0.000654
      1.02411      6.98888      9.94322        -0.000000     -0.000618      0.012547
      3.07232      9.42544      6.92725         0.000000      0.000618     -0.012547
      1.02411     15.19605     15.36249        -0.000000     -0.000618     -0.012547
      3.07232      1.21828      1.50798         0.000000      0.000618      0.012547
      1.02411      7.19022      7.01737         0.000000      0.033586      0.020271
      3.07232      9.22410      9.85310        -0.000000     -0.033586     -0.020271
      1.02411     15.39739      1.41787         0.000000      0.033586     -0.020271
      3.07232      1.01694     15.45261        -0.000000     -0.033586      0.020271
      3.07232      9.52168     15.67332         0.000000      0.016147      0.043712
      1.02411     15.09980      7.23808        -0.000000     -0.016147      0.043712
      3.07232      1.31452      9.63239         0.000000      0.016147     -0.043712
      1.02411      3.16079     12.80164         0.000000      0.018145      0.000319
      3.07232     13.25354      4.06883        -0.000000     -0.018145     -0.000319
      1.02411     11.36795     12.50407         0.000000      0.018145     -0.000319
      3.07232      5.04638      4.36640        -0.000000     -0.018145      0.000319
      1.02411      7.00915     12.92317         0.000000      0.016926      0.009400
      3.07232      9.40518      3.94731        -0.000000     -0.016926     -0.009400
      1.02411     15.21631     12.38255         0.000000      0.016926     -0.009400
      3.07232      1.19802      4.48793        -0.000000     -0.016926      0.009400
      3.07232      4.96941      9.64448         0.000000      0.005441      0.015312
      1.02411     11.44491      7.22600        -0.000000     -0.005441     -0.015312
      1.02411      6.89264      1.19716        -0.000000     -0.016147     -0.043712
      1.02411      3.23775      1.20924        -0.000000     -0.005441      0.015312
      3.07232     13.17658     15.66123         0.000000      0.005441     -0.015312
 -----------------------------------------------------------------------------------
    total drift:                                0.000000      0.000000     -0.000000


--------------------------------------------------------------------------------------------------------



  FREE ENERGIE OF THE ION-ELECTRON SYSTEM (eV)
  ---------------------------------------------------
  free  energy   TOTEN  =      -168.28798457 eV

  energy  without entropy=     -168.28798457  energy(sigma->0) =     -168.28798457
 
 d Force = 0.2497743E-02[ 0.193E-02, 0.306E-02]  d Energy = 0.2779066E-02-0.281E-03
 d Force =-0.2234876E+00[-0.231E+00,-0.216E+00]  d Ewald  = 0.4027867E+00-0.626E+00


--------------------------------------------------------------------------------------------------------


    POTLOK:  cpu time    0.3388: real time    0.3389


--------------------------------------------------------------------------------------------------------


 Conjugate gradient step on ions:
 trial-energy change:   -0.002779  1 .order   -0.003119   -0.003807   -0.002431
  (g-gl).g = 0.520E-03      g.g   = 0.677E-03  gl.gl    = 0.661E-03
 g(Force)  = 0.449E-03   g(Stress)= 0.228E-03 ortho     = 0.892E-04
 gamma     =   0.78729
 trial     =   5.09209
 opt step  =  14.08551  (harmonic =  14.08551) maximal distance =0.01276408
 next E    =  -168.290471   (d E  =  -0.00527)


--------------------------------------------------------------------------------------------------------


  
 reached required accuracy - stopping structural energy minimisation
     LOOP+:  cpu time    7.3101: real time    7.4319
    4ORBIT:  cpu time    0.0000: real time    0.0000
 


 total charge     
 
# of ion       s       p       d       tot
------------------------------------------
    1        0.075   0.124   0.000   0.199
    2        0.075   0.124   0.000   0.199
    3        0.075   0.124   0.000   0.199
    4        0.077   0.128   0.000   0.205
    5        0.077   0.128   0.000   0.205
    6        0.077   0.128   0.000   0.205
    7        0.077   0.128   0.000   0.205
    8        0.062   0.099   0.000   0.160
    9        0.062   0.099   0.000   0.160
   10        0.062   0.099   0.000   0.160
   11        0.062   0.099   0.000   0.160
   12        0.068   0.113   0.000   0.181
   13        0.068   0.113   0.000   0.181
   14        0.068   0.113   0.000   0.181
   15        0.068   0.113   0.000   0.181
   16        0.075   0.124   0.000   0.199
   17        1.830   1.462   0.158   3.450
   18        1.830   1.462   0.158   3.450
   19        1.830   1.462   0.158   3.450
   20        1.830   1.462   0.158   3.450
   21        1.834   1.467   0.160   3.461
   22        1.834   1.467   0.160   3.461
   23        1.834   1.467   0.160   3.461
   24        1.834   1.467   0.160   3.461
   25        1.458   2.382   0.017   3.857
   26        1.458   2.382   0.017   3.857
   27        1.458   2.382   0.017   3.857
   28        1.458   2.382   0.017   3.857
   29        1.443   2.425   0.009   3.877
   30        1.443   2.425   0.009   3.877
   31        1.443   2.425   0.009   3.877
   32        1.452   2.375   0.011   3.837
   33        1.452   2.375   0.011   3.837
   34        1.452   2.375   0.011   3.838
   35        1.452   2.375   0.011   3.838
   36        1.461   2.331   0.012   3.804
   37        1.461   2.331   0.012   3.804
   38        1.461   2.331   0.012   3.804
   39        1.461   2.331   0.012   3.804
   40        1.459   2.363   0.013   3.835
   41        1.459   2.363   0.013   3.835
   42        1.443   2.425   0.009   3.877
   43        1.459   2.363   0.013   3.835
   44        1.459   2.363   0.013   3.835
--------------------------------------------------
tot         44.877  61.074   1.518 107.469
 

 total amount of memory used by VASP MPI-rank0    48729. kBytes
=======================================================================

   base      :      30000. kBytes
   nonlr-proj:       4918. kBytes
   fftplans  :       1533. kBytes
   grid      :       6127. kBytes
   one-center:        356. kBytes
   wavefun   :       5795. kBytes
 
  
  
 General timing and accounting informations for this job:
 ========================================================
  
                  Total CPU time used (sec):      397.828
                            User time (sec):      393.119
                          System time (sec):        4.709
                         Elapsed time (sec):      406.978
  
                   Maximum memory used (kb):      105008.
                   Average memory used (kb):           0.
  
                          Minor page faults:       476854
                          Major page faults:            0
                 Voluntary context switches:         3185
