PROCAR new format
# of k-points:    3         # of bands:  112         # of ions:   44

 k-point     1 :    0.00000000 0.25000000 0.25000000     weight = 0.20000000

band     1 # energy  -11.46427059 # occ.  2.00000000
 
ion      s      p      d    tot
    1  0.000  0.000  0.000  0.001
    2  0.000  0.000  0.000  0.001
    3  0.000  0.000  0.000  0.001
    4  0.000  0.000  0.000  0.000
    5  0.000  0.000  0.000  0.000
    6  0.000  0.000  0.000  0.000
    7  0.000  0.000  0.000  0.000
    8  0.000  0.000  0.000  0.000
    9  0.000  0.000  0.000  0.000
   10  0.000  0.000  0.000  0.000
   11  0.000  0.000  0.000  0.000
   12  0.000  0.000  0.000  0.000
   13  0.000  0.000  0.000  0.000
   14  0.000  0.000  0.000  0.000
   15  0.000  0.000  0.000  0.000
   16  0.000  0.000  0.000  0.001
   17  0.014  0.000  0.000  0.014
   18  0.014  0.000  0.000  0.014
   19  0.016  0.000  0.000  0.016
   20  0.016  0.000  0.000  0.016
   21  0.059  0.000  0.000  0.059
   22  0.059  0.000  0.000  0.059
   23  0.058  0.000  0.000  0.058
   24  0.058  0.000  0.000  0.058
   25  0.062  0.000  0.000  0.062
   26  0.062  0.000  0.000  0.062
   27  0.063  0.000  0.000  0.063
   28  0.063  0.000  0.000  0.063
   29  0.001  0.000  0.000  0.001
   30  0.002  0.000  0.000  0.002
   31  0.002  0.000  0.000  0.002
   32  0.006  0.000  0.000  0.006
   33  0.006  0.000  0.000  0.006
   34  0.004  0.000  0.000  0.004
   35  0.004  0.000  0.000  0.004
   36  0.012  0.000  0.000  0.012
   37  0.012  0.000  0.000  0.012
   38  0.012  0.000  0.000  0.012
   39  0.012  0.000  0.000  0.012
   40  0.023  0.000  0.000  0.023
   41  0.023  0.000  0.000  0.023
   42  0.001  0.000  0.000  0.001
   43  0.022  0.000  0.000  0.022
   44  0.022  0.000  0.000  0.022
tot    0.708  0.007  0.000  0.715
 
band     2 # energy  -11.44912677 # occ.  2.00000000
 
ion      s      p      d    tot
    1  0.000  0.000  0.000  0.001
    2  0.000  0.000  0.000  0.001
    3  0.000  0.000  0.000  0.001
    4  0.000  0.000  0.000  0.000
    5  0.000  0.000  0.000  0.000
    6  0.000  0.000  0.000  0.000
    7  0.000  0.000  0.000  0.000
    8  0.000  0.000  0.000  0.000
    9  0.000  0.000  0.000  0.000
   10  0.000  0.000  0.000  0.000
   11  0.000  0.000  0.000  0.000
   12  0.000  0.000  0.000  0.000
   13  0.000  0.000  0.000  0.000
   14  0.000  0.000  0.000  0.000
   15  0.000  0.000  0.000  0.000
   16  0.000  0.000  0.000  0.001
   17  0.015  0.000  0.000  0.015
   18  0.015  0.000  0.000  0.015
   19  0.013  0.000  0.000  0.013
   20  0.013  0.000  0.000  0.013
   21  0.060  0.000  0.000  0.060
   22  0.060  0.000  0.000  0.060
   23  0.060  0.000  0.000  0.061
   24  0.060  0.000  0.000  0.061
   25  0.065  0.000  0.000  0.065
   26  0.065  0.000  0.000  0.065
   27  0.064  0.000  0.000  0.065
   28  0.064  0.000  0.000  0.065
   29  0.001  0.000  0.000  0.001
   30  0.001  0.000  0.000  0.001
   31  0.001  0.000  0.000  0.001
   32  0.003  0.000  0.000  0.003
   33  0.003  0.000  0.000  0.003
   34  0.004  0.000  0.000  0.005
   35  0.004  0.000  0.000  0.005
   36  0.012  0.000  0.000  0.012
   37  0.012  0.000  0.000  0.012
   38  0.011  0.000  0.000  0.012
   39  0.011  0.000  0.000  0.012
   40  0.021  0.000  0.000  0.022
   41  0.021  0.000  0.000  0.022
   42  0.001  0.000  0.000  0.001
   43  0.023  0.000  0.000  0.023
   44  0.023  0.000  0.000  0.023
tot    0.708  0.008  0.000  0.717
 
band     3 # energy  -11.00982832 # occ.  2.00000000
 
ion      s      p      d    tot
    1  0.000  0.000  0.000  0.000
    2  0.000  0.000  0.000  0.000
    3  0.000  0.000  0.000  0.000
    4  0.000  0.000  0.000  0.000
    5  0.000  0.000  0.000  0.000
    6  0.000  0.000  0.000  0.000
    7  0.000  0.000  0.000  0.000
    8  0.000  0.000  0.000  0.000
    9  0.000  0.000  0.000  0.000
   10  0.000  0.000  0.000  0.000
   11  0.000  0.000  0.000  0.000
   12  0.000  0.000  0.000  0.000
   13  0.000  0.000  0.000  0.000
   14  0.000  0.000  0.000  0.000
   15  0.000  0.000  0.000  0.000
   16  0.000  0.000  0.000  0.000
   17  0.043  0.000  0.000  0.044
   18  0.043  0.000  0.000  0.044
   19  0.057  0.000  0.000  0.057
   20  0.057  0.000  0.000  0.057
   21  0.024  0.001  0.000  0.025
   22  0.024  0.001  0.000  0.025
   23  0.021  0.001  0.000  0.022
   24  0.021  0.001  0.000  0.022
   25  0.015  0.000  0.000  0.016
   26  0.015  0.000  0.000  0.016
   27  0.019  0.000  0.000  0.020
   28  0.019  0.000  0.000  0.020
   29  0.009  0.000  0.000  0.009
   30  0.013  0.000  0.000  0.013
   31  0.013  0.000  0.000  0.013
   32  0.030  0.000  0.000  0.030
   33  0.030  0.000  0.000  0.030
   34  0.019  0.000  0.000  0.020
   35  0.019  0.000  0.000  0.020
   36  0.034  0.000  0.000  0.034
   37  0.034  0.000  0.000  0.034
   38  0.037  0.000  0.000  0.038
   39  0.037  0.000  0.000  0.038
   40  0.019  0.000  0.000  0.019
   41  0.019  0.000  0.000  0.019
   42  0.009  0.000  0.000  0.009
   43  0.012  0.000  0.000  0.013
   44  0.012  0.000  0.000  0.013
tot    0.710  0.010  0.000  0.721
 
band     4 # energy  -10.96980878 # occ.  2.00000000
 
ion      s      p      d    tot
    1  0.000  0.000  0.000  0.000
    2  0.000  0.000  0.000  0.000
    3  0.000  0.000  0.000  0.000
    4  0.000  0.000  0.000  0.000
    5  0.000  0.000  0.000  0.000
    6  0.000  0.000  0.000  0.000
    7  0.000  0.000  0.000  0.000
    8  0.000  0.000  0.000  0.000
    9  0.000  0.000  0.000  0.000
   10  0.000  0.000  0.000  0.000
   11  0.000  0.000  0.000  0.000
   12  0.000  0.000  0.000  0.000
   13  0.000  0.000  0.000  0.000
   14  0.000  0.000  0.000  0.000
   15  0.000  0.000  0.000  0.000
   16  0.000  0.000  0.000  0.000
   17  0.061  0.000  0.000  0.061
   18  0.061  0.000  0.000  0.061
   19  0.045  0.000  0.000  0.045
   20  0.045  0.000  0.000  0.045
   21  0.020  0.001  0.000  0.021
   22  0.020  0.001  0.000  0.021
   23  0.023  0.001  0.000  0.024
   24  0.023  0.001  0.000  0.024
   25  0.022  0.000  0.000  0.023
   26  0.022  0.000  0.000  0.023
   27  0.018  0.000  0.000  0.018
   28  0.018  0.000  0.000  0.018
   29  0.014  0.000  0.000  0.014
   30  0.008  0.000  0.000  0.009
   31  0.008  0.000  0.000  0.009
   32  0.017  0.000  0.000  0.018
   33  0.017  0.000  0.000  0.018
   34  0.029  0.000  0.000  0.030
   35  0.029  0.000  0.000  0.030
   36  0.039  0.000  0.000  0.039
   37  0.039  0.000  0.000  0.039
   38  0.035  0.000  0.000  0.035
   39  0.035  0.000  0.000  0.035
   40  0.009  0.000  0.000  0.009
   41  0.009  0.000  0.000  0.009
   42  0.014  0.000  0.000  0.014
   43  0.015  0.000  0.000  0.015
   44  0.015  0.000  0.000  0.015
tot    0.713  0.011  0.000  0.724
 
band     5 # energy  -10.67384392 # occ.  2.00000000
 
ion      s      p      d    tot
    1  0.000  0.000  0.000  0.000
    2  0.000  0.000  0.000  0.000
    3  0.000  0.000  0.000  0.000
    4  0.000  0.000  0.000  0.000
    5  0.000  0.000  0.000  0.000
    6  0.000  0.000  0.000  0.000
    7  0.000  0.000  0.000  0.000
    8  0.000  0.000  0.000  0.000
    9  0.000  0.000  0.000  0.000
   10  0.000  0.000  0.000  0.000
   11  0.000  0.000  0.000  0.000
   12  0.000  0.000  0.000  0.000
   13  0.000  0.000  0.000  0.000
   14  0.001  0.000  0.000  0.001
   15  0.001  0.000  0.000  0.001
   16  0.000  0.000  0.000  0.000
   17  0.073  0.001  0.000  0.074
   18  0.073  0.001  0.000  0.074
   19  0.033  0.000  0.000  0.033
   20  0.033  0.000  0.000  0.033
   21  0.013  0.001  0.000  0.014
   22  0.013  0.001  0.000  0.014
   23  0.012  0.001  0.000  0.014
   24  0.012  0.001  0.000  0.014
   25  0.004  0.001  0.000  0.004
   26  0.004  0.001  0.000  0.004
   27  0.005  0.000  0.000  0.005
   28  0.005  0.000  0.000  0.005
   29  0.032  0.001  0.000  0.033
   30  0.017  0.000  0.000  0.017
   31  0.017  0.000  0.000  0.017
   32  0.026  0.000  0.000  0.026
   33  0.026  0.000  0.000  0.026
   34  0.057  0.001  0.000  0.058
   35  0.057  0.001  0.000  0.058
   36  0.021  0.000  0.000  0.021
   37  0.021  0.000  0.000  0.021
   38  0.008  0.000  0.000  0.009
   39  0.008  0.000  0.000  0.009
   40  0.025  0.000  0.000  0.025
   41  0.025  0.000  0.000  0.025
   42  0.032  0.001  0.000  0.033
   43  0.028  0.000  0.000  0.028
   44  0.028  0.000  0.000  0.028
tot    0.712  0.015  0.001  0.728
 
band     6 # energy  -10.64138086 # occ.  2.00000000
 
ion      s      p      d    tot
    1  0.000  0.000  0.000  0.000
    2  0.000  0.000  0.000  0.000
    3  0.000  0.000  0.000  0.000
    4  0.000  0.000  0.000  0.000
    5  0.000  0.000  0.000  0.000
    6  0.000  0.000  0.000  0.000
    7  0.000  0.000  0.000  0.000
    8  0.000  0.000  0.000  0.000
    9  0.000  0.000  0.000  0.000
   10  0.000  0.000  0.000  0.000
   11  0.000  0.000  0.000  0.000
   12  0.000  0.000  0.000  0.001
   13  0.000  0.000  0.000  0.001
   14  0.000  0.000  0.000  0.000
   15  0.000  0.000  0.000  0.000
   16  0.000  0.000  0.000  0.000
   17  0.019  0.000  0.000  0.019
   18  0.019  0.000  0.000  0.019
   19  0.089  0.001  0.000  0.090
   20  0.089  0.001  0.000  0.090
   21  0.007  0.000  0.000  0.008
   22  0.007  0.000  0.000  0.008
   23  0.020  0.001  0.000  0.022
   24  0.020  0.001  0.000  0.022
   25  0.006  0.000  0.000  0.006
   26  0.006  0.000  0.000  0.006
   27  0.007  0.001  0.000  0.008
   28  0.007  0.001  0.000  0.008
   29  0.010  0.000  0.000  0.010
   30  0.036  0.001  0.000  0.037
   31  0.036  0.001  0.000  0.037
   32  0.069  0.001  0.000  0.070
   33  0.069  0.001  0.000  0.070
   34  0.015  0.000  0.000  0.015
   35  0.015  0.000  0.000  0.015
   36  0.008  0.000  0.000  0.008
   37  0.008  0.000  0.000  0.008
   38  0.029  0.001  0.000  0.029
   39  0.029  0.001  0.000  0.029
   40  0.006  0.000  0.000  0.006
   41  0.006  0.000  0.000  0.006
   42  0.010  0.000  0.000  0.010
   43  0.036  0.000  0.000  0.036
   44  0.036  0.000  0.000  0.036
tot    0.715  0.016  0.001  0.732
 
band     7 # energy  -10.56855158 # occ.  2.00000000
 
ion      s      p      d    tot
    1  0.000  0.000  0.000  0.000
    2  0.000  0.000  0.000  0.000
    3  0.000  0.000  0.000  0.000
    4  0.000  0.000  0.000  0.000
    5  0.000  0.000  0.000  0.000
    6  0.000  0.000  0.000  0.000
    7  0.000  0.000  0.000  0.000
    8  0.000  0.000  0.000  0.000
    9  0.000  0.000  0.000  0.000
   10  0.000  0.000  0.000  0.000
   11  0.000  0.000  0.000  0.000
   12  0.000  0.000  0.000  0.000
   13  0.000  0.000  0.000  0.000
   14  0.000  0.000  0.000  0.000
   15  0.000  0.000  0.000  0.000
   16  0.000  0.000  0.000  0.000
   17  0.033  0.001  0.000  0.034
   18  0.033  0.001  0.000  0.034
   19  0.003  0.000  0.000  0.004
   20  0.003  0.000  0.000  0.004
   21  0.055  0.004  0.000  0.059
   22  0.055  0.004  0.000  0.059
   23  0.026  0.001  0.000  0.027
   24  0.026  0.001  0.000  0.027
   25  0.008  0.001  0.000  0.008
   26  0.008  0.001  0.000  0.008
   27  0.001  0.000  0.000  0.001
   28  0.001  0.000  0.000  0.001
   29  0.015  0.000  0.000  0.015
   30  0.005  0.000  0.000  0.005
   31  0.005  0.000  0.000  0.005
   32  0.007  0.000  0.000  0.008
   33  0.007  0.000  0.000  0.008
   34  0.031  0.000  0.000  0.031
   35  0.031  0.000  0.000  0.031
   36  0.006  0.000  0.000  0.006
   37  0.006  0.000  0.000  0.006
   38  0.003  0.000  0.000  0.003
   39  0.003  0.000  0.000  0.003
   40  0.122  0.001  0.000  0.123
   41  0.122  0.001  0.000  0.123
   42  0.015  0.000  0.000  0.015
   43  0.041  0.000  0.000  0.041
   44  0.041  0.000  0.000  0.041
tot    0.714  0.019  0.001  0.733
 
band     8 # energy  -10.50774365 # occ.  2.00000000
 
ion      s      p      d    tot
    1  0.000  0.000  0.000  0.000
    2  0.000  0.000  0.000  0.000
    3  0.000  0.000  0.000  0.000
    4  0.000  0.000  0.000  0.000
    5  0.000  0.000  0.000  0.000
    6  0.000  0.000  0.000  0.000
    7  0.000  0.000  0.000  0.000
    8  0.000  0.000  0.000  0.000
    9  0.000  0.000  0.000  0.000
   10  0.000  0.000  0.000  0.000
   11  0.000  0.000  0.000  0.000
   12  0.000  0.000  0.000  0.000
   13  0.000  0.000  0.000  0.000
   14  0.000  0.000  0.000  0.000
   15  0.000  0.000  0.000  0.000
   16  0.000  0.000  0.000  0.000
   17  0.020  0.000  0.000  0.020
   18  0.020  0.000  0.000  0.020
   19  0.020  0.000  0.000  0.020
   20  0.020  0.000  0.000  0.020
   21  0.031  0.002  0.000  0.033
   22  0.031  0.002  0.000  0.033
   23  0.049  0.004  0.000  0.053
   24  0.049  0.004  0.000  0.053
   25  0.003  0.000  0.000  0.003
   26  0.003  0.000  0.000  0.003
   27  0.009  0.000  0.000  0.010
   28  0.009  0.000  0.000  0.010
   29  0.006  0.000  0.000  0.006
   30  0.006  0.000  0.000  0.006
   31  0.006  0.000  0.000  0.006
   32  0.019  0.000  0.000  0.019
   33  0.019  0.000  0.000  0.019
   34  0.017  0.000  0.000  0.017
   35  0.017  0.000  0.000  0.017
   36  0.007  0.000  0.000  0.007
   37  0.007  0.000  0.000  0.007
   38  0.000  0.000  0.000  0.000
   39  0.000  0.000  0.000  0.000
   40  0.061  0.001  0.000  0.062
   41  0.061  0.001  0.000  0.062
   42  0.006  0.000  0.000  0.006
   43  0.110  0.001  0.000  0.111
   44  0.110  0.001  0.000  0.111
tot    0.718  0.020  0.001  0.739
 
band     9 # energy  -10.00977835 # occ.  2.00000000
 
ion      s      p      d    tot
    1  0.000  0.000  0.000  0.000
    2  0.001  0.000  0.000  0.001
    3  0.000  0.000  0.000  0.000
    4  0.000  0.000  0.000  0.000
    5  0.000  0.000  0.000  0.000
    6  0.000  0.000  0.000  0.000
    7  0.000  0.000  0.000  0.000
    8  0.000  0.000  0.000  0.000
    9  0.000  0.000  0.000  0.000
   10  0.000  0.000  0.000  0.000
   11  0.000  0.000  0.000  0.000
   12  0.000  0.000  0.000  0.000
   13  0.000  0.000  0.000  0.000
   14  0.001  0.000  0.000  0.001
   15  0.001  0.000  0.000  0.001
   16  0.001  0.000  0.000  0.001
   17  0.002  0.003  0.000  0.005
   18  0.002  0.003  0.000  0.005
   19  0.000  0.001  0.000  0.001
   20  0.000  0.001  0.000  0.001
   21  0.001  0.004  0.000  0.006
   22  0.001  0.004  0.000  0.006
   23  0.001  0.005  0.000  0.006
   24  0.001  0.005  0.000  0.006
   25  0.131  0.000  0.000  0.131
   26  0.131  0.000  0.000  0.131
   27  0.060  0.000  0.000  0.060
   28  0.060  0.000  0.000  0.060
   29  0.031  0.000  0.000  0.031
   30  0.003  0.000  0.000  0.003
   31  0.003  0.000  0.000  0.003
   32  0.003  0.000  0.000  0.003
   33  0.003  0.000  0.000  0.003
   34  0.014  0.000  0.000  0.014
   35  0.014  0.000  0.000  0.014
   36  0.001  0.000  0.000  0.001
   37  0.001  0.000  0.000  0.001
   38  0.025  0.000  0.000  0.025
   39  0.025  0.000  0.000  0.025
   40  0.007  0.000  0.000  0.007
   41  0.007  0.000  0.000  0.007
   42  0.031  0.000  0.000  0.031
   43  0.063  0.000  0.000  0.063
   44  0.063  0.000  0.000  0.063
tot    0.688  0.030  0.001  0.720
 
band    10 # energy   -9.97175758 # occ.  2.00000000
 
ion      s      p      d    tot
    1  0.000  0.000  0.000  0.000
    2  0.000  0.000  0.000  0.001
    3  0.000  0.000  0.000  0.000
    4  0.000  0.000  0.000  0.000
    5  0.000  0.000  0.000  0.000
    6  0.000  0.000  0.000  0.000
    7  0.000  0.000  0.000  0.000
    8  0.000  0.000  0.000  0.000
    9  0.000  0.000  0.000  0.000
   10  0.001  0.000  0.000  0.001
   11  0.001  0.000  0.000  0.001
   12  0.000  0.000  0.000  0.000
   13  0.000  0.000  0.000  0.000
   14  0.000  0.000  0.000  0.000
   15  0.000  0.000  0.000  0.000
   16  0.000  0.000  0.000  0.001
   17  0.000  0.003  0.000  0.003
   18  0.000  0.003  0.000  0.003
   19  0.002  0.001  0.000  0.003
   20  0.002  0.001  0.000  0.003
   21  0.003  0.009  0.000  0.012
   22  0.003  0.009  0.000  0.012
   23  0.000  0.001  0.000  0.002
   24  0.000  0.001  0.000  0.002
   25  0.100  0.000  0.000  0.100
   26  0.100  0.000  0.000  0.100
   27  0.027  0.000  0.000  0.027
   28  0.027  0.000  0.000  0.027
   29  0.008  0.000  0.000  0.008
   30  0.005  0.000  0.000  0.005
   31  0.005  0.000  0.000  0.005
   32  0.006  0.000  0.000  0.006
   33  0.006  0.000  0.000  0.006
   34  0.011  0.000  0.000  0.011
   35  0.011  0.000  0.000  0.011
   36  0.056  0.000  0.000  0.057
   37  0.056  0.000  0.000  0.057
   38  0.025  0.000  0.000  0.025
   39  0.025  0.000  0.000  0.025
   40  0.100  0.000  0.000  0.100
   41  0.100  0.000  0.000  0.100
   42  0.008  0.000  0.000  0.008
   43  0.000  0.000  0.000  0.000
   44  0.000  0.000  0.000  0.000
tot    0.688  0.031  0.001  0.720
 
band    11 # energy   -9.96759582 # occ.  2.00000000
 
ion      s      p      d    tot
    1  0.001  0.001  0.000  0.002
    2  0.000  0.000  0.000  0.000
    3  0.001  0.001  0.000  0.002
    4  0.000  0.000  0.000  0.000
    5  0.000  0.000  0.000  0.000
    6  0.000  0.000  0.000  0.001
    7  0.000  0.000  0.000  0.001
    8  0.000  0.000  0.000  0.000
    9  0.000  0.000  0.000  0.000
   10  0.000  0.000  0.000  0.000
   11  0.000  0.000  0.000  0.000
   12  0.000  0.000  0.000  0.000
   13  0.000  0.000  0.000  0.000
   14  0.000  0.000  0.000  0.000
   15  0.000  0.000  0.000  0.000
   16  0.000  0.000  0.000  0.000
   17  0.000  0.000  0.000  0.000
   18  0.000  0.000  0.000  0.000
   19  0.008  0.005  0.000  0.013
   20  0.008  0.005  0.000  0.013
   21  0.001  0.001  0.000  0.003
   22  0.001  0.001  0.000  0.003
   23  0.004  0.005  0.001  0.010
   24  0.004  0.005  0.001  0.010
   25  0.012  0.000  0.000  0.012
   26  0.012  0.000  0.000  0.012
   27  0.221  0.000  0.000  0.221
   28  0.221  0.000  0.000  0.221
   29  0.001  0.000  0.000  0.001
   30  0.055  0.000  0.000  0.055
   31  0.055  0.000  0.000  0.055
   32  0.016  0.000  0.000  0.016
   33  0.016  0.000  0.000  0.016
   34  0.001  0.000  0.000  0.001
   35  0.001  0.000  0.000  0.001
   36  0.004  0.000  0.000  0.004
   37  0.004  0.000  0.000  0.004
   38  0.001  0.000  0.000  0.002
   39  0.001  0.000  0.000  0.002
   40  0.016  0.000  0.000  0.016
   41  0.016  0.000  0.000  0.016
   42  0.001  0.000  0.000  0.001
   43  0.008  0.000  0.000  0.008
   44  0.008  0.000  0.000  0.008
tot    0.698  0.027  0.002  0.727
 
band    12 # energy   -9.92406055 # occ.  2.00000000
 
ion      s      p      d    tot
    1  0.000  0.000  0.000  0.000
    2  0.001  0.000  0.000  0.001
    3  0.000  0.000  0.000  0.000
    4  0.000  0.000  0.000  0.000
    5  0.000  0.000  0.000  0.000
    6  0.000  0.000  0.000  0.000
    7  0.000  0.000  0.000  0.000
    8  0.000  0.000  0.000  0.000
    9  0.000  0.000  0.000  0.000
   10  0.000  0.000  0.000  0.000
   11  0.000  0.000  0.000  0.000
   12  0.000  0.000  0.000  0.000
   13  0.000  0.000  0.000  0.000
   14  0.000  0.000  0.000  0.000
   15  0.000  0.000  0.000  0.000
   16  0.001  0.000  0.000  0.001
   17  0.007  0.003  0.000  0.010
   18  0.007  0.003  0.000  0.010
   19  0.000  0.002  0.000  0.002
   20  0.000  0.002  0.000  0.002
   21  0.002  0.003  0.001  0.006
   22  0.002  0.003  0.001  0.006
   23  0.002  0.005  0.000  0.008
   24  0.002  0.005  0.000  0.008
   25  0.127  0.000  0.000  0.127
   26  0.127  0.000  0.000  0.127
   27  0.058  0.000  0.000  0.058
   28  0.058  0.000  0.000  0.058
   29  0.026  0.000  0.000  0.027
   30  0.003  0.000  0.000  0.003
   31  0.003  0.000  0.000  0.003
   32  0.007  0.000  0.000  0.007
   33  0.007  0.000  0.000  0.007
   34  0.002  0.000  0.000  0.002
   35  0.002  0.000  0.000  0.002
   36  0.015  0.000  0.000  0.015
   37  0.015  0.000  0.000  0.015
   38  0.030  0.000  0.000  0.030
   39  0.030  0.000  0.000  0.030
   40  0.008  0.000  0.000  0.008
   41  0.008  0.000  0.000  0.008
   42  0.026  0.000  0.000  0.027
   43  0.060  0.000  0.000  0.060
   44  0.060  0.000  0.000  0.060
tot    0.699  0.028  0.002  0.729
 
band    13 # energy   -9.76428905 # occ.  2.00000000
 
ion      s      p      d    tot
    1  0.000  0.000  0.000  0.000
    2  0.000  0.000  0.000  0.000
    3  0.000  0.000  0.000  0.000
    4  0.000  0.000  0.000  0.000
    5  0.000  0.000  0.000  0.000
    6  0.000  0.000  0.000  0.000
    7  0.000  0.000  0.000  0.000
    8  0.000  0.000  0.000  0.000
    9  0.000  0.000  0.000  0.000
   10  0.000  0.000  0.000  0.000
   11  0.000  0.000  0.000  0.000
   12  0.000  0.000  0.000  0.000
   13  0.000  0.000  0.000  0.000
   14  0.000  0.000  0.000  0.000
   15  0.000  0.000  0.000  0.000
   16  0.000  0.000  0.000  0.000
   17  0.000  0.004  0.000  0.004
   18  0.000  0.004  0.000  0.004
   19  0.000  0.005  0.000  0.005
   20  0.000  0.005  0.000  0.005
   21  0.000  0.001  0.000  0.002
   22  0.000  0.001  0.000  0.002
   23  0.000  0.001  0.000  0.002
   24  0.000  0.001  0.000  0.002
   25  0.002  0.000  0.000  0.002
   26  0.002  0.000  0.000  0.002
   27  0.002  0.000  0.000  0.002
   28  0.002  0.000  0.000  0.002
   29  0.000  0.000  0.000  0.000
   30  0.008  0.000  0.000  0.008
   31  0.008  0.000  0.000  0.008
   32  0.074  0.000  0.000  0.074
   33  0.074  0.000  0.000  0.074
   34  0.057  0.000  0.000  0.058
   35  0.057  0.000  0.000  0.058
   36  0.067  0.000  0.000  0.067
   37  0.067  0.000  0.000  0.067
   38  0.086  0.000  0.000  0.086
   39  0.086  0.000  0.000  0.086
   40  0.023  0.000  0.000  0.023
   41  0.023  0.000  0.000  0.023
   42  0.000  0.000  0.000  0.000
   43  0.024  0.000  0.000  0.025
   44  0.024  0.000  0.000  0.025
tot    0.693  0.025  0.001  0.720
 
band    14 # energy   -9.73756320 # occ.  2.00000000
 
ion      s      p      d    tot
    1  0.000  0.000  0.000  0.000
    2  0.000  0.000  0.000  0.000
    3  0.000  0.000  0.000  0.000
    4  0.000  0.000  0.000  0.000
    5  0.000  0.000  0.000  0.000
    6  0.000  0.000  0.000  0.000
    7  0.000  0.000  0.000  0.000
    8  0.000  0.000  0.000  0.000
    9  0.000  0.000  0.000  0.000
   10  0.000  0.000  0.000  0.000
   11  0.000  0.000  0.000  0.000
   12  0.000  0.000  0.000  0.000
   13  0.000  0.000  0.000  0.000
   14  0.000  0.000  0.000  0.000
   15  0.000  0.000  0.000  0.000
   16  0.000  0.000  0.000  0.000
   17  0.000  0.008  0.000  0.008
   18  0.000  0.008  0.000  0.008
   19  0.000  0.001  0.000  0.001
   20  0.000  0.001  0.000  0.001
   21  0.000  0.003  0.001  0.004
   22  0.000  0.003  0.001  0.004
   23  0.001  0.000  0.000  0.001
   24  0.001  0.000  0.000  0.001
   25  0.006  0.000  0.000  0.006
   26  0.006  0.000  0.000  0.006
   27  0.002  0.000  0.000  0.002
   28  0.002  0.000  0.000  0.002
   29  0.006  0.000  0.000  0.006
   30  0.005  0.000  0.000  0.005
   31  0.005  0.000  0.000  0.005
   32  0.007  0.000  0.000  0.007
   33  0.007  0.000  0.000  0.007
   34  0.094  0.000  0.000  0.094
   35  0.094  0.000  0.000  0.094
   36  0.156  0.000  0.000  0.156
   37  0.156  0.000  0.000  0.156
   38  0.013  0.000  0.000  0.013
   39  0.013  0.000  0.000  0.013
   40  0.057  0.000  0.000  0.057
   41  0.057  0.000  0.000  0.057
   42  0.006  0.000  0.000  0.006
   43  0.000  0.000  0.000  0.000
   44  0.000  0.000  0.000  0.000
tot    0.695  0.026  0.001  0.722
 
band    15 # energy   -9.73137964 # occ.  2.00000000
 
ion      s      p      d    tot
    1  0.000  0.000  0.000  0.000
    2  0.000  0.000  0.000  0.000
    3  0.000  0.000  0.000  0.000
    4  0.000  0.000  0.000  0.000
    5  0.000  0.000  0.000  0.000
    6  0.000  0.000  0.000  0.000
    7  0.000  0.000  0.000  0.000
    8  0.000  0.000  0.000  0.000
    9  0.000  0.000  0.000  0.000
   10  0.000  0.000  0.000  0.000
   11  0.000  0.000  0.000  0.000
   12  0.000  0.000  0.000  0.000
   13  0.000  0.000  0.000  0.000
   14  0.000  0.000  0.000  0.000
   15  0.000  0.000  0.000  0.000
   16  0.000  0.000  0.000  0.000
   17  0.000  0.003  0.000  0.003
   18  0.000  0.003  0.000  0.003
   19  0.000  0.005  0.000  0.006
   20  0.000  0.005  0.000  0.006
   21  0.000  0.001  0.000  0.001
   22  0.000  0.001  0.000  0.001
   23  0.000  0.002  0.001  0.003
   24  0.000  0.002  0.001  0.003
   25  0.003  0.000  0.000  0.004
   26  0.003  0.000  0.000  0.004
   27  0.013  0.000  0.000  0.013
   28  0.013  0.000  0.000  0.013
   29  0.006  0.000  0.000  0.006
   30  0.007  0.000  0.000  0.007
   31  0.007  0.000  0.000  0.007
   32  0.057  0.000  0.000  0.057
   33  0.057  0.000  0.000  0.057
   34  0.049  0.000  0.000  0.049
   35  0.049  0.000  0.000  0.049
   36  0.042  0.000  0.000  0.043
   37  0.042  0.000  0.000  0.043
   38  0.112  0.000  0.000  0.112
   39  0.112  0.000  0.000  0.112
   40  0.007  0.000  0.000  0.007
   41  0.007  0.000  0.000  0.007
   42  0.006  0.000  0.000  0.006
   43  0.051  0.000  0.000  0.051
   44  0.051  0.000  0.000  0.051
tot    0.697  0.025  0.002  0.724
 
band    16 # energy   -9.72517159 # occ.  2.00000000
 
ion      s      p      d    tot
    1  0.000  0.000  0.000  0.000
    2  0.000  0.000  0.000  0.000
    3  0.000  0.000  0.000  0.000
    4  0.000  0.000  0.000  0.000
    5  0.000  0.000  0.000  0.000
    6  0.000  0.000  0.000  0.000
    7  0.000  0.000  0.000  0.000
    8  0.000  0.000  0.000  0.000
    9  0.000  0.000  0.000  0.000
   10  0.000  0.000  0.000  0.000
   11  0.000  0.000  0.000  0.000
   12  0.000  0.000  0.000  0.000
   13  0.000  0.000  0.000  0.000
   14  0.000  0.000  0.000  0.000
   15  0.000  0.000  0.000  0.000
   16  0.000  0.000  0.000  0.000
   17  0.000  0.003  0.000  0.003
   18  0.000  0.003  0.000  0.003
   19  0.000  0.006  0.000  0.006
   20  0.000  0.006  0.000  0.006
   21  0.000  0.001  0.000  0.002
   22  0.000  0.001  0.000  0.002
   23  0.000  0.002  0.000  0.002
   24  0.000  0.002  0.000  0.002
   25  0.009  0.000  0.000  0.009
   26  0.009  0.000  0.000  0.009
   27  0.005  0.000  0.000  0.005
   28  0.005  0.000  0.000  0.005
   29  0.008  0.000  0.000  0.008
   30  0.000  0.000  0.000  0.000
   31  0.000  0.000  0.000  0.000
   32  0.083  0.000  0.000  0.083
   33  0.083  0.000  0.000  0.083
   34  0.022  0.000  0.000  0.022
   35  0.022  0.000  0.000  0.022
   36  0.056  0.000  0.000  0.056
   37  0.056  0.000  0.000  0.056
   38  0.109  0.000  0.000  0.109
   39  0.109  0.000  0.000  0.109
   40  0.022  0.000  0.000  0.022
   41  0.022  0.000  0.000  0.022
   42  0.008  0.000  0.000  0.008
   43  0.033  0.000  0.000  0.033
   44  0.033  0.000  0.000  0.033
tot    0.697  0.025  0.002  0.724
 
band    17 # energy   -9.55268743 # occ.  2.00000000
 
ion      s      p      d    tot
    1  0.000  0.000  0.000  0.000
    2  0.000  0.000  0.000  0.000
    3  0.000  0.000  0.000  0.000
    4  0.001  0.000  0.000  0.002
    5  0.001  0.000  0.000  0.002
    6  0.001  0.000  0.000  0.001
    7  0.001  0.000  0.000  0.001
    8  0.000  0.000  0.000  0.000
    9  0.000  0.000  0.000  0.000
   10  0.000  0.000  0.000  0.000
   11  0.000  0.000  0.000  0.000
   12  0.000  0.000  0.000  0.000
   13  0.000  0.000  0.000  0.000
   14  0.000  0.000  0.000  0.000
   15  0.000  0.000  0.000  0.000
   16  0.000  0.000  0.000  0.000
   17  0.000  0.002  0.001  0.003
   18  0.000  0.002  0.001  0.003
   19  0.000  0.002  0.001  0.003
   20  0.000  0.002  0.001  0.003
   21  0.000  0.000  0.000  0.001
   22  0.000  0.000  0.000  0.001
   23  0.000  0.000  0.000  0.000
   24  0.000  0.000  0.000  0.000
   25  0.011  0.000  0.000  0.011
   26  0.011  0.000  0.000  0.011
   27  0.009  0.000  0.000  0.009
   28  0.009  0.000  0.000  0.009
   29  0.112  0.000  0.000  0.112
   30  0.101  0.000  0.000  0.101
   31  0.101  0.000  0.000  0.101
   32  0.046  0.000  0.000  0.046
   33  0.046  0.000  0.000  0.046
   34  0.041  0.000  0.000  0.041
   35  0.041  0.000  0.000  0.041
   36  0.020  0.000  0.000  0.020
   37  0.020  0.000  0.000  0.020
   38  0.005  0.000  0.000  0.005
   39  0.005  0.000  0.000  0.005
   40  0.005  0.000  0.000  0.005
   41  0.005  0.000  0.000  0.005
   42  0.112  0.000  0.000  0.112
   43  0.001  0.000  0.000  0.001
   44  0.001  0.000  0.000  0.001
tot    0.708  0.014  0.004  0.726
 
band    18 # energy   -9.53946985 # occ.  2.00000000
 
ion      s      p      d    tot
    1  0.000  0.000  0.000  0.000
    2  0.000  0.000  0.000  0.000
    3  0.000  0.000  0.000  0.000
    4  0.001  0.000  0.000  0.002
    5  0.001  0.000  0.000  0.002
    6  0.001  0.000  0.000  0.002
    7  0.001  0.000  0.000  0.002
    8  0.000  0.000  0.000  0.000
    9  0.000  0.000  0.000  0.000
   10  0.000  0.000  0.000  0.000
   11  0.000  0.000  0.000  0.000
   12  0.000  0.000  0.000  0.000
   13  0.000  0.000  0.000  0.000
   14  0.000  0.000  0.000  0.000
   15  0.000  0.000  0.000  0.000
   16  0.000  0.000  0.000  0.000
   17  0.000  0.002  0.001  0.003
   18  0.000  0.002  0.001  0.003
   19  0.001  0.002  0.001  0.003
   20  0.001  0.002  0.001  0.003
   21  0.000  0.000  0.000  0.001
   22  0.000  0.000  0.000  0.001
   23  0.000  0.000  0.000  0.001
   24  0.000  0.000  0.000  0.001
   25  0.009  0.000  0.000  0.009
   26  0.009  0.000  0.000  0.009
   27  0.011  0.000  0.000  0.011
   28  0.011  0.000  0.000  0.011
   29  0.109  0.000  0.000  0.110
   30  0.115  0.000  0.000  0.115
   31  0.115  0.000  0.000  0.115
   32  0.023  0.000  0.000  0.023
   33  0.023  0.000  0.000  0.023
   34  0.037  0.000  0.000  0.037
   35  0.037  0.000  0.000  0.037
   36  0.013  0.000  0.000  0.013
   37  0.013  0.000  0.000  0.013
   38  0.031  0.000  0.000  0.031
   39  0.031  0.000  0.000  0.031
   40  0.000  0.000  0.000  0.000
   41  0.000  0.000  0.000  0.000
   42  0.109  0.000  0.000  0.110
   43  0.002  0.000  0.000  0.002
   44  0.002  0.000  0.000  0.002
tot    0.710  0.013  0.004  0.727
 
band    19 # energy   -9.44858509 # occ.  2.00000000
 
ion      s      p      d    tot
    1  0.000  0.000  0.000  0.000
    2  0.000  0.000  0.000  0.000
    3  0.000  0.000  0.000  0.000
    4  0.000  0.001  0.000  0.001
    5  0.000  0.001  0.000  0.001
    6  0.000  0.001  0.000  0.001
    7  0.000  0.001  0.000  0.001
    8  0.000  0.000  0.000  0.000
    9  0.000  0.000  0.000  0.000
   10  0.000  0.000  0.000  0.000
   11  0.000  0.000  0.000  0.000
   12  0.000  0.000  0.000  0.001
   13  0.000  0.000  0.000  0.001
   14  0.000  0.000  0.000  0.001
   15  0.000  0.000  0.000  0.001
   16  0.000  0.000  0.000  0.000
   17  0.000  0.002  0.001  0.003