<?xml version="1.0" encoding="ISO-8859-1"?>
<modeling>
 <generator>
  <i name="program" type="string">vasp </i>
  <i name="version" type="string">5.4.4.18Apr17-6-g9f103f2a35  </i>
  <i name="subversion" type="string">(build Oct 27 2022 13:04:57) complex            parallel </i>
  <i name="platform" type="string">LinuxIFC </i>
  <i name="date" type="string">2024 07 04 </i>
  <i name="time" type="string">10:12:11 </i>
 </generator>
 <incar>
  <i type="string" name="SYSTEM"> CIS</i>
  <i type="int" name="ISTART">     0</i>
  <i type="string" name="PREC">medium</i>
  <i type="int" name="ICHARG">     2</i>
  <i type="int" name="IBRION">     2</i>
  <i name="EDIFF">      0.00010000</i>
  <i name="EDIFFG">     -0.05000000</i>
  <i type="int" name="NSW">    99</i>
  <i type="int" name="ISIF">     3</i>
  <i name="ENCUT">    300.00000000</i>
  <i name="POTIM">      0.10000000</i>
  <i type="string" name="LREAL"> Auto</i>
  <i type="int" name="ISMEAR">     0</i>
  <i name="SIGMA">      0.05000000</i>
  <i type="int" name="LMAXMIX">     4</i>
  <i type="logical" name="LWAVE"> F  </i>
  <i type="logical" name="LCHARG"> F  </i>
  <i type="int" name="LORBIT">    10</i>
  <i type="logical" name="LASPH"> T  </i>
  <v type="int" name="KPOINT_BSE">    -1     0     0     0</v>
  <i type="logical" name="LASPH"> T  </i>
 </incar>
 <structure name="primitive_cell" >
  <crystal>
   <varray name="basis" >
    <v>       4.11375546       0.00000000       0.00000000 </v>
    <v>       0.00000000      17.10448989       0.00000000 </v>
    <v>       0.00000000       0.00000000      17.59567277 </v>
   </varray>
   <i name="volume">   1238.09644082 </i>
   <varray name="rec_basis" >
    <v>       0.24308688       0.00000000       0.00000000 </v>
    <v>       0.00000000       0.05846418       0.00000000 </v>
    <v>       0.00000000       0.00000000       0.05683215 </v>
   </varray>
  </crystal>
  <varray name="positions" >
   <v>       0.25000000       0.19218602      -0.08041938 </v>
   <v>      -0.25000000       0.06655922      -0.08174867 </v>
   <v>       0.25000000       0.16475697       0.09781178 </v>
   <v>       0.25000000       0.18077916      -0.26634072 </v>
   <v>      -0.25000000       0.31669544       0.06938156 </v>
   <v>      -0.25000000       0.31510513      -0.23481706 </v>
   <v>       0.25000000       0.42780610      -0.08291355 </v>
   <v>      -0.25000000       0.07000813      -0.25694783 </v>
   <v>      -0.25000000       0.05831812       0.08860454 </v>
   <v>       0.25000000      -0.05831812      -0.08860454 </v>
   <v>       0.25000000      -0.04528595      -0.24177240 </v>
   <v>       0.25000000      -0.06655922       0.08174867 </v>
   <v>       0.25000000       0.45197195       0.09313761 </v>
   <v>       0.25000000       0.45471405      -0.25822760 </v>
   <v>       0.25000000       0.18489487       0.26518294 </v>
   <v>       0.25000000       0.18330456      -0.43061844 </v>
   <v>      -0.25000000       0.31922084       0.23365928 </v>
   <v>      -0.25000000      -0.45197195      -0.09313761 </v>
   <v>      -0.25000000      -0.16475697      -0.09781178 </v>
   <v>      -0.25000000       0.33524303      -0.40218822 </v>
   <v>      -0.25000000       0.04528595       0.24177240 </v>
   <v>      -0.25000000       0.04802805      -0.40686239 </v>
   <v>       0.25000000       0.42999187       0.24305217 </v>
   <v>       0.25000000       0.44168188      -0.41139546 </v>
   <v>      -0.25000000      -0.42999187      -0.24305217 </v>
   <v>      -0.25000000      -0.42780610       0.08291355 </v>
   <v>       0.25000000      -0.07000813       0.25694783 </v>
   <v>      -0.25000000      -0.19218602       0.08041938 </v>
   <v>       0.25000000      -0.07219390      -0.41708645 </v>
   <v>      -0.25000000      -0.18489487      -0.26518294 </v>
   <v>       0.25000000      -0.31669544      -0.06938156 </v>
   <v>      -0.25000000      -0.45471405       0.25822760 </v>
   <v>       0.25000000      -0.31922084      -0.23365928 </v>
   <v>      -0.25000000      -0.43344078      -0.41825133 </v>
   <v>      -0.25000000      -0.18077916       0.26634072 </v>
   <v>      -0.25000000       0.07219390       0.41708645 </v>
   <v>      -0.25000000       0.30781398       0.41958062 </v>
   <v>       0.25000000      -0.04802805       0.40686239 </v>
   <v>       0.25000000       0.43344078       0.41825133 </v>
   <v>       0.25000000      -0.31510513       0.23481706 </v>
   <v>       0.25000000      -0.30781398      -0.41958062 </v>
   <v>      -0.25000000      -0.44168188       0.41139546 </v>
   <v>      -0.25000000      -0.18330456       0.43061844 </v>
   <v>       0.25000000      -0.33524303       0.40218822 </v>
  </varray>
 </structure>
 <varray name="primitive_index" >
  <v type="int" >        1 </v>
  <v type="int" >       28 </v>
  <v type="int" >       43 </v>
  <v type="int" >       32 </v>
  <v type="int" >       15 </v>
  <v type="int" >       11 </v>
  <v type="int" >        4 </v>
  <v type="int" >       20 </v>
  <v type="int" >       24 </v>
  <v type="int" >       23 </v>
  <v type="int" >       38 </v>
  <v type="int" >       27 </v>
  <v type="int" >       42 </v>
  <v type="int" >       36 </v>
  <v type="int" >        8 </v>
  <v type="int" >       12 </v>
  <v type="int" >       35 </v>
  <v type="int" >       29 </v>
  <v type="int" >       44 </v>
  <v type="int" >       40 </v>
  <v type="int" >       39 </v>
  <v type="int" >       31 </v>
  <v type="int" >       18 </v>
  <v type="int" >       21 </v>
  <v type="int" >       17 </v>
  <v type="int" >        5 </v>
  <v type="int" >       19 </v>
  <v type="int" >        3 </v>
  <v type="int" >        6 </v>
  <v type="int" >        9 </v>
  <v type="int" >       14 </v>
  <v type="int" >       37 </v>
  <v type="int" >       34 </v>
  <v type="int" >       26 </v>
  <v type="int" >       33 </v>
  <v type="int" >        7 </v>
  <v type="int" >       16 </v>
  <v type="int" >       30 </v>
  <v type="int" >       25 </v>
  <v type="int" >       10 </v>
  <v type="int" >        2 </v>
  <v type="int" >       22 </v>
  <v type="int" >       13 </v>
  <v type="int" >       41 </v>
 </varray>
 <kpoints>
  <generation param="Monkhorst-Pack">
   <v type="int" name="divisions">       5        2        2 </v>
   <v name="usershift">      0.00000000       0.00000000       0.00000000 </v>
   <v name="genvec1">      0.20000000       0.00000000       0.00000000 </v>
   <v name="genvec2">      0.00000000       0.50000000       0.00000000 </v>
   <v name="genvec3">      0.00000000       0.00000000       0.50000000 </v>
   <v name="shift">      0.00000000       0.50000000       0.50000000 </v>
  </generation>
  <varray name="kpointlist" >
   <v>       0.00000000       0.25000000       0.25000000 </v>
   <v>       0.20000000       0.25000000       0.25000000 </v>
   <v>       0.40000000       0.25000000       0.25000000 </v>
  </varray>
  <varray name="weights" >
   <v>       0.20000000 </v>
   <v>       0.40000000 </v>
   <v>       0.40000000 </v>
  </varray>
 </kpoints>
 <parameters>
  <separator name="general" >
   <i type="string" name="SYSTEM">CIS</i>
   <i type="logical" name="LCOMPAT"> F  </i>
  </separator>
  <separator name="electronic" >
   <i type="string" name="PREC">medium</i>
   <i name="ENMAX">    300.00000000</i>
   <i name="ENAUG">    446.84200000</i>
   <i name="EDIFF">      0.00010000</i>
   <i type="int" name="IALGO">    38</i>
   <i type="int" name="IWAVPR">    11</i>
   <i type="int" name="NBANDS">   112</i>
   <i name="NELECT">    176.00000000</i>
   <i type="int" name="TURBO">     0</i>
   <i type="int" name="IRESTART">     0</i>
   <i type="int" name="NREBOOT">     0</i>
   <i type="int" name="NMIN">     0</i>
   <i name="EREF">      0.00000000</i>
   <separator name="electronic smearing" >
    <i type="int" name="ISMEAR">     0</i>
    <i name="SIGMA">      0.05000000</i>
    <i name="KSPACING">      0.50000000</i>
    <i type="logical" name="KGAMMA"> T  </i>
   </separator>
   <separator name="electronic projectors" >
    <i type="logical" name="LREAL"> T  </i>
    <v name="ROPT">     -0.00200000     -0.00200000     -0.00200000</v>
    <i type="int" name="LMAXPAW">  -100</i>
    <i type="int" name="LMAXMIX">     4</i>
    <i type="logical" name="NLSPLINE"> F  </i>
   </separator>
   <separator name="electronic startup" >
    <i type="int" name="ISTART">     0</i>
    <i type="int" name="ICHARG">     2</i>
    <i type="int" name="INIWAV">     1</i>
   </separator>
   <separator name="electronic spin" >
    <i type="int" name="ISPIN">     1</i>
    <i type="logical" name="LNONCOLLINEAR"> F  </i>
    <v name="MAGMOM">      1.00000000      1.00000000      1.00000000      1.00000000      1.00000000      1.00000000      1.00000000      1.00000000      1.00000000      1.00000000      1.00000000      1.00000000      1.00000000      1.00000000      1.00000000      1.00000000      1.00000000      1.00000000      1.00000000      1.00000000
      1.00000000      1.00000000      1.00000000      1.00000000      1.00000000      1.00000000      1.00000000      1.00000000      1.00000000      1.00000000      1.00000000      1.00000000      1.00000000      1.00000000      1.00000000      1.00000000      1.00000000      1.00000000      1.00000000      1.00000000
      1.00000000      1.00000000      1.00000000      1.00000000</v>
    <i name="NUPDOWN">     -1.00000000</i>
    <i type="logical" name="LSORBIT"> F  </i>
    <v name="SAXIS">      0.00000000      0.00000000      1.00000000</v>
    <i type="logical" name="LSPIRAL"> F  </i>
    <v name="QSPIRAL">      0.00000000      0.00000000      0.00000000</v>
    <i type="logical" name="LZEROZ"> F  </i>
   </separator>
   <separator name="electronic exchange-correlation" >
    <i type="logical" name="LASPH"> T  </i>
    <i type="logical" name="LMETAGGA"> F  </i>
   </separator>
   <separator name="electronic convergence" >
    <i type="int" name="NELM">    60</i>
    <i type="int" name="NELMDL">    -5</i>
    <i type="int" name="NELMIN">     2</i>
    <i name="ENINI">    300.00000000</i>
    <separator name="electronic convergence detail" >
     <i type="logical" name="LDIAG"> T  </i>
     <i type="logical" name="LSUBROT"> F  </i>
     <i name="WEIMIN">      0.00100000</i>
     <i name="EBREAK">      0.00000022</i>
     <i name="DEPER">      0.30000000</i>
     <i type="int" name="NRMM">     4</i>
     <i name="TIME">      0.40000000</i>
    </separator>
   </separator>
   <separator name="electronic mixer" >
    <i name="AMIX">      0.40000000</i>
    <i name="BMIX">      1.00000000</i>
    <i name="AMIN">      0.10000000</i>
    <i name="AMIX_MAG">      1.60000000</i>
    <i name="BMIX_MAG">      1.00000000</i>
    <separator name="electronic mixer details" >
     <i type="int" name="IMIX">     4</i>
     <i type="logical" name="MIXFIRST"> F  </i>
     <i type="int" name="MAXMIX">   -45</i>
     <i name="WC">    100.00000000</i>
     <i type="int" name="INIMIX">     1</i>
     <i type="int" name="MIXPRE">     1</i>
     <i type="int" name="MREMOVE">     5</i>
    </separator>
   </separator>
   <separator name="electronic dipolcorrection" >
    <i type="logical" name="LDIPOL"> F  </i>
    <i type="logical" name="LMONO"> F  </i>
    <i type="int" name="IDIPOL">     0</i>
    <i name="EPSILON">      1.00000000</i>
    <v name="DIPOL">   -100.00000000   -100.00000000   -100.00000000</v>
    <i name="EFIELD">      0.00000000</i>
   </separator>
  </separator>
  <separator name="grids" >
   <i type="int" name="NGX">    18</i>
   <i type="int" name="NGY">    72</i>
   <i type="int" name="NGZ">    80</i>
   <i type="int" name="NGXF">    28</i>
   <i type="int" name="NGYF">   120</i>
   <i type="int" name="NGZF">   126</i>
   <i type="logical" name="ADDGRID"> F  </i>
  </separator>
  <separator name="ionic" >
   <i type="int" name="NSW">    99</i>
   <i type="int" name="IBRION">     2</i>
   <i type="int" name="MDALGO">     0</i>
   <i type="int" name="ISIF">     3</i>
   <i name="PSTRESS">      0.00000000</i>
   <i name="EDIFFG">     -0.05000000</i>
   <i type="int" name="NFREE">     1</i>
   <i name="POTIM">      0.10000000</i>
   <i name="SMASS">     -3.00000000</i>
   <i name="SCALEE">      1.00000000</i>
  </separator>
  <separator name="ionic md" >
   <i name="TEBEG">      0.00010000</i>
   <i name="TEEND">      0.00010000</i>
   <i type="int" name="NBLOCK">     1</i>
   <i type="int" name="KBLOCK">    99</i>
   <i type="int" name="NPACO">   256</i>
   <i name="APACO">     16.00000000</i>
  </separator>
  <separator name="symmetry" >
   <i type="int" name="ISYM">     2</i>
   <i name="SYMPREC">      0.00001000</i>
  </separator>
  <separator name="dos" >
   <i type="int" name="LORBIT">    10</i>
   <v name="RWIGS">     -1.00000000     -1.00000000     -1.00000000</v>
   <i type="int" name="NEDOS">   301</i>
   <i name="EMIN">     10.00000000</i>
   <i name="EMAX">    -10.00000000</i>
   <i name="EFERMI">      0.00000000</i>
  </separator>
  <separator name="writing" >
   <i type="int" name="NWRITE">     2</i>
   <i type="logical" name="LWAVE"> F  </i>
   <i type="logical" name="LDOWNSAMPLE"> F  </i>
   <i type="logical" name="LCHARG"> F  </i>
   <i type="logical" name="LPARD"> F  </i>
   <i type="logical" name="LVTOT"> F  </i>
   <i type="logical" name="LVHAR"> F  </i>
   <i type="logical" name="LELF"> F  </i>
   <i type="logical" name="LOPTICS"> F  </i>
   <v name="STM">      0.00000000      0.00000000      0.00000000      0.00000000      0.00000000      0.00000000      0.00000000</v>
  </separator>
  <separator name="performance" >
   <i type="int" name="NPAR">    14</i>
   <i type="int" name="NSIM">     4</i>
   <i type="int" name="NBLK">    -1</i>
   <i type="logical" name="LPLANE"> T  </i>
   <i type="logical" name="LSCALAPACK"> T  </i>
   <i type="logical" name="LSCAAWARE"> F  </i>
   <i type="logical" name="LSCALU"> F  </i>
   <i type="logical" name="LASYNC"> F  </i>
   <i type="logical" name="LORBITALREAL"> F  </i>
  </separator>
  <separator name="miscellaneous" >
   <i type="int" name="IDIOT">     3</i>
   <i type="int" name="ISPECIAL">     0</i>
   <i type="logical" name="LMUSIC"> F  </i>
   <v name="POMASS">      7.01000000    208.98000000     78.96000000</v>
   <v name="DARWINR">      0.00000000      0.00000000      0.00000000</v>
   <v name="DARWINV">      1.00000000      1.00000000      1.00000000</v>
   <i type="logical" name="LCORR"> T  </i>
  </separator>
  <i type="logical" name="GGA_COMPAT"> T  </i>
  <i type="logical" name="LBERRY"> F  </i>
  <i type="int" name="ICORELEVEL">     0</i>
  <i type="logical" name="LDAU"> F  </i>
  <i type="int" name="I_CONSTRAINED_M">     0</i>
  <separator name="electronic exchange-correlation" >
   <i type="string" name="GGA">--</i>
   <i type="int" name="VOSKOWN">     0</i>
   <i type="logical" name="LHFCALC"> F  </i>
   <i type="string" name="PRECFOCK"></i>
   <i type="logical" name="LSYMGRAD"> F  </i>
   <i type="logical" name="LHFONE"> F  </i>
   <i type="logical" name="LRHFCALC"> F  </i>
   <i type="logical" name="LTHOMAS"> F  </i>
   <i type="logical" name="LMODELHF"> F  </i>
   <i name="ENCUT4O">     -1.00000000</i>
   <i type="int" name="EXXOEP">     0</i>
   <i type="int" name="FOURORBIT">     0</i>
   <i name="AEXX">      0.00000000</i>
   <i name="HFALPHA">      0.00000000</i>
   <i name="MCALPHA">      0.00000000</i>
   <i name="ALDAX">      1.00000000</i>
   <i name="AGGAX">      1.00000000</i>
   <i name="ALDAC">      1.00000000</i>
   <i name="AGGAC">      1.00000000</i>
   <i type="int" name="NKREDX">     1</i>
   <i type="int" name="NKREDY">     1</i>
   <i type="int" name="NKREDZ">     1</i>
   <i type="logical" name="SHIFTRED"> F  </i>
   <i type="logical" name="ODDONLY"> F  </i>
   <i type="logical" name="EVENONLY"> F  </i>
   <i type="int" name="LMAXFOCK">     0</i>
   <i type="int" name="NMAXFOCKAE">     0</i>
   <i type="logical" name="LFOCKAEDFT"> F  </i>
   <i name="HFSCREEN">      0.00000000</i>
   <i name="HFSCREENC">      0.00000000</i>
   <i type="int" name="NBANDSGWLOW">     0</i>
  </separator>
  <separator name="vdW DFT" >
   <i type="logical" name="LUSE_VDW"> F  </i>
   <i name="Zab_VDW">     -0.84910000</i>
   <i name="PARAM1">      0.12340000</i>
   <i name="PARAM2">      1.00000000</i>
   <i name="PARAM3">      0.00000000</i>
  </separator>
  <separator name="model GW" >
   <i type="int" name="MODEL_GW">     0</i>
   <i name="MODEL_EPS0">     16.88313328</i>
   <i name="MODEL_ALPHA">      1.00000000</i>
  </separator>
  <separator name="linear response parameters" >
   <i type="logical" name="LEPSILON"> F  </i>
   <i type="logical" name="LRPA"> F  </i>
   <i type="logical" name="LNABLA"> F  </i>
   <i type="logical" name="LVEL"> F  </i>
   <i type="int" name="KINTER">     0</i>
   <i name="CSHIFT">      0.10000000</i>
   <i name="OMEGAMAX">     -1.00000000</i>
   <i name="DEG_THRESHOLD">      0.00200000</i>
   <i name="RTIME">     -0.10000000</i>
   <i name="WPLASMAI">      0.00000000</i>
   <v name="DFIELD">      0.00000000      0.00000000      0.00000000</v>
   <v name="WPLASMA">      0.00000000      0.00000000      0.00000000      0.00000000      0.00000000      0.00000000      0.00000000      0.00000000      0.00000000</v>
  </separator>
  <separator name="orbital magnetization" >
   <i type="logical" name="NUCIND"> F  </i>
   <v name="MAGPOS">      0.00000000      0.00000000      0.00000000</v>
   <i type="logical" name="LNICSALL"> T  </i>
   <i type="logical" name="ORBITALMAG"> F  </i>
   <i type="logical" name="LMAGBLOCH"> F  </i>
   <i type="logical" name="LCHIMAG"> F  </i>
   <i type="logical" name="LGAUGE"> T  </i>
   <i type="int" name="MAGATOM">     0</i>
   <v name="MAGDIPOL">      0.00000000      0.00000000      0.00000000</v>
   <v name="AVECCONST">      0.00000000      0.00000000      0.00000000</v>
  </separator>
  <separator name="response functions" >
   <i type="logical" name="LADDER"> F  </i>
   <i type="logical" name="LRPAFORCE"> F  </i>
   <i type="logical" name="LFXC"> F  </i>
   <i type="logical" name="LHARTREE"> T  </i>
   <i type="int" name="IBSE">     0</i>
   <v type="int" name="KPOINT">    -1     0     0     0</v>
   <i type="logical" name="LTCTE"> F  </i>
   <i type="logical" name="LTETE"> F  </i>
   <i type="logical" name="LTRIPLET"> F  </i>
   <i type="logical" name="LFXCEPS"> F  </i>
   <i type="logical" name="LFXHEG"> F  </i>
   <i type="int" name="NATURALO">     2</i>
   <i type="logical" name="L2ORDER"> F  </i>
   <i type="logical" name="LMP2LT"> F  </i>
   <i type="logical" name="LUSEW"> F  </i>
   <i name="ENCUTGW">     -2.00000000</i>
   <i name="ENCUTGWSOFT">     -2.00000000</i>
   <i name="ENCUTLF">     -1.00000000</i>
   <i type="int" name="LMAXMP2">    -1</i>
   <i name="SCISSOR">      0.00000000</i>
   <i type="int" name="NOMEGA">     0</i>
   <i type="int" name="NOMEGAR">     0</i>
   <i type="int" name="NBANDSGW">    -1</i>
   <i type="int" name="NBANDSO">    -1</i>
   <i type="int" name="NBANDSV">    -1</i>
   <i type="int" name="NELM">     1</i>
   <i type="int" name="NELMHF">     1</i>
   <i type="int" name="DIM">     3</i>
   <i type="int" name="ANTIRES">     0</i>
   <i name="OMEGAMAX">    -30.00000000</i>
   <i name="OMEGAMIN">    -30.00000000</i>
   <i name="OMEGATL">   -200.00000000</i>
   <i type="int" name="OMEGAGRID">   140</i>
   <i name="CSHIFT">     -0.10000000</i>
   <i type="logical" name="SELFENERGY"> F  </i>
   <i type="logical" name="LSPECTRAL"> F  </i>
   <i type="logical" name="LSPECTRALGW"> F  </i>
   <i type="logical" name="LSINGLES"> F  </i>
   <i type="logical" name="LFERMIGW"> F  </i>
   <i type="logical" name="ODDONLYGW"> F  </i>
   <i type="logical" name="EVENONLYGW"> F  </i>
   <i type="int" name="NKREDLFX">     1</i>
   <i type="int" name="NKREDLFY">     1</i>
   <i type="int" name="NKREDLFZ">     1</i>
   <i type="int" name="MAXMEM">  2800</i>
   <i type="int" name="TELESCOPE">     0</i>
   <i type="int" name="TAUPAR">     1</i>
   <i type="int" name="OMEGAPAR">    -1</i>
   <i name="LAMBDA">      1.00000000</i>
  </separator>
  <separator name="External order field" >
   <i name="OFIELD_KAPPA">      0.00000000</i>
   <v name="OFIELD_K">      0.00000000      0.00000000      0.00000000</v>
   <i name="OFIELD_Q6_NEAR">      0.00000000</i>
   <i name="OFIELD_Q6_FAR">      0.00000000</i>
   <i name="OFIELD_A">      0.00000000</i>
  </separator>
 </parameters>
 <atominfo>
  <atoms>      44 </atoms>
  <types>       3 </types>
  <array name="atoms" >
   <dimension dim="1">ion</dimension>
   <field type="string">element</field>
   <field type="int">atomtype</field>
   <set>
    <rc><c>Li</c><c>   1</c></rc>
    <rc><c>Li</c><c>   1</c></rc>
    <rc><c>Li</c><c>   1</c></rc>
    <rc><c>Li</c><c>   1</c></rc>
    <rc><c>Li</c><c>   1</c></rc>
    <rc><c>Li</c><c>   1</c></rc>
    <rc><c>Li</c><c>   1</c></rc>
    <rc><c>Li</c><c>   1</c></rc>
    <rc><c>Li</c><c>   1</c></rc>
    <rc><c>Li</c><c>   1</c></rc>
    <rc><c>Li</c><c>   1</c></rc>
    <rc><c>Li</c><c>   1</c></rc>
    <rc><c>Li</c><c>   1</c></rc>
    <rc><c>Li</c><c>   1</c></rc>
    <rc><c>Li</c><c>   1</c></rc>
    <rc><c>Li</c><c>   1</c></rc>
    <rc><c>Bi</c><c>   2</c></rc>
    <rc><c>Bi</c><c>   2</c></rc>
    <rc><c>Bi</c><c>   2</c></rc>
    <rc><c>Bi</c><c>   2</c></rc>
    <rc><c>Bi</c><c>   2</c></rc>
    <rc><c>Bi</c><c>   2</c></rc>
    <rc><c>Bi</c><c>   2</c></rc>
    <rc><c>Bi</c><c>   2</c></rc>
    <rc><c>Se</c><c>   3</c></rc>
    <rc><c>Se</c><c>   3</c></rc>
    <rc><c>Se</c><c>   3</c></rc>
    <rc><c>Se</c><c>   3</c></rc>
    <rc><c>Se</c><c>   3</c></rc>
    <rc><c>Se</c><c>   3</c></rc>
    <rc><c>Se</c><c>   3</c></rc>
    <rc><c>Se</c><c>   3</c></rc>
    <rc><c>Se</c><c>   3</c></rc>
    <rc><c>Se</c><c>   3</c></rc>
    <rc><c>Se</c><c>   3</c></rc>
    <rc><c>Se</c><c>   3</c></rc>
    <rc><c>Se</c><c>   3</c></rc>
    <rc><c>Se</c><c>   3</c></rc>
    <rc><c>Se</c><c>   3</c></rc>
    <rc><c>Se</c><c>   3</c></rc>
    <rc><c>Se</c><c>   3</c></rc>
    <rc><c>Se</c><c>   3</c></rc>
    <rc><c>Se</c><c>   3</c></rc>
    <rc><c>Se</c><c>   3</c></rc>
   </set>
  </array>
  <array name="atomtypes" >
   <dimension dim="1">type</dimension>
   <field type="int">atomspertype</field>
   <field type="string">element</field>
   <field>mass</field>
   <field>valence</field>
   <field type="string">pseudopotential</field>
   <set>
    <rc><c>  16</c><c>Li</c><c>      7.01000000</c><c>      1.00000000</c><c>  PAW_PBE Li 17Jan2003                  </c></rc>
    <rc><c>   8</c><c>Bi</c><c>    208.98000000</c><c>      5.00000000</c><c>  PAW_PBE Bi 08Apr2002                  </c></rc>
    <rc><c>  20</c><c>Se</c><c>     78.96000000</c><c>      6.00000000</c><c>  PAW_PBE Se 06Sep2000                  </c></rc>
   </set>
  </array>
 </atominfo>
 <structure name="initialpos" >
  <crystal>
   <varray name="basis" >
    <v>       4.11375546       0.00000000       0.00000000 </v>
    <v>       0.00000000      17.10448989       0.00000000 </v>
    <v>       0.00000000       0.00000000      17.59567277 </v>
   </varray>
   <i name="volume">   1238.09644082 </i>
   <varray name="rec_basis" >
    <v>       0.24308688       0.00000000       0.00000000 </v>
    <v>       0.00000000       0.05846418       0.00000000 </v>
    <v>       0.00000000       0.00000000       0.05683215 </v>
   </varray>
  </crystal>
  <varray name="positions" >
   <v>       0.25000000       0.19218602       0.91958062 </v>
   <v>       0.25000000       0.69218602       0.58041938 </v>
   <v>       0.75000000       0.80781398       0.08041938 </v>
   <v>       0.25000000       0.42780610       0.91708645 </v>
   <v>       0.75000000       0.57219390       0.08291355 </v>
   <v>       0.25000000       0.92780610       0.58291355 </v>
   <v>       0.75000000       0.07219390       0.41708645 </v>
   <v>       0.25000000       0.18489487       0.26518294 </v>
   <v>       0.75000000       0.81510513       0.73481706 </v>
   <v>       0.25000000       0.68489487       0.23481706 </v>
   <v>       0.75000000       0.31510513       0.76518294 </v>
   <v>       0.25000000       0.18330456       0.56938156 </v>
   <v>       0.75000000       0.81669544       0.43061844 </v>
   <v>       0.25000000       0.68330456       0.93061844 </v>
   <v>       0.75000000       0.31669544       0.06938156 </v>
   <v>       0.75000000       0.30781398       0.41958062 </v>
   <v>       0.75000000       0.57000813       0.75694783 </v>
   <v>       0.25000000       0.42999187       0.24305217 </v>
   <v>       0.25000000       0.92999187       0.25694783 </v>
   <v>       0.75000000       0.07000813       0.74305217 </v>
   <v>       0.25000000       0.44168188       0.58860454 </v>
   <v>       0.75000000       0.55831812       0.41139546 </v>
   <v>       0.25000000       0.94168188       0.91139546 </v>
   <v>       0.75000000       0.05831812       0.08860454 </v>
   <v>       0.25000000       0.43344078       0.41825133 </v>
   <v>       0.75000000       0.56655922       0.58174867 </v>
   <v>       0.25000000       0.93344078       0.08174867 </v>
   <v>       0.75000000       0.06655922       0.91825133 </v>
   <v>       0.75000000       0.54802805       0.90686239 </v>
   <v>       0.25000000       0.95197195       0.40686239 </v>
   <v>       0.75000000       0.04802805       0.59313761 </v>
   <v>       0.25000000       0.18077916       0.73365928 </v>
   <v>       0.75000000       0.81922084       0.26634072 </v>
   <v>       0.25000000       0.68077916       0.76634072 </v>
   <v>       0.75000000       0.31922084       0.23365928 </v>
   <v>       0.25000000       0.45471405       0.74177240 </v>
   <v>       0.75000000       0.54528595       0.25822760 </v>
   <v>       0.25000000       0.95471405       0.75822760 </v>
   <v>       0.75000000       0.04528595       0.24177240 </v>
   <v>       0.75000000       0.33524303       0.59781178 </v>
   <v>       0.25000000       0.66475697       0.40218822 </v>
   <v>       0.25000000       0.45197195       0.09313761 </v>
   <v>       0.25000000       0.16475697       0.09781178 </v>
   <v>       0.75000000       0.83524303       0.90218822 </v>
  </varray>
 </structure>
 <calculation>
  <scstep>
   <time name="dav">    0.88    0.88</time>
   <time name="total">    1.24    1.26</time>
   <energy>
    <i name="alphaZ">    184.84106473 </i>
    <i name="ewald">  -4356.15199014 </i>
    <i name="hartreedc">  -2108.31310723 </i>
    <i name="XCdc">   -962.11121950 </i>
    <i name="pawpsdc">   6129.35374783 </i>
    <i name="pawaedc">  -4829.50552248 </i>
    <i name="eentropy">     -0.01593871 </i>
    <i name="bandstr">    221.97701878 </i>
    <i name="atom">   6433.79709382 </i>
    <i name="e_fr_energy">    713.87114710 </i>
    <i name="e_wo_entrp">    713.88708580 </i>
    <i name="e_0_energy">    713.87911645 </i>
   </energy>
  </scstep>
  <scstep>
   <time name="dav">    1.02    1.02</time>
   <time name="total">    1.02    1.02</time>
   <energy>
    <i name="e_fr_energy">    -67.21393863 </i>
    <i name="e_wo_entrp">    -67.20469806 </i>
    <i name="e_0_energy">    -67.20931834 </i>
   </energy>
  </scstep>
  <scstep>
   <time name="dav">    0.97    0.97</time>
   <time name="total">    0.97    0.97</time>
   <energy>
    <i name="e_fr_energy">   -161.33948880 </i>
    <i name="e_wo_entrp">   -161.33948880 </i>
    <i name="e_0_energy">   -161.33948880 </i>
   </energy>
  </scstep>
  <scstep>
   <time name="dav">    1.03    1.03</time>
   <time name="total">    1.03    1.03</time>
   <energy>
    <i name="e_fr_energy">   -164.28526869 </i>
    <i name="e_wo_entrp">   -164.28526869 </i>
    <i name="e_0_energy">   -164.28526869 </i>
   </energy>
  </scstep>
  <scstep>
   <time name="dav">    0.86    0.86</time>
   <time name="total">    0.92    0.92</time>
   <energy>
    <i name="e_fr_energy">   -164.34089482 </i>
    <i name="e_wo_entrp">   -164.34089482 </i>
    <i name="e_0_energy">   -164.34089482 </i>
   </energy>
  </scstep>
  <scstep>
   <time name="dav">    0.93    0.93</time>
   <time name="total">    1.32    1.32</time>
   <energy>
    <i name="e_fr_energy">   -155.88344955 </i>
    <i name="e_wo_entrp">   -155.88344955 </i>
    <i name="e_0_energy">   -155.88344955 </i>
   </energy>
  </scstep>
  <scstep>
   <time name="dav">    0.83    0.83</time>
   <time name="total">    1.23    1.23</time>
   <energy>
    <i name="e_fr_energy">   -154.89735520 </i>
    <i name="e_wo_entrp">   -154.89707307 </i>
    <i name="e_0_energy">   -154.89721413 </i>
   </energy>
  </scstep>
  <scstep>
   <time name="dav">    0.97    0.97</time>
   <time name="total">    1.36    1.36</time>
   <energy>
    <i name="e_fr_energy">   -154.76743907 </i>
    <i name="e_wo_entrp">   -154.76470518 </i>
    <i name="e_0_energy">   -154.76607212 </i>
   </energy>
  </scstep>
  <scstep>
   <time name="dav">    0.88    0.88</time>
   <time name="total">    1.25    1.25</time>
   <energy>
    <i name="e_fr_energy">   -154.75255788 </i>
    <i name="e_wo_entrp">   -154.74798083 </i>
    <i name="e_0_energy">   -154.75026936 </i>
   </energy>
  </scstep>
  <scstep>
   <time name="dav">    1.20    1.20</time>
   <time name="total">    1.58    1.58</time>
   <energy>
    <i name="e_fr_energy">   -154.75314662 </i>
    <i name="e_wo_entrp">   -154.74970400 </i>
    <i name="e_0_energy">   -154.75142531 </i>
   </energy>
  </scstep>
  <scstep>
   <time name="dav">    0.97    0.97</time>
   <time name="total">    1.35    1.35</time>
   <energy>
    <i name="e_fr_energy">   -154.75351334 </i>
    <i name="e_wo_entrp">   -154.74954972 </i>
    <i name="e_0_energy">   -154.75153153 </i>
   </energy>
  </scstep>
  <scstep>
   <time name="dav">    0.92    0.92</time>
   <time name="total">    1.29    1.30</time>
   <energy>
    <i name="e_fr_energy">   -154.75373004 </i>
    <i name="e_wo_entrp">   -154.74988267 </i>
    <i name="e_0_energy">   -154.75180635 </i>
   </energy>
  </scstep>
  <scstep>
   <time name="dav">    0.61    0.61</time>
   <time name="total">    0.95    0.95</time>
   <energy>
    <i name="alphaZ">    184.84106473 </i>
    <i name="ewald">  -4356.15199014 </i>
    <i name="hartreedc">  -2232.80695676 </i>
    <i name="XCdc">   -952.45268368 </i>
    <i name="pawpsdc">   8950.59276003 </i>
    <i name="pawaedc">  -7653.84268643 </i>
    <i name="eentropy">     -0.00400269 </i>
    <i name="bandstr">   -528.72634798 </i>
    <i name="atom">   6433.79709382 </i>
    <i name="e_fr_energy">   -154.75374912 </i>
    <i name="e_wo_entrp">   -154.74974643 </i>
    <i name="e_0_energy">   -154.75174777 </i>
   </energy>
  </scstep>
  <structure>
   <crystal>
    <varray name="basis" >
     <v>       4.11375546       0.00000000       0.00000000 </v>
     <v>       0.00000000      17.10448989       0.00000000 </v>
     <v>       0.00000000       0.00000000      17.59567277 </v>
    </varray>
    <i name="volume">   1238.09644082 </i>
    <varray name="rec_basis" >
     <v>       0.24308688       0.00000000       0.00000000 </v>
     <v>       0.00000000       0.05846418       0.00000000 </v>
     <v>       0.00000000       0.00000000       0.05683215 </v>
    </varray>
   </crystal>
   <varray name="positions" >
    <v>       0.25000000       0.19218602       0.91958062 </v>
    <v>       0.25000000       0.69218602       0.58041938 </v>
    <v>       0.75000000       0.80781398       0.08041938 </v>
    <v>       0.25000000       0.42780610       0.91708645 </v>
    <v>       0.75000000       0.57219390       0.08291355 </v>
    <v>       0.25000000       0.92780610       0.58291355 </v>
    <v>       0.75000000       0.07219390       0.41708645 </v>
    <v>       0.25000000       0.18489487       0.26518294 </v>
    <v>       0.75000000       0.81510513       0.73481706 </v>
    <v>       0.25000000       0.68489487       0.23481706 </v>
    <v>       0.75000000       0.31510513       0.76518294 </v>
    <v>       0.25000000       0.18330456       0.56938156 </v>
    <v>       0.75000000       0.81669544       0.43061844 </v>
    <v>       0.25000000       0.68330456       0.93061844 </v>
    <v>       0.75000000       0.31669544       0.06938156 </v>
    <v>       0.75000000       0.30781398       0.41958062 </v>
    <v>       0.75000000       0.57000813       0.75694783 </v>
    <v>       0.25000000       0.42999187       0.24305217 </v>
    <v>       0.25000000       0.92999187       0.25694783 </v>
    <v>       0.75000000       0.07000813       0.74305217 </v>
    <v>       0.25000000       0.44168188       0.58860454 </v>
    <v>       0.75000000       0.55831812       0.41139546 </v>
    <v>       0.25000000       0.94168188       0.91139546 </v>
    <v>       0.75000000       0.05831812       0.08860454 </v>
    <v>       0.25000000       0.43344078       0.41825133 </v>
    <v>       0.75000000       0.56655922       0.58174867 </v>
    <v>       0.25000000       0.93344078       0.08174867 </v>
    <v>       0.75000000       0.06655922       0.91825133 </v>
    <v>       0.75000000       0.54802805       0.90686239 </v>
    <v>       0.25000000       0.95197195       0.40686239 </v>
    <v>       0.75000000       0.04802805       0.59313761 </v>
    <v>       0.25000000       0.18077916       0.73365928 </v>
    <v>       0.75000000       0.81922084       0.26634072 </v>
    <v>       0.25000000       0.68077916       0.76634072 </v>
    <v>       0.75000000       0.31922084       0.23365928 </v>
    <v>       0.25000000       0.45471405       0.74177240 </v>
    <v>       0.75000000       0.54528595       0.25822760 </v>
    <v>       0.25000000       0.95471405       0.75822760 </v>
    <v>       0.75000000       0.04528595       0.24177240 </v>
    <v>       0.75000000       0.33524303       0.59781178 </v>
    <v>       0.25000000       0.66475697       0.40218822 </v>
    <v>       0.25000000       0.45197195       0.09313761 </v>
    <v>       0.25000000       0.16475697       0.09781178 </v>
    <v>       0.75000000       0.83524303       0.90218822 </v>
   </varray>
  </structure>
  <varray name="forces" >
   <v>       0.00000000      -1.07941796       0.00526620 </v>
   <v>       0.00000000      -1.07941796      -0.00526620 </v>
   <v>       0.00000000       1.07941796      -0.00526620 </v>
   <v>       0.00000000       1.20003840       0.04335689 </v>
   <v>       0.00000000      -1.20003840      -0.04335689 </v>
   <v>       0.00000000       1.20003840      -0.04335689 </v>
   <v>       0.00000000      -1.20003840       0.04335689 </v>
   <v>       0.00000000       0.02911626      -0.88520709 </v>
   <v>       0.00000000      -0.02911626       0.88520709 </v>
   <v>       0.00000000       0.02911626       0.88520709 </v>
   <v>       0.00000000      -0.02911626      -0.88520709 </v>
   <v>      -0.00000000      -0.26140033       0.88099244 </v>
   <v>       0.00000000       0.26140033      -0.88099244 </v>
   <v>       0.00000000      -0.26140033      -0.88099244 </v>
   <v>       0.00000000       0.26140033       0.88099244 </v>
   <v>       0.00000000       1.07941796       0.00526620 </v>
   <v>      -0.00000000       0.20280173      -0.59746838 </v>
   <v>       0.00000000      -0.20280173       0.59746838 </v>
   <v>       0.00000000      -0.20280173      -0.59746838 </v>
   <v>       0.00000000       0.20280173       0.59746838 </v>
   <v>       0.00000000       0.53092775      -1.00072734 </v>
   <v>       0.00000000      -0.53092775       1.00072734 </v>
   <v>       0.00000000       0.53092775       1.00072734 </v>
   <v>      -0.00000000      -0.53092775      -1.00072734 </v>
   <v>       0.00000000      -1.13544463       0.05506388 </v>
   <v>       0.00000000       1.13544463      -0.05506388 </v>
   <v>       0.00000000      -1.13544463      -0.05506388 </v>
   <v>       0.00000000       1.13544463       0.05506388 </v>
   <v>       0.00000000      -0.15134951       1.65833316 </v>
   <v>       0.00000000       0.15134951       1.65833316 </v>
   <v>       0.00000000      -0.15134951      -1.65833316 </v>
   <v>       0.00000000       1.72161964       0.32496647 </v>
   <v>       0.00000000      -1.72161964      -0.32496647 </v>
   <v>       0.00000000       1.72161964      -0.32496647 </v>
   <v>       0.00000000      -1.72161964       0.32496647 </v>
   <v>       0.00000000      -1.58870143       1.56109112 </v>
   <v>       0.00000000       1.58870143      -1.56109112 </v>
   <v>       0.00000000      -1.58870143      -1.56109112 </v>
   <v>       0.00000000       1.58870143       1.56109112 </v>
   <v>       0.00000000      -1.88186945      -0.28585813 </v>
   <v>       0.00000000       1.88186945       0.28585813 </v>
   <v>       0.00000000       0.15134951      -1.65833316 </v>
   <v>       0.00000000       1.88186945      -0.28585813 </v>
   <v>       0.00000000      -1.88186945       0.28585813 </v>
  </varray>
  <varray name="stress" >
   <v>      25.32007723       0.00000000       0.00000000 </v>
   <v>       0.00000000      -0.29706835       0.00000000 </v>
   <v>       0.00000000       0.00000000       7.40602609 </v>
  </varray>
  <energy>
   <i name="e_fr_energy">   -154.75374912 </i>
   <i name="e_wo_entrp">   -154.75174777 </i>
   <i name="e_0_energy">     -0.00400269 </i>
  </energy>
  <time name="totalsc">   17.19   17.32</time>
 </calculation>
 <calculation>
  <scstep>
   <time name="dav">    0.75    0.76</time>
   <time name="total">    1.15    1.19</time>
   <energy>
    <i name="alphaZ">    183.82993716 </i>
    <i name="ewald">  -4386.27998002 </i>
    <i name="hartreedc">  -2193.39464690 </i>
    <i name="XCdc">   -953.02568221 </i>
    <i name="pawpsdc">   8948.37272840 </i>
    <i name="pawaedc">  -7651.62832194 </i>
    <i name="eentropy">     -0.00007398 </i>
    <i name="bandstr">   -537.28363981 </i>
    <i name="atom">   6433.79709382 </i>
    <i name="e_fr_energy">   -155.61258549 </i>
    <i name="e_wo_entrp">   -155.61251151 </i>
    <i name="e_0_energy">   -155.61254850 </i>
   </energy>
  </scstep>
  <scstep>
   <time name="dav">    1.01    1.01</time>
   <time name="total">    1.40    1.40</time>
   <energy>
    <i name="e_fr_energy">   -155.63346243 </i>
    <i name="e_wo_entrp">   -155.63329496 </i>
    <i name="e_0_energy">   -155.63337870 </i>
   </energy>
  </scstep>
  <scstep>
   <time name="dav">    0.81    0.81</time>
   <time name="total">    1.19    1.19</time>
   <energy>
    <i name="e_fr_energy">   -155.62950802 </i>
    <i name="e_wo_entrp">   -155.62931667 </i>
    <i name="e_0_energy">   -155.62941234 </i>
   </energy>
  </scstep>
  <scstep>
   <time name="dav">    0.91    0.91</time>
   <time name="total">    1.30    1.30</time>
   <energy>
    <i name="e_fr_energy">   -155.62796833 </i>
    <i name="e_wo_entrp">   -155.62776707 </i>
    <i name="e_0_energy">   -155.62786770 </i>
   </energy>
  </scstep>
  <scstep>
   <time name="dav">    0.80    0.80</time>
   <time name="total">    1.19    1.19</time>
   <energy>
    <i name="e_fr_energy">   -155.62764920 </i>
    <i name="e_wo_entrp">   -155.62744282 </i>
    <i name="e_0_energy">   -155.62754601 </i>
   </energy>
  </scstep>
  <scstep>
   <time name="dav">    0.80    0.80</time>
   <time name="total">    1.14    1.14</time>
   <energy>
    <i name="alphaZ">    183.82993716 </i>
    <i name="ewald">  -4386.27998002 </i>
    <i name="hartreedc">  -2199.43433939 </i>
    <i name="XCdc">   -952.95661908 </i>
    <i name="pawpsdc">   8866.80788342 </i>
    <i name="pawaedc">  -7569.81900298 </i>
    <i name="eentropy">     -0.00020488 </i>
    <i name="bandstr">   -531.57243010 </i>
    <i name="atom">   6433.79709382 </i>
    <i name="e_fr_energy">   -155.62766204 </i>
    <i name="e_wo_entrp">   -155.62745717 </i>
    <i name="e_0_energy">   -155.62755961 </i>
   </energy>
  </scstep>
  <structure>
   <crystal>
    <varray name="basis" >
     <v>       4.13140591       0.00000000       0.00000000 </v>
     <v>       0.00000000      17.10362886       0.00000000 </v>
     <v>       0.00000000       0.00000000      17.61775503 </v>
    </varray>
    <i name="volume">   1244.90639495 </i>
    <varray name="rec_basis" >
     <v>       0.24204835      -0.00000000       0.00000000 </v>
     <v>       0.00000000       0.05846712       0.00000000 </v>
     <v>       0.00000000       0.00000000       0.05676092 </v>
    </varray>
   </crystal>
   <varray name="positions" >
    <v>       0.25000000       0.19157713       0.91958351 </v>
    <v>       0.25000000       0.69157713       0.58041649 </v>
    <v>       0.75000000       0.80842287       0.08041649 </v>
    <v>       0.25000000       0.42848303       0.91711022 </v>
    <v>       0.75000000       0.57151697       0.08288978 </v>
    <v>       0.25000000       0.92848303       0.58288978 </v>
    <v>       0.75000000       0.07151697       0.41711022 </v>
    <v>       0.25000000       0.18491129       0.26469754 </v>
    <v>       0.75000000       0.81508871       0.73530246 </v>
    <v>       0.25000000       0.68491129       0.23530246 </v>
    <v>       0.75000000       0.31508871       0.76469754 </v>
    <v>       0.25000000       0.18315711       0.56986465 </v>
    <v>       0.75000000       0.81684289       0.43013535 </v>
    <v>       0.25000000       0.68315711       0.93013535 </v>
    <v>       0.75000000       0.31684289       0.06986465 </v>
    <v>       0.75000000       0.30842287       0.41958351 </v>
    <v>       0.75000000       0.57012253       0.75662021 </v>
    <v>       0.25000000       0.42987747       0.24337979 </v>
    <v>       0.25000000       0.92987747       0.25662021 </v>
    <v>       0.75000000       0.07012253       0.74337979 </v>
    <v>       0.25000000       0.44198137       0.58805579 </v>
    <v>       0.75000000       0.55801863       0.41194421 </v>
    <v>       0.25000000       0.94198137       0.91194421 </v>
    <v>       0.75000000       0.05801863       0.08805579 </v>
    <v>       0.25000000       0.43280028       0.41828152 </v>
    <v>       0.75000000       0.56719972       0.58171848 </v>
    <v>       0.25000000       0.93280028       0.08171848 </v>
    <v>       0.75000000       0.06719972       0.91828152 </v>
    <v>       0.75000000       0.54794267       0.90777173 </v>
    <v>       0.25000000       0.95205733       0.40777173 </v>
    <v>       0.75000000       0.04794267       0.59222827 </v>
    <v>       0.25000000       0.18175031       0.73383747 </v>
    <v>       0.75000000       0.81824969       0.26616253 </v>
    <v>       0.25000000       0.68175031       0.76616253 </v>
    <v>       0.75000000       0.31824969       0.23383747 </v>
    <v>       0.25000000       0.45381787       0.74262842 </v>
    <v>       0.75000000       0.54618213       0.25737158 </v>
    <v>       0.25000000       0.95381787       0.75737158 </v>
    <v>       0.75000000       0.04618213       0.24262842 </v>
    <v>       0.75000000       0.33418148       0.59765503 </v>
    <v>       0.25000000       0.66581852       0.40234497 </v>
    <v>       0.25000000       0.45205733       0.09222827 </v>
    <v>       0.25000000       0.16581852       0.09765503 </v>
    <v>       0.75000000       0.83418148       0.90234497 </v>
   </varray>
  </structure>
  <varray name="forces" >
   <v>      -0.00000000      -1.08097497       0.00902904 </v>
   <v>      -0.00000000      -1.08097497      -0.00902904 </v>
   <v>       0.00000000       1.08097497      -0.00902904 </v>
   <v>       0.00000000       1.21773292       0.04805910 </v>
   <v>      -0.00000000      -1.21773292      -0.04805910 </v>
   <v>       0.00000000       1.21773292      -0.04805910 </v>
   <v>      -0.00000000      -1.21773292       0.04805910 </v>
   <v>       0.00000000       0.02640201      -0.89284067 </v>
   <v>      -0.00000000      -0.02640201       0.89284067 </v>
   <v>       0.00000000       0.02640201       0.89284067 </v>
   <v>      -0.00000000      -0.02640201      -0.89284067 </v>
   <v>      -0.00000000      -0.26294526       0.88467318 </v>
   <v>       0.00000000       0.26294526      -0.88467318 </v>
   <v>      -0.00000000      -0.26294526      -0.88467318 </v>
   <v>       0.00000000       0.26294526       0.88467318 </v>
   <v>       0.00000000       1.08097497       0.00902904 </v>
   <v>       0.00000000       0.16790762      -0.39843004 </v>
   <v>      -0.00000000      -0.16790762       0.39843004 </v>
   <v>      -0.00000000      -0.16790762      -0.39843004 </v>
   <v>       0.00000000       0.16790762       0.39843004 </v>
   <v>       0.00000000       0.36223307      -0.80803196 </v>
   <v>      -0.00000000      -0.36223307       0.80803196 </v>
   <v>       0.00000000       0.36223307       0.80803196 </v>
   <v>      -0.00000000      -0.36223307      -0.80803196 </v>
   <v>      -0.00000000      -1.09414501       0.07389221 </v>
   <v>       0.00000000       1.09414501      -0.07389221 </v>
   <v>      -0.00000000      -1.09414501      -0.07389221 </v>
   <v>       0.00000000       1.09414501       0.07389221 </v>
   <v>      -0.00000000      -0.13512958       1.43057130 </v>
   <v>       0.00000000       0.13512958       1.43057130 </v>
   <v>      -0.00000000      -0.13512958      -1.43057130 </v>
   <v>       0.00000000       1.55489658       0.38129750 </v>
   <v>      -0.00000000      -1.55489658      -0.38129750 </v>
   <v>       0.00000000       1.55489658      -0.38129750 </v>
   <v>      -0.00000000      -1.55489658       0.38129750 </v>
   <v>      -0.00000000      -1.34276897       1.41603174 </v>
   <v>       0.00000000       1.34276897      -1.41603174 </v>
   <v>      -0.00000000      -1.34276897      -1.41603174 </v>
   <v>       0.00000000       1.34276897       1.41603174 </v>
   <v>      -0.00000000      -1.64841428      -0.28901630 </v>
   <v>       0.00000000       1.64841428       0.28901630 </v>
   <v>       0.00000000       0.13512958      -1.43057130 </v>
   <v>       0.00000000       1.64841428      -0.28901630 </v>
   <v>      -0.00000000      -1.64841428       0.28901630 </v>
  </varray>
  <varray name="stress" >
   <v>      18.93159728       0.00000000       0.00000000 </v>
   <v>       0.00000000      -5.37550960       0.00000000 </v>
   <v>       0.00000000       0.00000000       2.06794713 </v>
  </varray>
  <energy>
   <i name="e_fr_energy">   -155.62766204 </i>
   <i name="e_wo_entrp">   -155.62755961 </i>
   <i name="e_0_energy">     -0.00020488 </i>
  </energy>
  <time name="totalsc">    8.93    9.11</time>
 </calculation>
 <calculation>
  <scstep>
   <time name="dav">    0.77    0.77</time>
   <time name="total">    1.17    1.26</time>
   <energy>
    <i name="alphaZ">    180.85101779 </i>
    <i name="ewald">  -4470.17579666 </i>
    <i name="hartreedc">  -2086.61773983 </i>
    <i name="XCdc">   -954.64481467 </i>
    <i name="pawpsdc">   8865.94291384 </i>
    <i name="pawaedc">  -7568.94959646 </i>
    <i name="eentropy">     -0.00000000 </i>
    <i name="bandstr">   -557.64457084 </i>
    <i name="atom">   6433.79709382 </i>
    <i name="e_fr_energy">   -157.44149302 </i>
    <i name="e_wo_entrp">   -157.44149302 </i>
    <i name="e_0_energy">   -157.44149302 </i>
   </energy>
  </scstep>
  <scstep>
   <time name="dav">    0.91    0.91</time>
   <time name="total">    1.30    1.30</time>
   <energy>
    <i name="e_fr_energy">   -157.65503736 </i>
    <i name="e_wo_entrp">   -157.65503735 </i>
    <i name="e_0_energy">   -157.65503736 </i>
   </energy>
  </scstep>
  <scstep>
   <time name="dav">    1.13    1.13</time>
   <time name="total">    1.51    1.51</time>
   <energy>
    <i name="e_fr_energy">   -157.62364995 </i>
    <i name="e_wo_entrp">   -157.62364987 </i>
    <i name="e_0_energy">   -157.62364991 </i>
   </energy>
  </scstep>
  <scstep>
   <time name="dav">    0.93    0.93</time>
   <time name="total">    1.31    1.31</time>
   <energy>
    <i name="e_fr_energy">   -157.60859152 </i>
    <i name="e_wo_entrp">   -157.60859148 </i>
    <i name="e_0_energy">   -157.60859150 </i>
   </energy>
  </scstep>
  <scstep>
   <time name="dav">    0.87    0.87</time>
   <time name="total">    1.27    1.27</time>
   <energy>
    <i name="e_fr_energy">   -157.60513536 </i>
    <i name="e_wo_entrp">   -157.60513532 </i>
    <i name="e_0_energy">   -157.60513534 </i>
   </energy>
  </scstep>
  <scstep>
   <time name="dav">    1.04    1.04</time>
   <time name="total">    1.42    1.42</time>
   <energy>
    <i name="e_fr_energy">   -157.60525133 </i>
    <i name="e_wo_entrp">   -157.60525129 </i>
    <i name="e_0_energy">   -157.60525131 </i>
   </energy>
  </scstep>
  <scstep>
   <time name="dav">    0.71    0.71</time>
   <time name="total">    1.05    1.05</time>
   <energy>
    <i name="alphaZ">    180.85101779 </i>
    <i name="ewald">  -4470.17579666 </i>
    <i name="hartreedc">  -2101.64374330 </i>
    <i name="XCdc">   -954.46633714 </i>
    <i name="pawpsdc">   8660.59687595 </i>
    <i name="pawaedc">  -7362.96757527 </i>
    <i name="eentropy">     -0.00000003 </i>
    <i name="bandstr">   -543.59685494 </i>
    <i name="atom">   6433.79709382 </i>
    <i name="e_fr_energy">   -157.60531978 </i>
    <i name="e_wo_entrp">   -157.60531975 </i>
    <i name="e_0_energy">   -157.60531976 </i>
   </energy>
  </scstep>
  <structure>
   <crystal>
    <varray name="basis" >
     <v>       4.18435728       0.00000000       0.00000000 </v>
     <v>       0.00000000      17.10104576       0.00000000 </v>
     <v>       0.00000000       0.00000000      17.68400181 </v>
    </varray>
    <i name="volume">   1265.41208978 </i>
    <varray name="rec_basis" >
     <v>       0.23898533      -0.00000000       0.00000000 </v>
     <v>       0.00000000       0.05847596       0.00000000 </v>
     <v>       0.00000000       0.00000000       0.05654829 </v>
    </varray>
   </crystal>
   <varray name="positions" >
    <v>       0.25000000       0.18975036       0.91959216 </v>
    <v>       0.25000000       0.68975036       0.58040784 </v>
    <v>       0.75000000       0.81024964       0.08040784 </v>
    <v>       0.25000000       0.43051394       0.91718146 </v>
    <v>       0.75000000       0.56948606       0.08281854 </v>
    <v>       0.25000000       0.93051394       0.58281854 </v>
    <v>       0.75000000       0.06948606       0.41718146 </v>
    <v>       0.25000000       0.18496057       0.26324316 </v>
    <v>       0.75000000       0.81503943       0.73675684 </v>
    <v>       0.25000000       0.68496057       0.23675684 </v>
    <v>       0.75000000       0.31503943       0.76324316 </v>
    <v>       0.25000000       0.18271472       0.57131210 </v>
    <v>       0.75000000       0.81728528       0.42868790 </v>
    <v>       0.25000000       0.68271472       0.92868790 </v>
    <v>       0.75000000       0.31728528       0.07131210 </v>
    <v>       0.75000000       0.31024964       0.41959216 </v>
    <v>       0.75000000       0.57046574       0.75563858 </v>
    <v>       0.25000000       0.42953426       0.24436142 </v>
    <v>       0.25000000       0.92953426       0.25563858 </v>
    <v>       0.75000000       0.07046574       0.74436142 </v>
    <v>       0.25000000       0.44287990       0.58641162 </v>
    <v>       0.75000000       0.55712010       0.41358838 </v>
    <v>       0.25000000       0.94287990       0.91358838 </v>
    <v>       0.75000000       0.05712010       0.08641162 </v>
    <v>       0.25000000       0.43087870       0.41837199 </v>
    <v>       0.75000000       0.56912130       0.58162801 </v>
    <v>       0.25000000       0.93087870       0.08162801 </v>
    <v>       0.75000000       0.06912130       0.91837199 </v>
    <v>       0.75000000       0.54768654       0.91049634 </v>
    <v>       0.25000000       0.95231346       0.41049634 </v>
    <v>       0.75000000       0.04768654       0.58950366 </v>
    <v>       0.25000000       0.18466392       0.73437139 </v>
    <v>       0.75000000       0.81533608       0.26562861 </v>
    <v>       0.25000000       0.68466392       0.76562861 </v>
    <v>       0.75000000       0.31533608       0.23437139 </v>
    <v>       0.25000000       0.45112921       0.74519326 </v>
    <v>       0.75000000       0.54887079       0.25480674 </v>
    <v>       0.25000000       0.95112921       0.75480674 </v>
    <v>       0.75000000       0.04887079       0.24519326 </v>
    <v>       0.75000000       0.33099667       0.59718537 </v>
    <v>       0.25000000       0.66900333       0.40281463 </v>
    <v>       0.25000000       0.45231346       0.08950366 </v>
    <v>       0.25000000       0.16900333       0.09718537 </v>
    <v>       0.75000000       0.83099667       0.90281463 </v>
   </varray>
  </structure>
  <varray name="forces" >
   <v>      -0.00000000      -1.03227171       0.02278191 </v>
   <v>      -0.00000000      -1.03227171      -0.02278191 </v>
   <v>       0.00000000       1.03227171      -0.02278191 </v>
   <v>       0.00000000       1.22780633       0.06191148 </v>
   <v>      -0.00000000      -1.22780633      -0.06191148 </v>
   <v>       0.00000000       1.22780633      -0.06191148 </v>
   <v>      -0.00000000      -1.22780633       0.06191148 </v>
   <v>       0.00000000       0.01480219      -0.88559470 </v>
   <v>      -0.00000000      -0.01480219       0.88559470 </v>
   <v>       0.00000000       0.01480219       0.88559470 </v>
   <v>      -0.00000000      -0.01480219      -0.88559470 </v>
   <v>      -0.00000000      -0.27406803       0.86884528 </v>
   <v>       0.00000000       0.27406803      -0.86884528 </v>
   <v>      -0.00000000      -0.27406803      -0.86884528 </v>
   <v>       0.00000000       0.27406803       0.86884528 </v>
   <v>       0.00000000       1.03227171       0.02278191 </v>
   <v>       0.00000000       0.13187656       0.13158672 </v>
   <v>      -0.00000000      -0.13187656      -0.13158672 </v>
   <v>      -0.00000000      -0.13187656       0.13158672 </v>
   <v>       0.00000000       0.13187656      -0.13158672 </v>
   <v>      -0.00000000      -0.14463821      -0.24388857 </v>
   <v>       0.00000000       0.14463821       0.24388857 </v>
   <v>      -0.00000000      -0.14463821       0.24388857 </v>
   <v>       0.00000000       0.14463821      -0.24388857 </v>
   <v>      -0.00000000      -0.81610664       0.04516607 </v>
   <v>       0.00000000       0.81610664      -0.04516607 </v>
   <v>      -0.00000000      -0.81610664      -0.04516607 </v>
   <v>       0.00000000       0.81610664       0.04516607 </v>
   <v>      -0.00000000      -0.01208823       0.76829371 </v>
   <v>       0.00000000       0.01208823       0.76829371 </v>
   <v>      -0.00000000      -0.01208823      -0.76829371 </v>
   <v>       0.00000000       1.04424852       0.43126567 </v>
   <v>      -0.00000000      -1.04424852      -0.43126567 </v>
   <v>       0.00000000       1.04424852      -0.43126567 </v>
   <v>      -0.00000000      -1.04424852       0.43126567 </v>
   <v>      -0.00000000      -1.06219550       0.88942335 </v>
   <v>       0.00000000       1.06219550      -0.88942335 </v>
   <v>      -0.00000000      -1.06219550      -0.88942335 </v>
   <v>       0.00000000       1.06219550       0.88942335 </v>
   <v>      -0.00000000      -0.94965026      -0.42322226 </v>
   <v>       0.00000000       0.94965026       0.42322226 </v>
   <v>       0.00000000       0.01208823      -0.76829371 </v>
   <v>       0.00000000       0.94965026      -0.42322226 </v>
   <v>      -0.00000000      -0.94965026       0.42322226 </v>
  </varray>
  <varray name="stress" >
   <v>      -0.72283904      -0.00000000       0.00000000 </v>
   <v>      -0.00000000     -19.42791696       0.00000000 </v>
   <v>       0.00000000       0.00000000     -13.40260201 </v>
  </varray>
  <energy>
   <i name="e_fr_energy">   -157.60531978 </i>
   <i name="e_wo_entrp">   -157.60531976 </i>
   <i name="e_0_energy">     -0.00000003 </i>
  </energy>
  <time name="totalsc">   10.64   10.94</time>
 </calculation>
 <calculation>
  <scstep>
   <time name="dav">    0.73    0.73</time>
   <time name="total">    1.12    1.15</time>
   <energy>
    <i name="alphaZ">    175.12800248 </i>
    <i name="ewald">  -4610.41229930 </i>
    <i name="hartreedc">  -1900.04001121 </i>
    <i name="XCdc">   -957.67989823 </i>
    <i name="pawpsdc">   8665.36173141 </i>
    <i name="pawaedc">  -7367.73856480 </i>
    <i name="eentropy">     -0.00000000 </i>
    <i name="bandstr">   -596.84689043 </i>
    <i name="atom">   6433.79709382 </i>
    <i name="e_fr_energy">   -158.43083627 </i>
    <i name="e_wo_entrp">   -158.43083627 </i>
    <i name="e_0_energy">   -158.43083627 </i>
   </energy>
  </scstep>
  <scstep>
   <time name="dav">    1.13    1.13</time>
   <time name="total">    1.51    1.51</time>
   <energy>
    <i name="e_fr_energy">   -159.36697308 </i>
    <i name="e_wo_entrp">   -159.36697308 </i>
    <i name="e_0_energy">   -159.36697308 </i>
   </energy>
  </scstep>
  <scstep>
   <time name="dav">    0.92    0.92</time>
   <time name="total">    1.30    1.30</time>
   <energy>
    <i name="e_fr_energy">   -159.25289033 </i>
    <i name="e_wo_entrp">   -159.25289033 </i>
    <i name="e_0_energy">   -159.25289033 </i>
   </energy>
  </scstep>
  <scstep>
   <time name="dav">    1.05    1.05</time>
   <time name="total">    1.44    1.44</time>
   <energy>
    <i name="e_fr_energy">   -159.18753969 </i>
    <i name="e_wo_entrp">   -159.18753969 </i>
    <i name="e_0_energy">   -159.18753969 </i>
   </energy>
  </scstep>
  <scstep>
   <time name="dav">    0.86    0.86</time>
   <time name="total">    1.24    1.24</time>
   <energy>
    <i name="e_fr_energy">   -159.17003126 </i>
    <i name="e_wo_entrp">   -159.17003126 </i>
    <i name="e_0_energy">   -159.17003126 </i>
   </energy>
  </scstep>
  <scstep>
   <time name="dav">    1.16    1.16</time>
   <time name="total">    1.54    1.54</time>
   <energy>
    <i name="e_fr_energy">   -159.16997879 </i>
    <i name="e_wo_entrp">   -159.16997879 </i>
    <i name="e_0_energy">   -159.16997879 </i>
   </energy>
  </scstep>
  <scstep>
   <time name="dav">    0.77    0.77</time>
   <time name="total">    1.12    1.12</time>
   <energy>
    <i name="alphaZ">    175.12800248 </i>
    <i name="ewald">  -4610.41229930 </i>
    <i name="hartreedc">  -1924.08887008 </i>
    <i name="XCdc">   -957.36548589 </i>
    <i name="pawpsdc">   8314.72101259 </i>
    <i name="pawaedc">  -7016.16186662 </i>
    <i name="eentropy">     -0.00000000 </i>
    <i name="bandstr">   -574.78756304 </i>
    <i name="atom">   6433.79709382 </i>
    <i name="e_fr_energy">   -159.16997604 </i>
    <i name="e_wo_entrp">   -159.16997604 </i>
    <i name="e_0_energy">   -159.16997604 </i>
   </energy>
  </scstep>
  <structure>
   <crystal>
    <varray name="basis" >
     <v>       4.29026001       0.00000000       0.00000000 </v>
     <v>       0.00000000      17.09587958       0.00000000 </v>
     <v>       0.00000000       0.00000000      17.81649537 </v>
    </varray>
    <i name="volume">   1306.76454432 </i>
    <varray name="rec_basis" >
     <v>       0.23308611      -0.00000000       0.00000000 </v>
     <v>       0.00000000       0.05849363       0.00000000 </v>
     <v>       0.00000000       0.00000000       0.05612776 </v>
    </varray>
   </crystal>
   <varray name="positions" >
    <v>       0.25000000       0.18609627       0.91960940 </v>
    <v>       0.25000000       0.68609627       0.58039060 </v>
    <v>       0.75000000       0.81390373       0.08039060 </v>
    <v>       0.25000000       0.43457636       0.91732339 </v>
    <v>       0.75000000       0.56542364       0.08267661 </v>
    <v>       0.25000000       0.93457636       0.58267661 </v>
    <v>       0.75000000       0.06542364       0.41732339 </v>
    <v>       0.25000000       0.18505914       0.26034531 </v>
    <v>       0.75000000       0.81494086       0.73965469 </v>
    <v>       0.25000000       0.68505914       0.23965469 </v>
    <v>       0.75000000       0.31494086       0.76034531 </v>
    <v>       0.25000000       0.18182982       0.57419616 </v>
    <v>       0.75000000       0.81817018       0.42580384 </v>
    <v>       0.25000000       0.68182982       0.92580384 </v>
    <v>       0.75000000       0.31817018       0.07419616 </v>
    <v>       0.75000000       0.31390373       0.41960940 </v>
    <v>       0.75000000       0.57115228       0.75368268 </v>
    <v>       0.25000000       0.42884772       0.24631732 </v>
    <v>       0.25000000       0.92884772       0.25368268 </v>
    <v>       0.75000000       0.07115228       0.74631732 </v>
    <v>       0.25000000       0.44467722       0.58313559 </v>
    <v>       0.75000000       0.55532278       0.41686441 </v>
    <v>       0.25000000       0.94467722       0.91686441 </v>
    <v>       0.75000000       0.05532278       0.08313559 </v>
    <v>       0.25000000       0.42703494       0.41855225 </v>
    <v>       0.75000000       0.57296506       0.58144775 </v>
    <v>       0.25000000       0.92703494       0.08144775 </v>
    <v>       0.75000000       0.07296506       0.91855225 </v>
    <v>       0.75000000       0.54717418       0.91592514 </v>
    <v>       0.25000000       0.95282582       0.41592514 </v>
    <v>       0.75000000       0.04717418       0.58407486 </v>
    <v>       0.25000000       0.19049202       0.73543521 </v>
    <v>       0.75000000       0.80950798       0.26456479 </v>
    <v>       0.25000000       0.69049202       0.76456479 </v>
    <v>       0.75000000       0.30950798       0.23543521 </v>
    <v>       0.25000000       0.44575107       0.75030372 </v>
    <v>       0.75000000       0.55424893       0.24969628 </v>
    <v>       0.25000000       0.94575107       0.74969628 </v>
    <v>       0.75000000       0.05424893       0.25030372 </v>
    <v>       0.75000000       0.32462608       0.59624957 </v>
    <v>       0.25000000       0.67537392       0.40375043 </v>
    <v>       0.25000000       0.45282582       0.08407486 </v>
    <v>       0.25000000       0.17537392       0.09624957 </v>
    <v>       0.75000000       0.82462608       0.90375043 </v>
   </varray>
  </structure>
  <varray name="forces" >
   <v>      -0.00000000      -0.83432883       0.04676334 </v>
   <v>      -0.00000000      -0.83432883      -0.04676334 </v>
   <v>       0.00000000       0.83432883      -0.04676334 </v>
   <v>       0.00000000       1.16994783       0.08472358 </v>
   <v>      -0.00000000      -1.16994783      -0.08472358 </v>
   <v>       0.00000000       1.16994783      -0.08472358 </v>
   <v>      -0.00000000      -1.16994783       0.08472358 </v>
   <v>      -0.00000000      -0.01920176      -0.81277400 </v>
   <v>       0.00000000       0.01920176       0.81277400 </v>
   <v>      -0.00000000      -0.01920176       0.81277400 </v>
   <v>       0.00000000       0.01920176      -0.81277400 </v>
   <v>      -0.00000000      -0.30831299       0.78112251 </v>
   <v>       0.00000000       0.30831299      -0.78112251 </v>
   <v>      -0.00000000      -0.30831299      -0.78112251 </v>
   <v>       0.00000000       0.30831299       0.78112251 </v>
   <v>       0.00000000       0.83432883       0.04676334 </v>
   <v>       0.00000000       0.00202764       1.01707592 </v>
   <v>      -0.00000000      -0.00202764      -1.01707592 </v>
   <v>      -0.00000000      -0.00202764       1.01707592 </v>
   <v>       0.00000000       0.00202764      -1.01707592 </v>
   <v>      -0.00000000      -0.89728296       0.57132012 </v>
   <v>       0.00000000       0.89728296      -0.57132012 </v>
   <v>      -0.00000000      -0.89728296      -0.57132012 </v>
   <v>       0.00000000       0.89728296       0.57132012 </v>
   <v>      -0.00000000      -0.43843675       0.02134410 </v>
   <v>       0.00000000       0.43843675      -0.02134410 </v>
   <v>      -0.00000000      -0.43843675      -0.02134410 </v>
   <v>       0.00000000       0.43843675       0.02134410 </v>
   <v>       0.00000000       0.24176715       0.03588370 </v>
   <v>      -0.00000000      -0.24176715       0.03588370 </v>
   <v>       0.00000000       0.24176715      -0.03588370 </v>
   <v>       0.00000000       0.32624493       0.56387072 </v>
   <v>      -0.00000000      -0.32624493      -0.56387072 </v>
   <v>       0.00000000       0.32624493      -0.56387072 </v>
   <v>      -0.00000000      -0.32624493       0.56387072 </v>
   <v>      -0.00000000      -0.33643293       0.15993719 </v>
   <v>       0.00000000       0.33643293      -0.15993719 </v>
   <v>      -0.00000000      -0.33643293      -0.15993719 </v>
   <v>       0.00000000       0.33643293       0.15993719 </v>
   <v>       0.00000000       0.04131120      -0.56656217 </v>
   <v>      -0.00000000      -0.04131120       0.56656217 </v>
   <v>      -0.00000000      -0.24176715      -0.03588370 </v>
   <v>      -0.00000000      -0.04131120      -0.56656217 </v>
   <v>       0.00000000       0.04131120       0.56656217 </v>
  </varray>
  <varray name="stress" >
   <v>     -29.71107509       0.00000000       0.00000000 </v>
   <v>       0.00000000     -40.28749051       0.00000000 </v>
   <v>       0.00000000       0.00000000     -33.91453214 </v>
  </varray>
  <energy>
   <i name="e_fr_energy">   -159.16997604 </i>
   <i name="e_wo_entrp">   -159.16997604 </i>
   <i name="e_0_energy">     -0.00000000 </i>
  </energy>
  <time name="totalsc">   10.96   11.08</time>
 </calculation>
 <calculation>
  <scstep>
   <time name="dav">    0.98    1.01</time>
   <time name="total">    1.38    1.45</time>
   <energy>
    <i name="alphaZ">    179.53481626 </i>
    <i name="ewald">  -4699.35819142 </i>
    <i name="hartreedc">  -1890.58104992 </i>
    <i name="XCdc">   -956.03570610 </i>
    <i name="pawpsdc">   8320.63159581 </i>
    <i name="pawaedc">  -7022.07161142 </i>
    <i name="eentropy">     -0.00000000 </i>
    <i name="bandstr">   -526.78285647 </i>
    <i name="atom">   6433.79709382 </i>
    <i name="e_fr_energy">   -160.86590944 </i>
    <i name="e_wo_entrp">   -160.86590944 </i>
    <i name="e_0_energy">   -160.86590944 </i>
   </energy>
  </scstep>
  <scstep>
   <time name="dav">    0.81    0.81</time>
   <time name="total">    1.19    1.20</time>
   <energy>
    <i name="e_fr_energy">   -160.61315092 </i>
    <i name="e_wo_entrp">   -160.61315092 </i>
    <i name="e_0_energy">   -160.61315092 </i>
   </energy>
  </scstep>
  <scstep>
   <time name="dav">    0.76    0.76</time>
   <time name="total">    1.14    1.14</time>
   <energy>
    <i name="e_fr_energy">   -160.53714644 </i>
    <i name="e_wo_entrp">   -160.53714644 </i>
    <i name="e_0_energy">   -160.53714644 </i>
   </energy>
  </scstep>
  <scstep>
   <time name="dav">    0.79    0.79</time>
   <time name="total">    1.16    1.16</time>
   <energy>
    <i name="e_fr_energy">   -160.52372402 </i>
    <i name="e_wo_entrp">   -160.52372402 </i>
    <i name="e_0_energy">   -160.52372402 </i>
   </energy>
  </scstep>
  <scstep>
   <time name="dav">    0.87    0.87</time>
   <time name="total">    1.25    1.25</time>
   <energy>
    <i name="e_fr_energy">   -160.52206002 </i>
    <i name="e_wo_entrp">   -160.52206002 </i>
    <i name="e_0_energy">   -160.52206002 </i>
   </energy>
  </scstep>
  <scstep>
   <time name="dav">    0.77    0.77</time>
   <time name="total">    1.15    1.15</time>
   <energy>
    <i name="e_fr_energy">   -160.52188012 </i>
    <i name="e_wo_entrp">   -160.52188012 </i>
    <i name="e_0_energy">   -160.52188012 </i>
   </energy>
  </scstep>
  <scstep>
   <time name="dav">    0.63    0.63</time>
   <time name="total">    0.96    0.96</time>
   <energy>
    <i name="alphaZ">    179.53481626 </i>
    <i name="ewald">  -4699.35819142 </i>
    <i name="hartreedc">  -1857.31717566 </i>
    <i name="XCdc">   -956.25474257 </i>
    <i name="pawpsdc">   8405.90671525 </i>
    <i name="pawaedc">  -7107.52683249 </i>
    <i name="eentropy">     -0.00000000 </i>
    <i name="bandstr">   -559.30362190 </i>
    <i name="atom">   6433.79709382 </i>
    <i name="e_fr_energy">   -160.52193871 </i>
    <i name="e_wo_entrp">   -160.52193871 </i>
    <i name="e_0_energy">   -160.52193871 </i>
   </energy>
  </scstep>
  <structure>
   <crystal>
    <varray name="basis" >
     <v>       4.27691130       0.00000000       0.00000000 </v>
     <v>       0.00000000      16.87772638       0.00000000 </v>
     <v>       0.00000000       0.00000000      17.65875453 </v>
    </varray>
    <i name="volume">   1274.68904987 </i>
    <varray name="rec_basis" >
     <v>       0.23381359      -0.00000000       0.00000000 </v>
     <v>      -0.00000000       0.05924969       0.00000000 </v>
     <v>       0.00000000       0.00000000       0.05662914 </v>
    </varray>
   </crystal>
   <varray name="positions" >
    <v>       0.25000000       0.18438044       0.91965814 </v>
    <v>       0.25000000       0.68438044       0.58034186 </v>
    <v>       0.75000000       0.81561956       0.08034186 </v>
    <v>       0.25000000       0.43672479       0.91743836 </v>
    <v>       0.75000000       0.56327521       0.08256164 </v>
    <v>       0.25000000       0.93672479       0.58256164 </v>
    <v>       0.75000000       0.06327521       0.41743836 </v>
    <v>       0.25000000       0.18506397       0.25887252 </v>
    <v>       0.75000000       0.81493603       0.74112748 </v>
    <v>       0.25000000       0.68506397       0.24112748 </v>
    <v>       0.75000000       0.31493603       0.75887252 </v>
    <v>       0.25000000       0.18130870       0.57563544 </v>
    <v>       0.75000000       0.81869130       0.42436456 </v>
    <v>       0.25000000       0.68130870       0.92436456 </v>
    <v>       0.75000000       0.31869130       0.07563544 </v>
    <v>       0.75000000       0.31561956       0.41965814 </v>
    <v>       0.75000000       0.57132089       0.75418155 </v>
    <v>       0.25000000       0.42867911       0.24581845 </v>
    <v>       0.25000000       0.92867911       0.25418155 </v>
    <v>       0.75000000       0.07132089       0.74581845 </v>
    <v>       0.25000000       0.44422170       0.58289155 </v>
    <v>       0.75000000       0.55577830       0.41710845 </v>
    <v>       0.25000000       0.94422170       0.91710845 </v>
    <v>       0.75000000       0.05577830       0.08289155 </v>
    <v>       0.25000000       0.42566650       0.41861601 </v>
    <v>       0.75000000       0.57433350       0.58138399 </v>
    <v>       0.25000000       0.92566650       0.08138399 </v>
    <v>       0.75000000       0.07433350       0.91861601 </v>
    <v>       0.75000000       0.54729010       0.91726654 </v>
    <v>       0.25000000       0.95270990       0.41726654 </v>
    <v>       0.75000000       0.04729010       0.58273346 </v>
    <v>       0.25000000       0.19223051       0.73622905 </v>
    <v>       0.75000000       0.80776949       0.26377095 </v>
    <v>       0.25000000       0.69223051       0.76377095 </v>
    <v>       0.75000000       0.30776949       0.23622905 </v>
    <v>       0.25000000       0.44411165       0.75168677 </v>
    <v>       0.75000000       0.55588835       0.24831323 </v>
    <v>       0.25000000       0.94411165       0.74831323 </v>
    <v>       0.75000000       0.05588835       0.25168677 </v>
    <v>       0.75000000       0.32312122       0.59548400 </v>
    <v>       0.25000000       0.67687878       0.40451600 </v>
    <v>       0.25000000       0.45270990       0.08273346 </v>
    <v>       0.25000000       0.17687878       0.09548400 </v>
    <v>       0.75000000       0.82312122       0.90451600 </v>
   </varray>
  </structure>
  <varray name="forces" >
   <v>      -0.00000000      -0.74765936       0.04147666 </v>
   <v>      -0.00000000      -0.74765936      -0.04147666 </v>
   <v>       0.00000000       0.74765936      -0.04147666 </v>
   <v>       0.00000000       1.09951768       0.08344167 </v>
   <v>      -0.00000000      -1.09951768      -0.08344167 </v>
   <v>       0.00000000       1.09951768      -0.08344167 </v>
   <v>      -0.00000000      -1.09951768       0.08344167 </v>
   <v>      -0.00000000      -0.02643308      -0.75672588 </v>
   <v>       0.00000000       0.02643308       0.75672588 </v>
   <v>      -0.00000000      -0.02643308       0.75672588 </v>
   <v>       0.00000000       0.02643308      -0.75672588 </v>
   <v>      -0.00000000      -0.31322544       0.72644822 </v>
   <v>       0.00000000       0.31322544      -0.72644822 </v>
   <v>      -0.00000000      -0.31322544      -0.72644822 </v>
   <v>       0.00000000       0.31322544       0.72644822 </v>
   <v>       0.00000000       0.74765936       0.04147666 </v>
   <v>       0.00000000       0.00452332       1.03017960 </v>
   <v>      -0.00000000      -0.00452332      -1.03017960 </v>
   <v>      -0.00000000      -0.00452332       1.03017960 </v>
   <v>       0.00000000       0.00452332      -1.03017960 </v>
   <v>      -0.00000000      -0.94677692       0.64811152 </v>
   <v>       0.00000000       0.94677692      -0.64811152 </v>
   <v>      -0.00000000      -0.94677692      -0.64811152 </v>
   <v>       0.00000000       0.94677692       0.64811152 </v>
   <v>      -0.00000000      -0.42967864       0.00126169 </v>
   <v>       0.00000000       0.42967864      -0.00126169 </v>
   <v>      -0.00000000      -0.42967864      -0.00126169 </v>
   <v>       0.00000000       0.42967864       0.00126169 </v>
   <v>       0.00000000       0.27002282      -0.03004025 </v>
   <v>      -0.00000000      -0.27002282      -0.03004025 </v>
   <v>       0.00000000       0.27002282       0.03004025 </v>
   <v>       0.00000000       0.31358968       0.60297022 </v>
   <v>      -0.00000000      -0.31358968      -0.60297022 </v>
   <v>       0.00000000       0.31358968      -0.60297022 </v>
   <v>      -0.00000000      -0.31358968       0.60297022 </v>
   <v>      -0.00000000      -0.28634571       0.13010555 </v>
   <v>       0.00000000       0.28634571      -0.13010555 </v>
   <v>      -0.00000000      -0.28634571      -0.13010555 </v>
   <v>       0.00000000       0.28634571       0.13010555 </v>
   <v>       0.00000000       0.05140716      -0.56366336 </v>
   <v>      -0.00000000      -0.05140716       0.56366336 </v>
   <v>      -0.00000000      -0.27002282       0.03004025 </v>
   <v>      -0.00000000      -0.05140716      -0.56366336 </v>
   <v>       0.00000000       0.05140716       0.56366336 </v>
  </varray>
  <varray name="stress" >
   <v>     -27.56731457      -0.00000000       0.00000000 </v>
   <v>       0.00000000     -35.29866986       0.00000000 </v>
   <v>       0.00000000       0.00000000     -27.63727297 </v>
  </varray>
  <energy>
   <i name="e_fr_energy">   -160.52193871 </i>
   <i name="e_wo_entrp">   -160.52193871 </i>
   <i name="e_0_energy">     -0.00000000 </i>
  </energy>
  <time name="totalsc">    9.68    9.86</time>
 </calculation>
 <calculation>
  <scstep>
   <time name="dav">    0.62    0.62</time>
   <time name="total">    1.01    1.06</time>
   <energy>
    <i name="alphaZ">    193.73451537 </i>
    <i name="ewald">  -4963.72789398 </i>
    <i name="hartreedc">  -1763.40444166 </i>
    <i name="XCdc">   -952.13906556 </i>
    <i name="pawpsdc">   8404.79619342 </i>
    <i name="pawaedc">  -7106.40820118 </i>
    <i name="eentropy">     -0.00000000 </i>
    <i name="bandstr">   -413.30737089 </i>
    <i name="atom">   6433.79709382 </i>
    <i name="e_fr_energy">   -166.65917065 </i>
    <i name="e_wo_entrp">   -166.65917065 </i>
    <i name="e_0_energy">   -166.65917065 </i>
   </energy>
  </scstep>
  <scstep>
   <time name="dav">    0.72    0.72</time>
   <time name="total">    1.12    1.12</time>
   <energy>
    <i name="e_fr_energy">   -164.32993358 </i>
    <i name="e_wo_entrp">   -164.32993358 </i>
    <i name="e_0_energy">   -164.32993358 </i>
   </energy>
  </scstep>
  <scstep>
   <time name="dav">    0.76    0.76</time>
   <time name="total">    1.14    1.14</time>
   <energy>
    <i name="e_fr_energy">   -163.64769863 </i>
    <i name="e_wo_entrp">   -163.64769863 </i>
    <i name="e_0_energy">   -163.64769863 </i>
   </energy>
  </scstep>
  <scstep>
   <time name="dav">    0.58    0.58</time>
   <time name="total">    0.95    0.95</time>
   <energy>
    <i name="e_fr_energy">   -163.53207757 </i>
    <i name="e_wo_entrp">   -163.53207757 </i>
    <i name="e_0_energy">   -163.53207757 </i>
   </energy>
  </scstep>
  <scstep>
   <time name="dav">    0.83    0.83</time>
   <time name="total">    1.21    1.22</time>
   <energy>
    <i name="e_fr_energy">   -163.51491983 </i>
    <i name="e_wo_entrp">   -163.51491983 </i>
    <i name="e_0_energy">   -163.51491983 </i>
   </energy>
  </scstep>
  <scstep>
   <time name="dav">    0.64    0.64</time>
   <time name="total">    1.02    1.02</time>
   <energy>
    <i name="e_fr_energy">   -163.51426005 </i>
    <i name="e_wo_entrp">   -163.51426005 </i>
    <i name="e_0_energy">   -163.51426005 </i>
   </energy>
  </scstep>
  <scstep>
   <time name="dav">    0.78    0.78</time>
   <time name="total">    1.16    1.16</time>
   <energy>
    <i name="e_fr_energy">   -163.51540906 </i>
    <i name="e_wo_entrp">   -163.51540906 </i>
    <i name="e_0_energy">   -163.51540906 </i>
   </energy>
  </scstep>
  <scstep>
   <time name="dav">    0.56    0.56</time>
   <time name="total">    0.94    0.94</time>
   <energy>
    <i name="e_fr_energy">   -163.51583965 </i>
    <i name="e_wo_entrp">   -163.51583965 </i>
    <i name="e_0_energy">   -163.51583965 </i>
   </energy>
  </scstep>
  <scstep>
   <time name="dav">    0.60    0.60</time>
   <time name="total">    0.98    0.98</time>
   <energy>
    <i name="e_fr_energy">   -163.51598555 </i>
    <i name="e_wo_entrp">   -163.51598555 </i>
    <i name="e_0_energy">   -163.51598555 </i>
   </energy>
  </scstep>
  <scstep>
   <time name="dav">    0.54    0.54</time>
   <time name="total">    0.91    0.91</time>
   <energy>
    <i name="e_fr_energy">   -163.51611959 </i>
    <i name="e_wo_entrp">   -163.51611959 </i>
    <i name="e_0_energy">   -163.51611959 </i>
   </energy>
  </scstep>
  <scstep>
   <time name="dav">    0.56    0.56</time>
   <time name="total">    0.90    0.90</time>
   <energy>
    <i name="alphaZ">    193.73451537 </i>
    <i name="ewald">  -4963.72789398 </i>
    <i name="hartreedc">  -1663.07525758 </i>
    <i name="XCdc">   -952.83597065 </i>
    <i name="pawpsdc">   8689.15195560 </i>
    <i name="pawaedc">  -7391.29109965 </i>
    <i name="eentropy">     -0.00000000 </i>
    <i name="bandstr">   -509.26949792 </i>
    <i name="atom">   6433.79709382 </i>
    <i name="e_fr_energy">   -163.51615498 </i>
    <i name="e_wo_entrp">   -163.51615498 </i>
    <i name="e_0_energy">   -163.51615498 </i>
   </energy>
  </scstep>
  <structure>
   <crystal>
    <varray name="basis" >
     <v>       4.23686519       0.00000000       0.00000000 </v>
     <v>       0.00000000      16.22326678       0.00000000 </v>
     <v>       0.00000000       0.00000000      17.18553200 </v>
    </varray>
    <i name="volume">   1181.26119100 </i>
    <varray name="rec_basis" >
     <v>       0.23602356      -0.00000000       0.00000000 </v>
     <v>      -0.00000000       0.06163987       0.00000000 </v>
     <v>       0.00000000       0.00000000       0.05818848 </v>
    </varray>
   </crystal>
   <varray name="positions" >
    <v>       0.25000000       0.17916642       0.91980567 </v>
    <v>       0.25000000       0.67916642       0.58019433 </v>
    <v>       0.75000000       0.82083358       0.08019433 </v>
    <v>       0.25000000       0.44325341       0.91778633 </v>
    <v>       0.75000000       0.55674659       0.08221367 </v>
    <v>       0.25000000       0.94325341       0.58221367 </v>
    <v>       0.75000000       0.05674659       0.41778633 </v>
    <v>       0.25000000       0.18507867       0.25441469 </v>
    <v>       0.75000000       0.81492133       0.74558531 </v>
    <v>       0.25000000       0.68507867       0.24558531 </v>
[...]
        <r>  0.0002  0.0004  0.0000 </r>
        <r>  0.0002  0.0004  0.0000 </r>
        <r>  0.0000  0.0008  0.0000 </r>
        <r>  0.0000  0.0008  0.0000 </r>
        <r>  0.0018  0.0058  0.0000 </r>
        <r>  0.0018  0.0058  0.0000 </r>
        <r>  0.0022  0.0053  0.0000 </r>
        <r>  0.0022  0.0053  0.0000 </r>
        <r>  0.0001  0.0003  0.0000 </r>
        <r>  0.0001  0.0003  0.0000 </r>
        <r>  0.0000  0.0003  0.0000 </r>
        <r>  0.0000  0.0003  0.0000 </r>
        <r>  0.0001  0.0011  0.0000 </r>
        <r>  0.0002  0.0789  0.0004 </r>
        <r>  0.0002  0.0789  0.0004 </r>
        <r>  0.0001  0.0908  0.0008 </r>
        <r>  0.0001  0.0908  0.0008 </r>
        <r>  0.0000  0.0091  0.0004 </r>
        <r>  0.0000  0.0091  0.0004 </r>
        <r>  0.0000  0.0082  0.0003 </r>
        <r>  0.0000  0.0082  0.0003 </r>
        <r>  0.0003  0.0021  0.0007 </r>
        <r>  0.0003  0.0021  0.0007 </r>
        <r>  0.0003  0.0019  0.0006 </r>
        <r>  0.0003  0.0019  0.0006 </r>
        <r>  0.0001  0.0014  0.0006 </r>
        <r>  0.0001  0.0025  0.0008 </r>
        <r>  0.0001  0.0025  0.0008 </r>
        <r>  0.0003  0.0207  0.0032 </r>
        <r>  0.0003  0.0207  0.0032 </r>
        <r>  0.0002  0.0148  0.0027 </r>
        <r>  0.0002  0.0148  0.0027 </r>
        <r>  0.0001  0.0174  0.0026 </r>
        <r>  0.0001  0.0174  0.0026 </r>
        <r>  0.0000  0.0149  0.0031 </r>
        <r>  0.0000  0.0149  0.0031 </r>
        <r>  0.0003  0.0041  0.0002 </r>
        <r>  0.0003  0.0041  0.0002 </r>
        <r>  0.0001  0.0014  0.0006 </r>
        <r>  0.0001  0.0018  0.0003 </r>
        <r>  0.0001  0.0018  0.0003 </r>
       </set>
       <set comment="band 105">
        <r>  0.0002  0.0010  0.0000 </r>
        <r>  0.0012  0.0020  0.0000 </r>
        <r>  0.0002  0.0010  0.0000 </r>
        <r>  0.0002  0.0003  0.0000 </r>
        <r>  0.0002  0.0003  0.0000 </r>
        <r>  0.0003  0.0002  0.0000 </r>
        <r>  0.0003  0.0002  0.0000 </r>
        <r>  0.0016  0.0043  0.0000 </r>
        <r>  0.0016  0.0043  0.0000 </r>
        <r>  0.0006  0.0038  0.0000 </r>
        <r>  0.0006  0.0038  0.0000 </r>
        <r>  0.0006  0.0007  0.0000 </r>
        <r>  0.0006  0.0007  0.0000 </r>
        <r>  0.0004  0.0004  0.0000 </r>
        <r>  0.0004  0.0004  0.0000 </r>
        <r>  0.0012  0.0020  0.0000 </r>
        <r>  0.0003  0.0675  0.0004 </r>
        <r>  0.0003  0.0675  0.0004 </r>
        <r>  0.0000  0.0707  0.0009 </r>
        <r>  0.0000  0.0707  0.0009 </r>
        <r>  0.0000  0.0333  0.0005 </r>
        <r>  0.0000  0.0333  0.0005 </r>
        <r>  0.0000  0.0095  0.0003 </r>
        <r>  0.0000  0.0095  0.0003 </r>
        <r>  0.0002  0.0058  0.0016 </r>
        <r>  0.0002  0.0058  0.0016 </r>
        <r>  0.0000  0.0013  0.0007 </r>
        <r>  0.0000  0.0013  0.0007 </r>
        <r>  0.0001  0.0032  0.0006 </r>
        <r>  0.0000  0.0026  0.0007 </r>
        <r>  0.0000  0.0026  0.0007 </r>
        <r>  0.0007  0.0179  0.0022 </r>
        <r>  0.0007  0.0179  0.0022 </r>
        <r>  0.0006  0.0141  0.0023 </r>
        <r>  0.0006  0.0141  0.0023 </r>
        <r>  0.0005  0.0169  0.0019 </r>
        <r>  0.0005  0.0169  0.0019 </r>
        <r>  0.0003  0.0160  0.0023 </r>
        <r>  0.0003  0.0160  0.0023 </r>
        <r>  0.0008  0.0098  0.0011 </r>
        <r>  0.0008  0.0098  0.0011 </r>
        <r>  0.0001  0.0032  0.0006 </r>
        <r>  0.0002  0.0042  0.0004 </r>
        <r>  0.0002  0.0042  0.0004 </r>
       </set>
       <set comment="band 106">
        <r>  0.0017  0.0020  0.0000 </r>
        <r>  0.0002  0.0006  0.0000 </r>
        <r>  0.0017  0.0020  0.0000 </r>
        <r>  0.0001  0.0010  0.0000 </r>
        <r>  0.0001  0.0010  0.0000 </r>
        <r>  0.0000  0.0002  0.0000 </r>
        <r>  0.0000  0.0002  0.0000 </r>
        <r>  0.0004  0.0016  0.0000 </r>
        <r>  0.0004  0.0016  0.0000 </r>
        <r>  0.0003  0.0024  0.0000 </r>
        <r>  0.0003  0.0024  0.0000 </r>
        <r>  0.0004  0.0006  0.0000 </r>
        <r>  0.0004  0.0006  0.0000 </r>
        <r>  0.0009  0.0014  0.0000 </r>
        <r>  0.0009  0.0014  0.0000 </r>
        <r>  0.0002  0.0006  0.0000 </r>
        <r>  0.0002  0.0477  0.0010 </r>
        <r>  0.0002  0.0477  0.0010 </r>
        <r>  0.0003  0.0493  0.0004 </r>
        <r>  0.0003  0.0493  0.0004 </r>
        <r>  0.0001  0.0073  0.0002 </r>
        <r>  0.0001  0.0073  0.0002 </r>
        <r>  0.0002  0.0384  0.0004 </r>
        <r>  0.0002  0.0384  0.0004 </r>
        <r>  0.0001  0.0030  0.0006 </r>
        <r>  0.0001  0.0030  0.0006 </r>
        <r>  0.0002  0.0074  0.0021 </r>
        <r>  0.0002  0.0074  0.0021 </r>
        <r>  0.0007  0.0041  0.0009 </r>
        <r>  0.0001  0.0019  0.0007 </r>
        <r>  0.0001  0.0019  0.0007 </r>
        <r>  0.0021  0.0230  0.0011 </r>
        <r>  0.0021  0.0230  0.0011 </r>
        <r>  0.0025  0.0254  0.0009 </r>
        <r>  0.0025  0.0254  0.0009 </r>
        <r>  0.0015  0.0219  0.0009 </r>
        <r>  0.0015  0.0219  0.0009 </r>
        <r>  0.0023  0.0302  0.0008 </r>
        <r>  0.0023  0.0302  0.0008 </r>
        <r>  0.0003  0.0021  0.0004 </r>
        <r>  0.0003  0.0021  0.0004 </r>
        <r>  0.0007  0.0041  0.0009 </r>
        <r>  0.0006  0.0094  0.0016 </r>
        <r>  0.0006  0.0094  0.0016 </r>
       </set>
       <set comment="band 107">
        <r>  0.0007  0.0006  0.0000 </r>
        <r>  0.0054  0.0046  0.0000 </r>
        <r>  0.0007  0.0006  0.0000 </r>
        <r>  0.0000  0.0002  0.0000 </r>
        <r>  0.0000  0.0002  0.0000 </r>
        <r>  0.0006  0.0010  0.0000 </r>
        <r>  0.0006  0.0010  0.0000 </r>
        <r>  0.0006  0.0006  0.0000 </r>
        <r>  0.0006  0.0006  0.0000 </r>
        <r>  0.0003  0.0000  0.0000 </r>
        <r>  0.0003  0.0000  0.0000 </r>
        <r>  0.0018  0.0028  0.0000 </r>
        <r>  0.0018  0.0028  0.0000 </r>
        <r>  0.0001  0.0003  0.0000 </r>
        <r>  0.0001  0.0003  0.0000 </r>
        <r>  0.0054  0.0046  0.0000 </r>
        <r>  0.0000  0.0176  0.0002 </r>
        <r>  0.0000  0.0176  0.0002 </r>
        <r>  0.0000  0.0103  0.0006 </r>
        <r>  0.0000  0.0103  0.0006 </r>
        <r>  0.0002  0.1156  0.0017 </r>
        <r>  0.0002  0.1156  0.0017 </r>
        <r>  0.0001  0.0189  0.0008 </r>
        <r>  0.0001  0.0189  0.0008 </r>
        <r>  0.0009  0.0237  0.0053 </r>
        <r>  0.0009  0.0237  0.0053 </r>
        <r>  0.0001  0.0059  0.0009 </r>
        <r>  0.0001  0.0059  0.0009 </r>
        <r>  0.0001  0.0020  0.0001 </r>
        <r>  0.0020  0.0022  0.0006 </r>
        <r>  0.0020  0.0022  0.0006 </r>
        <r>  0.0001  0.0071  0.0001 </r>
        <r>  0.0001  0.0071  0.0001 </r>
        <r>  0.0002  0.0049  0.0009 </r>
        <r>  0.0002  0.0049  0.0009 </r>
        <r>  0.0013  0.0163  0.0008 </r>
        <r>  0.0013  0.0163  0.0008 </r>
        <r>  0.0004  0.0008  0.0004 </r>
        <r>  0.0004  0.0008  0.0004 </r>
        <r>  0.0024  0.0314  0.0038 </r>
        <r>  0.0024  0.0314  0.0038 </r>
        <r>  0.0001  0.0020  0.0001 </r>
        <r>  0.0006  0.0077  0.0004 </r>
        <r>  0.0006  0.0077  0.0004 </r>
       </set>
       <set comment="band 108">
        <r>  0.0043  0.0038  0.0000 </r>
        <r>  0.0003  0.0004  0.0000 </r>
        <r>  0.0043  0.0038  0.0000 </r>
        <r>  0.0001  0.0004  0.0000 </r>
        <r>  0.0001  0.0004  0.0000 </r>
        <r>  0.0000  0.0001  0.0000 </r>
        <r>  0.0000  0.0001  0.0000 </r>
        <r>  0.0006  0.0005  0.0000 </r>
        <r>  0.0006  0.0005  0.0000 </r>
        <r>  0.0006  0.0005  0.0000 </r>
        <r>  0.0006  0.0005  0.0000 </r>
        <r>  0.0004  0.0002  0.0000 </r>
        <r>  0.0004  0.0002  0.0000 </r>
        <r>  0.0016  0.0021  0.0000 </r>
        <r>  0.0016  0.0021  0.0000 </r>
        <r>  0.0003  0.0004  0.0000 </r>
        <r>  0.0000  0.0263  0.0008 </r>
        <r>  0.0000  0.0263  0.0008 </r>
        <r>  0.0000  0.0320  0.0005 </r>
        <r>  0.0000  0.0320  0.0005 </r>
        <r>  0.0001  0.0058  0.0001 </r>
        <r>  0.0001  0.0058  0.0001 </r>
        <r>  0.0002  0.0859  0.0013 </r>
        <r>  0.0002  0.0859  0.0013 </r>
        <r>  0.0001  0.0011  0.0004 </r>
        <r>  0.0001  0.0011  0.0004 </r>
        <r>  0.0010  0.0183  0.0041 </r>
        <r>  0.0010  0.0183  0.0041 </r>
        <r>  0.0002  0.0015  0.0009 </r>
        <r>  0.0000  0.0010  0.0004 </r>
        <r>  0.0000  0.0010  0.0004 </r>
        <r>  0.0009  0.0164  0.0008 </r>
        <r>  0.0009  0.0164  0.0008 </r>
        <r>  0.0008  0.0181  0.0004 </r>
        <r>  0.0008  0.0181  0.0004 </r>
        <r>  0.0009  0.0162  0.0005 </r>
        <r>  0.0009  0.0162  0.0005 </r>
        <r>  0.0018  0.0268  0.0009 </r>
        <r>  0.0018  0.0268  0.0009 </r>
        <r>  0.0002  0.0015  0.0002 </r>
        <r>  0.0002  0.0015  0.0002 </r>
        <r>  0.0002  0.0015  0.0009 </r>
        <r>  0.0015  0.0231  0.0029 </r>
        <r>  0.0015  0.0231  0.0029 </r>
       </set>
       <set comment="band 109">
        <r>  0.0000  0.0003  0.0000 </r>
        <r>  0.0007  0.0001  0.0000 </r>
        <r>  0.0000  0.0003  0.0000 </r>
        <r>  0.0020  0.0030  0.0000 </r>
        <r>  0.0020  0.0030  0.0000 </r>
        <r>  0.0020  0.0036  0.0000 </r>
        <r>  0.0020  0.0036  0.0000 </r>
        <r>  0.0000  0.0004  0.0000 </r>
        <r>  0.0000  0.0004  0.0000 </r>
        <r>  0.0004  0.0006  0.0000 </r>
        <r>  0.0004  0.0006  0.0000 </r>
        <r>  0.0001  0.0004  0.0000 </r>
        <r>  0.0001  0.0004  0.0000 </r>
        <r>  0.0000  0.0004  0.0000 </r>
        <r>  0.0000  0.0004  0.0000 </r>
        <r>  0.0007  0.0001  0.0000 </r>
        <r>  0.0002  0.0516  0.0005 </r>
        <r>  0.0002  0.0516  0.0005 </r>
        <r>  0.0003  0.0543  0.0004 </r>
        <r>  0.0003  0.0543  0.0004 </r>
        <r>  0.0007  0.0236  0.0021 </r>
        <r>  0.0007  0.0236  0.0021 </r>
        <r>  0.0009  0.0317  0.0019 </r>
        <r>  0.0009  0.0317  0.0019 </r>
        <r>  0.0001  0.0282  0.0006 </r>
        <r>  0.0001  0.0282  0.0006 </r>
        <r>  0.0001  0.0354  0.0005 </r>
        <r>  0.0001  0.0354  0.0005 </r>
        <r>  0.0037  0.0092  0.0017 </r>
        <r>  0.0045  0.0108  0.0017 </r>
        <r>  0.0045  0.0108  0.0017 </r>
        <r>  0.0004  0.0011  0.0010 </r>
        <r>  0.0004  0.0011  0.0010 </r>
        <r>  0.0002  0.0026  0.0008 </r>
        <r>  0.0002  0.0026  0.0008 </r>
        <r>  0.0005  0.0063  0.0014 </r>
        <r>  0.0005  0.0063  0.0014 </r>
        <r>  0.0008  0.0051  0.0018 </r>
        <r>  0.0008  0.0051  0.0018 </r>
        <r>  0.0001  0.0026  0.0010 </r>
        <r>  0.0001  0.0026  0.0010 </r>
        <r>  0.0037  0.0092  0.0017 </r>
        <r>  0.0000  0.0023  0.0007 </r>
        <r>  0.0000  0.0023  0.0007 </r>
       </set>
       <set comment="band 110">
        <r>  0.0002  0.0005  0.0000 </r>
        <r>  0.0002  0.0007  0.0000 </r>
        <r>  0.0002  0.0005  0.0000 </r>
        <r>  0.0022  0.0034  0.0000 </r>
        <r>  0.0022  0.0034  0.0000 </r>
        <r>  0.0022  0.0027  0.0000 </r>
        <r>  0.0022  0.0027  0.0000 </r>
        <r>  0.0004  0.0004  0.0000 </r>
        <r>  0.0004  0.0004  0.0000 </r>
        <r>  0.0000  0.0003  0.0000 </r>
        <r>  0.0000  0.0003  0.0000 </r>
        <r>  0.0002  0.0002  0.0000 </r>
        <r>  0.0002  0.0002  0.0000 </r>
        <r>  0.0003  0.0002  0.0000 </r>
        <r>  0.0003  0.0002  0.0000 </r>
        <r>  0.0002  0.0007  0.0000 </r>
        <r>  0.0002  0.0545  0.0004 </r>
        <r>  0.0002  0.0545  0.0004 </r>
        <r>  0.0003  0.0482  0.0004 </r>
        <r>  0.0003  0.0482  0.0004 </r>
        <r>  0.0011  0.0324  0.0015 </r>
        <r>  0.0011  0.0324  0.0015 </r>
        <r>  0.0007  0.0281  0.0015 </r>
        <r>  0.0007  0.0281  0.0015 </r>
        <r>  0.0003  0.0363  0.0004 </r>
        <r>  0.0003  0.0363  0.0004 </r>
        <r>  0.0002  0.0309  0.0004 </r>
        <r>  0.0002  0.0309  0.0004 </r>
        <r>  0.0043  0.0116  0.0019 </r>
        <r>  0.0037  0.0089  0.0017 </r>
        <r>  0.0037  0.0089  0.0017 </r>
        <r>  0.0000  0.0019  0.0007 </r>
        <r>  0.0000  0.0019  0.0007 </r>
        <r>  0.0001  0.0007  0.0009 </r>
        <r>  0.0001  0.0007  0.0009 </r>
        <r>  0.0013  0.0030  0.0019 </r>
        <r>  0.0013  0.0030  0.0019 </r>
        <r>  0.0008  0.0033  0.0017 </r>
        <r>  0.0008  0.0033  0.0017 </r>
        <r>  0.0001  0.0021  0.0006 </r>
        <r>  0.0001  0.0021  0.0006 </r>
        <r>  0.0043  0.0116  0.0019 </r>
        <r>  0.0000  0.0040  0.0006 </r>
        <r>  0.0000  0.0040  0.0006 </r>
       </set>
       <set comment="band 111">
        <r>  0.0004  0.0006  0.0000 </r>
        <r>  0.0001  0.0003  0.0000 </r>
        <r>  0.0004  0.0006  0.0000 </r>
        <r>  0.0045  0.0070  0.0000 </r>
        <r>  0.0045  0.0070  0.0000 </r>
        <r>  0.0009  0.0014  0.0000 </r>
        <r>  0.0009  0.0014  0.0000 </r>
        <r>  0.0004  0.0006  0.0000 </r>
        <r>  0.0004  0.0006  0.0000 </r>
        <r>  0.0002  0.0005  0.0000 </r>
        <r>  0.0002  0.0005  0.0000 </r>
        <r>  0.0003  0.0011  0.0000 </r>
        <r>  0.0003  0.0011  0.0000 </r>
        <r>  0.0002  0.0007  0.0000 </r>
        <r>  0.0002  0.0007  0.0000 </r>
        <r>  0.0001  0.0003  0.0000 </r>
        <r>  0.0004  0.0601  0.0010 </r>
        <r>  0.0004  0.0601  0.0010 </r>
        <r>  0.0001  0.0140  0.0006 </r>
        <r>  0.0001  0.0140  0.0006 </r>
        <r>  0.0013  0.0582  0.0033 </r>
        <r>  0.0013  0.0582  0.0033 </r>
        <r>  0.0002  0.0150  0.0009 </r>
        <r>  0.0002  0.0150  0.0009 </r>
        <r>  0.0000  0.0577  0.0003 </r>
        <r>  0.0000  0.0577  0.0003 </r>
        <r>  0.0001  0.0147  0.0003 </r>
        <r>  0.0001  0.0147  0.0003 </r>
        <r>  0.0053  0.0069  0.0028 </r>
        <r>  0.0014  0.0020  0.0006 </r>
        <r>  0.0014  0.0020  0.0006 </r>
        <r>  0.0001  0.0015  0.0007 </r>
        <r>  0.0001  0.0015  0.0007 </r>
        <r>  0.0002  0.0006  0.0011 </r>
        <r>  0.0002  0.0006  0.0011 </r>
        <r>  0.0027  0.0099  0.0031 </r>
        <r>  0.0027  0.0099  0.0031 </r>
        <r>  0.0005  0.0033  0.0009 </r>
        <r>  0.0005  0.0033  0.0009 </r>
        <r>  0.0000  0.0015  0.0019 </r>
        <r>  0.0000  0.0015  0.0019 </r>
        <r>  0.0053  0.0069  0.0028 </r>
        <r>  0.0004  0.0013  0.0005 </r>
        <r>  0.0004  0.0013  0.0005 </r>
       </set>
       <set comment="band 112">
        <r>  0.0003  0.0008  0.0000 </r>
        <r>  0.0004  0.0008  0.0000 </r>
        <r>  0.0003  0.0008  0.0000 </r>
        <r>  0.0009  0.0016  0.0000 </r>
        <r>  0.0009  0.0016  0.0000 </r>
        <r>  0.0045  0.0068  0.0000 </r>
        <r>  0.0045  0.0068  0.0000 </r>
        <r>  0.0003  0.0003  0.0000 </r>
        <r>  0.0003  0.0003  0.0000 </r>
        <r>  0.0006  0.0005  0.0000 </r>
        <r>  0.0006  0.0005  0.0000 </r>
        <r>  0.0002  0.0003  0.0000 </r>
        <r>  0.0002  0.0003  0.0000 </r>
        <r>  0.0005  0.0007  0.0000 </r>
        <r>  0.0005  0.0007  0.0000 </r>
        <r>  0.0004  0.0008  0.0000 </r>
        <r>  0.0001  0.0177  0.0009 </r>
        <r>  0.0001  0.0177  0.0009 </r>
        <r>  0.0003  0.0671  0.0009 </r>
        <r>  0.0003  0.0671  0.0009 </r>
        <r>  0.0003  0.0140  0.0018 </r>
        <r>  0.0003  0.0140  0.0018 </r>
        <r>  0.0014  0.0541  0.0040 </r>
        <r>  0.0014  0.0541  0.0040 </r>
        <r>  0.0002  0.0118  0.0004 </r>
        <r>  0.0002  0.0118  0.0004 </r>
        <r>  0.0001  0.0536  0.0004 </r>
        <r>  0.0001  0.0536  0.0004 </r>
        <r>  0.0012  0.0024  0.0008 </r>
        <r>  0.0044  0.0085  0.0032 </r>
        <r>  0.0044  0.0085  0.0032 </r>
        <r>  0.0005  0.0008  0.0008 </r>
        <r>  0.0005  0.0008  0.0008 </r>
        <r>  0.0002  0.0020  0.0005 </r>
        <r>  0.0002  0.0020  0.0005 </r>
        <r>  0.0004  0.0030  0.0010 </r>
        <r>  0.0004  0.0030  0.0010 </r>
        <r>  0.0026  0.0088  0.0028 </r>
        <r>  0.0026  0.0088  0.0028 </r>
        <r>  0.0000  0.0025  0.0007 </r>
        <r>  0.0000  0.0025  0.0007 </r>
        <r>  0.0012  0.0024  0.0008 </r>
        <r>  0.0001  0.0020  0.0020 </r>
        <r>  0.0001  0.0020  0.0020 </r>
       </set>
      </set>
     </set>
    </set>
   </array>
  </projected>
 </calculation>
 <structure name="finalpos" >
  <crystal>
   <varray name="basis" >
    <v>       4.09642209       0.00000000       0.00000000 </v>
    <v>       0.00000000      16.41432519       0.00000000 </v>
    <v>       0.00000000       0.00000000      16.87047480 </v>
   </varray>
   <i name="volume">   1134.37079784 </i>
   <varray name="rec_basis" >
    <v>       0.24411547      -0.00000000       0.00000000 </v>
    <v>      -0.00000000       0.06092239       0.00000000 </v>
    <v>       0.00000000       0.00000000       0.05927515 </v>
   </varray>
  </crystal>
  <varray name="positions" >
   <v>       0.25000000       0.15887947       0.91287916 </v>
   <v>       0.25000000       0.65887947       0.58712084 </v>
   <v>       0.75000000       0.84112053       0.08712084 </v>
   <v>       0.25000000       0.48586406       0.92735019 </v>
   <v>       0.75000000       0.51413594       0.07264981 </v>
   <v>       0.25000000       0.98586406       0.57264981 </v>
   <v>       0.75000000       0.01413594       0.42735019 </v>
   <v>       0.25000000       0.19319616       0.22978074 </v>
   <v>       0.75000000       0.80680384       0.77021926 </v>
   <v>       0.25000000       0.69319616       0.27021926 </v>
   <v>       0.75000000       0.30680384       0.72978074 </v>
   <v>       0.25000000       0.18307523       0.60141567 </v>
   <v>       0.75000000       0.81692477       0.39858433 </v>
   <v>       0.25000000       0.68307523       0.89858433 </v>
   <v>       0.75000000       0.31692477       0.10141567 </v>
   <v>       0.75000000       0.34112053       0.41287916 </v>
   <v>       0.75000000       0.56475391       0.76368111 </v>
   <v>       0.25000000       0.43524609       0.23631889 </v>
   <v>       0.25000000       0.93524609       0.26368111 </v>
   <v>       0.75000000       0.06475391       0.73631889 </v>
   <v>       0.25000000       0.42577956       0.58938590 </v>
   <v>       0.75000000       0.57422044       0.41061410 </v>
   <v>       0.25000000       0.92577956       0.91061410 </v>
   <v>       0.75000000       0.07422044       0.08938590 </v>
   <v>       0.25000000       0.43804565       0.41595571 </v>
   <v>       0.75000000       0.56195435       0.58404429 </v>
   <v>       0.25000000       0.93804565       0.08404429 </v>
   <v>       0.75000000       0.06195435       0.91595571 </v>
   <v>       0.75000000       0.58008375       0.92903838 </v>
   <v>       0.25000000       0.91991625       0.42903838 </v>
   <v>       0.75000000       0.08008375       0.57096162 </v>
   <v>       0.25000000       0.19256265       0.75881925 </v>
   <v>       0.75000000       0.80743735       0.24118075 </v>
   <v>       0.25000000       0.69256265       0.74118075 </v>
   <v>       0.75000000       0.30743735       0.25881925 </v>
   <v>       0.25000000       0.42701398       0.76602264 </v>
   <v>       0.75000000       0.57298602       0.23397736 </v>
   <v>       0.25000000       0.92701398       0.73397736 </v>
   <v>       0.75000000       0.07298602       0.26602264 </v>
   <v>       0.75000000       0.30274852       0.57167795 </v>
   <v>       0.25000000       0.69725148       0.42832205 </v>
   <v>       0.25000000       0.41991625       0.07096162 </v>
   <v>       0.25000000       0.19725148       0.07167795 </v>
   <v>       0.75000000       0.80274852       0.92832205 </v>
  </varray>
 </structure>
</modeling>
