CIS                                     
           1
     4.113755    0.000000    0.000000
     0.000000   17.104490    0.000000
     0.000000    0.000000   17.595673
   Li   Bi   Se
  16   8  20
Direct configuration=     1
   0.25000000  0.19218602  0.91958062
   0.25000000  0.69218602  0.58041938
   0.75000000  0.80781398  0.08041938
   0.25000000  0.42780610  0.91708645
   0.75000000  0.57219390  0.08291355
   0.25000000  0.92780610  0.58291355
   0.75000000  0.07219390  0.41708645
   0.25000000  0.18489487  0.26518294
   0.75000000  0.81510513  0.73481706
   0.25000000  0.68489487  0.23481706
   0.75000000  0.31510513  0.76518294
   0.25000000  0.18330456  0.56938156
   0.75000000  0.81669544  0.43061844
   0.25000000  0.68330456  0.93061844
   0.75000000  0.31669544  0.06938156
   0.75000000  0.30781398  0.41958062
   0.75000000  0.57000813  0.75694783
   0.25000000  0.42999187  0.24305217
   0.25000000  0.92999187  0.25694783
   0.75000000  0.07000813  0.74305217
   0.25000000  0.44168188  0.58860454
   0.75000000  0.55831812  0.41139546
   0.25000000  0.94168188  0.91139546
   0.75000000  0.05831812  0.08860454
   0.25000000  0.43344078  0.41825133
   0.75000000  0.56655922  0.58174867
   0.25000000  0.93344078  0.08174867
   0.75000000  0.06655922  0.91825133
   0.75000000  0.54802805  0.90686239
   0.25000000  0.95197195  0.40686239
   0.75000000  0.04802805  0.59313761
   0.25000000  0.18077916  0.73365928
   0.75000000  0.81922084  0.26634072
   0.25000000  0.68077916  0.76634072
   0.75000000  0.31922084  0.23365928
   0.25000000  0.45471405  0.74177240
   0.75000000  0.54528595  0.25822760
   0.25000000  0.95471405  0.75822760
   0.75000000  0.04528595  0.24177240
   0.75000000  0.33524303  0.59781178
   0.25000000  0.66475697  0.40218822
   0.25000000  0.45197195  0.09313761
   0.25000000  0.16475697  0.09781178
   0.75000000  0.83524303  0.90218822
CIS                                     
           1
     4.131406    0.000000    0.000000
     0.000000   17.103629    0.000000
     0.000000    0.000000   17.617755
   Li   Bi   Se
  16   8  20
Direct configuration=     2
   0.25000000  0.19157713  0.91958351
   0.25000000  0.69157713  0.58041649
   0.75000000  0.80842287  0.08041649
   0.25000000  0.42848303  0.91711022
   0.75000000  0.57151697  0.08288978
   0.25000000  0.92848303  0.58288978
   0.75000000  0.07151697  0.41711022
   0.25000000  0.18491129  0.26469754
   0.75000000  0.81508871  0.73530246
   0.25000000  0.68491129  0.23530246
   0.75000000  0.31508871  0.76469754
   0.25000000  0.18315711  0.56986465
   0.75000000  0.81684289  0.43013535
   0.25000000  0.68315711  0.93013535
   0.75000000  0.31684289  0.06986465
   0.75000000  0.30842287  0.41958351
   0.75000000  0.57012253  0.75662021
   0.25000000  0.42987747  0.24337979
   0.25000000  0.92987747  0.25662021
   0.75000000  0.07012253  0.74337979
   0.25000000  0.44198137  0.58805579
   0.75000000  0.55801863  0.41194421
   0.25000000  0.94198137  0.91194421
   0.75000000  0.05801863  0.08805579
   0.25000000  0.43280028  0.41828152
   0.75000000  0.56719972  0.58171848
   0.25000000  0.93280028  0.08171848
   0.75000000  0.06719972  0.91828152
   0.75000000  0.54794267  0.90777173
   0.25000000  0.95205733  0.40777173
   0.75000000  0.04794267  0.59222827
   0.25000000  0.18175031  0.73383747
   0.75000000  0.81824969  0.26616253
   0.25000000  0.68175031  0.76616253
   0.75000000  0.31824969  0.23383747
   0.25000000  0.45381787  0.74262842
   0.75000000  0.54618213  0.25737158
   0.25000000  0.95381787  0.75737158
   0.75000000  0.04618213  0.24262842
   0.75000000  0.33418148  0.59765503
   0.25000000  0.66581852  0.40234497
   0.25000000  0.45205733  0.09222827
   0.25000000  0.16581852  0.09765503
   0.75000000  0.83418148  0.90234497
CIS                                     
           1
     4.184357    0.000000    0.000000
     0.000000   17.101046    0.000000
     0.000000    0.000000   17.684002
   Li   Bi   Se
  16   8  20
Direct configuration=     3
   0.25000000  0.18975036  0.91959216
   0.25000000  0.68975036  0.58040784
   0.75000000  0.81024964  0.08040784
   0.25000000  0.43051394  0.91718146
   0.75000000  0.56948606  0.08281854
   0.25000000  0.93051394  0.58281854
   0.75000000  0.06948606  0.41718146
   0.25000000  0.18496057  0.26324316
   0.75000000  0.81503943  0.73675684
   0.25000000  0.68496057  0.23675684
   0.75000000  0.31503943  0.76324316
   0.25000000  0.18271472  0.57131210
   0.75000000  0.81728528  0.42868790
   0.25000000  0.68271472  0.92868790
   0.75000000  0.31728528  0.07131210
   0.75000000  0.31024964  0.41959216
   0.75000000  0.57046574  0.75563858
   0.25000000  0.42953426  0.24436142
   0.25000000  0.92953426  0.25563858
   0.75000000  0.07046574  0.74436142
   0.25000000  0.44287990  0.58641162
   0.75000000  0.55712010  0.41358838
   0.25000000  0.94287990  0.91358838
   0.75000000  0.05712010  0.08641162
   0.25000000  0.43087870  0.41837199
   0.75000000  0.56912130  0.58162801
   0.25000000  0.93087870  0.08162801
   0.75000000  0.06912130  0.91837199
   0.75000000  0.54768654  0.91049634
   0.25000000  0.95231346  0.41049634
   0.75000000  0.04768654  0.58950366
   0.25000000  0.18466392  0.73437139
   0.75000000  0.81533608  0.26562861
   0.25000000  0.68466392  0.76562861
   0.75000000  0.31533608  0.23437139
   0.25000000  0.45112921  0.74519326
   0.75000000  0.54887079  0.25480674
   0.25000000  0.95112921  0.75480674
   0.75000000  0.04887079  0.24519326
   0.75000000  0.33099667  0.59718537
   0.25000000  0.66900333  0.40281463
   0.25000000  0.45231346  0.08950366
   0.25000000  0.16900333  0.09718537
   0.75000000  0.83099667  0.90281463
CIS                                     
           1
     4.290260    0.000000    0.000000
     0.000000   17.095880    0.000000
     0.000000    0.000000   17.816495
   Li   Bi   Se
  16   8  20
Direct configuration=     4
   0.25000000  0.18609627  0.91960940
   0.25000000  0.68609627  0.58039060
   0.75000000  0.81390373  0.08039060
   0.25000000  0.43457636  0.91732339
   0.75000000  0.56542364  0.08267661
   0.25000000  0.93457636  0.58267661
   0.75000000  0.06542364  0.41732339
   0.25000000  0.18505914  0.26034531
   0.75000000  0.81494086  0.73965469
   0.25000000  0.68505914  0.23965469
   0.75000000  0.31494086  0.76034531
   0.25000000  0.18182982  0.57419616
   0.75000000  0.81817018  0.42580384
   0.25000000  0.68182982  0.92580384
   0.75000000  0.31817018  0.07419616
   0.75000000  0.31390373  0.41960940
   0.75000000  0.57115228  0.75368268
   0.25000000  0.42884772  0.24631732
   0.25000000  0.92884772  0.25368268
   0.75000000  0.07115228  0.74631732
   0.25000000  0.44467722  0.58313559
   0.75000000  0.55532278  0.41686441
   0.25000000  0.94467722  0.91686441
   0.75000000  0.05532278  0.08313559
   0.25000000  0.42703494  0.41855225
   0.75000000  0.57296506  0.58144775
   0.25000000  0.92703494  0.08144775
   0.75000000  0.07296506  0.91855225
   0.75000000  0.54717418  0.91592514
   0.25000000  0.95282582  0.41592514
   0.75000000  0.04717418  0.58407486
   0.25000000  0.19049202  0.73543521
   0.75000000  0.80950798  0.26456479
   0.25000000  0.69049202  0.76456479
   0.75000000  0.30950798  0.23543521
   0.25000000  0.44575107  0.75030372
   0.75000000  0.55424893  0.24969628
   0.25000000  0.94575107  0.74969628
   0.75000000  0.05424893  0.25030372
   0.75000000  0.32462608  0.59624957
   0.25000000  0.67537392  0.40375043
   0.25000000  0.45282582  0.08407486
   0.25000000  0.17537392  0.09624957
   0.75000000  0.82462608  0.90375043
CIS                                     
           1
     4.276911    0.000000    0.000000
     0.000000   16.877726    0.000000
     0.000000    0.000000   17.658755
   Li   Bi   Se
  16   8  20
Direct configuration=     5
   0.25000000  0.18438044  0.91965814
   0.25000000  0.68438044  0.58034186
   0.75000000  0.81561956  0.08034186
   0.25000000  0.43672479  0.91743836
   0.75000000  0.56327521  0.08256164
   0.25000000  0.93672479  0.58256164
   0.75000000  0.06327521  0.41743836
   0.25000000  0.18506397  0.25887252
   0.75000000  0.81493603  0.74112748
   0.25000000  0.68506397  0.24112748
   0.75000000  0.31493603  0.75887252
   0.25000000  0.18130870  0.57563544
   0.75000000  0.81869130  0.42436456
   0.25000000  0.68130870  0.92436456
   0.75000000  0.31869130  0.07563544
   0.75000000  0.31561956  0.41965814
   0.75000000  0.57132089  0.75418155
   0.25000000  0.42867911  0.24581845
   0.25000000  0.92867911  0.25418155
   0.75000000  0.07132089  0.74581845
   0.25000000  0.44422170  0.58289155
   0.75000000  0.55577830  0.41710845
   0.25000000  0.94422170  0.91710845
   0.75000000  0.05577830  0.08289155
   0.25000000  0.42566650  0.41861601
   0.75000000  0.57433350  0.58138399
   0.25000000  0.92566650  0.08138399
   0.75000000  0.07433350  0.91861601
   0.75000000  0.54729010  0.91726654
   0.25000000  0.95270990  0.41726654
   0.75000000  0.04729010  0.58273346
   0.25000000  0.19223051  0.73622905
   0.75000000  0.80776949  0.26377095
   0.25000000  0.69223051  0.76377095
   0.75000000  0.30776949  0.23622905
   0.25000000  0.44411165  0.75168677
   0.75000000  0.55588835  0.24831323
   0.25000000  0.94411165  0.74831323
   0.75000000  0.05588835  0.25168677
   0.75000000  0.32312122  0.59548400
   0.25000000  0.67687878  0.40451600
   0.25000000  0.45270990  0.08273346
   0.25000000  0.17687878  0.09548400
   0.75000000  0.82312122  0.90451600
CIS                                     
           1
     4.236865    0.000000    0.000000
     0.000000   16.223267    0.000000
     0.000000    0.000000   17.185532
   Li   Bi   Se
  16   8  20
Direct configuration=     6
   0.25000000  0.17916642  0.91980567
   0.25000000  0.67916642  0.58019433
   0.75000000  0.82083358  0.08019433
   0.25000000  0.44325341  0.91778633
   0.75000000  0.55674659  0.08221367
   0.25000000  0.94325341  0.58221367
   0.75000000  0.05674659  0.41778633
   0.25000000  0.18507867  0.25441469
   0.75000000  0.81492133  0.74558531
   0.25000000  0.68507867  0.24558531
   0.75000000  0.31492133  0.75441469
   0.25000000  0.17972513  0.57999187
   0.75000000  0.82027487  0.42000813
   0.25000000  0.67972513  0.92000813
   0.75000000  0.32027487  0.07999187
   0.75000000  0.32083358  0.41980567
   0.75000000  0.57183327  0.75569154
   0.25000000  0.42816673  0.24430846
   0.25000000  0.92816673  0.25569154
   0.75000000  0.07183327  0.74430846
   0.25000000  0.44283747  0.58215286
   0.75000000  0.55716253  0.41784714
   0.25000000  0.94283747  0.91784714
   0.75000000  0.05716253  0.08215286
   0.25000000  0.42150812  0.41880899
   0.75000000  0.57849188  0.58119101
   0.25000000  0.92150812  0.08119101
   0.75000000  0.07849188  0.91880899
   0.75000000  0.54764237  0.92132671
   0.25000000  0.95235763  0.42132671
   0.75000000  0.04764237  0.57867329
   0.25000000  0.19751336  0.73863182
   0.75000000  0.80248664  0.26136818
   0.25000000  0.69751336  0.76136818
   0.75000000  0.30248664  0.23863182
   0.25000000  0.43912984  0.75587297
   0.75000000  0.56087016  0.24412703
   0.25000000  0.93912984  0.74412703
   0.75000000  0.06087016  0.25587297
   0.75000000  0.31854826  0.59316676
   0.25000000  0.68145174  0.40683324
   0.25000000  0.45235763  0.07867329
   0.25000000  0.18145174  0.09316676
   0.75000000  0.81854826  0.90683324
CIS                                     
           1
     4.156773    0.000000    0.000000
     0.000000   14.914348    0.000000
     0.000000    0.000000   16.239087
   Li   Bi   Se
  16   8  20
Direct configuration=     7
   0.25000000  0.16831770  0.92010887
   0.25000000  0.66831770  0.57989113
   0.75000000  0.83168230  0.07989113
   0.25000000  0.45683737  0.91850144
   0.75000000  0.54316263  0.08149856
   0.25000000  0.95683737  0.58149856
   0.75000000  0.04316263  0.41850144
   0.25000000  0.18510925  0.24525352
   0.75000000  0.81489075  0.75474648
   0.25000000  0.68510925  0.25474648
   0.75000000  0.31489075  0.74525352
   0.25000000  0.17643024  0.58894464
   0.75000000  0.82356976  0.41105536
   0.25000000  0.67643024  0.91105536
   0.75000000  0.32356976  0.08894464
   0.75000000  0.33168230  0.42010887
   0.75000000  0.57289936  0.75879468
   0.25000000  0.42710064  0.24120532
   0.25000000  0.92710064  0.25879468
   0.75000000  0.07289936  0.74120532
   0.25000000  0.43995734  0.58063482
   0.75000000  0.56004266  0.41936518
   0.25000000  0.93995734  0.91936518
   0.75000000  0.06004266  0.08063482
   0.25000000  0.41285585  0.41920558
   0.75000000  0.58714415  0.58079442
   0.25000000  0.91285585  0.08079442
   0.75000000  0.08714415  0.91920558
   0.75000000  0.54837532  0.92967065
   0.25000000  0.95162468  0.42967065
   0.75000000  0.04837532  0.57032935
   0.25000000  0.20850531  0.74356970
   0.75000000  0.79149469  0.25643030
   0.25000000  0.70850531  0.75643030
   0.75000000  0.29149469  0.24356970
   0.25000000  0.42876426  0.76447592
   0.75000000  0.57123574  0.23552408
   0.25000000  0.92876426  0.73552408
   0.75000000  0.07123574  0.26447592
   0.75000000  0.30903339  0.58840467
   0.25000000  0.69096661  0.41159533
   0.25000000  0.45162468  0.07032935
   0.25000000  0.19096661  0.08840467
   0.75000000  0.80903339  0.91159533
CIS                                     
           1
     4.201518    0.000000    0.000000
     0.000000   15.645598    0.000000
     0.000000    0.000000   16.767835
   Li   Bi   Se
  16   8  20
Direct configuration=     8
   0.25000000  0.17491044  0.91992961
   0.25000000  0.67491044  0.58007039
   0.75000000  0.82508956  0.08007039
   0.25000000  0.44858243  0.91807865
   0.75000000  0.55141757  0.08192135
   0.25000000  0.94858243  0.58192135
   0.75000000  0.05141757  0.41807865
   0.25000000  0.18509067  0.25066985
   0.75000000  0.81490933  0.74933015
   0.25000000  0.68509067  0.24933015
   0.75000000  0.31490933  0.75066985
   0.25000000  0.17843254  0.58365151
   0.75000000  0.82156746  0.41634849
   0.25000000  0.67843254  0.91634849
   0.75000000  0.32156746  0.08365151
   0.75000000  0.32508956  0.41992961
   0.75000000  0.57225150  0.75696002
   0.25000000  0.42774850  0.24303998
   0.25000000  0.92774850  0.25696002
   0.75000000  0.07225150  0.74303998
   0.25000000  0.44170759  0.58153233
   0.75000000  0.55829241  0.41846767
   0.25000000  0.94170759  0.91846767
   0.75000000  0.05829241  0.08153233
   0.25000000  0.41811381  0.41897110
   0.75000000  0.58188619  0.58102890
   0.25000000  0.91811381  0.08102890
   0.75000000  0.08188619  0.91897110
   0.75000000  0.54792991  0.92473748
   0.25000000  0.95207009  0.42473748
   0.75000000  0.04792991  0.57526252
   0.25000000  0.20182553  0.74065029
   0.75000000  0.79817447  0.25934971
   0.25000000  0.70182553  0.75934971
   0.75000000  0.29817447  0.24065029
   0.25000000  0.43506339  0.75938961
   0.75000000  0.56493661  0.24061039
   0.25000000  0.93506339  0.74061039
   0.75000000  0.06493661  0.25938961
   0.75000000  0.31481555  0.59122015
   0.25000000  0.68518445  0.40877985
   0.25000000  0.45207009  0.07526252
   0.25000000  0.18518445  0.09122015
   0.75000000  0.81481555  0.90877985
CIS                                     
           1
     4.190211    0.000000    0.000000
     0.000000   15.587003    0.000000
     0.000000    0.000000   16.903372
   Li   Bi   Se
  16   8  20
Direct configuration=     9
   0.25000000  0.17369414  0.91994952
   0.25000000  0.67369414  0.58005048
   0.75000000  0.82630586  0.08005048
   0.25000000  0.45128590  0.91819915
   0.75000000  0.54871410  0.08180085
   0.25000000  0.95128590  0.58180085
   0.75000000  0.04871410  0.41819915
   0.25000000  0.18487896  0.24895553
   0.75000000  0.81512104  0.75104447
   0.25000000  0.68487896  0.25104447
   0.75000000  0.31512104  0.74895553
   0.25000000  0.17737747  0.58526245
   0.75000000  0.82262253  0.41473755
   0.25000000  0.67737747  0.91473755
   0.75000000  0.32262253  0.08526245
   0.75000000  0.32630586  0.41994952
   0.75000000  0.57203148  0.75972264
   0.25000000  0.42796852  0.24027736
   0.25000000  0.92796852  0.25972264
   0.75000000  0.07203148  0.74027736
   0.25000000  0.43914597  0.58416108
   0.75000000  0.56085403  0.41583892
   0.25000000  0.93914597  0.91583892
   0.75000000  0.06085403  0.08416108
   0.25000000  0.41660528  0.41802467
   0.75000000  0.58339472  0.58197533
   0.25000000  0.91660528  0.08197533
   0.75000000  0.08339472  0.91802467
   0.75000000  0.54928271  0.92510684
   0.25000000  0.95071729  0.42510684
   0.75000000  0.04928271  0.57489316
   0.25000000  0.20297761  0.74239808
   0.75000000  0.79702239  0.25760192
   0.25000000  0.70297761  0.75760192
   0.75000000  0.29702239  0.24239808
   0.25000000  0.43363515  0.76036008
   0.75000000  0.56636485  0.23963992
   0.25000000  0.93363515  0.73963992
   0.75000000  0.06636485  0.26036008
   0.75000000  0.31371788  0.58954892
   0.25000000  0.68628212  0.41045108
   0.25000000  0.45071729  0.07489316
   0.25000000  0.18628212  0.08954892
   0.75000000  0.81371788  0.91045108
CIS                                     
           1
     4.169401    0.000000    0.000000
     0.000000   15.479166    0.000000
     0.000000    0.000000   17.152811
   Li   Bi   Se
  16   8  20
Direct configuration=    10
   0.25000000  0.17144728  0.91998586
   0.25000000  0.67144728  0.58001414
   0.75000000  0.82855272  0.08001414
   0.25000000  0.45628000  0.91841913
   0.75000000  0.54372000  0.08158087
   0.25000000  0.95628000  0.58158087
   0.75000000  0.04372000  0.41841913
   0.25000000  0.18448787  0.24582584
   0.75000000  0.81551213  0.75417416
   0.25000000  0.68448787  0.25417416
   0.75000000  0.31551213  0.74582584
   0.25000000  0.17542844  0.58820339
   0.75000000  0.82457156  0.41179661
   0.25000000  0.67542844  0.91179661
   0.75000000  0.32457156  0.08820339
   0.75000000  0.32855272  0.41998586
   0.75000000  0.57162505  0.76476610
   0.25000000  0.42837495  0.23523390
   0.25000000  0.92837495  0.26476610
   0.75000000  0.07162505  0.73523390
   0.25000000  0.43441392  0.58896015
   0.75000000  0.56558608  0.41103985
   0.25000000  0.93441392  0.91103985
   0.75000000  0.06558608  0.08896015
   0.25000000  0.41381858  0.41629685
   0.75000000  0.58618142  0.58370315
   0.25000000  0.91381858  0.08370315
   0.75000000  0.08618142  0.91629685
   0.75000000  0.55178173  0.92578115
   0.25000000  0.94821827  0.42578115
   0.75000000  0.05178173  0.57421885
   0.25000000  0.20510583  0.74558888
   0.75000000  0.79489417  0.25441112
   0.25000000  0.70510583  0.75441112
   0.75000000  0.29489417  0.24558888
   0.25000000  0.43099677  0.76213177
   0.75000000  0.56900323  0.23786823
   0.25000000  0.93099677  0.73786823
   0.75000000  0.06900323  0.26213177
   0.75000000  0.31169016  0.58649789
   0.25000000  0.68830984  0.41350211
   0.25000000  0.44821827  0.07421885
   0.25000000  0.18830984  0.08649789
   0.75000000  0.81169016  0.91350211
CIS                                     
           1
     4.166574    0.000000    0.000000
     0.000000   15.464514    0.000000
     0.000000    0.000000   17.186702
   Li   Bi   Se
  16   8  20
Direct configuration=    11
   0.25000000  0.17113987  0.91999073
   0.25000000  0.67113987  0.58000927
   0.75000000  0.82886013  0.08000927
   0.25000000  0.45696327  0.91844858
   0.75000000  0.54303673  0.08155142
   0.25000000  0.95696327  0.58155142
   0.75000000  0.04303673  0.41844858
   0.25000000  0.18443437  0.24540680
   0.75000000  0.81556563  0.75459320
   0.25000000  0.68443437  0.25459320
   0.75000000  0.31556563  0.74540680
   0.25000000  0.17516178  0.58859717
   0.75000000  0.82483822  0.41140283
   0.25000000  0.67516178  0.91140283
   0.75000000  0.32483822  0.08859717
   0.75000000  0.32886013  0.41999073
   0.75000000  0.57156944  0.76544139
   0.25000000  0.42843056  0.23455861
   0.25000000  0.92843056  0.26544139
   0.75000000  0.07156944  0.73455861
   0.25000000  0.43376651  0.58960272
   0.75000000  0.56623349  0.41039728
   0.25000000  0.93376651  0.91039728
   0.75000000  0.06623349  0.08960272
   0.25000000  0.41343731  0.41606550
   0.75000000  0.58656269  0.58393450
   0.25000000  0.91343731  0.08393450
   0.75000000  0.08656269  0.91606550
   0.75000000  0.55212364  0.92587144
   0.25000000  0.94787636  0.42587144
   0.75000000  0.05212364  0.57412856
   0.25000000  0.20539700  0.74601610
   0.75000000  0.79460300  0.25398390
   0.25000000  0.70539700  0.75398390
   0.75000000  0.29460300  0.24601610
   0.25000000  0.43063580  0.76236899
   0.75000000  0.56936420  0.23763101
   0.25000000  0.93063580  0.73763101
   0.75000000  0.06936420  0.26236899
   0.75000000  0.31141273  0.58608938
   0.25000000  0.68858727  0.41391062
   0.25000000  0.44787636  0.07412856
   0.25000000  0.18858727  0.08608938
   0.75000000  0.81141273  0.91391062
CIS                                     
           1
     4.173660    0.000000    0.000000
     0.000000   15.578267    0.000000
     0.000000    0.000000   17.195447
   Li   Bi   Se
  16   8  20
Direct configuration=    12
   0.25000000  0.17098460  0.91983219
   0.25000000  0.67098460  0.58016781
   0.75000000  0.82901540  0.08016781
   0.25000000  0.45854128  0.91849502
   0.75000000  0.54145872  0.08150498
   0.25000000  0.95854128  0.58150498
   0.75000000  0.04145872  0.41849502
   0.25000000  0.18441009  0.24418965
   0.75000000  0.81558991  0.75581035
   0.25000000  0.68441009  0.25581035
   0.75000000  0.31558991  0.74418965
   0.25000000  0.17446774  0.58983639
   0.75000000  0.82553226  0.41016361
   0.25000000  0.67446774  0.91016361
   0.75000000  0.32553226  0.08983639
   0.75000000  0.32901540  0.41983219
   0.75000000  0.57220482  0.76565708
   0.25000000  0.42779518  0.23434292
   0.25000000  0.92779518  0.26565708
   0.75000000  0.07220482  0.73434292
   0.25000000  0.43377018  0.58988784
   0.75000000  0.56622982  0.41011216
   0.25000000  0.93377018  0.91011216
   0.75000000  0.06622982  0.08988784
   0.25000000  0.41457082  0.41616775
   0.75000000  0.58542918  0.58383225
   0.25000000  0.91457082  0.08383225
   0.75000000  0.08542918  0.91616775
   0.75000000  0.55397394  0.92624073
   0.25000000  0.94602606  0.42624073
   0.75000000  0.05397394  0.57375927
   0.25000000  0.20448546  0.74687834
   0.75000000  0.79551454  0.25312166
   0.25000000  0.70448546  0.75312166
   0.75000000  0.29551454  0.24687834
   0.25000000  0.43020650  0.76251836
   0.75000000  0.56979350  0.23748164
   0.25000000  0.93020650  0.73748164
   0.75000000  0.06979350  0.26251836
   0.75000000  0.30979799  0.58510400
   0.25000000  0.69020201  0.41489600
   0.25000000  0.44602606  0.07375927
   0.25000000  0.19020201  0.08510400
   0.75000000  0.80979799  0.91489600
CIS                                     
           1
     4.194917    0.000000    0.000000
     0.000000   15.919528    0.000000
     0.000000    0.000000   17.221683
   Li   Bi   Se
  16   8  20
Direct configuration=    13
   0.25000000  0.17052218  0.91935683
   0.25000000  0.67052218  0.58064317
   0.75000000  0.82947782  0.08064317
   0.25000000  0.46324077  0.91863427
   0.75000000  0.53675923  0.08136573
   0.25000000  0.96324077  0.58136573
   0.75000000  0.03675923  0.41863427
   0.25000000  0.18433779  0.24054006
   0.75000000  0.81566221  0.75945994
   0.25000000  0.68433779  0.25945994
   0.75000000  0.31566221  0.74054006
   0.25000000  0.17240083  0.59355218
   0.75000000  0.82759917  0.40644782
   0.25000000  0.67240083  0.90644782
   0.75000000  0.32759917  0.09355218
   0.75000000  0.32947782  0.41935683
   0.75000000  0.57409703  0.76630384
   0.25000000  0.42590297  0.23369616
   0.25000000  0.92590297  0.26630384
   0.75000000  0.07409703  0.73369616
   0.25000000  0.43378113  0.59074278
   0.75000000  0.56621887  0.40925722
   0.25000000  0.93378113  0.90925722
   0.75000000  0.06621887  0.09074278
   0.25000000  0.41794653  0.41647435
   0.75000000  0.58205347  0.58352565
   0.25000000  0.91794653  0.08352565
   0.75000000  0.08205347  0.91647435
   0.75000000  0.55948431  0.92734805
   0.25000000  0.94051569  0.42734805
   0.75000000  0.05948431  0.57265195
   0.25000000  0.20177080  0.74946373
   0.75000000  0.79822920  0.25053627
   0.25000000  0.70177080  0.75053627
   0.75000000  0.29822920  0.24946373
   0.25000000  0.42892801  0.76296624
   0.75000000  0.57107199  0.23703376
   0.25000000  0.92892801  0.73703376
   0.75000000  0.07107199  0.26296624
   0.75000000  0.30498912  0.58214936
   0.25000000  0.69501088  0.41785064
   0.25000000  0.44051569  0.07265195
   0.25000000  0.19501088  0.08214936
   0.75000000  0.80498912  0.91785064
CIS                                     
           1
     4.180140    0.000000    0.000000
     0.000000   15.936231    0.000000
     0.000000    0.000000   17.177097
   Li   Bi   Se
  16   8  20
Direct configuration=    14
   0.25000000  0.17037816  0.91925727
   0.25000000  0.67037816  0.58074273
   0.75000000  0.82962184  0.08074273
   0.25000000  0.46436298  0.91865041
   0.75000000  0.53563702  0.08134959
   0.25000000  0.96436298  0.58134959
   0.75000000  0.03563702  0.41865041
   0.25000000  0.18428820  0.23960354
   0.75000000  0.81571180  0.76039646
   0.25000000  0.68428820  0.26039646
   0.75000000  0.31571180  0.73960354
   0.25000000  0.17204011  0.59439180
   0.75000000  0.82795989  0.40560820
   0.25000000  0.67204011  0.90560820
   0.75000000  0.32795989  0.09439180
   0.75000000  0.32962184  0.41925727
   0.75000000  0.57429786  0.76616155
   0.25000000  0.42570214  0.23383845
   0.25000000  0.92570214  0.26616155
   0.75000000  0.07429786  0.73383845
   0.25000000  0.43341814  0.59077594
   0.75000000  0.56658186  0.40922406
   0.25000000  0.93341814  0.90922406
   0.75000000  0.06658186  0.09077594
   0.25000000  0.41913837  0.41660176
   0.75000000  0.58086163  0.58339824
   0.25000000  0.91913837  0.08339824
   0.75000000  0.08086163  0.91660176
   0.75000000  0.56081800  0.92752287
   0.25000000  0.93918200  0.42752287
   0.75000000  0.06081800  0.57247713
   0.25000000  0.20093917  0.75008597
   0.75000000  0.79906083  0.24991403
   0.25000000  0.70093917  0.74991403
   0.75000000  0.29906083  0.25008597
   0.25000000  0.42881840  0.76302661
   0.75000000  0.57118160  0.23697339
   0.25000000  0.92881840  0.73697339
   0.75000000  0.07118160  0.26302661
   0.75000000  0.30446399  0.58148727
   0.25000000  0.69553601  0.41851273
   0.25000000  0.43918200  0.07247713
   0.25000000  0.19553601  0.08148727
   0.75000000  0.80446399  0.91851273
CIS                                     
           1
     4.135810    0.000000    0.000000
     0.000000   15.986341    0.000000
     0.000000    0.000000   17.043340
   Li   Bi   Se
  16   8  20
Direct configuration=    15
   0.25000000  0.16994654  0.91895782
   0.25000000  0.66994654  0.58104218
   0.75000000  0.83005346  0.08104218
   0.25000000  0.46772608  0.91869896
   0.75000000  0.53227392  0.08130104
   0.25000000  0.96772608  0.58130104
   0.75000000  0.03227392  0.41869896
   0.25000000  0.18413959  0.23678667
   0.75000000  0.81586041  0.76321333
   0.25000000  0.68413959  0.26321333
   0.75000000  0.31586041  0.73678667
   0.25000000  0.17095908  0.59691717
   0.75000000  0.82904092  0.40308283
   0.25000000  0.67095908  0.90308283
   0.75000000  0.32904092  0.09691717
   0.75000000  0.33005346  0.41895782
   0.75000000  0.57489972  0.76573356
   0.25000000  0.42510028  0.23426644
   0.25000000  0.92510028  0.26573356
   0.75000000  0.07489972  0.73426644
   0.25000000  0.43233031  0.59087568
   0.75000000  0.56766969  0.40912432
   0.25000000  0.93233031  0.90912432
   0.75000000  0.06766969  0.09087568
   0.25000000  0.42271017  0.41698499
   0.75000000  0.57728983  0.58301501
   0.25000000  0.92271017  0.08301501
   0.75000000  0.07728983  0.91698499
   0.75000000  0.56481490  0.92804869
   0.25000000  0.93518510  0.42804869
   0.75000000  0.06481490  0.57195131
   0.25000000  0.19844688  0.75195756
   0.75000000  0.80155312  0.24804244
   0.25000000  0.69844688  0.74804244
   0.75000000  0.30155312  0.25195756
   0.25000000  0.42848992  0.76320819
   0.75000000  0.57151008  0.23679181
   0.25000000  0.92848992  0.73679181
   0.75000000  0.07151008  0.26320819
   0.75000000  0.30289025  0.57949586
   0.25000000  0.69710975  0.42050414
   0.25000000  0.43518510  0.07195131
   0.25000000  0.19710975  0.07949586
   0.75000000  0.80289025  0.92050414
CIS                                     
           1
     4.047149    0.000000    0.000000
     0.000000   16.086561    0.000000
     0.000000    0.000000   16.775825
   Li   Bi   Se
  16   8  20
Direct configuration=    16
   0.25000000  0.16908601  0.91835423
   0.25000000  0.66908601  0.58164577
   0.75000000  0.83091399  0.08164577
   0.25000000  0.47443119  0.91879682
   0.75000000  0.52556881  0.08120318
   0.25000000  0.97443119  0.58120318
   0.75000000  0.02556881  0.41879682
   0.25000000  0.18384328  0.23110873
   0.75000000  0.81615672  0.76889127
   0.25000000  0.68384328  0.26889127
   0.75000000  0.31615672  0.73110873
   0.25000000  0.16880379  0.60200756
   0.75000000  0.83119621  0.39799244
   0.25000000  0.66880379  0.89799244
   0.75000000  0.33119621  0.10200756
   0.75000000  0.33091399  0.41835423
   0.75000000  0.57609965  0.76487086
   0.25000000  0.42390035  0.23512914
   0.25000000  0.92390035  0.26487086
   0.75000000  0.07609965  0.73512914
   0.25000000  0.43016146  0.59107673
   0.75000000  0.56983854  0.40892327
   0.25000000  0.93016146  0.90892327
   0.75000000  0.06983854  0.09107673
   0.25000000  0.42983137  0.41775745
   0.75000000  0.57016863  0.58224255
   0.25000000  0.92983137  0.08224255
   0.75000000  0.07016863  0.91775745
   0.75000000  0.57278363  0.92910859
   0.25000000  0.92721637  0.42910859
   0.75000000  0.07278363  0.57089141
   0.25000000  0.19347793  0.75573010
   0.75000000  0.80652207  0.24426990
   0.25000000  0.69347793  0.74426990