  26  26   1   0
  0.3107878E+02  0.7609531E-09  0.9623478E-09  0.1151339E-08  0.1000000E-15
  1.000000000000000E-004
  CAR 
 CIS                                     
      7.39281844    -12.42063158  301      2.04525084      1.00000000
    -12.421  0.0000E+00  0.0000E+00
    -12.355  0.0000E+00  0.0000E+00
    -12.289  0.0000E+00  0.0000E+00
    -12.222  0.0000E+00  0.0000E+00
    -12.156  0.0000E+00  0.0000E+00
    -12.090  0.0000E+00  0.0000E+00
    -12.024  0.0000E+00  0.0000E+00
    -11.958  0.0000E+00  0.0000E+00
    -11.892  0.0000E+00  0.0000E+00
    -11.826  0.0000E+00  0.0000E+00
    -11.760  0.2804E-12  0.1852E-13
    -11.694  0.2161E-07  0.1427E-08
    -11.628  0.5858E-04  0.3870E-05
    -11.562  0.7185E-02  0.4784E-03
    -11.496  0.8581E-01  0.6145E-02
    -11.430  0.1912E+00  0.1877E-01
    -11.364  0.1189E+00  0.2663E-01
    -11.298  0.1495E+00  0.3650E-01
    -11.232  0.2225E+00  0.5120E-01
    -11.166  0.7195E+00  0.9872E-01
    -11.100  0.7669E+00  0.1494E+00
    -11.034  0.3413E+00  0.1719E+00
    -10.968  0.1822E+00  0.1839E+00
    -10.902  0.2541E+00  0.2007E+00
    -10.836  0.6067E+00  0.2408E+00
    -10.770  0.5265E+00  0.2756E+00
    -10.703  0.2615E+00  0.2928E+00
    -10.637  0.1654E+00  0.3038E+00
    -10.571  0.1360E+00  0.3127E+00
    -10.505  0.1480E+00  0.3225E+00
    -10.439  0.1167E+00  0.3302E+00
    -10.373  0.1522E+00  0.3403E+00
    -10.307  0.1854E+00  0.3525E+00
    -10.241  0.1369E+00  0.3616E+00
    -10.175  0.3197E-01  0.3637E+00
    -10.109  0.3306E-01  0.3659E+00
    -10.043  0.1284E+00  0.3743E+00
     -9.977  0.1789E+00  0.3862E+00
     -9.911  0.2063E+00  0.3998E+00
     -9.845  0.9678E-01  0.4062E+00
     -9.779  0.1912E+00  0.4188E+00
     -9.713  0.2945E+00  0.4383E+00
     -9.647  0.3248E+00  0.4597E+00
     -9.581  0.3147E+00  0.4805E+00
     -9.515  0.2678E+00  0.4982E+00
     -9.449  0.3107E+00  0.5187E+00
     -9.383  0.9520E-01  0.5250E+00
     -9.317  0.4150E-02  0.5253E+00
     -9.250  0.1303E-04  0.5253E+00
     -9.184  0.1810E-08  0.5253E+00
     -9.118  0.9090E-14  0.5253E+00
     -9.052  0.0000E+00  0.5253E+00
     -8.986  0.0000E+00  0.5253E+00
     -8.920  0.0000E+00  0.5253E+00
     -8.854  0.0000E+00  0.5253E+00
     -8.788  0.0000E+00  0.5253E+00
     -8.722  0.0000E+00  0.5253E+00
     -8.656  0.0000E+00  0.5253E+00
     -8.590  0.0000E+00  0.5253E+00
     -8.524  0.0000E+00  0.5253E+00
     -8.458  0.0000E+00  0.5253E+00
     -8.392  0.0000E+00  0.5253E+00
     -8.326  0.0000E+00  0.5253E+00
     -8.260  0.0000E+00  0.5253E+00
     -8.194  0.0000E+00  0.5253E+00
     -8.128  0.0000E+00  0.5253E+00
     -8.062  0.0000E+00  0.5253E+00
     -7.996  0.0000E+00  0.5253E+00
     -7.930  0.0000E+00  0.5253E+00
     -7.864  0.0000E+00  0.5253E+00
     -7.797  0.0000E+00  0.5253E+00
     -7.731  0.0000E+00  0.5253E+00
     -7.665  0.0000E+00  0.5253E+00
     -7.599  0.0000E+00  0.5253E+00
     -7.533  0.0000E+00  0.5253E+00
     -7.467  0.0000E+00  0.5253E+00
     -7.401  0.0000E+00  0.5253E+00
     -7.335  0.0000E+00  0.5253E+00
     -7.269  0.0000E+00  0.5253E+00
     -7.203  0.0000E+00  0.5253E+00
     -7.137  0.1896E-15  0.5253E+00
     -7.071  0.1049E-09  0.5253E+00
     -7.005  0.1957E-05  0.5253E+00
     -6.939  0.1397E-02  0.5253E+00
     -6.873  0.4906E-01  0.5286E+00
     -6.807  0.1273E+00  0.5370E+00
     -6.741  0.8964E-01  0.5429E+00
     -6.675  0.1686E+00  0.5540E+00
     -6.609  0.1149E+00  0.5616E+00
     -6.543  0.5773E-01  0.5655E+00
     -6.477  0.4921E-01  0.5687E+00
     -6.411  0.1309E+00  0.5773E+00
     -6.345  0.1557E+00  0.5876E+00
     -6.278  0.1420E+00  0.5970E+00
     -6.212  0.9496E-01  0.6033E+00
     -6.146  0.4032E-01  0.6059E+00
     -6.080  0.2418E-01  0.6075E+00
     -6.014  0.5218E-01  0.6110E+00
     -5.948  0.5765E-01  0.6148E+00
     -5.882  0.5002E-01  0.6181E+00
     -5.816  0.7463E-01  0.6230E+00
     -5.750  0.4582E-01  0.6261E+00
     -5.684  0.1067E-01  0.6268E+00
     -5.618  0.5403E-01  0.6303E+00
     -5.552  0.1413E+00  0.6397E+00
     -5.486  0.9646E-01  0.6460E+00
     -5.420  0.1572E-01  0.6471E+00
     -5.354  0.6402E-01  0.6513E+00
     -5.288  0.6486E-01  0.6556E+00
     -5.222  0.4708E-01  0.6587E+00
     -5.156  0.8913E-01  0.6646E+00
     -5.090  0.3089E-01  0.6666E+00
     -5.024  0.1351E-02  0.6667E+00
     -4.958  0.2496E-01  0.6684E+00
     -4.892  0.9873E-01  0.6749E+00
     -4.825  0.9143E-01  0.6809E+00
     -4.759  0.7100E-01  0.6856E+00
     -4.693  0.1873E-01  0.6868E+00
     -4.627  0.4925E-03  0.6869E+00
     -4.561  0.6296E-06  0.6869E+00
     -4.495  0.2942E-10  0.6869E+00
     -4.429  0.4528E-16  0.6869E+00
     -4.363  0.0000E+00  0.6869E+00
     -4.297  0.0000E+00  0.6869E+00
     -4.231  0.0000E+00  0.6869E+00
     -4.165  0.0000E+00  0.6869E+00
     -4.099  0.0000E+00  0.6869E+00
     -4.033  0.0000E+00  0.6869E+00
     -3.967  0.0000E+00  0.6869E+00
     -3.901  0.0000E+00  0.6869E+00
     -3.835  0.0000E+00  0.6869E+00
     -3.769  0.0000E+00  0.6869E+00
     -3.703  0.0000E+00  0.6869E+00
     -3.637  0.0000E+00  0.6869E+00
     -3.571  0.0000E+00  0.6869E+00
     -3.505  0.0000E+00  0.6869E+00
     -3.439  0.0000E+00  0.6869E+00
     -3.372  0.0000E+00  0.6869E+00
     -3.306  0.0000E+00  0.6869E+00
     -3.240  0.0000E+00  0.6869E+00
     -3.174  0.0000E+00  0.6869E+00
     -3.108  0.0000E+00  0.6869E+00
     -3.042  0.0000E+00  0.6869E+00
     -2.976  0.0000E+00  0.6869E+00
     -2.910  0.0000E+00  0.6869E+00
     -2.844  0.3295E-13  0.6869E+00
     -2.778  0.4392E-08  0.6869E+00
     -2.712  0.2004E-04  0.6869E+00
     -2.646  0.3620E-02  0.6871E+00
     -2.580  0.4282E-01  0.6899E+00
     -2.514  0.1020E+00  0.6967E+00
     -2.448  0.1361E+00  0.7057E+00
     -2.382  0.1542E+00  0.7159E+00
     -2.316  0.1389E+00  0.7250E+00
     -2.250  0.1128E+00  0.7325E+00
     -2.184  0.1742E+00  0.7440E+00
     -2.118  0.1431E+00  0.7534E+00
     -2.052  0.1769E+00  0.7651E+00
     -1.986  0.1822E+00  0.7771E+00
     -1.920  0.1768E+00  0.7888E+00
     -1.853  0.2179E+00  0.8032E+00
     -1.787  0.1801E+00  0.8151E+00
     -1.721  0.1478E+00  0.8249E+00
     -1.655  0.1104E+00  0.8322E+00
     -1.589  0.1544E+00  0.8424E+00
     -1.523  0.1237E+00  0.8505E+00
     -1.457  0.1364E+00  0.8595E+00
     -1.391  0.1501E+00  0.8694E+00
     -1.325  0.2026E+00  0.8828E+00
     -1.259  0.1701E+00  0.8941E+00
     -1.193  0.1087E+00  0.9012E+00
     -1.127  0.1332E+00  0.9100E+00
     -1.061  0.9257E-01  0.9162E+00
     -0.995  0.1064E+00  0.9232E+00
     -0.929  0.2051E+00  0.9367E+00
     -0.863  0.1859E+00  0.9490E+00
     -0.797  0.1902E+00  0.9616E+00
     -0.731  0.2792E+00  0.9800E+00
     -0.665  0.1675E+00  0.9911E+00
     -0.599  0.2130E+00  0.1005E+01
     -0.533  0.2277E+00  0.1020E+01
     -0.467  0.2133E+00  0.1034E+01
     -0.400  0.3031E+00  0.1054E+01
     -0.334  0.3020E+00  0.1074E+01
     -0.268  0.2298E+00  0.1089E+01
     -0.202  0.1235E+00  0.1098E+01
     -0.136  0.8647E-01  0.1103E+01
     -0.070  0.1337E+00  0.1112E+01
     -0.004  0.2548E+00  0.1129E+01
      0.062  0.2186E+00  0.1143E+01
      0.128  0.1233E+00  0.1152E+01
      0.194  0.1242E+00  0.1160E+01
      0.260  0.1373E+00  0.1169E+01
      0.326  0.1300E+00  0.1177E+01
      0.392  0.1669E+00  0.1188E+01
      0.458  0.9960E-01  0.1195E+01
      0.524  0.2625E+00  0.1212E+01
      0.590  0.3653E+00  0.1236E+01
      0.656  0.3194E+00  0.1258E+01
      0.722  0.2191E+00  0.1272E+01
      0.788  0.2800E+00  0.1290E+01
      0.854  0.3177E+00  0.1311E+01
      0.920  0.2931E+00  0.1331E+01
      0.986  0.2462E+00  0.1347E+01
      1.053  0.2178E+00  0.1361E+01
      1.119  0.1977E+00  0.1375E+01
      1.185  0.1929E+00  0.1387E+01
      1.251  0.2258E+00  0.1402E+01
      1.317  0.2603E+00  0.1419E+01
      1.383  0.3507E+00  0.1443E+01
      1.449  0.2747E+00  0.1461E+01
      1.515  0.2310E+00  0.1476E+01
      1.581  0.1871E+00  0.1488E+01
      1.647  0.2561E+00  0.1505E+01
      1.713  0.2311E+00  0.1520E+01
      1.779  0.1810E+00  0.1532E+01
      1.845  0.4309E-01  0.1535E+01
      1.911  0.9960E-03  0.1535E+01
      1.977  0.1257E-05  0.1535E+01
      2.043  0.6464E-10  0.1535E+01
      2.109  0.1132E-15  0.1535E+01
      2.175  0.0000E+00  0.1535E+01
      2.241  0.0000E+00  0.1535E+01
      2.307  0.0000E+00  0.1535E+01
      2.373  0.0000E+00  0.1535E+01
      2.439  0.0000E+00  0.1535E+01
      2.506  0.0000E+00  0.1535E+01
      2.572  0.0000E+00  0.1535E+01
      2.638  0.0000E+00  0.1535E+01
      2.704  0.0000E+00  0.1535E+01
      2.770  0.0000E+00  0.1535E+01
      2.836  0.0000E+00  0.1535E+01
      2.902  0.0000E+00  0.1535E+01
      2.968  0.0000E+00  0.1535E+01
      3.034  0.0000E+00  0.1535E+01
      3.100  0.0000E+00  0.1535E+01
      3.166  0.0000E+00  0.1535E+01
      3.232  0.0000E+00  0.1535E+01
      3.298  0.0000E+00  0.1535E+01
      3.364  0.2122E-15  0.1535E+01
      3.430  0.9572E-10  0.1535E+01
      3.496  0.1444E-05  0.1535E+01
      3.562  0.7946E-03  0.1535E+01
      3.628  0.2109E-01  0.1537E+01
      3.694  0.5487E-01  0.1540E+01
      3.760  0.2414E-01  0.1542E+01
      3.826  0.6253E-02  0.1542E+01
      3.892  0.4732E-01  0.1546E+01
      3.958  0.9179E-01  0.1552E+01
      4.025  0.1067E+00  0.1559E+01
      4.091  0.1693E+00  0.1570E+01
      4.157  0.1125E+00  0.1577E+01
      4.223  0.2065E+00  0.1591E+01
      4.289  0.2052E+00  0.1604E+01
      4.355  0.1868E+00  0.1617E+01
      4.421  0.1545E+00  0.1627E+01
      4.487  0.1739E+00  0.1638E+01
      4.553  0.1924E+00  0.1651E+01
      4.619  0.1940E+00  0.1664E+01
      4.685  0.1838E+00  0.1676E+01
      4.751  0.1692E+00  0.1687E+01
      4.817  0.1942E+00  0.1700E+01
      4.883  0.1820E+00  0.1712E+01
      4.949  0.1308E+00  0.1721E+01
      5.015  0.1609E+00  0.1731E+01
      5.081  0.1738E+00  0.1743E+01
      5.147  0.1873E+00  0.1755E+01
      5.213  0.2066E+00  0.1769E+01
      5.279  0.1645E+00  0.1780E+01
      5.345  0.2215E+00  0.1794E+01
      5.411  0.2618E+00  0.1812E+01
      5.478  0.1510E+00  0.1822E+01
      5.544  0.1169E+00  0.1829E+01
      5.610  0.1393E+00  0.1839E+01
      5.676  0.1864E+00  0.1851E+01
      5.742  0.1700E+00  0.1862E+01
      5.808  0.1817E+00  0.1874E+01
      5.874  0.1662E+00  0.1885E+01
      5.940  0.1722E+00  0.1896E+01
      6.006  0.1684E+00  0.1908E+01
      6.072  0.1123E+00  0.1915E+01
      6.138  0.1631E+00  0.1926E+01
      6.204  0.1934E+00  0.1939E+01
      6.270  0.2092E+00  0.1952E+01
      6.336  0.1349E+00  0.1961E+01
      6.402  0.1519E+00  0.1971E+01
      6.468  0.8571E-01  0.1977E+01
      6.534  0.3647E-01  0.1979E+01
      6.600  0.5935E-02  0.1980E+01
      6.666  0.5701E-04  0.1980E+01
      6.732  0.2152E-07  0.1980E+01
      6.798  0.2803E-12  0.1980E+01
      6.864  0.0000E+00  0.1980E+01
      6.931  0.0000E+00  0.1980E+01
      6.997  0.0000E+00  0.1980E+01
      7.063  0.0000E+00  0.1980E+01
      7.129  0.0000E+00  0.1980E+01
      7.195  0.0000E+00  0.1980E+01
      7.261  0.0000E+00  0.1980E+01
      7.327  0.0000E+00  0.1980E+01
      7.393  0.0000E+00  0.1980E+01
      7.39281844    -12.42063158  301      2.04525084      1.00000000
    -12.421  0.0000E+00  0.0000E+00  0.0000E+00
    -12.355  0.0000E+00  0.0000E+00  0.0000E+00
    -12.289  0.0000E+00  0.0000E+00  0.0000E+00
    -12.222  0.0000E+00  0.0000E+00  0.0000E+00
    -12.156  0.0000E+00  0.0000E+00  0.0000E+00
    -12.090  0.0000E+00  0.0000E+00  0.0000E+00
    -12.024  0.0000E+00  0.0000E+00  0.0000E+00
    -11.958  0.0000E+00  0.0000E+00  0.0000E+00
    -11.892  0.0000E+00  0.0000E+00  0.0000E+00
    -11.826  0.0000E+00  0.0000E+00  0.0000E+00
    -11.760  0.8593E-14  0.2604E-12  0.2150E-15
    -11.694  0.6613E-09  0.2020E-07  0.1657E-10
    -11.628  0.1777E-05  0.5739E-04  0.4513E-07
    -11.562  0.2055E-03  0.8994E-02  0.5804E-05
    -11.496  0.2005E-02  0.1747E+00  0.8263E-04
    -11.430  0.3797E-02  0.4739E+00  0.2060E-03
    -11.364  0.1615E-02  0.2952E+00  0.1500E-03
    -11.298  0.6105E-03  0.5054E+00  0.2257E-03
    -11.232  0.6789E-03  0.5815E+00  0.2161E-03
    -11.166  0.9422E-03  0.9827E+00  0.3241E-03
    -11.100  0.9254E-03  0.1413E+01  0.3399E-03
    -11.034  0.1052E-02  0.1964E+01  0.2986E-03
    -10.968  0.6890E-03  0.2671E+01  0.2051E-03
    -10.902  0.6415E-03  0.7630E+01  0.1985E-03
    -10.836  0.4888E-03  0.2551E+02  0.2747E-03
    -10.770  0.9395E-03  0.2167E+02  0.3640E-03
    -10.703  0.1591E-02  0.8650E+01  0.4192E-03
    -10.637  0.1391E-02  0.5086E+01  0.3993E-03
    -10.571  0.1202E-02  0.3072E+01  0.5201E-03
    -10.505  0.1286E-02  0.2446E+01  0.6014E-03
    -10.439  0.9480E-03  0.1035E+01  0.5978E-03
    -10.373  0.1066E-02  0.9281E+00  0.8227E-03
    -10.307  0.6766E-03  0.1006E+01  0.1316E-02
    -10.241  0.4031E-03  0.5691E+00  0.1404E-02
    -10.175  0.8157E-04  0.8912E-01  0.3885E-03
    -10.109  0.3239E-03  0.5379E-01  0.2056E-03
    -10.043  0.8226E-03  0.2405E+00  0.6723E-03
     -9.977  0.1042E-02  0.2649E+00  0.1263E-02
     -9.911  0.1167E-02  0.2866E+00  0.1949E-02
     -9.845  0.6239E-03  0.1350E+00  0.1081E-02
     -9.779  0.1246E-02  0.2159E+00  0.2338E-02
     -9.713  0.1254E-02  0.3202E+00  0.2769E-02
     -9.647  0.2503E-02  0.2893E+00  0.2614E-02
     -9.581  0.2811E-02  0.2576E+00  0.2083E-02
     -9.515  0.4201E-02  0.2903E+00  0.1424E-02
     -9.449  0.6447E-02  0.3605E+00  0.1979E-02
     -9.383  0.1359E-02  0.1335E+00  0.7343E-03
     -9.317  0.3343E-04  0.6702E-02  0.3771E-04
     -9.250  0.8722E-07  0.2148E-04  0.1274E-06
     -9.184  0.1231E-10  0.2940E-08  0.1812E-10
     -9.118  0.6367E-16  0.1455E-13  0.9173E-16
     -9.052  0.0000E+00  0.0000E+00  0.0000E+00
     -8.986  0.0000E+00  0.0000E+00  0.0000E+00
     -8.920  0.0000E+00  0.0000E+00  0.0000E+00
     -8.854  0.0000E+00  0.0000E+00  0.0000E+00
     -8.788  0.0000E+00  0.0000E+00  0.0000E+00
     -8.722  0.0000E+00  0.0000E+00  0.0000E+00
     -8.656  0.0000E+00  0.0000E+00  0.0000E+00
     -8.590  0.0000E+00  0.0000E+00  0.0000E+00
     -8.524  0.0000E+00  0.0000E+00  0.0000E+00
     -8.458  0.0000E+00  0.0000E+00  0.0000E+00
     -8.392  0.0000E+00  0.0000E+00  0.0000E+00
     -8.326  0.0000E+00  0.0000E+00  0.0000E+00
     -8.260  0.0000E+00  0.0000E+00  0.0000E+00
     -8.194  0.0000E+00  0.0000E+00  0.0000E+00
     -8.128  0.0000E+00  0.0000E+00  0.0000E+00
     -8.062  0.0000E+00  0.0000E+00  0.0000E+00
     -7.996  0.0000E+00  0.0000E+00  0.0000E+00
     -7.930  0.0000E+00  0.0000E+00  0.0000E+00
     -7.864  0.0000E+00  0.0000E+00  0.0000E+00
     -7.797  0.0000E+00  0.0000E+00  0.0000E+00
     -7.731  0.0000E+00  0.0000E+00  0.0000E+00
     -7.665  0.0000E+00  0.0000E+00  0.0000E+00
     -7.599  0.0000E+00  0.0000E+00  0.0000E+00
     -7.533  0.0000E+00  0.0000E+00  0.0000E+00
     -7.467  0.0000E+00  0.0000E+00  0.0000E+00
     -7.401  0.0000E+00  0.0000E+00  0.0000E+00
     -7.335  0.0000E+00  0.0000E+00  0.0000E+00
     -7.269  0.0000E+00  0.0000E+00  0.0000E+00
     -7.203  0.0000E+00  0.0000E+00  0.0000E+00
     -7.137  0.1181E-17  0.6444E-17  0.6063E-18
     -7.071  0.6344E-12  0.3653E-11  0.3329E-12
     -7.005  0.1153E-07  0.7053E-07  0.6206E-08
     -6.939  0.8079E-05  0.5392E-04  0.4505E-05
     -6.873  0.2823E-03  0.2126E-02  0.1647E-03
     -6.807  0.7330E-03  0.6255E-02  0.4464E-03
     -6.741  0.4531E-03  0.3548E-02  0.3112E-03
     -6.675  0.9898E-03  0.4846E-02  0.4572E-03
     -6.609  0.9534E-03  0.3710E-02  0.2371E-03
     -6.543  0.5858E-03  0.2296E-02  0.1374E-03
     -6.477  0.1143E-03  0.2739E-02  0.3094E-03
     -6.411  0.3780E-03  0.7604E-02  0.8664E-03
     -6.345  0.1104E-02  0.7902E-02  0.9586E-03
     -6.278  0.1446E-02  0.6793E-02  0.8279E-03
     -6.212  0.9578E-03  0.3609E-02  0.7634E-03
     -6.146  0.4188E-03  0.1510E-02  0.3383E-03
     -6.080  0.1221E-03  0.7641E-03  0.2029E-03
     -6.014  0.4115E-03  0.1252E-02  0.3504E-03
     -5.948  0.4273E-03  0.2509E-02  0.2221E-03
     -5.882  0.2342E-03  0.2903E-02  0.2867E-03
     -5.816  0.7072E-03  0.2797E-02  0.5684E-03
     -5.750  0.5822E-03  0.1180E-02  0.3480E-03
     -5.684  0.1181E-03  0.2549E-03  0.1207E-03
     -5.618  0.4220E-03  0.1867E-02  0.6303E-03
     -5.552  0.7943E-03  0.5734E-02  0.1338E-02
     -5.486  0.5701E-03  0.3346E-02  0.8498E-03
     -5.420  0.9415E-04  0.4983E-03  0.1139E-03
     -5.354  0.3816E-03  0.1724E-02  0.4002E-03
     -5.288  0.3093E-03  0.1705E-02  0.4090E-03
     -5.222  0.3181E-03  0.1943E-02  0.3021E-03
     -5.156  0.5535E-03  0.3432E-02  0.4736E-03
     -5.090  0.1501E-03  0.1040E-02  0.1441E-03
     -5.024  0.2473E-04  0.5650E-04  0.7367E-05
     -4.958  0.9928E-03  0.1451E-02  0.1620E-03
     -4.892  0.4228E-02  0.6146E-02  0.5930E-03
     -4.825  0.4495E-02  0.5818E-02  0.4369E-03
     -4.759  0.3699E-02  0.3967E-02  0.2829E-03
     -4.693  0.1075E-02  0.8612E-03  0.7349E-04
     -4.627  0.2951E-04  0.2081E-04  0.1929E-05
     -4.561  0.3806E-07  0.2615E-07  0.2465E-08
     -4.495  0.1781E-11  0.1219E-11  0.1152E-12
     -4.429  0.2741E-17  0.1875E-17  0.1773E-18
     -4.363  0.0000E+00  0.0000E+00  0.0000E+00
     -4.297  0.0000E+00  0.0000E+00  0.0000E+00
     -4.231  0.0000E+00  0.0000E+00  0.0000E+00
     -4.165  0.0000E+00  0.0000E+00  0.0000E+00
     -4.099  0.0000E+00  0.0000E+00  0.0000E+00
     -4.033  0.0000E+00  0.0000E+00  0.0000E+00
     -3.967  0.0000E+00  0.0000E+00  0.0000E+00
     -3.901  0.0000E+00  0.0000E+00  0.0000E+00
     -3.835  0.0000E+00  0.0000E+00  0.0000E+00
     -3.769  0.0000E+00  0.0000E+00  0.0000E+00
     -3.703  0.0000E+00  0.0000E+00  0.0000E+00
     -3.637  0.0000E+00  0.0000E+00  0.0000E+00
     -3.571  0.0000E+00  0.0000E+00  0.0000E+00
     -3.505  0.0000E+00  0.0000E+00  0.0000E+00
     -3.439  0.0000E+00  0.0000E+00  0.0000E+00
     -3.372  0.0000E+00  0.0000E+00  0.0000E+00
     -3.306  0.0000E+00  0.0000E+00  0.0000E+00
     -3.240  0.0000E+00  0.0000E+00  0.0000E+00
     -3.174  0.0000E+00  0.0000E+00  0.0000E+00
     -3.108  0.0000E+00  0.0000E+00  0.0000E+00
     -3.042  0.0000E+00  0.0000E+00  0.0000E+00
     -2.976  0.0000E+00  0.0000E+00  0.0000E+00
     -2.910  0.0000E+00  0.0000E+00  0.0000E+00
     -2.844  0.6964E-16  0.4833E-14  0.1032E-14
     -2.778  0.9307E-11  0.6442E-09  0.1375E-09
     -2.712  0.4361E-07  0.2940E-05  0.6265E-06
     -2.646  0.9680E-05  0.5333E-03  0.1118E-03
     -2.580  0.2403E-03  0.6460E-02  0.1235E-02
     -2.514  0.1491E-02  0.1613E-01  0.2680E-02
     -2.448  0.3631E-02  0.2300E-01  0.4147E-02
     -2.382  0.5198E-02  0.3472E-01  0.6320E-02
     -2.316  0.4584E-02  0.2995E-01  0.5188E-02
     -2.250  0.2061E-02  0.1735E-01  0.3547E-02
     -2.184  0.6717E-02  0.2132E-01  0.6238E-02
     -2.118  0.7165E-02  0.1297E-01  0.4682E-02
     -2.052  0.9627E-02  0.8235E-02  0.5309E-02
     -1.986  0.8904E-02  0.8136E-02  0.4888E-02
     -1.920  0.5792E-02  0.1213E-01  0.5314E-02
     -1.853  0.5654E-02  0.1938E-01  0.6591E-02
     -1.787  0.5761E-02  0.1571E-01  0.5530E-02
     -1.721  0.7366E-02  0.1004E-01  0.4698E-02
     -1.655  0.5661E-02  0.8205E-02  0.3455E-02
     -1.589  0.5176E-02  0.1094E-01  0.3955E-02
     -1.523  0.6086E-02  0.1005E-01  0.2932E-02
     -1.457  0.1318E-01  0.8713E-02  0.3097E-02
     -1.391  0.1040E-01  0.1022E-01  0.4843E-02
     -1.325  0.8377E-02  0.1594E-01  0.7723E-02
     -1.259  0.7423E-02  0.1719E-01  0.6061E-02
     -1.193  0.2820E-02  0.1160E-01  0.3398E-02
     -1.127  0.8660E-02  0.2322E-01  0.4375E-02
     -1.061  0.7777E-02  0.1402E-01  0.2920E-02
     -0.995  0.1074E-01  0.9834E-02  0.5428E-02
     -0.929  0.1629E-01  0.2602E-01  0.1056E-01
     -0.863  0.1167E-01  0.3046E-01  0.9310E-02
     -0.797  0.2094E-01  0.2751E-01  0.1082E-01
     -0.731  0.2413E-01  0.3175E-01  0.1768E-01
     -0.665  0.9805E-02  0.2088E-01  0.1329E-01
     -0.599  0.1623E-01  0.2959E-01  0.1353E-01
     -0.533  0.1964E-01  0.2610E-01  0.1231E-01
     -0.467  0.1324E-01  0.2051E-01  0.1417E-01
     -0.400  0.1170E-01  0.3008E-01  0.1601E-01
     -0.334  0.1551E-01  0.3239E-01  0.1500E-01
     -0.268  0.9554E-02  0.3215E-01  0.9656E-02
     -0.202  0.8700E-02  0.1418E-01  0.7063E-02
     -0.136  0.1069E-01  0.1351E-01  0.4582E-02
     -0.070  0.2037E-01  0.2858E-01  0.7633E-02
     -0.004  0.3639E-01  0.5278E-01  0.1982E-01
      0.062  0.2906E-01  0.5282E-01  0.1848E-01
      0.128  0.1636E-01  0.2625E-01  0.1248E-01
      0.194  0.1999E-01  0.2069E-01  0.1466E-01
      0.260  0.4283E-01  0.2807E-01  0.1284E-01
      0.326  0.3390E-01  0.4167E-01  0.1365E-01
      0.392  0.2778E-01  0.5940E-01  0.2659E-01
      0.458  0.2333E-01  0.3137E-01  0.1252E-01
      0.524  0.7719E-01  0.7464E-01  0.2542E-01
      0.590  0.8114E-01  0.1104E+00  0.3600E-01
      0.656  0.5246E-01  0.1073E+00  0.3522E-01
      0.722  0.2923E-01  0.8455E-01  0.2714E-01
      0.788  0.2340E-01  0.1067E+00  0.3806E-01
      0.854  0.1721E-01  0.1068E+00  0.5042E-01
      0.920  0.1490E-01  0.9018E-01  0.5103E-01
      0.986  0.1786E-01  0.7564E-01  0.3866E-01
      1.053  0.1146E-01  0.6544E-01  0.2860E-01
      1.119  0.9027E-02  0.5185E-01  0.3104E-01
      1.185  0.1242E-01  0.3333E-01  0.2397E-01
      1.251  0.2020E-01  0.4502E-01  0.2452E-01
      1.317  0.2380E-01  0.5991E-01  0.3101E-01
      1.383  0.2056E-01  0.7828E-01  0.3939E-01
      1.449  0.1071E-01  0.6178E-01  0.3300E-01
      1.515  0.7637E-02  0.4443E-01  0.2709E-01
      1.581  0.3956E-02  0.2441E-01  0.1487E-01
      1.647  0.2687E-02  0.2927E-01  0.2077E-01
      1.713  0.3906E-02  0.2810E-01  0.2314E-01
      1.779  0.7340E-02  0.2159E-01  0.2170E-01
      1.845  0.2194E-02  0.3697E-02  0.5334E-02
      1.911  0.5592E-04  0.6340E-04  0.1256E-03
      1.977  0.7551E-07  0.6499E-07  0.1598E-06
      2.043  0.4045E-11  0.2943E-11  0.8260E-11
      2.109  0.7362E-17  0.4519E-17  0.1455E-16
      2.175  0.0000E+00  0.0000E+00  0.0000E+00
      2.241  0.0000E+00  0.0000E+00  0.0000E+00
      2.307  0.0000E+00  0.0000E+00  0.0000E+00
      2.373  0.0000E+00  0.0000E+00  0.0000E+00
      2.439  0.0000E+00  0.0000E+00  0.0000E+00
      2.506  0.0000E+00  0.0000E+00  0.0000E+00
      2.572  0.0000E+00  0.0000E+00  0.0000E+00
      2.638  0.0000E+00  0.0000E+00  0.0000E+00
      2.704  0.0000E+00  0.0000E+00  0.0000E+00
      2.770  0.0000E+00  0.0000E+00  0.0000E+00
      2.836  0.0000E+00  0.0000E+00  0.0000E+00
      2.902  0.0000E+00  0.0000E+00  0.0000E+00
      2.968  0.0000E+00  0.0000E+00  0.0000E+00
      3.034  0.0000E+00  0.0000E+00  0.0000E+00
      3.100  0.0000E+00  0.0000E+00  0.0000E+00
      3.166  0.0000E+00  0.0000E+00  0.0000E+00
      3.232  0.0000E+00  0.0000E+00  0.0000E+00
      3.298  0.0000E+00  0.0000E+00  0.0000E+00
      3.364  0.1436E-16  0.2311E-16  0.3617E-16
      3.430  0.6477E-11  0.1042E-10  0.1631E-10
      3.496  0.9763E-07  0.1572E-06  0.2460E-06
      3.562  0.5337E-04  0.8667E-04  0.1355E-03
      3.628  0.1325E-02  0.2337E-02  0.3626E-02
      3.694  0.2492E-02  0.6455E-02  0.9732E-02
      3.760  0.6545E-03  0.3019E-02  0.4419E-02
      3.826  0.1543E-03  0.1353E-02  0.1024E-02
      3.892  0.3297E-02  0.1089E-01  0.7144E-02
      3.958  0.1130E-01  0.2025E-01  0.1236E-01
      4.025  0.9048E-02  0.2398E-01  0.1594E-01
      4.091  0.3582E-01  0.4376E-01  0.3435E-01
      4.157  0.3352E-01  0.2198E-01  0.1917E-01
      4.223  0.2374E-01  0.3136E-01  0.2608E-01
      4.289  0.1772E-01  0.4126E-01  0.2814E-01
      4.355  0.1578E-01  0.4860E-01  0.2867E-01
      4.421  0.1215E-01  0.3897E-01  0.2773E-01
      4.487  0.9341E-02  0.4496E-01  0.3424E-01
      4.553  0.1645E-01  0.5122E-01  0.3342E-01
      4.619  0.1816E-01  0.5585E-01  0.3472E-01
      4.685  0.1638E-01  0.4808E-01  0.3853E-01
      4.751  0.8068E-02  0.4401E-01  0.3953E-01
      4.817  0.1322E-01  0.4395E-01  0.3870E-01
      4.883  0.1528E-01  0.3863E-01  0.3493E-01
      4.949  0.1291E-01  0.2905E-01  0.2995E-01
      5.015  0.2294E-01  0.2756E-01  0.4232E-01
      5.081  0.2297E-01  0.2746E-01  0.4106E-01
      5.147  0.1365E-01  0.2833E-01  0.4764E-01
      5.213  0.1345E-01  0.2505E-01  0.5745E-01
      5.279  0.1646E-01  0.2577E-01  0.4633E-01
      5.345  0.2091E-01  0.4237E-01  0.5562E-01
      5.411  0.2269E-01  0.6174E-01  0.6247E-01
      5.478  0.8745E-02  0.3801E-01  0.4188E-01
      5.544  0.4316E-02  0.1824E-01  0.4535E-01
      5.610  0.6838E-02  0.2364E-01  0.6094E-01
      5.676  0.1365E-01  0.3677E-01  0.6977E-01
      5.742  0.1956E-01  0.3134E-01  0.5800E-01
      5.808  0.3575E-01  0.3653E-01  0.4634E-01
      5.874  0.3268E-01  0.3059E-01  0.3800E-01
      5.940  0.1750E-01  0.3301E-01  0.5430E-01
      6.006  0.1727E-01  0.3083E-01  0.4991E-01
      6.072  0.1191E-01  0.2108E-01  0.3386E-01
      6.138  0.2081E-01  0.2722E-01  0.5959E-01
      6.204  0.3581E-01  0.3773E-01  0.6726E-01
      6.270  0.4808E-01  0.6488E-01  0.9618E-01
      6.336  0.3543E-01  0.4795E-01  0.6550E-01
      6.402  0.5054E-01  0.4593E-01  0.5861E-01
      6.468  0.2756E-01  0.1780E-01  0.3278E-01
      6.534  0.1802E-01  0.5669E-02  0.2217E-01
      6.600  0.3097E-02  0.9150E-03  0.3822E-02
      6.666  0.2978E-04  0.8789E-05  0.3675E-04
      6.732  0.1124E-07  0.3318E-08  0.1388E-07
      6.798  0.1464E-12  0.4321E-13  0.1807E-12
      6.864  0.0000E+00  0.0000E+00  0.0000E+00
      6.931  0.0000E+00  0.0000E+00  0.0000E+00
      6.997  0.0000E+00  0.0000E+00  0.0000E+00
      7.063  0.0000E+00  0.0000E+00  0.0000E+00
      7.129  0.0000E+00  0.0000E+00  0.0000E+00
      7.195  0.0000E+00  0.0000E+00  0.0000E+00
      7.261  0.0000E+00  0.0000E+00  0.0000E+00
      7.327  0.0000E+00  0.0000E+00  0.0000E+00
      7.393  0.0000E+00  0.0000E+00  0.0000E+00
      7.39281844    -12.42063158  301      2.04525084      1.00000000
    -12.421  0.0000E+00  0.0000E+00  0.0000E+00
    -12.355  0.0000E+00  0.0000E+00  0.0000E+00
    -12.289  0.0000E+00  0.0000E+00  0.0000E+00
    -12.222  0.0000E+00  0.0000E+00  0.0000E+00
    -12.156  0.0000E+00  0.0000E+00  0.0000E+00
    -12.090  0.0000E+00  0.0000E+00  0.0000E+00
    -12.024  0.0000E+00  0.0000E+00  0.0000E+00
    -11.958  0.0000E+00  0.0000E+00  0.0000E+00
    -11.892  0.0000E+00  0.0000E+00  0.0000E+00
    -11.826  0.0000E+00  0.0000E+00  0.0000E+00
    -11.760  0.2672E-14  0.9559E-12  0.6820E-16
    -11.694  0.2057E-09  0.7363E-07  0.5281E-11
    -11.628  0.5545E-06  0.1994E-03  0.1481E-07
    -11.562  0.6544E-04  0.2450E-01  0.2184E-05
    -11.496  0.6710E-03  0.3128E+00  0.3975E-04
    -11.430  0.1156E-02  0.8909E+00  0.1118E-03
    -11.364  0.4780E-03  0.9060E+00  0.8942E-04
    -11.298  0.5519E-03  0.1748E+01  0.1510E-03
    -11.232  0.4672E-03  0.6455E+01  0.1346E-03
    -11.166  0.6240E-03  0.2979E+02  0.2962E-03
    -11.100  0.4134E-03  0.3188E+02  0.3435E-03
    -11.034  0.4171E-03  0.1038E+02  0.2209E-03
    -10.968  0.3145E-03  0.2759E+01  0.1547E-03
    -10.902  0.3745E-03  0.1228E+01  0.1832E-03
    -10.836  0.4435E-03  0.7394E+00  0.1967E-03
    -10.770  0.3324E-03  0.4169E+00  0.1864E-03
    -10.703  0.3547E-03  0.2305E+00  0.1643E-03
    -10.637  0.3205E-03  0.1211E+00  0.1209E-03
    -10.571  0.2574E-03  0.1217E+00  0.1800E-03
    -10.505  0.4075E-03  0.1870E+00  0.3078E-03
    -10.439  0.6318E-03  0.1120E+00  0.2065E-03
    -10.373  0.8542E-03  0.1362E+00  0.3956E-03
    -10.307  0.1135E-02  0.1829E+00  0.4918E-03
    -10.241  0.6156E-03  0.1133E+00  0.3725E-03
    -10.175  0.9737E-04  0.2291E-01  0.9827E-04
    -10.109  0.2553E-03  0.1190E-01  0.7367E-04
    -10.043  0.5697E-03  0.4960E-01  0.2709E-03
     -9.977  0.5453E-03  0.5988E-01  0.5215E-03
     -9.911  0.7769E-03  0.7434E-01  0.7835E-03
     -9.845  0.3309E-03  0.2742E-01  0.3028E-03
     -9.779  0.8954E-03  0.5144E-01  0.5088E-03
     -9.713  0.2129E-02  0.1030E+00  0.1101E-02
     -9.647  0.2737E-02  0.1326E+00  0.1499E-02
     -9.581  0.2677E-02  0.1620E+00  0.1829E-02
     -9.515  0.1702E-02  0.1043E+00  0.1676E-02
     -9.449  0.1614E-02  0.1033E+00  0.1912E-02
     -9.383  0.2974E-03  0.2929E-01  0.6512E-03
     -9.317  0.7770E-05  0.1173E-02  0.3036E-04
     -9.250  0.2033E-07  0.3438E-05  0.9796E-07
     -9.184  0.2772E-11  0.4550E-09  0.1380E-10
     -9.118  0.1400E-16  0.2214E-14  0.6990E-16
     -9.052  0.0000E+00  0.0000E+00  0.0000E+00
     -8.986  0.0000E+00  0.0000E+00  0.0000E+00
     -8.920  0.0000E+00  0.0000E+00  0.0000E+00
     -8.854  0.0000E+00  0.0000E+00  0.0000E+00
     -8.788  0.0000E+00  0.0000E+00  0.0000E+00
     -8.722  0.0000E+00  0.0000E+00  0.0000E+00
     -8.656  0.0000E+00  0.0000E+00  0.0000E+00
     -8.590  0.0000E+00  0.0000E+00  0.0000E+00
     -8.524  0.0000E+00  0.0000E+00  0.0000E+00
     -8.458  0.0000E+00  0.0000E+00  0.0000E+00
     -8.392  0.0000E+00  0.0000E+00  0.0000E+00
     -8.326  0.0000E+00  0.0000E+00  0.0000E+00
     -8.260  0.0000E+00  0.0000E+00  0.0000E+00
     -8.194  0.0000E+00  0.0000E+00  0.0000E+00
     -8.128  0.0000E+00  0.0000E+00  0.0000E+00
     -8.062  0.0000E+00  0.0000E+00  0.0000E+00
     -7.996  0.0000E+00  0.0000E+00  0.0000E+00
     -7.930  0.0000E+00  0.0000E+00  0.0000E+00
     -7.864  0.0000E+00  0.0000E+00  0.0000E+00
     -7.797  0.0000E+00  0.0000E+00  0.0000E+00
     -7.731  0.0000E+00  0.0000E+00  0.0000E+00
     -7.665  0.0000E+00  0.0000E+00  0.0000E+00
     -7.599  0.0000E+00  0.0000E+00  0.0000E+00
     -7.533  0.0000E+00  0.0000E+00  0.0000E+00
     -7.467  0.0000E+00  0.0000E+00  0.0000E+00
     -7.401  0.0000E+00  0.0000E+00  0.0000E+00
     -7.335  0.0000E+00  0.0000E+00  0.0000E+00
     -7.269  0.0000E+00  0.0000E+00  0.0000E+00
     -7.203  0.0000E+00  0.0000E+00  0.0000E+00
     -7.137  0.3346E-18  0.5993E-17  0.6179E-18
     -7.071  0.1871E-12  0.3272E-11  0.3472E-12
     -7.005  0.3541E-08  0.6005E-07  0.6596E-08
     -6.939  0.2600E-05  0.4160E-04  0.4839E-05
     -6.873  0.9777E-04  0.1394E-02  0.1762E-03
     -6.807  0.2825E-03  0.3413E-02  0.4699E-03
     -6.741  0.1973E-03  0.1865E-02  0.2689E-03
     -6.675  0.5854E-03  0.3586E-02  0.3919E-03
     -6.609  0.5515E-03  0.2415E-02  0.2425E-03
     -6.543  0.2812E-03  0.8384E-03  0.1452E-03