 vasp.5.4.4.18Apr17-6-g9f103f2a35 (build Oct 27 2022 13:04:57) complex          
  
 executed on             LinuxIFC date 2024.06.30  21:25:23
 running on   14 total cores
 distrk:  each k-point on   14 cores,    1 groups
 distr:  one band on NCORES_PER_BAND=   1 cores,   14 groups


--------------------------------------------------------------------------------------------------------


 INCAR:
 POTCAR:    PAW_PBE K_pv 17Jan2003                
 POTCAR:    PAW_PBE Sb 06Sep2000                  
 POTCAR:    PAW_PBE S 06Sep2000                   

 ----------------------------------------------------------------------------- 
|                                                                             |
|           W    W    AA    RRRRR   N    N  II  N    N   GGGG   !!!           |
|           W    W   A  A   R    R  NN   N  II  NN   N  G    G  !!!           |
|           W    W  A    A  R    R  N N  N  II  N N  N  G       !!!           |
|           W WW W  AAAAAA  RRRRR   N  N N  II  N  N N  G  GGG   !            |
|           WW  WW  A    A  R   R   N   NN  II  N   NN  G    G                |
|           W    W  A    A  R    R  N    N  II  N    N   GGGG   !!!           |
|                                                                             |
|      For optimal performance we recommend to set                            |
|        NCORE= 4 - approx SQRT( number of cores)                             |
|      NCORE specifies how many cores store one orbital (NPAR=cpu/NCORE).     |
|      This setting can  greatly improve the performance of VASP for DFT.     |
|      The default,   NCORE=1            might be grossly inefficient         |
|      on modern multi-core architectures or massively parallel machines.     |
|      Do your own testing !!!!                                               |
|      Unfortunately you need to use the default for GW and RPA calculations. |
|      (for HF NCORE is supported but not extensively tested yet)             |
|                                                                             |
 ----------------------------------------------------------------------------- 

 POTCAR:    PAW_PBE K_pv 17Jan2003                
   VRHFIN =K:  p6s1                                                             
   LEXCH  = PE                                                                  
   EATOM  =   450.4813 eV,   33.1094 Ry                                         
                                                                                
   TITEL  = PAW_PBE K_pv 17Jan2003                                              
   LULTRA =        F    use ultrasoft PP ?                                      
   IUNSCR =        1    unscreen: 0-lin 1-nonlin 2-no                           
   RPACOR =    2.500    partial core radius                                     
   POMASS =   39.098; ZVAL   =    7.000    mass and valenz                      
   RCORE  =    3.100    outmost cutoff radius                                   
   RWIGS  =    4.300; RWIGS  =    2.275    wigner-seitz radius (au A)           
   ENMAX  =  116.731; ENMIN  =   87.548 eV                                      
   RCLOC  =    2.806    cutoff for local pot                                    
   LCOR   =        T    correct aug charges                                     
   LPAW   =        T    paw PP                                                  
   EAUG   =  291.424                                                            
   DEXC   =    0.000                                                            
   RMAX   =    3.171    core radius for proj-oper                               
   RAUG   =    1.300    factor for augmentation sphere                          
   RDEP   =    3.267    radius for radial grids                                 
   RDEPT  =    2.513    core radius for aug-charge                              
                                                                                
   Atomic configuration                                                         
    7 entries                                                                   
     n  l   j            E        occ.                                          
     1  0  0.50     -3522.0595   2.0000                                         
     2  0  0.50      -353.3851   2.0000                                         
     2  1  1.50      -280.0935   6.0000                                         
     3  0  0.50       -35.3419   2.0000                                         
     3  1  1.50       -18.8125   6.0000                                         
     4  0  0.50        -2.3190   1.0000                                         
     3  2  1.50        -1.3606   0.0000                                         
   Description                                                                  
     l       E           TYP  RCUT    TYP  RCUT                                 
     1    -18.8124623     23  3.000                                             
     1    -20.4087390     23  3.000                                             
     0     -2.3190215     23  3.100                                             
     0     20.4087390     23  3.100                                             
     2     -1.3605826     23  3.000                                             
  local pseudopotential read in
  partial core-charges read in
  partial kinetic energy density read in
  atomic valenz-charges read in
  non local Contribution for L=           1  read in
    real space projection operators read in
  non local Contribution for L=           1  read in
    real space projection operators read in
  non local Contribution for L=           0  read in
    real space projection operators read in
  non local Contribution for L=           0  read in
    real space projection operators read in
  non local Contribution for L=           2  read in
    real space projection operators read in
    PAW grid and wavefunctions read in
 
   number of l-projection  operators is LMAX  =           5
   number of lm-projection operators is LMMAX =          13
 
 POTCAR:    PAW_PBE Sb 06Sep2000                  
   VRHFIN =Sb: s2p3                                                             
   LEXCH  = PE                                                                  
   EATOM  =   149.9515 eV,   11.0211 Ry                                         
                                                                                
   TITEL  = PAW_PBE Sb 06Sep2000                                                
   LULTRA =        F    use ultrasoft PP ?                                      
   IUNSCR =        1    unscreen: 0-lin 1-nonlin 2-no                           
   RPACOR =    2.200    partial core radius                                     
   POMASS =  121.750; ZVAL   =    5.000    mass and valenz                      
   RCORE  =    2.300    outmost cutoff radius                                   
   RWIGS  =    2.980; RWIGS  =    1.577    wigner-seitz radius (au A)           
   ENMAX  =  172.069; ENMIN  =  129.052 eV                                      
   ICORE  =        3    local potential                                         
   LCOR   =        T    correct aug charges                                     
   LPAW   =        T    paw PP                                                  
   EAUG   =  380.513                                                            
   DEXC   =    0.000                                                            
   RMAX   =    2.346    core radius for proj-oper                               
   RAUG   =    1.300    factor for augmentation sphere                          
   RDEP   =    2.360    radius for radial grids                                 
   RDEPT  =    2.192    core radius for aug-charge                              
                                                                                
   Atomic configuration                                                         
   13 entries                                                                   
     n  l   j            E        occ.                                          
     1  0  0.50    -30298.2797   2.0000                                         
     2  0  0.50     -4610.2252   2.0000                                         
     2  1  1.50     -4138.3407   6.0000                                         
     3  0  0.50      -903.8815   2.0000                                         
     3  1  1.50      -750.1337   6.0000                                         
     3  2  2.50      -515.7092  10.0000                                         
     4  0  0.50      -148.8034   2.0000                                         
     4  1  1.50      -101.7581   6.0000                                         
     4  2  2.50       -33.5048  10.0000                                         
     5  0  0.50       -12.8298   2.0000                                         
     5  1  0.50        -4.8276   3.0000                                         
     5  2  1.50        -4.0817   0.0000                                         
     4  3  2.50        -4.0817   0.0000                                         
   Description                                                                  
     l       E           TYP  RCUT    TYP  RCUT                                 
     0    -12.8297861     23  2.300                                             
     0     13.6058260     23  2.300                                             
     1     -4.8275512     23  2.300                                             
     1     -0.7245443     23  2.300                                             
     2     -4.0817478     23  2.300                                             
     3     -1.3605826     23  2.300                                             
  local pseudopotential read in
  partial core-charges read in
  partial kinetic energy density read in
  atomic valenz-charges read in
  non local Contribution for L=           0  read in
    real space projection operators read in
  non local Contribution for L=           0  read in
    real space projection operators read in
  non local Contribution for L=           1  read in
    real space projection operators read in
  non local Contribution for L=           1  read in
    real space projection operators read in
  non local Contribution for L=           2  read in
    real space projection operators read in
    PAW grid and wavefunctions read in
 
   number of l-projection  operators is LMAX  =           5
   number of lm-projection operators is LMMAX =          13
 
 POTCAR:    PAW_PBE S 06Sep2000                   
   VRHFIN =S : s2p4                                                             
   LEXCH  = PE                                                                  
   EATOM  =   276.8230 eV,   20.3459 Ry                                         
                                                                                
   TITEL  = PAW_PBE S 06Sep2000                                                 
   LULTRA =        F    use ultrasoft PP ?                                      
   IUNSCR =        1    unscreen: 0-lin 1-nonlin 2-no                           
   RPACOR =    1.500    partial core radius                                     
   POMASS =   32.066; ZVAL   =    6.000    mass and valenz                      
   RCORE  =    1.900    outmost cutoff radius                                   
   RWIGS  =    2.200; RWIGS  =    1.164    wigner-seitz radius (au A)           
   ENMAX  =  258.689; ENMIN  =  194.016 eV                                      
   ICORE  =        2    local potential                                         
   LCOR   =        T    correct aug charges                                     
   LPAW   =        T    paw PP                                                  
   EAUG   =  335.092                                                            
   DEXC   =    0.000                                                            
   RMAX   =    1.942    core radius for proj-oper                               
   RAUG   =    1.300    factor for augmentation sphere                          
   RDEP   =    1.954    radius for radial grids                                 
   RDEPT  =    1.744    core radius for aug-charge                              
                                                                                
   Atomic configuration                                                         
    6 entries                                                                   
     n  l   j            E        occ.                                          
     1  0  0.50     -2405.8406   2.0000                                         
     2  0  0.50      -211.7007   2.0000                                         
     2  1  1.50      -156.4958   6.0000                                         
     3  0  0.50       -17.2562   2.0000                                         
     3  1  0.50        -7.0085   4.0000                                         
     3  2  1.50        -6.8029   0.0000                                         
   Description                                                                  
     l       E           TYP  RCUT    TYP  RCUT                                 
     0    -17.2561641     23  1.900                                             
     0    -15.8743224     23  1.900                                             
     1     -7.0085400     23  1.900                                             
     1     -2.7779785     23  1.900                                             
     2     -6.8029130     23  1.900                                             
  local pseudopotential read in
  partial core-charges read in
  partial kinetic energy density read in
  atomic valenz-charges read in
  non local Contribution for L=           0  read in
    real space projection operators read in
  non local Contribution for L=           0  read in
    real space projection operators read in
  non local Contribution for L=           1  read in
    real space projection operators read in
  non local Contribution for L=           1  read in
    real space projection operators read in
    PAW grid and wavefunctions read in
 
   number of l-projection  operators is LMAX  =           4
   number of lm-projection operators is LMMAX =           8
 
 Optimization of the real space projectors (new method)

 maximal supplied QI-value         = 12.09
 optimisation between [QCUT,QGAM] = [  8.83, 17.66] = [ 21.83, 87.31] Ry 
 Optimized for a Real-space Cutoff    1.69 Angstroem

   l    n(q)    QCUT    max X(q) W(low)/X(q) W(high)/X(q)  e(spline) 
   1      8     8.829    42.457    0.27E-03    0.59E-03    0.25E-06
   1      8     8.829    43.305    0.28E-03    0.61E-03    0.26E-06
   0      9     8.829    47.210    0.17E-02    0.12E-03    0.43E-06
   0      9     8.829    15.951    0.11E-02    0.76E-04    0.28E-06
   2      8     8.829     5.674    0.29E-03    0.69E-04    0.39E-07
 Optimization of the real space projectors (new method)

 maximal supplied QI-value         = 16.25
 optimisation between [QCUT,QGAM] = [  8.78, 17.71] = [ 21.57, 87.87] Ry 
 Optimized for a Real-space Cutoff    1.26 Angstroem

   l    n(q)    QCUT    max X(q) W(low)/X(q) W(high)/X(q)  e(spline) 
   0      7     8.776    19.000    0.12E-02    0.42E-03    0.95E-07
   0      7     8.776     9.057    0.14E-02    0.54E-03    0.11E-06
   1      6     8.776   125.345    0.45E-03    0.22E-02    0.77E-07
   1      6     8.776    79.963    0.45E-03    0.21E-02    0.76E-07
   2      6     8.776     6.963    0.11E-02    0.51E-03    0.39E-07
 Optimization of the real space projectors (new method)

 maximal supplied QI-value         = 19.84
 optimisation between [QCUT,QGAM] = [  8.73, 17.66] = [ 21.34, 87.33] Ry 
 Optimized for a Real-space Cutoff    1.22 Angstroem

   l    n(q)    QCUT    max X(q) W(low)/X(q) W(high)/X(q)  e(spline) 
   0      6     8.731   187.594    0.15E-02    0.56E-03    0.90E-07
   0      6     8.731   164.243    0.15E-02    0.56E-03    0.89E-07
   1      6     8.731    67.533    0.37E-03    0.20E-02    0.11E-06
   1      6     8.731    50.729    0.36E-03    0.19E-02    0.10E-06
  PAW_PBE K_pv 17Jan2003                :
 energy of atom  1       EATOM= -450.4813
 kinetic energy error for atom=    0.0008 (will be added to EATOM!!)
  PAW_PBE Sb 06Sep2000                  :
 energy of atom  2       EATOM= -149.9515
 kinetic energy error for atom=    0.0018 (will be added to EATOM!!)
  PAW_PBE S 06Sep2000                   :
 energy of atom  3       EATOM= -276.8230
 kinetic energy error for atom=    0.0077 (will be added to EATOM!!)
 
 
 POSCAR: K4 Sb8 S14                              
  positions in direct lattice
  velocities in cartesian coordinates
 exchange correlation table for  LEXCH =        8
   RHO(1)=    0.500       N(1)  =     2000
   RHO(2)=  100.500       N(2)  =     4000
 


--------------------------------------------------------------------------------------------------------


 ion  position               nearest neighbor table
   1  0.280  0.335  0.113-  22 3.19  25 3.21  19 3.24  14 3.24  26 3.32  18 3.34   6 3.99   7 4.27
                             7 4.27  11 4.31   8 4.32  11 4.44  12 4.49   9 4.54   3 4.74   4 4.97
   2  0.421  0.737  0.565-  23 3.20  24 3.37  16 3.39  25 3.45  21 3.51  15 3.62  17 3.91  12 3.96
                             6 4.44   8 4.53   9 4.55   4 4.74   3 4.91   3 5.38
   3  0.579  0.263  0.435-  22 3.20  16 3.37  24 3.39  15 3.45  19 3.51  25 3.62  20 3.91   8 3.96
                            11 4.44  12 4.53   7 4.55   1 4.74   2 4.91   2 5.38
   4  0.720  0.665  0.887-  23 3.19  15 3.21  21 3.24  18 3.24  13 3.32  14 3.34  11 3.99   9 4.27
                             9 4.27   6 4.31  12 4.32   6 4.44   8 4.49   7 4.54   2 4.74   1 4.97
   5  0.029  0.949  0.340-  24 2.45  17 2.51  16 2.69  13 2.80  10 3.65
   6  0.156  0.438  0.814-  15 2.48  20 2.49  23 2.51  26 3.11   1 3.99   4 4.31   4 4.44   2 4.44

   7  0.732  0.132  0.046-  19 2.46  14 2.57  22 2.63  21 3.00  13 3.17   1 4.27   1 4.27   4 4.54
                             3 4.55
   8  0.504  0.193  0.767-  26 2.46  14 2.52  15 2.67  21 2.90   3 3.96   1 4.32   4 4.49   2 4.53

   9  0.268  0.868  0.954-  21 2.46  18 2.57  23 2.63  19 3.00  26 3.17   4 4.27   4 4.27   1 4.54
                             2 4.55
  10  0.971  0.051  0.660-  16 2.45  20 2.51  24 2.69  26 2.80   5 3.65
  11  0.844  0.562  0.186-  25 2.48  17 2.49  22 2.51  13 3.11   4 3.99   1 4.31   1 4.44   3 4.44

  12  0.496  0.807  0.233-  13 2.46  18 2.52  25 2.67  19 2.90   2 3.96   4 4.32   1 4.49   3 4.53

  13  0.807  0.867  0.148-  12 2.46   5 2.80  11 3.11   7 3.17   4 3.32
  14  0.651  0.331  0.952-   8 2.52   7 2.57   1 3.24   4 3.34
  15  0.455  0.437  0.708-   6 2.48   8 2.67   4 3.21   3 3.45   2 3.62
  16  0.234  0.014  0.529-  10 2.45   5 2.69   3 3.37   2 3.39
  17  0.033  0.692  0.353-  11 2.49   5 2.51   2 3.91
  18  0.349  0.669  0.048-  12 2.52   9 2.57   4 3.24   1 3.34
  19  0.444  0.068  0.160-   7 2.46  12 2.90   9 3.00   1 3.24   3 3.51
  20  0.967  0.308  0.647-   6 2.49  10 2.51   3 3.91
  21  0.556  0.932  0.840-   9 2.46   8 2.90   7 3.00   4 3.24   2 3.51
  22  0.877  0.320  0.224-  11 2.51   7 2.63   1 3.19   3 3.20
  23  0.123  0.680  0.776-   6 2.51   9 2.63   4 3.19   2 3.20
  24  0.766  0.986  0.471-   5 2.45  10 2.69   2 3.37   3 3.39
  25  0.545  0.563  0.292-  11 2.48  12 2.67   1 3.21   2 3.45   3 3.62
  26  0.193  0.133  0.852-   8 2.46  10 2.80   6 3.11   9 3.17   1 3.32
 
  LATTYP: Found a triclinic cell.
 ALAT       =    26.3227242842
 B/A-ratio  =     0.4373935677
 C/A-ratio  =     0.6110405317
 COS(alpha) =     0.0173075482
 COS(beta)  =     0.3913384800
 COS(gamma) =     0.9118262969
  
  Lattice vectors:
  
 A1 = (   3.9374125440, -13.2401472433, -22.4071662014)
 A2 = (  -0.7553847794,  -1.9293856589, -11.3254148141)
 A3 = (  13.0550481695,  -9.3846061856,   0.4450039493)


Analysis of symmetry for initial positions (statically):
=====================================================================
 Subroutine PRICEL returns:
 Original cell was already a primitive cell.
 

 Routine SETGRP: Setting up the symmetry group for a 
 triclinic supercell.


 Subroutine GETGRP returns: Found  2 space group operations
 (whereof  2 operations were pure point group operations)
 out of a pool of  2 trial point group operations.


The static configuration has the point symmetry S_2 .


Analysis of symmetry for dynamics (positions and initial velocities):
=====================================================================
 Subroutine PRICEL returns:
 Original cell was already a primitive cell.
 

 Routine SETGRP: Setting up the symmetry group for a 
 triclinic supercell.


 Subroutine GETGRP returns: Found  2 space group operations
 (whereof  2 operations were pure point group operations)
 out of a pool of  2 trial point group operations.


The dynamic configuration has the point symmetry S_2 .


 Subroutine INISYM returns: Found  2 space group operations
 (whereof  2 operations are pure point group operations),
 and found     1 'primitive' translations

 
 
 KPOINTS: pymatgen with grid density = 807 / numbe

Automatic generation of k-mesh.
Space group operators:
 irot       det(A)        alpha          n_x          n_y          n_z        tau_x        tau_y        tau_z
    1     1.000000     0.000000     1.000000     0.000000     0.000000     0.000000     0.000000     0.000000
    2    -1.000000     0.000000     1.000000     0.000000     0.000000     0.000000     0.000000     0.000000
 
 Subroutine IBZKPT returns following result:
 ===========================================
 
 Found      6 irreducible k-points:
 
 Following reciprocal coordinates:
            Coordinates               Weight
  0.000000  0.250000  0.250000      2.000000
  0.333333  0.250000  0.250000      2.000000
 -0.333333  0.250000  0.250000      2.000000
  0.000000 -0.250000  0.250000      2.000000
  0.333333 -0.250000  0.250000      2.000000
 -0.333333 -0.250000  0.250000      2.000000
 
 Following cartesian coordinates:
            Coordinates               Weight
  0.000716  0.026373 -0.026615      2.000000
 -0.043132  0.036471 -0.025411      2.000000
  0.044563  0.016274 -0.027819      2.000000
  0.000453 -0.026841 -0.017532      2.000000
 -0.043395 -0.016743 -0.016328      2.000000
  0.044300 -0.036939 -0.018736      2.000000
 


--------------------------------------------------------------------------------------------------------




 Dimension of arrays:
   k-points           NKPTS =      6   k-points in BZ     NKDIM =      6   number of bands    NBANDS=     98
   number of dos      NEDOS =    301   number of ions     NIONS =     26
   non local maximal  LDIM  =      5   non local SUM 2l+1 LMDIM =     13
   total plane-waves  NPLWV =  67200
   max r-space proj   IRMAX =   1734   max aug-charges    IRDMAX=   3347
   dimension x,y,z NGX =    32 NGY =   42 NGZ =   50
   dimension x,y,z NGXF=    48 NGYF=   64 NGZF=   80
   support grid    NGXF=    48 NGYF=   64 NGZF=   80
   ions per type =               4   8  14
   NGX,Y,Z   is equivalent  to a cutoff of   6.99,  7.26,  7.22 a.u.
   NGXF,Y,Z  is equivalent  to a cutoff of  10.49, 11.06, 11.55 a.u.

 SYSTEM =  CIS                                     
 POSCAR =  K4 Sb8 S14                              

 Startparameter for this run:
   NWRITE =      2    write-flag & timer
   PREC   = medium    normal or accurate (medium, high low for compatibility)
   ISTART =      0    job   : 0-new  1-cont  2-samecut
   ICHARG =      2    charge: 1-file 2-atom 10-const
   ISPIN  =      1    spin polarized calculation?
   LNONCOLLINEAR =      F non collinear calculations
   LSORBIT =      F    spin-orbit coupling
   INIWAV =      1    electr: 0-lowe 1-rand  2-diag
   LASPH  =      T    aspherical Exc in radial PAW
   METAGGA=      F    non-selfconsistent MetaGGA calc.

 Electronic Relaxation 1
   ENCUT  =  300.0 eV  22.05 Ry    4.70 a.u.  10.75 13.59 16.26*2*pi/ulx,y,z
   ENINI  =  300.0     initial cutoff
   ENAUG  =  380.5 eV  augmentation charge cutoff
   NELM   =     60;   NELMIN=  2; NELMDL= -5     # of ELM steps 
   EDIFF  = 0.1E-03   stopping-criterion for ELM
   LREAL  =      T    real-space projection
   NLSPLINE    = F    spline interpolate recip. space projectors
   LCOMPAT=      F    compatible to vasp.4.4
   GGA_COMPAT  = T    GGA compatible to vasp.4.4-vasp.4.6
   LMAXPAW     = -100 max onsite density
   LMAXMIX     =    4 max onsite mixed and CHGCAR
   VOSKOWN=      0    Vosko Wilk Nusair interpolation
   ROPT   =   -0.00200  -0.00200  -0.00200
 Ionic relaxation
   EDIFFG = -.5E-01   stopping-criterion for IOM
   NSW    =     99    number of steps for IOM
   NBLOCK =      1;   KBLOCK =     99    inner block; outer block 
   IBRION =      2    ionic relax: 0-MD 1-quasi-New 2-CG
   NFREE  =      1    steps in history (QN), initial steepest desc. (CG)
   ISIF   =      3    stress and relaxation
   IWAVPR =     11    prediction:  0-non 1-charg 2-wave 3-comb
   ISYM   =      2    0-nonsym 1-usesym 2-fastsym
   LCORR  =      T    Harris-Foulkes like correction to forces

   POTIM  = 0.1000    time-step for ionic-motion
   TEIN   =    0.0    initial temperature
   TEBEG  =    0.0;   TEEND  =   0.0 temperature during run
   SMASS  =  -3.00    Nose mass-parameter (am)
   estimated Nose-frequenzy (Omega)   =  0.10E-29 period in steps =****** mass=  -0.132E-26a.u.
   SCALEE = 1.0000    scale energy and forces
   NPACO  =    256;   APACO  = 16.0  distance and # of slots for P.C.
   PSTRESS=    0.0 pullay stress

  Mass of Ions in am
   POMASS =  39.10121.75 32.07
  Ionic Valenz
   ZVAL   =   7.00  5.00  6.00
  Atomic Wigner-Seitz radii
   RWIGS  =  -1.00 -1.00 -1.00
  virtual crystal weights 
   VCA    =   1.00  1.00  1.00
   NELECT =     152.0000    total number of electrons
   NUPDOWN=      -1.0000    fix difference up-down

 DOS related values:
   EMIN   =  10.00;   EMAX   =-10.00  energy-range for DOS
   EFERMI =   0.00
   ISMEAR =     0;   SIGMA  =   0.05  broadening in eV -4-tet -1-fermi 0-gaus

 Electronic relaxation 2 (details)
   IALGO  =     38    algorithm
   LDIAG  =      T    sub-space diagonalisation (order eigenvalues)
   LSUBROT=      F    optimize rotation matrix (better conditioning)
   TURBO    =      0    0=normal 1=particle mesh
   IRESTART =      0    0=no restart 2=restart with 2 vectors
   NREBOOT  =      0    no. of reboots
   NMIN     =      0    reboot dimension
   EREF     =   0.00    reference energy to select bands
   IMIX   =      4    mixing-type and parameters
     AMIX     =   0.40;   BMIX     =  1.00
     AMIX_MAG =   1.60;   BMIX_MAG =  1.00
     AMIN     =   0.10
     WC   =   100.;   INIMIX=   1;  MIXPRE=   1;  MAXMIX= -45

 Intra band minimization:
   WEIMIN = 0.0010     energy-eigenvalue tresh-hold
   EBREAK =  0.26E-06  absolut break condition
   DEPER  =   0.30     relativ break condition  

   TIME   =   0.40     timestep for ELM

  volume/ion in A,a.u.               =      31.08       209.73
  Fermi-wavevector in a.u.,A,eV,Ry     =   0.938016  1.772593 11.971413  0.879874
  Thomas-Fermi vector in A             =   2.065185
 
 Write flags
   LWAVE        =      F    write WAVECAR
   LDOWNSAMPLE  =      F    k-point downsampling of WAVECAR
   LCHARG       =      F    write CHGCAR
   LVTOT        =      F    write LOCPOT, total local potential
   LVHAR        =      F    write LOCPOT, Hartree potential only
   LELF         =      F    write electronic localiz. function (ELF)
   LORBIT       =     10    0 simple, 1 ext, 2 COOP (PROOUT), +10 PAW based schemes


 Dipole corrections
   LMONO  =      F    monopole corrections only (constant potential shift)
   LDIPOL =      F    correct potential (dipole corrections)
   IDIPOL =      0    1-x, 2-y, 3-z, 4-all directions 
   EPSILON=  1.0000000 bulk dielectric constant

 Exchange correlation treatment:
   GGA     =    --    GGA type
   LEXCH   =     8    internal setting for exchange type
   VOSKOWN=      0    Vosko Wilk Nusair interpolation
   LHFCALC =     F    Hartree Fock is set to
   LHFONE  =     F    Hartree Fock one center treatment
   AEXX    =    0.0000 exact exchange contribution

 Linear response parameters
   LEPSILON=     F    determine dielectric tensor
   LRPA    =     F    only Hartree local field effects (RPA)
   LNABLA  =     F    use nabla operator in PAW spheres
   LVEL    =     F    velocity operator in full k-point grid
   LINTERFAST=   F  fast interpolation
   KINTER  =     0    interpolate to denser k-point grid
   CSHIFT  =0.1000    complex shift for real part using Kramers Kronig
   OMEGAMAX=  -1.0    maximum frequency
   DEG_THRESHOLD= 0.2000000E-02 threshold for treating states as degnerate
   RTIME   =   -0.100 relaxation time in fs
  (WPLASMAI=    0.000 imaginary part of plasma frequency in eV, 0.658/RTIME)
   DFIELD  = 0.0000000 0.0000000 0.0000000 field for delta impulse in time
 
 Orbital magnetization related:
   ORBITALMAG=     F  switch on orbital magnetization
   LCHIMAG   =     F  perturbation theory with respect to B field
   DQ        =  0.001000  dq finite difference perturbation B field
   LLRAUG    =     F  two centre corrections for induced B field



--------------------------------------------------------------------------------------------------------


 conjugate gradient relaxation of ions
 charge density and potential will be updated during run
 non-spin polarized calculation
 Variant of blocked Davidson
 Davidson routine will perform the subspace rotation
 perform sub-space diagonalisation
    after iterative eigenvector-optimisation
 modified Broyden-mixing scheme, WC =      100.0
 initial mixing is a Kerker type mixing with AMIX =  0.4000 and BMIX =      1.0000
 Hartree-type preconditioning will be used
 using additional bands           22
 real space projection scheme for non local part
 use partial core corrections
 calculate Harris-corrections to forces 
   (improved forces if not selfconsistent)
 use gradient corrections 
 use of overlap-Matrix (Vanderbilt PP)
 Gauss-broadening in eV      SIGMA  =   0.05


--------------------------------------------------------------------------------------------------------


  energy-cutoff  :      300.00
  volume of cell :      808.05
      direct lattice vectors                 reciprocal lattice vectors
    -7.606866067  0.003230260 -0.201340522    -0.131542937  0.030295171  0.003612624
     2.158683964  9.378145665 -0.042322904     0.000526018  0.106427826 -0.018166016
    -0.755384779 -1.929385659-11.325414814     0.002336573 -0.000936300 -0.088293325

  length of vectors
     7.609530853  9.623477740 11.513390287     0.135034784  0.107968343  0.088329199


 
 k-points in units of 2pi/SCALE and weight: pymatgen with grid density = 807 / numbe
   0.00071565  0.02637288 -0.02661484       0.167
  -0.04313200  0.03647127 -0.02541063       0.167
   0.04456329  0.01627449 -0.02781904       0.167
   0.00045264 -0.02684103 -0.01753183       0.167
  -0.04339501 -0.01674264 -0.01632762       0.167
   0.04430028 -0.03693942 -0.01873604       0.167
 
 k-points in reciprocal lattice and weights: pymatgen with grid density = 807 / numbe
   0.00000000  0.25000000  0.25000000       0.167
   0.33333333  0.25000000  0.25000000       0.167
  -0.33333333  0.25000000  0.25000000       0.167
   0.00000000 -0.25000000  0.25000000       0.167
   0.33333333 -0.25000000  0.25000000       0.167
  -0.33333333 -0.25000000  0.25000000       0.167
 
 position of ions in fractional coordinates (direct lattice) 
   0.27971191  0.33470695  0.11344170
   0.42133288  0.73651211  0.56505284
   0.57866712  0.26348789  0.43494716
   0.72028809  0.66529305  0.88655830
   0.02949092  0.94872676  0.34036999
   0.15647921  0.43834725  0.81443349
   0.73179071  0.13246322  0.04634606
   0.50389533  0.19299390  0.76651401
   0.26820929  0.86753678  0.95365394
   0.97050908  0.05127324  0.65963001
   0.84352079  0.56165275  0.18556651
   0.49610467  0.80700610  0.23348599
   0.80738821  0.86683700  0.14848110
   0.65065409  0.33120387  0.95164084
   0.45508313  0.43734144  0.70787551
   0.23432147  0.01386768  0.52925832
   0.03319216  0.69198000  0.35260723
   0.34934591  0.66879613  0.04835916
   0.44389662  0.06775597  0.15976174
   0.96680784  0.30802000  0.64739277
   0.55610338  0.93224403  0.84023826
   0.87735440  0.32022812  0.22434690
   0.12264560  0.67977188  0.77565310
   0.76567853  0.98613232  0.47074168
   0.54491687  0.56265856  0.29212449
   0.19261179  0.13316300  0.85151890
 
 position of ions in cartesian coordinates  (Angst):
  -1.49089665  2.92096131 -1.35525748
  -2.04195824  5.81827402 -6.51546056
  -4.16160864  1.63371624 -5.05361768
  -4.71267023  4.53102895-10.21382076
   1.56655742  8.24068800 -3.90092189
  -0.85927386  2.54003350 -9.27385480
  -5.31569676  1.15520384 -0.67783372
  -3.99546447  0.33265143 -8.79071176
  -0.88787012  6.29678643-10.89124452
  -7.77012430 -0.78869773 -7.66815635
  -5.34429302  4.91195677 -2.29522344
  -2.20810241  7.11933883 -2.77836648
  -4.38262719  7.84545445 -1.88085710
  -4.95332903  1.27209777-10.92274786
  -3.05239285  2.73715687 -8.12712007
  -2.15230980 -0.89033337 -6.04183539
   0.97492369  5.80928112 -4.02939272
  -1.25023786  6.17989250 -0.64633038
  -3.35107998  0.32861722 -1.90160993
  -7.17849057  1.64270915 -7.53968552
  -2.85248690  7.12337305 -9.66746831
  -6.15211434  2.57312838 -2.73102172
  -0.05145254  4.87886188 -8.83805652
  -4.05125708  8.34232364 -5.52724285
  -3.15117403  4.71483340 -3.44195817
  -1.82093969 -0.39346419 -9.68822114
 


--------------------------------------------------------------------------------------------------------


 k-point  1 :   0.0000 0.2500 0.2500  plane waves:    9539
 k-point  2 :   0.3333 0.2500 0.2500  plane waves:    9519
 k-point  3 :  -0.3333 0.2500 0.2500  plane waves:    9544
 k-point  4 :   0.0000-0.2500 0.2500  plane waves:    9533
 k-point  5 :   0.3333-0.2500 0.2500  plane waves:    9535
 k-point  6 :  -0.3333-0.2500 0.2500  plane waves:    9530

 maximum and minimum number of plane-waves per node :      9544     9519

 maximum number of plane-waves:      9544
 maximum index in each direction: 
   IXMAX=   11   IYMAX=   13   IZMAX=   16
   IXMIN=  -11   IYMIN=  -13   IZMIN=  -16


 serial   3D FFT for wavefunctions
 parallel 3D FFT for charge:
    minimum data exchange during FFTs selected (reduces bandwidth)


 total amount of memory used by VASP MPI-rank0    44579. kBytes
=======================================================================

   base      :      30000. kBytes
   nonlr-proj:       2722. kBytes
   fftplans  :        999. kBytes
   grid      :       4044. kBytes
   one-center:        210. kBytes
   wavefun   :       6604. kBytes
 
     INWAV:  cpu time    0.0000: real time    0.0002
 Broyden mixing: mesh for mixing (old mesh)
   NGX = 21   NGY = 27   NGZ = 33
  (NGX  = 48   NGY  = 64   NGZ  = 80)
  gives a total of  18711 points

 initial charge density was supplied:
 charge density of overlapping atoms calculated
 number of electron     152.0000000 magnetization 
 keeping initial charge density in first step


--------------------------------------------------------------------------------------------------------


 Maximum index for non-local projection operator         1644
 Maximum index for augmentation-charges          326 (set IRDMAX)


--------------------------------------------------------------------------------------------------------


 First call to EWALD:  gamma=   0.190
 Maximum number of real-space cells 3x 3x 2
 Maximum number of reciprocal cells 2x 3x 3

    FEWALD:  cpu time    0.0020: real time    0.0020


--------------------------------------- Iteration      1(   1)  ---------------------------------------


    POTLOK:  cpu time    0.0288: real time    0.1123
    SETDIJ:  cpu time    0.1641: real time    0.1655
     EDDAV:  cpu time    0.8092: real time    0.8220
       DOS:  cpu time    0.0004: real time    0.0004
    --------------------------------------------
      LOOP:  cpu time    1.0025: real time    1.1002

 eigenvalue-minimisations  :  1176
 total energy-change (2. order) : 0.7809012E+03  (-0.4325883E+04)
 number of electron     152.0000000 magnetization 
 augmentation part      152.0000000 magnetization 

 Free energy of the ion-electron system (eV)
  ---------------------------------------------------
  alpha Z        PSCENC =       190.34515020
  Ewald energy   TEWEN  =     -5341.95780635
  -Hartree energ DENC   =     -1434.98695950
  -exchange      EXHF   =         0.00000000
  -V(xc)+E(xc)   XCENC  =      -155.61673439
  PAW double counting   =      5707.97405778    -5218.53584324
  entropy T*S    EENTRO =        -0.01109112
  eigenvalues    EBANDS =       156.75607378
  atomic energy  EATOM  =      6876.93431449
  Solvation  Ediel_sol  =         0.00000000
  ---------------------------------------------------
  free energy    TOTEN  =       780.90116164 eV

  energy without entropy =      780.91225277  energy(sigma->0) =      780.90670721


--------------------------------------------------------------------------------------------------------




--------------------------------------- Iteration      1(   2)  ---------------------------------------


     EDDAV:  cpu time    0.7295: real time    0.7312
       DOS:  cpu time    0.0003: real time    0.0002
    --------------------------------------------
      LOOP:  cpu time    0.7298: real time    0.7315

 eigenvalue-minimisations  :  1428
 total energy-change (2. order) :-0.8093848E+03  (-0.7855711E+03)
 number of electron     152.0000000 magnetization 
 augmentation part      152.0000000 magnetization 

 Free energy of the ion-electron system (eV)
  ---------------------------------------------------
  alpha Z        PSCENC =       190.34515020
  Ewald energy   TEWEN  =     -5341.95780635
  -Hartree energ DENC   =     -1434.98695950
  -exchange      EXHF   =         0.00000000
  -V(xc)+E(xc)   XCENC  =      -155.61673439
  PAW double counting   =      5707.97405778    -5218.53584324
  entropy T*S    EENTRO =        -0.00000000
  eigenvalues    EBANDS =      -652.63978481
  atomic energy  EATOM  =      6876.93431449
  Solvation  Ediel_sol  =         0.00000000
  ---------------------------------------------------
  free energy    TOTEN  =       -28.48360582 eV

  energy without entropy =      -28.48360582  energy(sigma->0) =      -28.48360582


--------------------------------------------------------------------------------------------------------




--------------------------------------- Iteration      1(   3)  ---------------------------------------


     EDDAV:  cpu time    0.8397: real time    0.8426
       DOS:  cpu time    0.0002: real time    0.0002
    --------------------------------------------
      LOOP:  cpu time    0.8399: real time    0.8428

 eigenvalue-minimisations  :  1400
 total energy-change (2. order) :-0.8504824E+02  (-0.8401107E+02)
 number of electron     152.0000000 magnetization 
 augmentation part      152.0000000 magnetization 

 Free energy of the ion-electron system (eV)
  ---------------------------------------------------
  alpha Z        PSCENC =       190.34515020
  Ewald energy   TEWEN  =     -5341.95780635
  -Hartree energ DENC   =     -1434.98695950
  -exchange      EXHF   =         0.00000000
  -V(xc)+E(xc)   XCENC  =      -155.61673439
  PAW double counting   =      5707.97405778    -5218.53584324
  entropy T*S    EENTRO =        -0.00000000
  eigenvalues    EBANDS =      -737.68802184
  atomic energy  EATOM  =      6876.93431449
  Solvation  Ediel_sol  =         0.00000000
  ---------------------------------------------------
  free energy    TOTEN  =      -113.53184285 eV

  energy without entropy =     -113.53184285  energy(sigma->0) =     -113.53184285


--------------------------------------------------------------------------------------------------------




--------------------------------------- Iteration      1(   4)  ---------------------------------------


     EDDAV:  cpu time    0.9275: real time    0.9319
       DOS:  cpu time    0.0003: real time    0.0003
    --------------------------------------------
      LOOP:  cpu time    0.9278: real time    0.9322

 eigenvalue-minimisations  :  1442
 total energy-change (2. order) :-0.2475119E+01  (-0.2456795E+01)
 number of electron     152.0000000 magnetization 
 augmentation part      152.0000000 magnetization 

 Free energy of the ion-electron system (eV)
  ---------------------------------------------------
  alpha Z        PSCENC =       190.34515020
  Ewald energy   TEWEN  =     -5341.95780635
  -Hartree energ DENC   =     -1434.98695950
  -exchange      EXHF   =         0.00000000
  -V(xc)+E(xc)   XCENC  =      -155.61673439
  PAW double counting   =      5707.97405778    -5218.53584324
  entropy T*S    EENTRO =        -0.00000000
  eigenvalues    EBANDS =      -740.16314125
  atomic energy  EATOM  =      6876.93431449
  Solvation  Ediel_sol  =         0.00000000
  ---------------------------------------------------
  free energy    TOTEN  =      -116.00696226 eV

  energy without entropy =     -116.00696226  energy(sigma->0) =     -116.00696226


--------------------------------------------------------------------------------------------------------




--------------------------------------- Iteration      1(   5)  ---------------------------------------


     EDDAV:  cpu time    0.8030: real time    0.8061
       DOS:  cpu time    0.0002: real time    0.0002
    CHARGE:  cpu time    0.0245: real time    0.0245
    MIXING:  cpu time    0.0005: real time    0.0005
    --------------------------------------------
      LOOP:  cpu time    0.8281: real time    0.8313

 eigenvalue-minimisations  :  1456
 total energy-change (2. order) :-0.7326327E-01  (-0.7320510E-01)
 number of electron     152.0000082 magnetization 
 augmentation part       -3.4111799 magnetization 

 Broyden mixing:
  rms(total) = 0.21167E+01    rms(broyden)= 0.21167E+01
  rms(prec ) = 0.24589E+01
  weight for this iteration     100.00

 Free energy of the ion-electron system (eV)
  ---------------------------------------------------
  alpha Z        PSCENC =       190.34515020
  Ewald energy   TEWEN  =     -5341.95780635
  -Hartree energ DENC   =     -1434.98695950
  -exchange      EXHF   =         0.00000000
  -V(xc)+E(xc)   XCENC  =      -155.61673439
  PAW double counting   =      5707.97405778    -5218.53584324
  entropy T*S    EENTRO =        -0.00000000
  eigenvalues    EBANDS =      -740.23640451
  atomic energy  EATOM  =      6876.93431449
  Solvation  Ediel_sol  =         0.00000000
  ---------------------------------------------------
  free energy    TOTEN  =      -116.08022552 eV

  energy without entropy =     -116.08022552  energy(sigma->0) =     -116.08022552


--------------------------------------------------------------------------------------------------------




--------------------------------------- Iteration      1(   6)  ---------------------------------------


    POTLOK:  cpu time    0.0088: real time    0.0089
    SETDIJ:  cpu time    0.1634: real time    0.1634
     EDDAV:  cpu time    0.8514: real time    0.8542
       DOS:  cpu time    0.0003: real time    0.0002
    CHARGE:  cpu time    0.0280: real time    0.0280
    MIXING:  cpu time    0.0006: real time    0.0007
    --------------------------------------------
      LOOP:  cpu time    1.0525: real time    1.0554

 eigenvalue-minimisations  :  1330
 total energy-change (2. order) : 0.6649913E+01  (-0.1418357E+01)
 number of electron     152.0000083 magnetization 
 augmentation part       -3.1702583 magnetization 

 Broyden mixing:
  rms(total) = 0.15788E+01    rms(broyden)= 0.15788E+01
  rms(prec ) = 0.16169E+01
  weight for this iteration     100.00

 eigenvalues of (default mixing * dielectric matrix)
  average eigenvalue GAMMA=   1.7973
  1.7973

 Free energy of the ion-electron system (eV)
  ---------------------------------------------------
  alpha Z        PSCENC =       190.34515020
  Ewald energy   TEWEN  =     -5341.95780635
  -Hartree energ DENC   =     -1490.03417193
  -exchange      EXHF   =         0.00000000
  -V(xc)+E(xc)   XCENC  =      -150.79849050
  PAW double counting   =      7373.50997469    -6884.99809268
  entropy T*S    EENTRO =        -0.00000000
  eigenvalues    EBANDS =      -682.43119081
  atomic energy  EATOM  =      6876.93431449
  Solvation  Ediel_sol  =         0.00000000
  ---------------------------------------------------
  free energy    TOTEN  =      -109.43031288 eV

  energy without entropy =     -109.43031288  energy(sigma->0) =     -109.43031288


--------------------------------------------------------------------------------------------------------




--------------------------------------- Iteration      1(   7)  ---------------------------------------


    POTLOK:  cpu time    0.0102: real time    0.0104
    SETDIJ:  cpu time    0.1649: real time    0.1649
     EDDAV:  cpu time    0.8712: real time    0.8753
       DOS:  cpu time    0.0003: real time    0.0003
    CHARGE:  cpu time    0.0275: real time    0.0275
    MIXING:  cpu time    0.0006: real time    0.0006
    --------------------------------------------
      LOOP:  cpu time    1.0746: real time    1.0789

 eigenvalue-minimisations  :  1386
 total energy-change (2. order) :-0.1057948E+00  (-0.4672635E+00)
 number of electron     152.0000085 magnetization 
 augmentation part       -3.1039202 magnetization 

 Broyden mixing:
  rms(total) = 0.68243E+00    rms(broyden)= 0.68240E+00
  rms(prec ) = 0.70496E+00
  weight for this iteration     100.00

 eigenvalues of (default mixing * dielectric matrix)
  average eigenvalue GAMMA=   1.4818
  1.0568  1.9068

 Free energy of the ion-electron system (eV)
  ---------------------------------------------------
  alpha Z        PSCENC =       190.34515020
  Ewald energy   TEWEN  =     -5341.95780635
  -Hartree energ DENC   =     -1508.46037506
  -exchange      EXHF   =         0.00000000
  -V(xc)+E(xc)   XCENC  =      -148.83025395
  PAW double counting   =      9628.86729499    -9140.21953841
  entropy T*S    EENTRO =        -0.00000000
  eigenvalues    EBANDS =      -666.21489355
  atomic energy  EATOM  =      6876.93431449
  Solvation  Ediel_sol  =         0.00000000
  ---------------------------------------------------
  free energy    TOTEN  =      -109.53610764 eV

  energy without entropy =     -109.53610764  energy(sigma->0) =     -109.53610764


--------------------------------------------------------------------------------------------------------




--------------------------------------- Iteration      1(   8)  ---------------------------------------


    POTLOK:  cpu time    0.0118: real time    0.0119
    SETDIJ:  cpu time    0.1646: real time    0.1647
     EDDAV:  cpu time    0.6466: real time    0.6491
       DOS:  cpu time    0.0002: real time    0.0002
    CHARGE:  cpu time    0.0250: real time    0.0250
    MIXING:  cpu time    0.0006: real time    0.0006
    --------------------------------------------
      LOOP:  cpu time    0.8489: real time    0.8515

 eigenvalue-minimisations  :  1428
 total energy-change (2. order) : 0.2460102E-01  (-0.3447656E-01)
 number of electron     152.0000085 magnetization 
 augmentation part       -3.1284640 magnetization 

 Broyden mixing:
  rms(total) = 0.26736E+00    rms(broyden)= 0.26736E+00
  rms(prec ) = 0.27870E+00
  weight for this iteration     100.00

 eigenvalues of (default mixing * dielectric matrix)
  average eigenvalue GAMMA=   1.6250
  2.6399  1.1176  1.1176

 Free energy of the ion-electron system (eV)
  ---------------------------------------------------
  alpha Z        PSCENC =       190.34515020
  Ewald energy   TEWEN  =     -5341.95780635
  -Hartree energ DENC   =     -1507.67410769
  -exchange      EXHF   =         0.00000000
  -V(xc)+E(xc)   XCENC  =      -148.66796411
  PAW double counting   =     10669.61104995   -10180.80846621
  entropy T*S    EENTRO =        -0.00000000
  eigenvalues    EBANDS =      -667.29367690
  atomic energy  EATOM  =      6876.93431449
  Solvation  Ediel_sol  =         0.00000000
  ---------------------------------------------------
  free energy    TOTEN  =      -109.51150662 eV

  energy without entropy =     -109.51150662  energy(sigma->0) =     -109.51150662


--------------------------------------------------------------------------------------------------------




--------------------------------------- Iteration      1(   9)  ---------------------------------------


    POTLOK:  cpu time    0.0093: real time    0.0094
    SETDIJ:  cpu time    0.1648: real time    0.1648
     EDDAV:  cpu time    0.8628: real time    0.8675
       DOS:  cpu time    0.0002: real time    0.0002
    CHARGE:  cpu time    0.0289: real time    0.0289
    MIXING:  cpu time    0.0005: real time    0.0005
    --------------------------------------------
      LOOP:  cpu time    1.0666: real time    1.0714

 eigenvalue-minimisations  :  1400
 total energy-change (2. order) :-0.1455427E-01  (-0.8511419E-02)
 number of electron     152.0000084 magnetization 
 augmentation part       -3.1258608 magnetization 

 Broyden mixing:
  rms(total) = 0.60853E-01    rms(broyden)= 0.60852E-01
  rms(prec ) = 0.64462E-01
  weight for this iteration     100.00

 eigenvalues of (default mixing * dielectric matrix)
  average eigenvalue GAMMA=   1.4143
  2.4150  1.1018  1.1018  1.0387

 Free energy of the ion-electron system (eV)
  ---------------------------------------------------
  alpha Z        PSCENC =       190.34515020
  Ewald energy   TEWEN  =     -5341.95780635
  -Hartree energ DENC   =     -1513.40121599
  -exchange      EXHF   =         0.00000000
  -V(xc)+E(xc)   XCENC  =      -148.02127763
  PAW double counting   =     11399.46623183   -10910.66245547
  entropy T*S    EENTRO =        -0.00000000
  eigenvalues    EBANDS =      -662.22900197
  atomic energy  EATOM  =      6876.93431449
  Solvation  Ediel_sol  =         0.00000000
  ---------------------------------------------------
  free energy    TOTEN  =      -109.52606089 eV

  energy without entropy =     -109.52606089  energy(sigma->0) =     -109.52606089


--------------------------------------------------------------------------------------------------------




--------------------------------------- Iteration      1(  10)  ---------------------------------------


    POTLOK:  cpu time    0.0109: real time    0.0110
    SETDIJ:  cpu time    0.1653: real time    0.1653
     EDDAV:  cpu time    0.9783: real time    0.9815
       DOS:  cpu time    0.0003: real time    0.0003
    CHARGE:  cpu time    0.0263: real time    0.0263
    MIXING:  cpu time    0.0006: real time    0.0006
    --------------------------------------------
      LOOP:  cpu time    1.1817: real time    1.1850

 eigenvalue-minimisations  :  1484
 total energy-change (2. order) :-0.1605460E-02  (-0.6504343E-03)
 number of electron     152.0000084 magnetization 
 augmentation part       -3.1244438 magnetization 

 Broyden mixing:
  rms(total) = 0.29145E-01    rms(broyden)= 0.29144E-01
  rms(prec ) = 0.34182E-01
  weight for this iteration     100.00

 eigenvalues of (default mixing * dielectric matrix)
  average eigenvalue GAMMA=   1.5151
  2.6218  1.7594  1.1027  1.1027  0.9891

 Free energy of the ion-electron system (eV)
  ---------------------------------------------------
  alpha Z        PSCENC =       190.34515020
  Ewald energy   TEWEN  =     -5341.95780635
  -Hartree energ DENC   =     -1513.48569277
  -exchange      EXHF   =         0.00000000
  -V(xc)+E(xc)   XCENC  =      -148.05139463
  PAW double counting   =     11254.21522015   -10765.41014196
  entropy T*S    EENTRO =        -0.00000000
  eigenvalues    EBANDS =      -662.11731547
  atomic energy  EATOM  =      6876.93431449
  Solvation  Ediel_sol  =         0.00000000
  ---------------------------------------------------
  free energy    TOTEN  =      -109.52766635 eV

  energy without entropy =     -109.52766635  energy(sigma->0) =     -109.52766635


--------------------------------------------------------------------------------------------------------




--------------------------------------- Iteration      1(  11)  ---------------------------------------


    POTLOK:  cpu time    0.0097: real time    0.0098
    SETDIJ:  cpu time    0.1631: real time    0.1631
     EDDAV:  cpu time    0.7323: real time    0.7349
       DOS:  cpu time    0.0002: real time    0.0002
    CHARGE:  cpu time    0.0250: real time    0.0250
    MIXING:  cpu time    0.0006: real time    0.0006
    --------------------------------------------
      LOOP:  cpu time    0.9307: real time    0.9336

 eigenvalue-minimisations  :  1344
 total energy-change (2. order) :-0.3244951E-02  (-0.3332608E-03)
 number of electron     152.0000084 magnetization 
 augmentation part       -3.1238138 magnetization 

 Broyden mixing:
  rms(total) = 0.14898E-01    rms(broyden)= 0.14898E-01
  rms(prec ) = 0.16678E-01
  weight for this iteration     100.00

 eigenvalues of (default mixing * dielectric matrix)
  average eigenvalue GAMMA=   1.4398
  2.1955  2.1955  1.0666  1.0666  0.9704  1.1441

 Free energy of the ion-electron system (eV)
  ---------------------------------------------------
  alpha Z        PSCENC =       190.34515020
  Ewald energy   TEWEN  =     -5341.95780635
  -Hartree energ DENC   =     -1514.42702377
  -exchange      EXHF   =         0.00000000
  -V(xc)+E(xc)   XCENC  =      -147.98186827
  PAW double counting   =     11254.33163386   -10765.51086990
  entropy T*S    EENTRO =        -0.00000000
  eigenvalues    EBANDS =      -661.26444156
  atomic energy  EATOM  =      6876.93431449
  Solvation  Ediel_sol  =         0.00000000
  ---------------------------------------------------
  free energy    TOTEN  =      -109.53091130 eV

  energy without entropy =     -109.53091130  energy(sigma->0) =     -109.53091130


--------------------------------------------------------------------------------------------------------




--------------------------------------- Iteration      1(  12)  ---------------------------------------


    POTLOK:  cpu time    0.0087: real time    0.0087
    SETDIJ:  cpu time    0.1636: real time    0.1636
     EDDAV:  cpu time    0.8392: real time    0.8429
       DOS:  cpu time    0.0003: real time    0.0003
    CHARGE:  cpu time    0.0288: real time    0.0288
    MIXING:  cpu time    0.0010: real time    0.0010
    --------------------------------------------
      LOOP:  cpu time    1.0416: real time    1.0453

 eigenvalue-minimisations  :  1316
 total energy-change (2. order) :-0.4059154E-03  (-0.3800580E-04)
 number of electron     152.0000084 magnetization 
 augmentation part       -3.1228883 magnetization 

 Broyden mixing:
  rms(total) = 0.65652E-02    rms(broyden)= 0.65651E-02
  rms(prec ) = 0.86116E-02
  weight for this iteration     100.00

 eigenvalues of (default mixing * dielectric matrix)
  average eigenvalue GAMMA=   1.4953
  2.5495  2.5495  0.9054  1.1640  1.1640  1.0672  1.0672

 Free energy of the ion-electron system (eV)
  ---------------------------------------------------
  alpha Z        PSCENC =       190.34515020
  Ewald energy   TEWEN  =     -5341.95780635
  -Hartree energ DENC   =     -1514.68548294
  -exchange      EXHF   =         0.00000000
  -V(xc)+E(xc)   XCENC  =      -147.97275359
  PAW double counting   =     11218.99613827   -10730.17486676
  entropy T*S    EENTRO =        -0.00000000
  eigenvalues    EBANDS =      -661.01601052
  atomic energy  EATOM  =      6876.93431449
  Solvation  Ediel_sol  =         0.00000000
  ---------------------------------------------------
  free energy    TOTEN  =      -109.53131721 eV

  energy without entropy =     -109.53131721  energy(sigma->0) =     -109.53131721


--------------------------------------------------------------------------------------------------------




--------------------------------------- Iteration      1(  13)  ---------------------------------------


    POTLOK:  cpu time    0.0127: real time    0.0128
    SETDIJ:  cpu time    0.1653: real time    0.1653
     EDDAV:  cpu time    0.7377: real time    0.7415
       DOS:  cpu time    0.0002: real time    0.0002
    CHARGE:  cpu time    0.0233: real time    0.0233
    MIXING:  cpu time    0.0006: real time    0.0006
    --------------------------------------------
      LOOP:  cpu time    0.9398: real time    0.9436

 eigenvalue-minimisations  :  1176
 total energy-change (2. order) :-0.3947129E-03  (-0.3691630E-04)
 number of electron     152.0000084 magnetization 
 augmentation part       -3.1222978 magnetization 

 Broyden mixing:
  rms(total) = 0.38645E-02    rms(broyden)= 0.38645E-02
  rms(prec ) = 0.45136E-02
  weight for this iteration     100.00

 eigenvalues of (default mixing * dielectric matrix)
  average eigenvalue GAMMA=   1.5269
  2.8008  2.4427  1.4777  1.4777  1.0802  1.0802  1.0209  0.8350

 Free energy of the ion-electron system (eV)
  ---------------------------------------------------
  alpha Z        PSCENC =       190.34515020
  Ewald energy   TEWEN  =     -5341.95780635
  -Hartree energ DENC   =     -1515.07459167
  -exchange      EXHF   =         0.00000000
  -V(xc)+E(xc)   XCENC  =      -147.94757234
  PAW double counting   =     11205.97625864   -10717.14911649
  entropy T*S    EENTRO =        -0.00000000
  eigenvalues    EBANDS =      -660.65834840
  atomic energy  EATOM  =      6876.93431449
  Solvation  Ediel_sol  =         0.00000000
  ---------------------------------------------------
  free energy    TOTEN  =      -109.53171193 eV

  energy without entropy =     -109.53171193  energy(sigma->0) =     -109.53171193


--------------------------------------------------------------------------------------------------------




--------------------------------------- Iteration      1(  14)  ---------------------------------------


    POTLOK:  cpu time    0.0082: real time    0.0083
    SETDIJ:  cpu time    0.1628: real time    0.1628
     EDDAV:  cpu time    0.6408: real time    0.6436
       DOS:  cpu time    0.0002: real time    0.0002
    --------------------------------------------
      LOOP:  cpu time    0.8120: real time    0.8148

 eigenvalue-minimisations  :   994
 total energy-change (2. order) :-0.4874764E-04  (-0.6170468E-05)
 number of electron     152.0000084 magnetization 
 augmentation part       -3.1222978 magnetization 

 Free energy of the ion-electron system (eV)
  ---------------------------------------------------
  alpha Z        PSCENC =       190.34515020
  Ewald energy   TEWEN  =     -5341.95780635
  -Hartree energ DENC   =     -1515.20764442
  -exchange      EXHF   =         0.00000000
  -V(xc)+E(xc)   XCENC  =      -147.93806457
  PAW double counting   =     11208.16734979   -10719.33881489
  entropy T*S    EENTRO =        -0.00000000
  eigenvalues    EBANDS =      -660.53624493
  atomic energy  EATOM  =      6876.93431449
  Solvation  Ediel_sol  =         0.00000000
  ---------------------------------------------------
  free energy    TOTEN  =      -109.53176067 eV

  energy without entropy =     -109.53176067  energy(sigma->0) =     -109.53176067


--------------------------------------------------------------------------------------------------------




 average (electrostatic) potential at core
  the test charge radii are     1.3383  1.1712  0.9698
  (the norm of the test charge is              1.0000)
       1 -11.3436       2 -11.7293       3 -11.7293       4 -11.3436       5 -90.8785
       6 -90.7945       7 -90.8441       8 -90.9111       9 -90.8441      10 -90.8785
      11 -90.7945      12 -90.9111      13 -88.7453      14 -88.8389      15 -88.6465
      16 -88.6585      17 -88.8915      18 -88.8389      19 -88.6141      20 -88.8915
      21 -88.6141      22 -88.5988      23 -88.5988      24 -88.6585      25 -88.6465
      26 -88.7453
 
 
 
 E-fermi :   2.0327     XC(G=0):  -8.0045     alpha+bet : -7.9632


 k-point     1 :       0.0000    0.2500    0.2500
  band No.  band energies     occupation 
      1     -11.4698      2.00000
      2     -11.4219      2.00000
      3     -11.2048      2.00000
      4     -11.1861      2.00000
      5     -11.1780      2.00000
      6     -11.1637      2.00000
      7     -11.1489      2.00000
      8     -11.0986      2.00000
      9     -11.0329      2.00000
     10     -10.8831      2.00000
     11     -10.8753      2.00000
     12     -10.8606      2.00000
     13     -10.8568      2.00000
     14     -10.8298      2.00000
     15     -10.7191      2.00000
     16     -10.5359      2.00000
     17     -10.4393      2.00000
     18     -10.3378      2.00000
     19     -10.0181      2.00000
     20      -9.9266      2.00000
     21      -9.7595      2.00000
     22      -9.7179      2.00000
     23      -9.6793      2.00000
     24      -9.6145      2.00000
     25      -9.4761      2.00000
     26      -9.4375      2.00000
     27      -6.8368      2.00000
     28      -6.7287      2.00000
     29      -6.4765      2.00000
     30      -6.2027      2.00000
     31      -6.0220      2.00000
     32      -5.6503      2.00000
     33      -5.1838      2.00000
     34      -4.8565      2.00000
     35      -2.4988      2.00000
     36      -2.3753      2.00000
     37      -2.2956      2.00000
     38      -2.1597      2.00000
     39      -2.0597      2.00000
     40      -1.8380      2.00000
     41      -1.7400      2.00000
     42      -1.6176      2.00000
     43      -1.5532      2.00000
     44      -1.3535      2.00000
     45      -1.2985      2.00000
     46      -1.1166      2.00000
     47      -0.9111      2.00000
     48      -0.8028      2.00000
     49      -0.6486      2.00000
     50      -0.5063      2.00000
     51      -0.4825      2.00000
     52      -0.3862      2.00000
     53      -0.2930      2.00000
     54      -0.1396      2.00000
     55      -0.0769      2.00000
     56       0.0150      2.00000
     57       0.0611      2.00000
     58       0.1201      2.00000
     59       0.3658      2.00000
     60       0.5214      2.00000
     61       0.5789      2.00000
     62       0.5906      2.00000
     63       0.6910      2.00000
     64       0.7633      2.00000
     65       0.8136      2.00000
     66       0.9301      2.00000
     67       1.0083      2.00000
     68       1.0332      2.00000
     69       1.1307      2.00000
     70       1.2443      2.00000
     71       1.3391      2.00000
     72       1.3854      2.00000
     73       1.4628      2.00000
     74       1.4946      2.00000
     75       1.6253      2.00000
     76       1.7071      2.00000
     77       3.9114      0.00000
     78       3.9745      0.00000
     79       4.2074      0.00000
     80       4.2941      0.00000
     81       4.5157      0.00000
     82       4.5292      0.00000
     83       4.6833      0.00000
     84       4.7803      0.00000
     85       4.8046      0.00000
     86       4.9350      0.00000
     87       5.0102      0.00000
     88       5.1678      0.00000
     89       5.2859      0.00000
     90       5.3871      0.00000
     91       5.5388      0.00000
     92       5.6590      0.00000
     93       5.7348      0.00000
     94       5.7671      0.00000
     95       5.9942      0.00000
     96       6.0886      0.00000
     97       6.2011      0.00000
     98       6.3761      0.00000

 k-point     2 :       0.3333    0.2500    0.2500
  band No.  band energies     occupation 
      1     -11.4550      2.00000
      2     -11.3460      2.00000
      3     -11.2202      2.00000
      4     -11.1968      2.00000
      5     -11.1889      2.00000
      6     -11.1650      2.00000
      7     -11.1521      2.00000
      8     -11.1108      2.00000
      9     -11.0530      2.00000
     10     -10.9619      2.00000
     11     -10.8827      2.00000
     12     -10.8494      2.00000
     13     -10.8468      2.00000
     14     -10.7848      2.00000
     15     -10.6571      2.00000
     16     -10.5840      2.00000
     17     -10.3866      2.00000
     18     -10.2966      2.00000
     19     -10.1208      2.00000
     20      -9.9727      2.00000
     21      -9.7754      2.00000
     22      -9.6931      2.00000
     23      -9.6407      2.00000
     24      -9.6017      2.00000
     25      -9.5354      2.00000
     26      -9.4777      2.00000
     27      -6.8428      2.00000
     28      -6.6729      2.00000
     29      -6.3543      2.00000
     30      -6.2633      2.00000
     31      -5.9652      2.00000
     32      -5.5533      2.00000
     33      -5.2232      2.00000
     34      -4.9509      2.00000
     35      -2.4767      2.00000
     36      -2.3674      2.00000
     37      -2.1847      2.00000
     38      -2.0908      2.00000
     39      -1.9962      2.00000
     40      -1.9435      2.00000
     41      -1.8403      2.00000
     42      -1.4854      2.00000
     43      -1.4337      2.00000
     44      -1.3398      2.00000
     45      -1.1154      2.00000
     46      -1.0296      2.00000
     47      -0.8838      2.00000
     48      -0.8487      2.00000
     49      -0.7399      2.00000
     50      -0.6327      2.00000
     51      -0.5882      2.00000
     52      -0.4565      2.00000
     53      -0.3944      2.00000
     54      -0.3590      2.00000
     55      -0.3166      2.00000
     56      -0.0373      2.00000
     57       0.0514      2.00000
     58       0.2617      2.00000
     59       0.3733      2.00000
     60       0.4609      2.00000
     61       0.5247      2.00000
     62       0.6078      2.00000
     63       0.6528      2.00000
     64       0.7659      2.00000
     65       0.8409      2.00000
     66       0.8954      2.00000
     67       1.0052      2.00000
     68       1.0261      2.00000
     69       1.1946      2.00000
     70       1.2402      2.00000
     71       1.3674      2.00000
     72       1.3759      2.00000
     73       1.4646      2.00000
     74       1.5267      2.00000
     75       1.5723      2.00000
     76       1.7638      2.00000
     77       3.6295      0.00000
     78       4.0665      0.00000
     79       4.1889      0.00000
     80       4.3638      0.00000
     81       4.4417      0.00000
     82       4.6034      0.00000
     83       4.6452      0.00000
     84       4.7336      0.00000
     85       4.8526      0.00000
     86       4.9774      0.00000
     87       5.1280      0.00000
     88       5.2780      0.00000
     89       5.3308      0.00000
     90       5.3821      0.00000
     91       5.5481      0.00000
     92       5.6287      0.00000
     93       5.7497      0.00000
     94       5.8196      0.00000
     95       5.9609      0.00000
     96       6.1485      0.00000
     97       6.2487      0.00000
     98       6.4731      0.00000

 k-point     3 :      -0.3333    0.2500    0.2500
  band No.  band energies     occupation 
      1     -11.4798      2.00000
      2     -11.3141      2.00000
      3     -11.2080      2.00000
      4     -11.2010      2.00000
      5     -11.1890      2.00000
      6     -11.1658      2.00000
      7     -11.1455      2.00000
      8     -11.1073      2.00000
      9     -11.0703      2.00000
     10     -10.9669      2.00000
     11     -10.8777      2.00000
     12     -10.8562      2.00000
     13     -10.8435      2.00000
     14     -10.7864      2.00000
     15     -10.6940      2.00000
     16     -10.5345      2.00000
     17     -10.4329      2.00000
     18     -10.2710      2.00000
     19     -10.0581      2.00000
     20      -9.9730      2.00000
     21      -9.8064      2.00000
     22      -9.7363      2.00000
     23      -9.6421      2.00000
     24      -9.6155      2.00000
     25      -9.5222      2.00000
     26      -9.4695      2.00000
     27      -6.7267      2.00000
     28      -6.6777      2.00000
     29      -6.3946      2.00000
     30      -6.3394      2.00000
     31      -5.8865      2.00000
     32      -5.5965      2.00000
     33      -5.3685      2.00000
     34      -4.8247      2.00000
     35      -2.5288      2.00000
     36      -2.3824      2.00000
     37      -2.2282      2.00000
     38      -2.0399      2.00000
     39      -1.8897      2.00000
     40      -1.7990      2.00000
     41      -1.7652      2.00000
     42      -1.6072      2.00000
     43      -1.4103      2.00000
     44      -1.3704      2.00000
     45      -1.2487      2.00000
     46      -1.1318      2.00000
     47      -0.9720      2.00000
     48      -0.7826      2.00000
     49      -0.7298      2.00000
     50      -0.6095      2.00000
     51      -0.5992      2.00000
     52      -0.4479      2.00000
     53      -0.3963      2.00000
     54      -0.3011      2.00000
     55      -0.2267      2.00000
     56      -0.0584      2.00000
     57       0.0064      2.00000
     58       0.2183      2.00000
     59       0.3404      2.00000
     60       0.4791      2.00000
     61       0.5239      2.00000
     62       0.6140      2.00000
     63       0.6681      2.00000
     64       0.7794      2.00000
     65       0.8647      2.00000
     66       0.9116      2.00000
     67       0.9500      2.00000
     68       1.0371      2.00000
     69       1.1273      2.00000
     70       1.2525      2.00000
     71       1.3154      2.00000
     72       1.3716      2.00000
     73       1.4968      2.00000
     74       1.6271      2.00000
     75       1.6739      2.00000
     76       1.6953      2.00000
     77       3.9302      0.00000
     78       4.0449      0.00000
     79       4.1925      0.00000
     80       4.3092      0.00000
     81       4.3941      0.00000
     82       4.5327      0.00000
     83       4.5867      0.00000
     84       4.6363      0.00000
     85       4.7925      0.00000
     86       4.9541      0.00000
     87       5.0690      0.00000
     88       5.1646      0.00000
     89       5.3075      0.00000
     90       5.3773      0.00000
     91       5.5190      0.00000
     92       5.7359      0.00000
     93       5.8679      0.00000
     94       5.9121      0.00000
     95       6.0047      0.00000
     96       6.1448      0.00000
     97       6.2344      0.00000
     98       6.4476      0.00000

 k-point     4 :       0.0000   -0.2500    0.2500
  band No.  band energies     occupation 
      1     -11.5209      2.00000
      2     -11.3074      2.00000
      3     -11.2389      2.00000
      4     -11.2057      2.00000
      5     -11.1792      2.00000
      6     -11.1681      2.00000
      7     -11.1477      2.00000
      8     -11.1270      2.00000
      9     -10.9751      2.00000
     10     -10.9364      2.00000
     11     -10.8634      2.00000
     12     -10.8571      2.00000
     13     -10.8330      2.00000
     14     -10.7986      2.00000
     15     -10.7697      2.00000
     16     -10.6455      2.00000
     17     -10.3473      2.00000
     18     -10.2514      2.00000
     19     -10.0608      2.00000
     20      -9.9639      2.00000
     21      -9.7923      2.00000
     22      -9.7236      2.00000
     23      -9.6381      2.00000
     24      -9.5547      2.00000
     25      -9.5364      2.00000
     26      -9.4295      2.00000
     27      -6.8621      2.00000
     28      -6.6031      2.00000
     29      -6.4839      2.00000
     30      -6.4438      2.00000
     31      -5.8369      2.00000
     32      -5.5546      2.00000
     33      -5.3861      2.00000
     34      -4.7826      2.00000
     35      -2.4633      2.00000
     36      -2.2984      2.00000
     37      -2.2166      2.00000
     38      -2.2014      2.00000
     39      -2.0875      2.00000
     40      -1.9588      2.00000
     41      -1.8658      2.00000
     42      -1.6610      2.00000
     43      -1.5880      2.00000
     44      -1.3496      2.00000
     45      -1.1795      2.00000
     46      -0.9825      2.00000
     47      -0.8868      2.00000
     48      -0.7699      2.00000
     49      -0.6566      2.00000
     50      -0.5623      2.00000
     51      -0.4793      2.00000
     52      -0.4254      2.00000
     53      -0.3689      2.00000
     54      -0.2095      2.00000
     55      -0.0593      2.00000
     56      -0.0131      2.00000
     57       0.1147      2.00000
     58       0.2000      2.00000
     59       0.3728      2.00000
     60       0.5237      2.00000
     61       0.5937      2.00000
     62       0.6265      2.00000
     63       0.6548      2.00000
     64       0.7934      2.00000
     65       0.8263      2.00000
     66       0.8771      2.00000
     67       0.9244      2.00000
     68       1.0474      2.00000
     69       1.1586      2.00000
     70       1.2328      2.00000
     71       1.3406      2.00000
     72       1.3931      2.00000
     73       1.4427      2.00000
     74       1.5995      2.00000
     75       1.6418      2.00000
     76       1.7272      2.00000
     77       3.8540      0.00000
     78       4.0536      0.00000
     79       4.1936      0.00000
     80       4.2293      0.00000
     81       4.2958      0.00000
     82       4.4320      0.00000
     83       4.6439      0.00000
     84       4.7428      0.00000
     85       4.8465      0.00000
     86       4.9739      0.00000
     87       5.0859      0.00000
     88       5.1679      0.00000
     89       5.3367      0.00000
     90       5.4127      0.00000
     91       5.4897      0.00000
     92       5.6625      0.00000
     93       5.8023      0.00000
     94       5.8705      0.00000
     95       5.9539      0.00000
     96       6.1760      0.00000
     97       6.2422      0.00000
     98       6.3364      0.00000

 k-point     5 :       0.3333   -0.2500    0.2500
  band No.  band energies     occupation 
      1     -11.4462      2.00000
      2     -11.3693      2.00000
      3     -11.2343      2.00000
      4     -11.2029      2.00000
      5     -11.1869      2.00000
      6     -11.1732      2.00000
      7     -11.1473      2.00000
      8     -11.1082      2.00000
      9     -11.0199      2.00000
     10     -10.9076      2.00000
     11     -10.8792      2.00000
     12     -10.8570      2.00000
     13     -10.8394      2.00000
     14     -10.7825      2.00000
     15     -10.7207      2.00000
     16     -10.5830      2.00000
     17     -10.3780      2.00000
     18     -10.3421      2.00000
     19     -10.0775      2.00000
     20      -9.9382      2.00000
     21      -9.7510      2.00000
     22      -9.7097      2.00000
     23      -9.6837      2.00000
     24      -9.6233      2.00000
     25      -9.5318      2.00000
     26      -9.4735      2.00000
     27      -6.7385      2.00000
     28      -6.6857      2.00000
     29      -6.3559      2.00000
     30      -6.2492      2.00000
     31      -6.0836      2.00000
     32      -5.5912      2.00000
     33      -5.1845      2.00000
     34      -4.9284      2.00000
     35      -2.5533      2.00000
     36      -2.4074      2.00000
     37      -2.1984      2.00000
     38      -2.0394      2.00000
     39      -1.9489      2.00000
     40      -1.8845      2.00000
     41      -1.7343      2.00000
     42      -1.4997      2.00000
     43      -1.4298      2.00000
     44      -1.3047      2.00000
     45      -1.1803      2.00000
     46      -0.9802      2.00000
     47      -0.9348      2.00000
     48      -0.7975      2.00000
     49      -0.7585      2.00000
     50      -0.7379      2.00000
     51      -0.6179      2.00000
     52      -0.5140      2.00000
     53      -0.4253      2.00000
     54      -0.3244      2.00000
     55      -0.2345      2.00000
     56      -0.0759      2.00000
     57       0.0755      2.00000
     58       0.1749      2.00000
     59       0.3249      2.00000
     60       0.4819      2.00000
     61       0.5324      2.00000
     62       0.5855      2.00000
     63       0.6920      2.00000
     64       0.7981      2.00000
     65       0.8332      2.00000
     66       0.9356      2.00000
     67       0.9510      2.00000
     68       1.0616      2.00000
     69       1.1870      2.00000
     70       1.2589      2.00000
     71       1.3348      2.00000
     72       1.3680      2.00000
     73       1.4320      2.00000
     74       1.5896      2.00000
     75       1.6358      2.00000
     76       1.7399      2.00000
     77       3.6764      0.00000
     78       4.1071      0.00000
     79       4.2137      0.00000
     80       4.3045      0.00000
     81       4.4518      0.00000
     82       4.5406      0.00000
     83       4.5999      0.00000
     84       4.7507      0.00000
     85       5.0194      0.00000
     86       5.0633      0.00000
     87       5.1511      0.00000
     88       5.2174      0.00000
     89       5.2576      0.00000
     90       5.3661      0.00000
     91       5.4206      0.00000
     92       5.6307      0.00000
     93       5.6396      0.00000
     94       5.9440      0.00000
     95       6.0928      0.00000
     96       6.1722      0.00000
     97       6.2555      0.00000
     98       6.3932      0.00000

 k-point     6 :      -0.3333   -0.2500    0.2500
  band No.  band energies     occupation 
      1     -11.4722      2.00000
      2     -11.3120      2.00000
      3     -11.2327      2.00000
      4     -11.2084      2.00000
      5     -11.1790      2.00000
      6     -11.1658      2.00000
      7     -11.1430      2.00000
      8     -11.1214      2.00000
      9     -11.0637      2.00000
     10     -10.9203      2.00000
     11     -10.8842      2.00000
     12     -10.8527      2.00000
     13     -10.8410      2.00000
     14     -10.7849      2.00000
     15     -10.6992      2.00000
     16     -10.5590      2.00000
     17     -10.4699      2.00000
     18     -10.2949      2.00000
     19     -10.0143      2.00000
     20      -9.9318      2.00000
     21      -9.8077      2.00000
     22      -9.7520      2.00000
     23      -9.6481      2.00000
     24      -9.6146      2.00000
     25      -9.5097      2.00000
     26      -9.4722      2.00000
     27      -6.8551      2.00000
     28      -6.6132      2.00000
     29      -6.4037      2.00000
     30      -6.3561      2.00000
     31      -5.8132      2.00000
     32      -5.5534      2.00000
     33      -5.3177      2.00000
     34      -4.9051      2.00000
     35      -2.5985      2.00000
     36      -2.3998      2.00000
     37      -2.1234      2.00000
     38      -2.0558      2.00000
     39      -1.9098      2.00000
     40      -1.8730      2.00000
     41      -1.7402      2.00000
     42      -1.6170      2.00000
     43      -1.4919      2.00000
     44      -1.3345      2.00000
     45      -1.2669      2.00000
     46      -0.9759      2.00000
     47      -0.9061      2.00000
     48      -0.7842      2.00000
     49      -0.7339      2.00000
     50      -0.5910      2.00000
     51      -0.5380      2.00000
     52      -0.4627      2.00000
     53      -0.4156      2.00000
     54      -0.3470      2.00000
     55      -0.3049      2.00000
     56      -0.0842      2.00000
     57       0.0468      2.00000
     58       0.2163      2.00000
     59       0.3989      2.00000
     60       0.4801      2.00000
     61       0.5307      2.00000
     62       0.5934      2.00000
     63       0.7010      2.00000
     64       0.7765      2.00000
     65       0.7877      2.00000
     66       0.8652      2.00000
     67       0.9152      2.00000
     68       1.0913      2.00000
     69       1.1524      2.00000
     70       1.2945      2.00000
     71       1.3329      2.00000
     72       1.3781      2.00000
     73       1.4736      2.00000
     74       1.5363      2.00000
[...]
     98       6.4046      0.00000

 k-point     6 :      -0.3333   -0.2500    0.2500
  band No.  band energies     occupation 
      1     -11.4706      2.00000
      2     -11.3212      2.00000
      3     -11.2222      2.00000
      4     -11.1990      2.00000
      5     -11.1675      2.00000
      6     -11.1547      2.00000
      7     -11.1310      2.00000
      8     -11.1143      2.00000
      9     -11.0579      2.00000
     10     -10.9164      2.00000
     11     -10.8764      2.00000
     12     -10.8376      2.00000
     13     -10.8294      2.00000
     14     -10.7697      2.00000
     15     -10.6955      2.00000
     16     -10.5646      2.00000
     17     -10.4716      2.00000
     18     -10.2910      2.00000
     19     -10.0098      2.00000
     20      -9.9265      2.00000
     21      -9.8154      2.00000
     22      -9.7573      2.00000
     23      -9.6456      2.00000
     24      -9.6216      2.00000
     25      -9.5131      2.00000
     26      -9.4837      2.00000
     27      -6.8578      2.00000
     28      -6.6069      2.00000
     29      -6.4033      2.00000
     30      -6.3403      2.00000
     31      -5.8069      2.00000
     32      -5.5461      2.00000
     33      -5.3071      2.00000
     34      -4.8982      2.00000
     35      -2.5933      2.00000
     36      -2.3970      2.00000
     37      -2.1224      2.00000
     38      -2.0472      2.00000
     39      -1.9169      2.00000
     40      -1.8663      2.00000
     41      -1.7514      2.00000
     42      -1.6254      2.00000
     43      -1.4996      2.00000
     44      -1.3300      2.00000
     45      -1.2584      2.00000
     46      -0.9747      2.00000
     47      -0.9031      2.00000
     48      -0.7844      2.00000
     49      -0.7424      2.00000
     50      -0.6032      2.00000
     51      -0.5466      2.00000
     52      -0.4477      2.00000
     53      -0.4072      2.00000
     54      -0.3359      2.00000
     55      -0.3106      2.00000
     56      -0.0802      2.00000
     57       0.0301      2.00000
     58       0.2215      2.00000
     59       0.3986      2.00000
     60       0.4941      2.00000
     61       0.5260      2.00000
     62       0.5904      2.00000
     63       0.6978      2.00000
     64       0.7721      2.00000
     65       0.7928      2.00000
     66       0.8530      2.00000
     67       0.9152      2.00000
     68       1.1080      2.00000
     69       1.1690      2.00000
     70       1.2975      2.00000
     71       1.3288      2.00000
     72       1.3873      2.00000
     73       1.4784      2.00000
     74       1.5500      2.00000
     75       1.6182      2.00000
     76       1.7456      2.00000
     77       4.0143      0.00000
     78       4.0695      0.00000
     79       4.1965      0.00000
     80       4.3019      0.00000
     81       4.3925      0.00000
     82       4.4680      0.00000
     83       4.5490      0.00000
     84       4.7015      0.00000
     85       4.8528      0.00000
     86       4.8846      0.00000
     87       5.1001      0.00000
     88       5.2214      0.00000
     89       5.3547      0.00000
     90       5.4396      0.00000
     91       5.6127      0.00000
     92       5.7281      0.00000
     93       5.8263      0.00000
     94       5.9022      0.00000
     95       6.0786      0.00000
     96       6.1114      0.00000
     97       6.2961      0.00000
     98       6.3709      0.00000


--------------------------------------------------------------------------------------------------------


 soft charge-density along one line, spin component           1
         0         1         2         3         4         5         6         7         8         9
 total charge-density along one line
 
 pseudopotential strength for first ion, spin component:           1
-16.319  -0.010  -0.003 -15.100  -0.009  -0.003  -0.000   0.001
 -0.010 -16.322  -0.008  -0.009 -15.103  -0.007   0.000  -0.000
 -0.003  -0.008 -16.303  -0.003  -0.007 -15.085   0.002  -0.005
-15.100  -0.009  -0.003 -13.974  -0.009  -0.002  -0.000   0.001
 -0.009 -15.103  -0.007  -0.009 -13.976  -0.007   0.000  -0.000
 -0.003  -0.007 -15.085  -0.002  -0.007 -13.960   0.002  -0.004
 -0.000   0.000   0.002  -0.000   0.000   0.002   1.007  -3.834
  0.001  -0.000  -0.005   0.001  -0.000  -0.004  -3.834  14.854
 -0.007   0.000   0.001  -0.007   0.000   0.001   0.001  -0.001
 -0.000   0.001   0.000  -0.000   0.001   0.000   0.002  -0.005
 -0.001   0.001   0.003  -0.001   0.001   0.003   0.001  -0.003
  0.000  -0.006  -0.001   0.000  -0.006  -0.001   0.001  -0.004
 -0.001  -0.000  -0.005  -0.001  -0.000  -0.004  -0.001   0.004
 total augmentation occupancy for first ion, spin component:           1
  3.078  -0.176  -0.031  -1.126   0.170   0.028  -0.007   0.000   0.073   0.012  -0.004  -0.019   0.020
 -0.176   3.055  -0.161   0.170  -1.105   0.156  -0.001  -0.001  -0.015  -0.009  -0.046   0.043   0.011
 -0.031  -0.161   3.526   0.028   0.156  -1.571   0.095  -0.002   0.013  -0.014   0.004   0.036  -0.037
 -1.126   0.170   0.028   1.177  -0.163  -0.026   0.008   0.000  -0.068  -0.012   0.005   0.019  -0.019
  0.170  -1.105   0.156  -0.163   1.159  -0.151   0.001   0.000   0.015   0.008   0.045  -0.039  -0.011
  0.028   0.156  -1.571  -0.026  -0.151   1.618  -0.103  -0.003  -0.014   0.014  -0.006  -0.035   0.040
 -0.007  -0.001   0.095   0.008   0.001  -0.103   0.474   0.012  -0.004  -0.012  -0.013  -0.012   0.020
  0.000  -0.001  -0.002   0.000   0.000  -0.003   0.012   0.000  -0.000  -0.000  -0.000  -0.000   0.000
  0.073  -0.015   0.013  -0.068   0.015  -0.014  -0.004  -0.000   0.016   0.007  -0.005   0.000  -0.006
  0.012  -0.009  -0.014  -0.012   0.008   0.014  -0.012  -0.000   0.007   0.015  -0.007  -0.006   0.000
 -0.004  -0.046   0.004   0.005   0.045  -0.006  -0.013  -0.000  -0.005  -0.007   0.013   0.005  -0.001
 -0.019   0.043   0.036   0.019  -0.039  -0.035  -0.012  -0.000   0.000  -0.006   0.005   0.022  -0.012
  0.020   0.011  -0.037  -0.019  -0.011   0.040   0.020   0.000  -0.006   0.000  -0.001  -0.012   0.021


------------------------ aborting loop because EDIFF is reached ----------------------------------------


 


 total charge     
 
# of ion       s       p       d       tot
------------------------------------------
    1        0.074   6.081   0.071   6.226
    2        0.054   6.032   0.048   6.134
    3        0.054   6.032   0.048   6.134
    4        0.074   6.081   0.071   6.226
    5        1.258   0.968   0.069   2.296
    6        1.249   0.994   0.069   2.312
    7        1.279   0.939   0.067   2.285
    8        1.268   0.950   0.068   2.286
    9        1.279   0.939   0.067   2.285
   10        1.258   0.968   0.069   2.296
   11        1.249   0.994   0.069   2.312
   12        1.268   0.950   0.068   2.286
   13        1.355   2.344   0.000   3.699
   14        1.351   2.355   0.000   3.706
   15        1.347   2.359   0.000   3.707
   16        1.350   2.354   0.000   3.704
   17        1.360   2.328   0.000   3.688
   18        1.351   2.355   0.000   3.706
   19        1.353   2.352   0.000   3.704
   20        1.360   2.328   0.000   3.688
   21        1.353   2.352   0.000   3.704
   22        1.350   2.356   0.000   3.706
   23        1.350   2.356   0.000   3.706
   24        1.350   2.354   0.000   3.704
   25        1.347   2.359   0.000   3.707
   26        1.355   2.344   0.000   3.699
--------------------------------------------------
tot         29.299  64.822   0.787  94.908
 
    CHARGE:  cpu time    0.0271: real time    0.0271
    FORLOC:  cpu time    0.0020: real time    0.0020
    FORNL :  cpu time    0.1469: real time    0.1470
    STRESS:  cpu time    0.3677: real time    0.3677
    FORCOR:  cpu time    0.0095: real time    0.0095
    FORHAR:  cpu time    0.0032: real time    0.0032
    MIXING:  cpu time    0.0003: real time    0.0003
    OFIELD:  cpu time    0.0000: real time    0.0000

  FORCE on cell =-STRESS in cart. coord.  units (eV):
  Direction    XX          YY          ZZ          XY          YZ          ZX
  --------------------------------------------------------------------------------------
  Alpha Z   190.51521   190.51521   190.51521
  Ewald   -1737.17752 -1660.80460 -1946.22915    70.24208  -205.54593   148.61843
  Hartree   528.69488   592.15177   392.61308    50.13175  -143.50914    81.11967
  E(xc)    -560.31791  -558.83090  -559.97448     0.28782    -0.45203     1.66164
  Local   -1179.09145 -1316.78298  -845.06841  -118.17644   345.50002  -216.33603
  n-local  1584.34813  1573.21146  1580.84814    -2.00314     2.07382   -12.42707
  augment  -355.55669  -354.36942  -357.30098     0.44657    -0.92500     2.64920
  Kinetic  1528.53804  1535.04853  1544.42652    -0.94447     2.86342    -5.37174
  Fock        0.00000     0.00000     0.00000     0.00000     0.00000     0.00000
  -------------------------------------------------------------------------------------
  Total      -0.04731     0.13908    -0.17007    -0.01583     0.00516    -0.08590
  in kB      -0.09390     0.27601    -0.33750    -0.03141     0.01024    -0.17048
  external pressure =       -0.05 kB  Pullay stress =        0.00 kB


 VOLUME and BASIS-vectors are now :
 -----------------------------------------------------------------------------
  energy-cutoff  :      300.00
  volume of cell :      807.33
      direct lattice vectors                 reciprocal lattice vectors
    -7.600689376  0.022171021 -0.201387841    -0.131575769  0.029977358  0.003630681
     2.133715119  9.371038156 -0.047859168     0.000790086  0.106439422 -0.018101018
    -0.750061900 -1.920458835-11.325613679     0.002336293 -0.000982832 -0.088283505

  length of vectors
     7.603389219  9.611003425 11.511745315     0.134996321  0.107970466  0.088319882


 FORCES acting on ions
    electron-ion (+dipol)            ewald-force                    non-local-force                 convergence-correction
 -----------------------------------------------------------------------------------------------
   -.411E+02 0.153E+02 0.533E+02   0.405E+02 -.151E+02 -.533E+02   0.650E+00 -.119E+00 0.185E-01   0.173E-02 -.145E-02 0.215E-03
   0.818E+01 0.404E+02 -.252E+02   -.771E+01 -.399E+02 0.246E+02   -.473E+00 -.530E+00 0.596E+00   -.663E-03 0.262E-02 -.237E-02
   -.818E+01 -.404E+02 0.252E+02   0.771E+01 0.399E+02 -.246E+02   0.473E+00 0.530E+00 -.596E+00   0.663E-03 -.262E-02 0.237E-02
   0.411E+02 -.153E+02 -.533E+02   -.405E+02 0.151E+02 0.533E+02   -.650E+00 0.119E+00 -.185E-01   -.173E-02 0.145E-02 -.215E-03
   0.189E+02 -.409E+02 -.110E+02   -.237E+02 0.492E+02 0.176E+02   0.481E+01 -.836E+01 -.659E+01   0.151E-03 -.350E-02 0.395E-02
   -.250E+02 0.890E+00 0.909E+01   0.263E+02 -.469E+01 -.205E+02   -.137E+01 0.379E+01 0.114E+02   0.680E-03 -.120E-02 0.281E-04
   0.538E+02 0.310E+01 -.845E+01   -.628E+02 -.754E+01 0.134E+02   0.902E+01 0.442E+01 -.492E+01   0.128E-02 0.119E-03 0.212E-02
   0.278E+02 0.649E+00 -.546E+02   -.332E+02 -.334E+01 0.641E+02   0.534E+01 0.270E+01 -.947E+01   0.276E-03 0.239E-03 -.355E-02
   -.538E+02 -.310E+01 0.845E+01   0.628E+02 0.754E+01 -.134E+02   -.902E+01 -.442E+01 0.492E+01   -.128E-02 -.119E-03 -.212E-02
   -.189E+02 0.409E+02 0.110E+02   0.237E+02 -.492E+02 -.176E+02   -.481E+01 0.836E+01 0.659E+01   -.151E-03 0.350E-02 -.395E-02
   0.250E+02 -.890E+00 -.909E+01   -.263E+02 0.469E+01 0.205E+02   0.137E+01 -.379E+01 -.114E+02   -.680E-03 0.120E-02 -.281E-04
   -.278E+02 -.649E+00 0.546E+02   0.332E+02 0.334E+01 -.641E+02   -.534E+01 -.270E+01 0.947E+01   -.276E-03 -.239E-03 0.355E-02
   0.527E+02 -.325E+02 -.164E+02   -.552E+02 0.338E+02 0.191E+02   0.247E+01 -.125E+01 -.271E+01   0.205E-03 -.432E-02 0.277E-03
   0.334E+02 -.388E+02 -.384E+01   -.330E+02 0.431E+02 0.256E+01   -.375E+00 -.424E+01 0.127E+01   -.389E-02 -.517E-02 0.250E-02
   0.334E+02 -.439E+02 -.803E+02   -.355E+02 0.462E+02 0.824E+02   0.206E+01 -.228E+01 -.209E+01   0.465E-02 -.448E-02 -.920E-02
   0.338E+02 -.699E-02 -.151E+02   -.376E+02 0.618E-01 0.157E+02   0.380E+01 -.348E-01 -.658E+00   -.266E-03 -.447E-02 -.367E-02
   0.322E+02 0.582E+02 0.712E+02   -.346E+02 -.603E+02 -.750E+02   0.242E+01 0.210E+01 0.377E+01   0.722E-02 0.885E-03 0.138E-01
   -.334E+02 0.388E+02 0.384E+01   0.330E+02 -.431E+02 -.256E+01   0.375E+00 0.424E+01 -.127E+01   0.389E-02 0.517E-02 -.250E-02
   -.523E+02 -.660E+01 0.603E+02   0.552E+02 0.721E+01 -.625E+02   -.294E+01 -.597E+00 0.219E+01   -.462E-02 -.491E-02 0.493E-02
   -.322E+02 -.582E+02 -.712E+02   0.346E+02 0.603E+02 0.750E+02   -.242E+01 -.210E+01 -.377E+01   -.722E-02 -.885E-03 -.138E-01
   0.523E+02 0.660E+01 -.603E+02   -.552E+02 -.721E+01 0.625E+02   0.294E+01 0.597E+00 -.219E+01   0.462E-02 0.491E-02 -.493E-02
   0.513E+02 0.152E+02 0.671E+02   -.535E+02 -.171E+02 -.701E+02   0.221E+01 0.188E+01 0.300E+01   0.341E-02 0.124E-01 0.122E-01
   -.513E+02 -.152E+02 -.671E+02   0.535E+02 0.171E+02 0.701E+02   -.221E+01 -.188E+01 -.300E+01   -.341E-02 -.124E-01 -.122E-01
   -.338E+02 0.699E-02 0.151E+02   0.376E+02 -.618E-01 -.157E+02   -.380E+01 0.348E-01 0.658E+00   0.266E-03 0.447E-02 0.367E-02
   -.334E+02 0.439E+02 0.803E+02   0.355E+02 -.462E+02 -.824E+02   -.206E+01 0.228E+01 0.209E+01   -.465E-02 0.448E-02 0.920E-02
   -.527E+02 0.325E+02 0.164E+02   0.552E+02 -.338E+02 -.191E+02   -.247E+01 0.125E+01 0.271E+01   -.205E-03 0.432E-02 -.277E-03
 -----------------------------------------------------------------------------------------------
   0.381E-11 0.303E-10 -.502E-10   -.426E-13 -.355E-13 -.213E-13   -.222E-14 0.222E-15 0.355E-14   -.163E-12 0.357E-12 -.113E-11
 
 
 POSITION                                       TOTAL-FORCE (eV/Angst)
 -----------------------------------------------------------------------------------
     -1.50017      2.93057     -1.35387         0.001233      0.012984      0.005900
     -2.05384      5.82440     -6.51805        -0.000884     -0.004295      0.008093
     -4.16320      1.64835     -5.05681         0.000884      0.004295     -0.008093
     -4.71687      4.54218    -10.22099        -0.001233     -0.012984     -0.005900
      1.54647      8.23330     -3.91126         0.005161     -0.022487     -0.003168
     -0.85781      2.57121     -9.26967         0.018820     -0.011370      0.031210
     -5.29921      1.17368     -0.69164        -0.020605     -0.022601     -0.002587
     -4.00682      0.33544     -8.80866        -0.032305      0.007936     -0.024113
     -0.91783      6.29907    -10.88322         0.020605      0.022601      0.002587
     -7.76350     -0.76055     -7.66360        -0.005161      0.022487      0.003168
     -5.35923      4.90154     -2.30519        -0.018820      0.011370     -0.031210
     -2.21021      7.13731     -2.76620         0.032305     -0.007936      0.024113
     -4.38815      7.85425     -1.88264         0.001351      0.000723      0.003044
     -4.95396      1.29608    -10.93238         0.003780      0.013290      0.000558
     -3.05154      2.74936     -8.13129         0.001501      0.008885      0.006150
     -2.14835     -0.86790     -6.03331        -0.008918      0.015478      0.010368
      0.95475      5.80488     -4.03147        -0.017206     -0.014485     -0.002421
     -1.26307      6.17667     -0.64248        -0.003780     -0.013290     -0.000558
     -3.33355      0.34183     -1.90506        -0.003819      0.007139      0.005407
     -7.17178      1.66787     -7.54339         0.017206      0.014485      0.002421
     -2.88349      7.13092     -9.66980         0.003819     -0.007139     -0.005407
     -6.16881      2.56891     -2.74428         0.000928     -0.002988     -0.009812
     -0.04823      4.90384     -8.83058        -0.000928      0.002988      0.009812
     -4.06869      8.34065     -5.54155         0.008918     -0.015478     -0.010368
     -3.16549      4.72339     -3.44357        -0.001501     -0.008885     -0.006150
     -1.82888     -0.38150     -9.69222        -0.001351     -0.000723     -0.003044
 -----------------------------------------------------------------------------------
    total drift:                                0.000000      0.000000     -0.000000


--------------------------------------------------------------------------------------------------------



  FREE ENERGIE OF THE ION-ELECTRON SYSTEM (eV)
  ---------------------------------------------------
  free  energy   TOTEN  =      -109.55331887 eV

  energy  without entropy=     -109.55331887  energy(sigma->0) =     -109.55331887
 
 d Force = 0.2020044E-03[ 0.140E-03, 0.264E-03]  d Energy = 0.2561288E-03-0.541E-04
 d Force = 0.2288033E+00[ 0.229E+00, 0.229E+00]  d Ewald  = 0.4381504E+00-0.209E+00


--------------------------------------------------------------------------------------------------------


    POTLOK:  cpu time    0.1713: real time    0.1713


--------------------------------------------------------------------------------------------------------


 Conjugate gradient step on ions:
 trial-energy change:   -0.000256  1 .order   -0.000219   -0.000277   -0.000161
  (g-gl).g = 0.183E-03      g.g   = 0.215E-03  gl.gl    = 0.542E-03
 g(Force)  = 0.197E-03   g(Stress)= 0.186E-04 ortho     =-0.276E-04
 gamma     =   0.33747
 trial     =   1.34529
 opt step  =   3.21715  (harmonic =   3.21715) maximal distance =0.00145942
 next E    =  -109.553394   (d E  =  -0.00033)


--------------------------------------------------------------------------------------------------------


  
 reached required accuracy - stopping structural energy minimisation
     LOOP+:  cpu time    2.7470: real time    2.9948
    4ORBIT:  cpu time    0.0000: real time    0.0000
 


 total charge     
 
# of ion       s       p       d       tot
------------------------------------------
    1        0.074   6.081   0.071   6.226
    2        0.054   6.032   0.048   6.134
    3        0.054   6.032   0.048   6.134
    4        0.074   6.081   0.071   6.226
    5        1.258   0.968   0.069   2.296
    6        1.249   0.994   0.069   2.312
    7        1.279   0.939   0.067   2.285
    8        1.268   0.950   0.068   2.286
    9        1.279   0.939   0.067   2.285
   10        1.258   0.968   0.069   2.296
   11        1.249   0.994   0.069   2.312
   12        1.268   0.950   0.068   2.286
   13        1.355   2.344   0.000   3.699
   14        1.351   2.355   0.000   3.706
   15        1.347   2.359   0.000   3.707
   16        1.350   2.354   0.000   3.704
   17        1.360   2.328   0.000   3.688
   18        1.351   2.355   0.000   3.706
   19        1.353   2.352   0.000   3.704
   20        1.360   2.328   0.000   3.688
   21        1.353   2.352   0.000   3.704
   22        1.350   2.356   0.000   3.706
   23        1.350   2.356   0.000   3.706
   24        1.350   2.354   0.000   3.704
   25        1.347   2.359   0.000   3.707
   26        1.355   2.344   0.000   3.699
--------------------------------------------------
tot         29.299  64.822   0.787  94.908
 

 total amount of memory used by VASP MPI-rank0    44579. kBytes
=======================================================================

   base      :      30000. kBytes
   nonlr-proj:       2722. kBytes
   fftplans  :        999. kBytes
   grid      :       4044. kBytes
   one-center:        210. kBytes
   wavefun   :       6604. kBytes
 
  
  
 General timing and accounting informations for this job:
 ========================================================
  
                  Total CPU time used (sec):      121.510
                            User time (sec):      119.139
                          System time (sec):        2.371
                         Elapsed time (sec):      129.454
  
                   Maximum memory used (kb):       88900.
                   Average memory used (kb):           0.
  
                          Minor page faults:        58444
                          Major page faults:            0
                 Voluntary context switches:         1338
