PROCAR new format
# of k-points:    6         # of bands:   98         # of ions:   26

 k-point     1 :    0.00000000 0.25000000 0.25000000     weight = 0.16666667

band     1 # energy  -11.46887442 # occ.  2.00000000
 
ion      s      p      d    tot
    1  0.000  0.022  0.000  0.023
    2  0.000  0.018  0.000  0.018
    3  0.000  0.018  0.000  0.018
    4  0.000  0.022  0.000  0.023
    5  0.021  0.001  0.000  0.022
    6  0.011  0.001  0.000  0.011
    7  0.016  0.001  0.000  0.017
    8  0.022  0.001  0.000  0.023
    9  0.016  0.001  0.000  0.017
   10  0.021  0.001  0.000  0.022
   11  0.011  0.001  0.000  0.011
   12  0.022  0.001  0.000  0.023
   13  0.039  0.001  0.000  0.039
   14  0.039  0.001  0.000  0.040
   15  0.018  0.000  0.000  0.018
   16  0.033  0.001  0.000  0.034
   17  0.032  0.001  0.000  0.033
   18  0.039  0.001  0.000  0.040
   19  0.031  0.001  0.000  0.031
   20  0.032  0.001  0.000  0.033
   21  0.031  0.001  0.000  0.031
   22  0.007  0.000  0.000  0.007
   23  0.007  0.000  0.000  0.007
   24  0.033  0.001  0.000  0.034
   25  0.018  0.000  0.000  0.018
   26  0.039  0.001  0.000  0.039
tot    0.534  0.098  0.000  0.632
 
band     2 # energy  -11.41753053 # occ.  2.00000000
 
ion      s      p      d    tot
    1  0.000  0.009  0.000  0.009
    2  0.000  0.110  0.000  0.110
    3  0.000  0.110  0.000  0.110
    4  0.000  0.009  0.000  0.009
    5  0.017  0.001  0.000  0.019
    6  0.018  0.001  0.000  0.019
    7  0.007  0.001  0.000  0.008
    8  0.013  0.001  0.000  0.013
    9  0.007  0.001  0.000  0.008
   10  0.017  0.001  0.000  0.019
   11  0.018  0.001  0.000  0.019
   12  0.013  0.001  0.000  0.013
   13  0.021  0.001  0.000  0.022
   14  0.022  0.000  0.000  0.023
   15  0.025  0.001  0.000  0.026
   16  0.030  0.001  0.000  0.031
   17  0.037  0.001  0.000  0.038
   18  0.022  0.000  0.000  0.023
   19  0.011  0.000  0.000  0.012
   20  0.037  0.001  0.000  0.038
   21  0.011  0.000  0.000  0.012
   22  0.019  0.000  0.000  0.019
   23  0.019  0.000  0.000  0.019
   24  0.030  0.001  0.000  0.031
   25  0.025  0.001  0.000  0.026
   26  0.021  0.001  0.000  0.022
tot    0.443  0.253  0.000  0.696
 
band     3 # energy  -11.19394946 # occ.  2.00000000
 
ion      s      p      d    tot
    1  0.000  0.007  0.000  0.008
    2  0.000  0.436  0.000  0.436
    3  0.000  0.436  0.000  0.436
    4  0.000  0.007  0.000  0.008
    5  0.000  0.000  0.000  0.000
    6  0.004  0.000  0.000  0.004
    7  0.000  0.000  0.000  0.000
    8  0.001  0.000  0.000  0.001
    9  0.000  0.000  0.000  0.000
   10  0.000  0.000  0.000  0.000
   11  0.004  0.000  0.000  0.004
   12  0.001  0.000  0.000  0.001
   13  0.001  0.000  0.000  0.001
   14  0.000  0.000  0.000  0.000
   15  0.009  0.000  0.000  0.009
   16  0.004  0.000  0.000  0.004
   17  0.002  0.000  0.000  0.003
   18  0.000  0.000  0.000  0.000
   19  0.001  0.000  0.000  0.001
   20  0.002  0.000  0.000  0.003
   21  0.001  0.000  0.000  0.001
   22  0.007  0.000  0.000  0.007
   23  0.007  0.000  0.000  0.007
   24  0.004  0.000  0.000  0.004
   25  0.009  0.000  0.000  0.009
   26  0.001  0.000  0.000  0.001
tot    0.059  0.889  0.000  0.948
 
band     4 # energy  -11.17516873 # occ.  2.00000000
 
ion      s      p      d    tot
    1  0.000  0.002  0.000  0.002
    2  0.000  0.478  0.000  0.478
    3  0.000  0.478  0.000  0.478
    4  0.000  0.002  0.000  0.002
    5  0.000  0.000  0.000  0.000
    6  0.000  0.000  0.000  0.000
    7  0.001  0.000  0.000  0.001
    8  0.000  0.000  0.000  0.000
    9  0.001  0.000  0.000  0.001
   10  0.000  0.000  0.000  0.000
   11  0.000  0.000  0.000  0.000
   12  0.000  0.000  0.000  0.000
   13  0.000  0.000  0.000  0.000
   14  0.000  0.000  0.000  0.000
   15  0.000  0.000  0.000  0.000
   16  0.000  0.000  0.000  0.000
   17  0.000  0.000  0.000  0.000
   18  0.000  0.000  0.000  0.000
   19  0.003  0.000  0.000  0.003
   20  0.000  0.000  0.000  0.000
   21  0.003  0.000  0.000  0.003
   22  0.002  0.000  0.000  0.003
   23  0.002  0.000  0.000  0.003
   24  0.000  0.000  0.000  0.000
   25  0.000  0.000  0.000  0.000
   26  0.000  0.000  0.000  0.000
tot    0.016  0.960  0.000  0.976
 
band     5 # energy  -11.16778236 # occ.  2.00000000
 
ion      s      p      d    tot
    1  0.000  0.002  0.000  0.002
    2  0.000  0.472  0.000  0.472
    3  0.000  0.472  0.000  0.472
    4  0.000  0.002  0.000  0.002
    5  0.000  0.000  0.000  0.000
    6  0.001  0.000  0.000  0.001
    7  0.001  0.000  0.000  0.001
    8  0.000  0.000  0.000  0.000
    9  0.001  0.000  0.000  0.001
   10  0.000  0.000  0.000  0.000
   11  0.001  0.000  0.000  0.001
   12  0.000  0.000  0.000  0.000
   13  0.001  0.000  0.000  0.001
   14  0.001  0.000  0.000  0.001
   15  0.000  0.000  0.000  0.000
   16  0.002  0.000  0.000  0.002
   17  0.000  0.000  0.000  0.000
   18  0.001  0.000  0.000  0.001
   19  0.000  0.000  0.000  0.000
   20  0.000  0.000  0.000  0.000
   21  0.000  0.000  0.000  0.000
   22  0.006  0.000  0.000  0.006
   23  0.006  0.000  0.000  0.006
   24  0.002  0.000  0.000  0.002
   25  0.000  0.000  0.000  0.000
   26  0.001  0.000  0.000  0.001
tot    0.023  0.949  0.000  0.972
 
band     6 # energy  -11.15472643 # occ.  2.00000000
 
ion      s      p      d    tot
    1  0.000  0.003  0.000  0.003
    2  0.000  0.459  0.000  0.459
    3  0.000  0.459  0.000  0.459
    4  0.000  0.003  0.000  0.003
    5  0.000  0.000  0.000  0.000
    6  0.001  0.000  0.000  0.002
    7  0.001  0.000  0.000  0.001
    8  0.000  0.000  0.000  0.000
    9  0.001  0.000  0.000  0.001
   10  0.000  0.000  0.000  0.000
   11  0.001  0.000  0.000  0.002
   12  0.000  0.000  0.000  0.000
   13  0.000  0.000  0.000  0.000
   14  0.002  0.000  0.000  0.002
   15  0.001  0.000  0.000  0.001
   16  0.001  0.000  0.000  0.001
   17  0.002  0.000  0.000  0.002
   18  0.002  0.000  0.000  0.002
   19  0.001  0.000  0.000  0.001
   20  0.002  0.000  0.000  0.002
   21  0.001  0.000  0.000  0.001
   22  0.009  0.000  0.000  0.009
   23  0.009  0.000  0.000  0.009
   24  0.001  0.000  0.000  0.001
   25  0.001  0.000  0.000  0.001
   26  0.000  0.000  0.000  0.000
tot    0.037  0.926  0.000  0.963
 
band     7 # energy  -11.13720172 # occ.  2.00000000
 
ion      s      p      d    tot
    1  0.000  0.010  0.000  0.010
    2  0.000  0.458  0.000  0.458
    3  0.000  0.458  0.000  0.458
    4  0.000  0.010  0.000  0.010
    5  0.000  0.000  0.000  0.000
    6  0.001  0.000  0.000  0.001
    7  0.001  0.000  0.000  0.001
    8  0.002  0.000  0.000  0.002
    9  0.001  0.000  0.000  0.001
   10  0.000  0.000  0.000  0.000
   11  0.001  0.000  0.000  0.001
   12  0.002  0.000  0.000  0.002
   13  0.003  0.000  0.000  0.003
   14  0.005  0.000  0.000  0.005
   15  0.002  0.000  0.000  0.002
   16  0.000  0.000  0.000  0.000
   17  0.001  0.000  0.000  0.001
   18  0.005  0.000  0.000  0.005
   19  0.001  0.000  0.000  0.001
   20  0.001  0.000  0.000  0.001
   21  0.001  0.000  0.000  0.001
   22  0.001  0.000  0.000  0.001
   23  0.001  0.000  0.000  0.001
   24  0.000  0.000  0.000  0.000
   25  0.002  0.000  0.000  0.002
   26  0.003  0.000  0.000  0.003
tot    0.031  0.938  0.000  0.968
 
band     8 # energy  -11.08945897 # occ.  2.00000000
 
ion      s      p      d    tot
    1  0.000  0.051  0.000  0.051
    2  0.000  0.319  0.000  0.319
    3  0.000  0.319  0.000  0.319
    4  0.000  0.051  0.000  0.051
    5  0.003  0.000  0.000  0.003
    6  0.003  0.000  0.000  0.004
    7  0.001  0.000  0.000  0.001
    8  0.008  0.001  0.000  0.009
    9  0.001  0.000  0.000  0.001
   10  0.003  0.000  0.000  0.003
   11  0.003  0.000  0.000  0.004
   12  0.008  0.001  0.000  0.009
   13  0.017  0.000  0.000  0.017
   14  0.025  0.000  0.000  0.025
   15  0.004  0.000  0.000  0.004
   16  0.001  0.000  0.000  0.001
   17  0.010  0.000  0.000  0.010
   18  0.025  0.000  0.000  0.025
   19  0.000  0.000  0.000  0.000
   20  0.010  0.000  0.000  0.010
   21  0.000  0.000  0.000  0.000
   22  0.001  0.000  0.000  0.001
   23  0.001  0.000  0.000  0.001
   24  0.001  0.000  0.000  0.001
   25  0.004  0.000  0.000  0.004
   26  0.017  0.000  0.000  0.017
tot    0.148  0.746  0.000  0.894
 
band     9 # energy  -11.04200603 # occ.  2.00000000
 
ion      s      p      d    tot
    1  0.000  0.120  0.000  0.120
    2  0.000  0.068  0.000  0.068
    3  0.000  0.068  0.000  0.068
    4  0.000  0.120  0.000  0.120
    5  0.011  0.001  0.000  0.013
    6  0.010  0.001  0.000  0.011
    7  0.013  0.001  0.000  0.015
    8  0.005  0.001  0.000  0.006
    9  0.013  0.001  0.000  0.015
   10  0.011  0.001  0.000  0.013
   11  0.010  0.001  0.000  0.011
   12  0.005  0.001  0.000  0.006
   13  0.002  0.000  0.000  0.002
   14  0.043  0.000  0.000  0.044
   15  0.012  0.000  0.000  0.012
   16  0.021  0.001  0.000  0.022
   17  0.030  0.001  0.000  0.031
   18  0.043  0.000  0.000  0.044
   19  0.027  0.001  0.000  0.027
   20  0.030  0.001  0.000  0.031
   21  0.027  0.001  0.000  0.027
   22  0.009  0.000  0.000  0.010
   23  0.009  0.000  0.000  0.010
   24  0.021  0.001  0.000  0.022
   25  0.012  0.000  0.000  0.012
   26  0.002  0.000  0.000  0.002
tot    0.368  0.392  0.000  0.760
 
band    10 # energy  -10.87458194 # occ.  2.00000000
 
ion      s      p      d    tot
    1  0.000  0.366  0.000  0.366
    2  0.000  0.030  0.000  0.030
    3  0.000  0.030  0.000  0.030
    4  0.000  0.366  0.000  0.366
    5  0.002  0.000  0.000  0.002
    6  0.008  0.001  0.000  0.008
    7  0.000  0.000  0.000  0.001
    8  0.000  0.000  0.000  0.000
    9  0.000  0.000  0.000  0.001
   10  0.002  0.000  0.000  0.002
   11  0.008  0.001  0.000  0.008
   12  0.000  0.000  0.000  0.000
   13  0.001  0.000  0.000  0.001
   14  0.006  0.000  0.000  0.006
   15  0.004  0.000  0.000  0.004
   16  0.000  0.000  0.000  0.000
   17  0.021  0.000  0.000  0.022
   18  0.006  0.000  0.000  0.006
   19  0.001  0.000  0.000  0.001
   20  0.021  0.000  0.000  0.022
   21  0.001  0.000  0.000  0.001
   22  0.018  0.000  0.000  0.018
   23  0.018  0.000  0.000  0.018
   24  0.000  0.000  0.000  0.000
   25  0.004  0.000  0.000  0.004
   26  0.001  0.000  0.000  0.001
tot    0.120  0.795  0.000  0.916
 
band    11 # energy  -10.86426965 # occ.  2.00000000
 
ion      s      p      d    tot
    1  0.000  0.379  0.000  0.379
    2  0.000  0.022  0.000  0.022
    3  0.000  0.022  0.000  0.022
    4  0.000  0.379  0.000  0.379
    5  0.008  0.001  0.000  0.009
    6  0.001  0.000  0.000  0.001
    7  0.000  0.000  0.000  0.000
    8  0.001  0.000  0.000  0.001
    9  0.000  0.000  0.000  0.000
   10  0.008  0.001  0.000  0.009
   11  0.001  0.000  0.000  0.001
   12  0.001  0.000  0.000  0.001
   13  0.003  0.000  0.000  0.003
   14  0.000  0.000  0.000  0.000
   15  0.008  0.000  0.000  0.009
   16  0.020  0.001  0.000  0.021
   17  0.009  0.000  0.000  0.009
   18  0.000  0.000  0.000  0.000
   19  0.003  0.000  0.000  0.003
   20  0.009  0.000  0.000  0.009
   21  0.003  0.000  0.000  0.003
   22  0.001  0.000  0.000  0.001
   23  0.001  0.000  0.000  0.001
   24  0.020  0.001  0.000  0.021
   25  0.008  0.000  0.000  0.009
   26  0.003  0.000  0.000  0.003
tot    0.110  0.809  0.000  0.919
 
band    12 # energy  -10.85550075 # occ.  2.00000000
 
ion      s      p      d    tot
    1  0.000  0.455  0.000  0.456
    2  0.000  0.004  0.000  0.004
    3  0.000  0.004  0.000  0.004
    4  0.000  0.455  0.000  0.456
    5  0.000  0.000  0.000  0.000
    6  0.000  0.000  0.000  0.000
    7  0.001  0.000  0.000  0.002
    8  0.000  0.000  0.000  0.000
    9  0.001  0.000  0.000  0.002
   10  0.000  0.000  0.000  0.000
   11  0.000  0.000  0.000  0.000
   12  0.000  0.000  0.000  0.000
   13  0.000  0.000  0.000  0.000
   14  0.004  0.000  0.000  0.004
   15  0.000  0.000  0.000  0.000
   16  0.000  0.000  0.000  0.000
   17  0.001  0.000  0.000  0.001
   18  0.004  0.000  0.000  0.004
   19  0.012  0.000  0.000  0.012
   20  0.001  0.000  0.000  0.001
   21  0.012  0.000  0.000  0.012
   22  0.002  0.000  0.000  0.002
   23  0.002  0.000  0.000  0.002
   24  0.000  0.000  0.000  0.000
   25  0.000  0.000  0.000  0.000
   26  0.000  0.000  0.000  0.000
tot    0.040  0.920  0.000  0.961
 
band    13 # energy  -10.84180018 # occ.  2.00000000
 
ion      s      p      d    tot
    1  0.000  0.461  0.000  0.461
    2  0.000  0.002  0.000  0.002
    3  0.000  0.002  0.000  0.002
    4  0.000  0.461  0.000  0.461
    5  0.000  0.000  0.000  0.000
    6  0.000  0.000  0.000  0.000
    7  0.000  0.000  0.000  0.000
    8  0.000  0.000  0.000  0.000
    9  0.000  0.000  0.000  0.000
   10  0.000  0.000  0.000  0.000
   11  0.000  0.000  0.000  0.000
   12  0.000  0.000  0.000  0.000
   13  0.007  0.000  0.000  0.007
   14  0.001  0.000  0.000  0.001
   15  0.006  0.000  0.000  0.006
   16  0.000  0.000  0.000  0.000
   17  0.000  0.000  0.000  0.000
   18  0.001  0.000  0.000  0.001
   19  0.000  0.000  0.000  0.000
   20  0.000  0.000  0.000  0.000
   21  0.000  0.000  0.000  0.000
   22  0.002  0.000  0.000  0.002
   23  0.002  0.000  0.000  0.002
   24  0.000  0.000  0.000  0.000
   25  0.006  0.000  0.000  0.006
   26  0.007  0.000  0.000  0.007
tot    0.035  0.928  0.000  0.963
 
band    14 # energy  -10.81813290 # occ.  2.00000000
 
ion      s      p      d    tot
    1  0.000  0.462  0.000  0.462
    2  0.000  0.006  0.000  0.006
    3  0.000  0.006  0.000  0.006
    4  0.000  0.462  0.000  0.462
    5  0.000  0.000  0.000  0.000
    6  0.000  0.000  0.000  0.001
    7  0.000  0.000  0.000  0.001
    8  0.000  0.000  0.000  0.000
    9  0.000  0.000  0.000  0.001
   10  0.000  0.000  0.000  0.000
   11  0.000  0.000  0.000  0.001
   12  0.000  0.000  0.000  0.000
   13  0.001  0.000  0.000  0.001
   14  0.000  0.000  0.000  0.000
   15  0.001  0.000  0.000  0.001
   16  0.001  0.000  0.000  0.001
   17  0.000  0.000  0.000  0.000
   18  0.000  0.000  0.000  0.000
   19  0.000  0.000  0.000  0.000
   20  0.000  0.000  0.000  0.000
   21  0.000  0.000  0.000  0.000
   22  0.010  0.000  0.000  0.011
   23  0.010  0.000  0.000  0.011
   24  0.001  0.000  0.000  0.001
   25  0.001  0.000  0.000  0.001
   26  0.001  0.000  0.000  0.001
tot    0.031  0.937  0.000  0.967
 
band    15 # energy  -10.71499024 # occ.  2.00000000
 
ion      s      p      d    tot
    1  0.000  0.289  0.000  0.289
    2  0.000  0.014  0.000  0.014
    3  0.000  0.014  0.000  0.014
    4  0.000  0.289  0.000  0.289
    5  0.003  0.000  0.000  0.003
    6  0.008  0.001  0.000  0.009
    7  0.012  0.001  0.000  0.013
    8  0.003  0.001  0.000  0.004
    9  0.012  0.001  0.000  0.013
   10  0.003  0.000  0.000  0.003
   11  0.008  0.001  0.000  0.009
   12  0.003  0.001  0.000  0.004
   13  0.007  0.000  0.000  0.007
   14  0.018  0.001  0.000  0.018
   15  0.008  0.000  0.000  0.008
   16  0.004  0.000  0.000  0.005
   17  0.015  0.000  0.000  0.015
   18  0.018  0.001  0.000  0.018
   19  0.013  0.001  0.000  0.014
   20  0.015  0.000  0.000  0.015
   21  0.013  0.001  0.000  0.014
   22  0.026  0.001  0.000  0.027
   23  0.026  0.001  0.000  0.027
   24  0.004  0.000  0.000  0.005
   25  0.008  0.000  0.000  0.008
   26  0.007  0.000  0.000  0.007
tot    0.234  0.616  0.000  0.850
 
band    16 # energy  -10.53815497 # occ.  2.00000000
 
ion      s      p      d    tot
    1  0.000  0.095  0.000  0.095
    2  0.000  0.023  0.000  0.023
    3  0.000  0.023  0.000  0.023
    4  0.000  0.095  0.000  0.095
    5  0.014  0.003  0.000  0.017
    6  0.018  0.002  0.000  0.019
    7  0.010  0.001  0.000  0.011
    8  0.007  0.001  0.000  0.007
    9  0.010  0.001  0.000  0.011
   10  0.014  0.003  0.000  0.017
   11  0.018  0.002  0.000  0.019
   12  0.007  0.001  0.000  0.007
   13  0.015  0.000  0.000  0.015
   14  0.008  0.000  0.000  0.009
   15  0.037  0.001  0.000  0.038
   16  0.060  0.001  0.000  0.061
   17  0.007  0.001  0.000  0.008
   18  0.008  0.000  0.000  0.009
   19  0.018  0.000  0.000  0.019
   20  0.007  0.001  0.000  0.008
   21  0.018  0.000  0.000  0.019
   22  0.038  0.001  0.000  0.039
   23  0.038  0.001  0.000  0.039
   24  0.060  0.001  0.000  0.061
   25  0.037  0.001  0.000  0.038
   26  0.015  0.000  0.000  0.015
tot    0.463  0.259  0.001  0.723
 
band    17 # energy  -10.44858973 # occ.  2.00000000
 
ion      s      p      d    tot
    1  0.000  0.073  0.000  0.073
    2  0.000  0.004  0.000  0.004
    3  0.000  0.004  0.000  0.004
    4  0.000  0.073  0.000  0.073
    5  0.009  0.002  0.000  0.011
    6  0.005  0.002  0.000  0.007
    7  0.015  0.002  0.000  0.017
    8  0.013  0.002  0.000  0.015
    9  0.015  0.002  0.000  0.017
   10  0.009  0.002  0.000  0.011
   11  0.005  0.002  0.000  0.007
   12  0.013  0.002  0.000  0.015
   13  0.009  0.001  0.000  0.009
   14  0.105  0.001  0.000  0.106
   15  0.009  0.000  0.000  0.009
   16  0.006  0.000  0.000  0.006
   17  0.073  0.001  0.000  0.074
   18  0.105  0.001  0.000  0.106
   19  0.011  0.001  0.000  0.012
   20  0.073  0.001  0.000  0.074
   21  0.011  0.001  0.000  0.012
   22  0.007  0.000  0.000  0.008
   23  0.007  0.000  0.000  0.008
   24  0.006  0.000  0.000  0.006
   25  0.009  0.000  0.000  0.009
   26  0.009  0.001  0.000  0.009
tot    0.523  0.179  0.001  0.703
 
band    18 # energy  -10.33966759 # occ.  2.00000000
 
ion      s      p      d    tot
    1  0.000  0.045  0.000  0.046
    2  0.000  0.012  0.000  0.012
    3  0.000  0.012  0.000  0.012
    4  0.000  0.045  0.000  0.046
    5  0.001  0.001  0.000  0.003
    6  0.014  0.002  0.000  0.017
    7  0.010  0.002  0.000  0.013
    8  0.017  0.002  0.000  0.019
    9  0.010  0.002  0.000  0.013
   10  0.001  0.001  0.000  0.003
   11  0.014  0.002  0.000  0.017
   12  0.017  0.002  0.000  0.019
   13  0.078  0.001  0.000  0.080
   14  0.000  0.001  0.000  0.001
   15  0.011  0.001  0.000  0.011
   16  0.014  0.000  0.000  0.014
   17  0.029  0.001  0.000  0.030
   18  0.000  0.001  0.000  0.001
   19  0.042  0.001  0.000  0.043
   20  0.029  0.001  0.000  0.030
   21  0.042  0.001  0.000  0.043
   22  0.055  0.001  0.000  0.056
   23  0.055  0.001  0.000  0.056
   24  0.014  0.000  0.000  0.014
   25  0.011  0.001  0.000  0.011
   26  0.078  0.001  0.000  0.080
tot    0.544  0.140  0.001  0.685
 
band    19 # energy  -10.00289006 # occ.  2.00000000
 
ion      s      p      d    tot
    1  0.000  0.013  0.000  0.013
    2  0.000  0.002  0.000  0.002
    3  0.000  0.002  0.000  0.002
    4  0.000  0.013  0.000  0.013
    5  0.001  0.002  0.000  0.004
    6  0.004  0.003  0.000  0.007
    7  0.009  0.002  0.000  0.011
    8  0.012  0.003  0.000  0.016
    9  0.009  0.002  0.000  0.011
   10  0.001  0.002  0.000  0.004
   11  0.004  0.003  0.000  0.007
   12  0.012  0.003  0.000  0.016
   13  0.079  0.001  0.000  0.081
   14  0.002  0.000  0.000  0.002
   15  0.030  0.000  0.000  0.030
   16  0.011  0.000  0.000  0.011
   17  0.091  0.001  0.000  0.091
   18  0.002  0.000  0.000  0.002
   19  0.066  0.001  0.000  0.067
   20  0.091  0.001  0.000  0.091
   21  0.066  0.001  0.000  0.067
   22  0.002  0.000  0.000  0.002
   23  0.002  0.000  0.000  0.002
   24  0.011  0.000  0.000  0.011
   25  0.030  0.000  0.000  0.030
   26  0.079  0.001  0.000  0.081
tot    0.616  0.056  0.002  0.674
 
band    20 # energy   -9.92332158 # occ.  2.00000000
 
ion      s      p      d    tot
    1  0.000  0.016  0.000  0.016
    2  0.000  0.002  0.000  0.002
    3  0.000  0.002  0.000  0.002
    4  0.000  0.016  0.000  0.016
    5  0.010  0.001  0.000  0.012
    6  0.005  0.003  0.000  0.008
    7  0.003  0.003  0.000  0.006
    8  0.001  0.003  0.000  0.004
    9  0.003  0.003  0.000  0.006
   10  0.010  0.001  0.000  0.012
   11  0.005  0.003  0.000  0.008
   12  0.001  0.003  0.000  0.004
   13  0.052  0.000  0.000  0.053
   14  0.062  0.000  0.000  0.062
   15  0.062  0.001  0.000  0.062
   16  0.016  0.001  0.000  0.016
   17  0.041  0.001  0.000  0.042
   18  0.062  0.000  0.000  0.062
   19  0.037  0.000  0.000  0.038
   20  0.041  0.001  0.000  0.042
   21  0.037  0.000  0.000  0.038
   22  0.016  0.000  0.000  0.016
   23  0.016  0.000  0.000  0.016
   24  0.016  0.001  0.000  0.016
   25  0.062  0.001  0.000  0.062
   26  0.052  0.000  0.000  0.053
tot    0.611  0.063  0.002  0.676
 
band    21 # energy   -9.76591187 # occ.  2.00000000
 
ion      s      p      d    tot
    1  0.000  0.017  0.000  0.017
    2  0.000  0.006  0.000  0.006
    3  0.000  0.006  0.000  0.006
    4  0.000  0.017  0.000  0.017
    5  0.001  0.003  0.000  0.003
    6  0.002  0.002  0.000  0.004
    7  0.001  0.003  0.000  0.004
    8  0.001  0.003  0.000  0.005
    9  0.001  0.003  0.000  0.004
   10  0.001  0.003  0.000  0.003
   11  0.002  0.002  0.000  0.004
   12  0.001  0.003  0.000  0.005
   13  0.015  0.000  0.000  0.015
   14  0.112  0.001  0.000  0.112
   15  0.034  0.000  0.000  0.035
   16  0.032  0.000  0.000  0.032
   17  0.049  0.000  0.000  0.049
   18  0.112  0.001  0.000  0.112
   19  0.031  0.000  0.000  0.032
   20  0.049  0.000  0.000  0.049
   21  0.031  0.000  0.000  0.032
   22  0.030  0.000  0.000  0.030
   23  0.030  0.000  0.000  0.030
   24  0.032  0.000  0.000  0.032
   25  0.034  0.000  0.000  0.035
   26  0.015  0.000  0.000  0.015
tot    0.615  0.071  0.003  0.690
 
band    22 # energy   -9.72850419 # occ.  2.00000000
 
ion      s      p      d    tot
    1  0.000  0.009  0.000  0.009
    2  0.000  0.003  0.000  0.003
    3  0.000  0.003  0.000  0.003
    4  0.000  0.009  0.000  0.009
    5  0.003  0.003  0.000  0.006
    6  0.002  0.001  0.000  0.003
    7  0.002  0.003  0.000  0.006
    8  0.000  0.003  0.000  0.003
    9  0.002  0.003  0.000  0.006
   10  0.003  0.003  0.000  0.006
   11  0.002  0.001  0.000  0.003
   12  0.000  0.003  0.000  0.003
   13  0.041  0.000  0.000  0.041
   14  0.071  0.000  0.000  0.071
   15  0.030  0.000  0.000  0.030
   16  0.064  0.001  0.000  0.065
   17  0.004  0.000  0.000  0.004
   18  0.071  0.000  0.000  0.071
   19  0.083  0.000  0.000  0.083
   20  0.004  0.000  0.000  0.004
   21  0.083  0.000  0.000  0.083
   22  0.017  0.000  0.000  0.017
   23  0.017  0.000  0.000  0.017
   24  0.064  0.001  0.000  0.065
   25  0.030  0.000  0.000  0.030
   26  0.041  0.000  0.000  0.041
tot    0.632  0.048  0.003  0.683
 
band    23 # energy   -9.66621106 # occ.  2.00000000
 
ion      s      p      d    tot
    1  0.000  0.004  0.000  0.004
    2  0.000  0.003  0.000  0.003
    3  0.000  0.003  0.000  0.003
    4  0.000  0.004  0.000  0.004
    5  0.000  0.005  0.000  0.005
    6  0.001  0.004  0.001  0.005
    7  0.000  0.001  0.000  0.001
    8  0.000  0.002  0.000  0.002
    9  0.000  0.001  0.000  0.001
   10  0.000  0.005  0.000  0.005
   11  0.001  0.004  0.001  0.005
   12  0.000  0.002  0.000  0.002
   13  0.052  0.000  0.000  0.052
   14  0.010  0.000  0.000  0.010
   15  0.077  0.000  0.000  0.078
   16  0.049  0.000  0.000  0.049
   17  0.090  0.001  0.000  0.091
   18  0.010  0.000  0.000  0.010
   19  0.014  0.000  0.000  0.014
   20  0.090  0.001  0.000  0.091
   21  0.014  0.000  0.000  0.014
   22  0.026  0.000  0.000  0.027
   23  0.026  0.000  0.000  0.027
   24  0.049  0.000  0.000  0.049
   25  0.077  0.000  0.000  0.078
   26  0.052  0.000  0.000  0.052
tot    0.641  0.039  0.003  0.683
 
band    24 # energy   -9.62531225 # occ.  2.00000000
 
ion      s      p      d    tot
    1  0.000  0.015  0.000  0.015
    2  0.000  0.005  0.000  0.005
    3  0.000  0.005  0.000  0.005
    4  0.000  0.015  0.000  0.015
    5  0.001  0.003  0.000  0.004
    6  0.000  0.004  0.000  0.004
    7  0.000  0.003  0.000  0.003
    8  0.001  0.001  0.000  0.002
    9  0.000  0.003  0.000  0.003
   10  0.001  0.003  0.000  0.004
   11  0.000  0.004  0.000  0.004
   12  0.001  0.001  0.000  0.002
   13  0.000  0.000  0.000  0.000
   14  0.008  0.000  0.000  0.008
   15  0.066  0.000  0.000  0.067
   16  0.083  0.000  0.000  0.084
   17  0.003  0.000  0.000  0.003
   18  0.008  0.000  0.000  0.008
   19  0.043  0.000  0.000  0.043
   20  0.003  0.000  0.000  0.003
   21  0.043  0.000  0.000  0.043
   22  0.105  0.001  0.000  0.105
   23  0.105  0.001  0.000  0.105
   24  0.083  0.000  0.000  0.084
   25  0.066  0.000  0.000  0.067
   26  0.000  0.000  0.000  0.000
tot    0.620  0.064  0.003  0.687
 
band    25 # energy   -9.47104236 # occ.  2.00000000
 
ion      s      p      d    tot
    1  0.000  0.012  0.000  0.012
    2  0.000  0.003  0.000  0.003
    3  0.000  0.003  0.000  0.003
    4  0.000  0.012  0.000  0.012
    5  0.000  0.002  0.001  0.003
    6  0.000  0.001  0.000  0.001
    7  0.000  0.001  0.000  0.002
    8  0.000  0.002  0.000  0.003
    9  0.000  0.001  0.000  0.002
   10  0.000  0.002  0.001  0.003
   11  0.000  0.001  0.000  0.001
   12  0.000  0.002  0.000  0.003
   13  0.102  0.000  0.000  0.102
   14  0.005  0.000  0.000  0.005
   15  0.043  0.000  0.000  0.043
   16  0.111  0.000  0.000  0.112
   17  0.002  0.000  0.000  0.002
   18  0.005  0.000  0.000  0.005
   19  0.033  0.000  0.000  0.033
   20  0.002  0.000  0.000  0.002
   21  0.033  0.000  0.000  0.033
   22  0.028  0.000  0.000  0.028
   23  0.028  0.000  0.000  0.028
   24  0.111  0.000  0.000  0.112
   25  0.043  0.000  0.000  0.043
   26  0.102  0.000  0.000  0.102
tot    0.649  0.045  0.004  0.698
 
band    26 # energy   -9.45424628 # occ.  2.00000000
 
ion      s      p      d    tot
    1  0.000  0.021  0.000  0.021
    2  0.000  0.004  0.000  0.004
    3  0.000  0.004  0.000  0.004
    4  0.000  0.021  0.000  0.021
    5  0.000  0.000  0.000  0.000
    6  0.000  0.004  0.001  0.004
    7  0.000  0.002  0.001  0.003
    8  0.000  0.001  0.000  0.002
    9  0.000  0.002  0.001  0.003
   10  0.000  0.000  0.000  0.000
   11  0.000  0.004  0.001  0.004
   12  0.000  0.001  0.000  0.002
   13  0.021  0.000  0.000  0.021
   14  0.018  0.000  0.000  0.018
   15  0.069  0.000  0.000  0.069
   16  0.001  0.000  0.000  0.001
   17  0.005  0.000  0.000  0.005
   18  0.018  0.000  0.000  0.018
   19  0.080  0.000  0.000  0.080
   20  0.005  0.000  0.000  0.005
   21  0.080  0.000  0.000  0.080
   22  0.122  0.000  0.000  0.123
   23  0.122  0.000  0.000  0.123
   24  0.001  0.000  0.000  0.001
   25  0.069  0.000  0.000  0.069
   26  0.021  0.000  0.000  0.021
tot    0.633  0.067  0.004  0.703
 
band    27 # energy   -6.83168879 # occ.  2.00000000
 
ion      s      p      d    tot
    1  0.000  0.001  0.000  0.001
    2  0.000  0.000  0.000  0.000
    3  0.000  0.000  0.000  0.000
    4  0.000  0.001  0.000  0.001
    5  0.073  0.001  0.000  0.074
    6  0.064  0.001  0.000  0.064
    7  0.057  0.000  0.000  0.057
    8  0.037  0.001  0.000  0.037
    9  0.057  0.000  0.000  0.057
   10  0.073  0.001  0.000  0.074
   11  0.064  0.001  0.000  0.064
   12  0.037  0.001  0.000  0.037
   13  0.008  0.002  0.000  0.010
   14  0.004  0.004  0.000  0.009
   15  0.005  0.004  0.000  0.009
   16  0.002  0.006  0.000  0.009
   17  0.005  0.009  0.000  0.014
   18  0.004  0.004  0.000  0.009
   19  0.006  0.004  0.000  0.010
   20  0.005  0.009  0.000  0.014
   21  0.006  0.004  0.000  0.010
   22  0.007  0.005  0.000  0.012
   23  0.007  0.005  0.000  0.012
   24  0.002  0.006  0.000  0.009
   25  0.005  0.004  0.000  0.009
   26  0.008  0.002  0.000  0.010
tot    0.538  0.078  0.001  0.617
 
band    28 # energy   -6.72904472 # occ.  2.00000000
 
ion      s      p      d    tot
    1  0.000  0.000  0.000  0.000
    2  0.000  0.000  0.000  0.000
    3  0.000  0.000  0.000  0.000
    4  0.000  0.000  0.000  0.000
    5  0.070  0.001  0.000  0.071
    6  0.038  0.001  0.000  0.040
    7  0.051  0.001  0.000  0.052
    8  0.076  0.001  0.000  0.077
    9  0.051  0.001  0.000  0.052
   10  0.070  0.001  0.000  0.071
   11  0.038  0.001  0.000  0.040
   12  0.076  0.001  0.000  0.077
   13  0.005  0.006  0.000  0.011
   14  0.002  0.007  0.000  0.009
   15  0.011  0.004  0.000  0.015
   16  0.003  0.005  0.000  0.008
   17  0.007  0.007  0.000  0.014
   18  0.002  0.007  0.000  0.009
   19  0.010  0.003  0.000  0.013
   20  0.007  0.007  0.000  0.014
   21  0.010  0.003  0.000  0.013
   22  0.000  0.005  0.000  0.005
   23  0.000  0.005  0.000  0.005
   24  0.003  0.005  0.000  0.008
   25  0.011  0.004  0.000  0.015
   26  0.005  0.006  0.000  0.011
tot    0.548  0.079  0.001  0.628
 
band    29 # energy   -6.45985481 # occ.  2.00000000
 
ion      s      p      d    tot
    1  0.000  0.001  0.000  0.001
    2  0.000  0.000  0.000  0.000
    3  0.000  0.000  0.000  0.000
    4  0.000  0.001  0.000  0.001
    5  0.004  0.001  0.000  0.005
    6  0.054  0.001  0.000  0.055
    7  0.034  0.001  0.000  0.035
    8  0.122  0.001  0.000  0.123
    9  0.034  0.001  0.000  0.035
   10  0.004  0.001  0.000  0.005
   11  0.054  0.001  0.000  0.055
   12  0.122  0.001  0.000  0.123
   13  0.015  0.008  0.000  0.022
   14  0.003  0.012  0.000  0.015
   15  0.001  0.008  0.000  0.009
   16  0.000  0.000  0.000  0.000
   17  0.010  0.003  0.000  0.013
   18  0.003  0.012  0.000  0.015
   19  0.013  0.002  0.000  0.015
   20  0.010  0.003  0.000  0.013
   21  0.013  0.002  0.000  0.015
   22  0.019  0.003  0.000  0.022
   23  0.019  0.003  0.000  0.022
   24  0.000  0.000  0.000  0.000
   25  0.001  0.008  0.000  0.009
   26  0.015  0.008  0.000  0.022
tot    0.547  0.080  0.001  0.628
 
band    30 # energy   -6.20379295 # occ.  2.00000000
 
ion      s      p      d    tot
    1  0.000  0.000  0.000  0.001
    2  0.000  0.000  0.000  0.000
    3  0.000  0.000  0.000  0.000
    4  0.000  0.000  0.000  0.001
    5  0.066  0.000  0.000  0.066
    6  0.019  0.001  0.000  0.020
    7  0.104  0.000  0.000  0.104
    8  0.030  0.001  0.000  0.031
    9  0.104  0.000  0.000  0.104
   10  0.066  0.000  0.000  0.066
   11  0.019  0.001  0.000  0.020
   12  0.030  0.001  0.000  0.031
   13  0.003  0.004  0.000  0.007
   14  0.022  0.005  0.000  0.027
   15  0.008  0.001  0.000  0.010
   16  0.004  0.006  0.000  0.010