 running on   14 total cores
 distrk:  each k-point on   14 cores,    1 groups
 distr:  one band on    1 cores,   14 groups
 using from now: INCAR     
 vasp.5.4.4.18Apr17-6-g9f103f2a35 (build Oct 27 2022 13:04:57) complex          
  
 POSCAR found type information on POSCAR  K  Sb S 
 POSCAR found :  3 types and      26 ions
 scaLAPACK will be used

 ----------------------------------------------------------------------------- 
|                                                                             |
|           W    W    AA    RRRRR   N    N  II  N    N   GGGG   !!!           |
|           W    W   A  A   R    R  NN   N  II  NN   N  G    G  !!!           |
|           W    W  A    A  R    R  N N  N  II  N N  N  G       !!!           |
|           W WW W  AAAAAA  RRRRR   N  N N  II  N  N N  G  GGG   !            |
|           WW  WW  A    A  R   R   N   NN  II  N   NN  G    G                |
|           W    W  A    A  R    R  N    N  II  N    N   GGGG   !!!           |
|                                                                             |
|      For optimal performance we recommend to set                            |
|        NCORE= 4 - approx SQRT( number of cores)                             |
|      NCORE specifies how many cores store one orbital (NPAR=cpu/NCORE).     |
|      This setting can  greatly improve the performance of VASP for DFT.     |
|      The default,   NCORE=1            might be grossly inefficient         |
|      on modern multi-core architectures or massively parallel machines.     |
|      Do your own testing !!!!                                               |
|      Unfortunately you need to use the default for GW and RPA calculations. |
|      (for HF NCORE is supported but not extensively tested yet)             |
|                                                                             |
 ----------------------------------------------------------------------------- 

 LDA part: xc-table for Pade appr. of Perdew
 POSCAR, INCAR and KPOINTS ok, starting setup
 FFT: planning ...
 WAVECAR not read
 entering main loop
       N       E                     dE             d eps       ncg     rms          rms(c)
DAV:   1     0.780901161643E+03    0.78090E+03   -0.43259E+04  1176   0.840E+02
DAV:   2    -0.284836058185E+02   -0.80938E+03   -0.78557E+03  1428   0.214E+02
DAV:   3    -0.113531842847E+03   -0.85048E+02   -0.84011E+02  1400   0.686E+01
DAV:   4    -0.116006962257E+03   -0.24751E+01   -0.24568E+01  1442   0.132E+01
DAV:   5    -0.116080225523E+03   -0.73263E-01   -0.73205E-01  1456   0.230E+00    0.212E+01
DAV:   6    -0.109430312884E+03    0.66499E+01   -0.14184E+01  1330   0.101E+01    0.158E+01
DAV:   7    -0.109536107637E+03   -0.10579E+00   -0.46726E+00  1386   0.482E+00    0.682E+00
DAV:   8    -0.109511506620E+03    0.24601E-01   -0.34477E-01  1428   0.172E+00    0.267E+00
DAV:   9    -0.109526060887E+03   -0.14554E-01   -0.85114E-02  1400   0.908E-01    0.609E-01
DAV:  10    -0.109527666347E+03   -0.16055E-02   -0.65043E-03  1484   0.228E-01    0.291E-01
DAV:  11    -0.109530911298E+03   -0.32450E-02   -0.33326E-03  1344   0.170E-01    0.149E-01
DAV:  12    -0.109531317213E+03   -0.40592E-03   -0.38006E-04  1316   0.577E-02    0.657E-02
DAV:  13    -0.109531711926E+03   -0.39471E-03   -0.36916E-04  1176   0.569E-02    0.386E-02
DAV:  14    -0.109531760674E+03   -0.48748E-04   -0.61705E-05   994   0.245E-02
   1 F= -.10953176E+03 E0= -.10953176E+03  d E =-.109532E+03
 curvature:   0.00 expect dE= 0.000E+00 dE for cont linesearch  0.000E+00
 trial: gam= 0.00000 g(F)=  0.208E-02 g(S)=  0.441E-03 ort = 0.000E+00 (trialstep = 0.100E+01)
 search vector abs. value=  0.252E-02
 bond charge predicted
       N       E                     dE             d eps       ncg     rms          rms(c)
DAV:   1    -0.109534151936E+03   -0.24400E-02   -0.10624E-02  1344   0.276E-01    0.112E-01
DAV:   2    -0.109534062446E+03    0.89490E-04   -0.77466E-04  1428   0.724E-02
   2 F= -.10953406E+03 E0= -.10953406E+03  d E =-.230177E-02
 ZBRENT: can't locate minimum, use default step
 trial-energy change:   -0.002302  1 .order   -0.002284   -0.002516   -0.002051
 step:   4.0000(harm=  5.4031)  dis= 0.00603  next Energy=  -109.538559 (dE=-0.680E-02)
 bond charge predicted
       N       E                     dE             d eps       ncg     rms          rms(c)
DAV:   1    -0.109538285262E+03   -0.41333E-02   -0.91855E-02  1330   0.815E-01    0.338E-01
DAV:   2    -0.109537418524E+03    0.86674E-03   -0.69548E-03  1428   0.215E-01    0.142E-01
DAV:   3    -0.109537138422E+03    0.28010E-03   -0.82397E-04  1414   0.735E-02    0.657E-02
DAV:   4    -0.109537076292E+03    0.62130E-04   -0.82055E-05   840   0.299E-02
   3 F= -.10953708E+03 E0= -.10953708E+03  d E =-.531562E-02
 curvature:  -2.43 expect dE=-0.337E-02 dE for cont linesearch -0.519E-03
 ZBRENT: increasing intervall
 opt :  10.0000  next Energy=  -109.533575 (dE=-0.181E-02)
 bond charge predicted
       N       E                     dE             d eps       ncg     rms          rms(c)
DAV:   1    -0.109534534900E+03    0.26035E-02   -0.37294E-01  1260   0.164E+00    0.670E-01
DAV:   2    -0.109531486352E+03    0.30485E-02   -0.27753E-02  1428   0.431E-01    0.275E-01
DAV:   3    -0.109530527414E+03    0.95894E-03   -0.32724E-03  1414   0.145E-01    0.124E-01
DAV:   4    -0.109530285497E+03    0.24192E-03   -0.29429E-04  1092   0.558E-02    0.684E-02
DAV:   5    -0.109530247331E+03    0.38166E-04   -0.14926E-04   826   0.343E-02
   4 F= -.10953025E+03 E0= -.10953025E+03  d E =0.151334E-02
 curvature:  16.38 expect dE= 0.150E+00 dE for cont linesearch  0.329E-01
 ZBRENT: bracketing found
 ZBRENT: interpolating
 opt :   5.4764  next Energy=  -109.537618 (dE=-0.586E-02)
 bond charge predicted
       N       E                     dE             d eps       ncg     rms          rms(c)
DAV:   1    -0.109539479413E+03   -0.91939E-02   -0.21469E-01  1232   0.125E+00    0.500E-01
DAV:   2    -0.109537779656E+03    0.16998E-02   -0.16030E-02  1428   0.329E-01    0.211E-01
DAV:   3    -0.109537226177E+03    0.55348E-03   -0.18314E-03  1428   0.108E-01    0.986E-02
DAV:   4    -0.109537049611E+03    0.17657E-03   -0.16508E-04   868   0.429E-02    0.471E-02
DAV:   5    -0.109537000037E+03    0.49574E-04   -0.11996E-04   840   0.314E-02
   5 F= -.10953700E+03 E0= -.10953700E+03  d E =-.523936E-02
 curvature:  -0.27 expect dE=-0.707E-03 dE for cont linesearch -0.709E-04
 ZBRENT: interpolating
 opt :   4.7001  next Energy=  -109.537333 (dE=-0.557E-02)
 bond charge predicted
       N       E                     dE             d eps       ncg     rms          rms(c)
DAV:   1    -0.109537357376E+03   -0.30777E-03   -0.62742E-03  1288   0.214E-01    0.878E-02
DAV:   2    -0.109537300726E+03    0.56651E-04   -0.46832E-04  1428   0.555E-02
   6 F= -.10953730E+03 E0= -.10953730E+03  d E =-.554005E-02
 curvature:  -0.98 expect dE=-0.183E-02 dE for cont linesearch -0.216E-04
 trial: gam= 0.83638 g(F)=  0.145E-02 g(S)=  0.423E-03 ort =-0.236E-03 (trialstep = 0.135E+01)
 search vector abs. value=  0.323E-02
 bond charge predicted
       N       E                     dE             d eps       ncg     rms          rms(c)
DAV:   1    -0.109539126327E+03   -0.17690E-02   -0.24199E-02  1246   0.391E-01    0.117E-01
DAV:   2    -0.109539185958E+03   -0.59631E-04   -0.18485E-03  1428   0.110E-01    0.560E-02
DAV:   3    -0.109539164946E+03    0.21011E-04   -0.96617E-05   840   0.287E-02
   7 F= -.10953916E+03 E0= -.10953916E+03  d E =-.186422E-02
 ZBRENT: can't locate minimum, use default step
 trial-energy change:   -0.001864  1 .order   -0.002092   -0.002263   -0.001920
 step:   5.4141(harm=  8.9399)  dis= 0.01130  next Energy=  -109.544774 (dE=-0.747E-02)
 bond charge predicted
       N       E                     dE             d eps       ncg     rms          rms(c)
DAV:   1    -0.109541913098E+03   -0.27271E-02   -0.21551E-01  1176   0.117E+00    0.338E-01
DAV:   2    -0.109542447776E+03   -0.53468E-03   -0.16251E-02  1428   0.328E-01    0.164E-01
DAV:   3    -0.109542274429E+03    0.17335E-03   -0.96458E-04  1428   0.848E-02    0.961E-02
DAV:   4    -0.109542187032E+03    0.87397E-04   -0.11525E-04   840   0.311E-02
   8 F= -.10954219E+03 E0= -.10954219E+03  d E =-.488631E-02
 curvature:  -6.78 expect dE=-0.210E-01 dE for cont linesearch -0.111E-02
 ZBRENT: increasing intervall
 opt :  13.5353  next Energy=  -109.542474 (dE=-0.517E-02)
 bond charge predicted
       N       E                     dE             d eps       ncg     rms          rms(c)
DAV:   1    -0.109530488980E+03    0.11785E-01   -0.85912E-01  1176   0.234E+00    0.693E-01
DAV:   2    -0.109532786876E+03   -0.22979E-02   -0.65602E-02  1428   0.659E-01    0.334E-01
DAV:   3    -0.109532170995E+03    0.61588E-03   -0.39579E-03  1428   0.172E-01    0.183E-01
DAV:   4    -0.109531863539E+03    0.30746E-03   -0.53339E-04  1428   0.619E-02    0.106E-01
DAV:   5    -0.109531699740E+03    0.16380E-03   -0.27511E-04  1008   0.513E-02    0.513E-02
DAV:   6    -0.109531699571E+03    0.16909E-06   -0.11091E-04   840   0.292E-02
   9 F= -.10953170E+03 E0= -.10953170E+03  d E =0.560115E-02
 curvature:  -1.76 expect dE=-0.138E-01 dE for cont linesearch -0.307E-02
 ZBRENT: bracketing found
 ZBRENT: interpolating
 opt :   7.3151  next Energy=  -109.542878 (dE=-0.558E-02)
 bond charge predicted
       N       E                     dE             d eps       ncg     rms          rms(c)
DAV:   1    -0.109541444821E+03   -0.97451E-02   -0.50812E-01  1176   0.180E+00    0.510E-01
DAV:   2    -0.109542927083E+03   -0.14823E-02   -0.38668E-02  1428   0.506E-01    0.247E-01
DAV:   3    -0.109542564505E+03    0.36258E-03   -0.21583E-03  1428   0.127E-01    0.144E-01
DAV:   4    -0.109542380481E+03    0.18402E-03   -0.27421E-04  1106   0.461E-02    0.843E-02
DAV:   5    -0.109542283239E+03    0.97242E-04   -0.22460E-04   854   0.447E-02
  10 F= -.10954228E+03 E0= -.10954228E+03  d E =-.498251E-02
 curvature:  -0.39 expect dE=-0.114E-02 dE for cont linesearch -0.145E-04
 trial: gam= 1.44539 g(F)=  0.239E-02 g(S)=  0.500E-03 ort =-0.344E-03 (trialstep = 0.952E+00)
 search vector abs. value=  0.865E-02
 bond charge predicted
       N       E                     dE             d eps       ncg     rms          rms(c)
DAV:   1    -0.109544315739E+03   -0.19353E-02   -0.45588E-02  1176   0.527E-01    0.159E-01
DAV:   2    -0.109544385375E+03   -0.69636E-04   -0.34371E-03  1428   0.154E-01    0.824E-02
DAV:   3    -0.109544341080E+03    0.44295E-04   -0.13538E-04   840   0.338E-02
  11 F= -.10954434E+03 E0= -.10954434E+03  d E =-.205784E-02
 ZBRENT: can't locate minimum, use default step
 trial-energy change:   -0.002058  1 .order   -0.002133   -0.002274   -0.001992
 step:   3.8093(harm=  7.6766)  dis= 0.00987  next Energy=  -109.551447 (dE=-0.916E-02)
 bond charge predicted
       N       E                     dE             d eps       ncg     rms          rms(c)
DAV:   1    -0.109544312558E+03    0.72817E-04   -0.39432E-01  1176   0.155E+00    0.465E-01
DAV:   2    -0.109544677620E+03   -0.36506E-03   -0.30177E-02  1428   0.453E-01    0.246E-01
DAV:   3    -0.109544311760E+03    0.36586E-03   -0.15879E-03  1442   0.107E-01    0.150E-01
DAV:   4    -0.109544097972E+03    0.21379E-03   -0.21669E-04   840   0.450E-02    0.794E-02
DAV:   5    -0.109544008995E+03    0.88977E-04   -0.23696E-04   896   0.451E-02
  12 F= -.10954401E+03 E0= -.10954401E+03  d E =-.172576E-02
 curvature:  -9.30 expect dE=-0.395E-01 dE for cont linesearch -0.200E-02
 ZBRENT: interpolating
 opt :   2.6816  next Energy=  -109.544778 (dE=-0.249E-02)
 bond charge predicted
       N       E                     dE             d eps       ncg     rms          rms(c)
DAV:   1    -0.109545425142E+03   -0.13272E-02   -0.62595E-02  1190   0.617E-01    0.185E-01
DAV:   2    -0.109545523367E+03   -0.98225E-04   -0.47290E-03  1428   0.180E-01    0.988E-02
DAV:   3    -0.109545472292E+03    0.51075E-04   -0.20182E-04   868   0.408E-02
  13 F= -.10954547E+03 E0= -.10954547E+03  d E =-.318905E-02
 curvature:  -3.58 expect dE=-0.139E-01 dE for cont linesearch -0.367E-03
 ZBRENT: bisectioning
 opt :   1.8169  next Energy=  -109.546147 (dE=-0.386E-02)
 bond charge predicted
       N       E                     dE             d eps       ncg     rms          rms(c)
DAV:   1    -0.109545548861E+03   -0.25494E-04   -0.35115E-02  1176   0.462E-01    0.138E-01
DAV:   2    -0.109545533270E+03    0.15592E-04   -0.26123E-03  1428   0.134E-01    0.792E-02
DAV:   3    -0.109545491391E+03    0.41879E-04   -0.13406E-04   840   0.335E-02
  14 F= -.10954549E+03 E0= -.10954549E+03  d E =-.320815E-02
 curvature:  -6.57 expect dE=-0.203E-01 dE for cont linesearch -0.177E-03
 trial: gam= 0.22516 g(F)=  0.293E-02 g(S)=  0.151E-03 ort = 0.482E-03 (trialstep = 0.113E+01)
 search vector abs. value=  0.374E-02
 bond charge predicted
       N       E                     dE             d eps       ncg     rms          rms(c)
DAV:   1    -0.109547778105E+03   -0.22448E-02   -0.24666E-02  1176   0.382E-01    0.133E-01
DAV:   2    -0.109547928464E+03   -0.15036E-03   -0.21736E-03  1442   0.120E-01    0.469E-02
DAV:   3    -0.109547914888E+03    0.13576E-04   -0.71655E-05   840   0.261E-02
  15 F= -.10954791E+03 E0= -.10954791E+03  d E =-.242350E-02
 trial-energy change:   -0.002423  1 .order   -0.002556   -0.003591   -0.001521
 step:   1.9519(harm=  1.9519)  dis= 0.00313  next Energy=  -109.548606 (dE=-0.311E-02)
 bond charge predicted
       N       E                     dE             d eps       ncg     rms          rms(c)
DAV:   1    -0.109548863300E+03   -0.93484E-03   -0.12488E-02  1176   0.271E-01    0.907E-02
DAV:   2    -0.109548920212E+03   -0.56912E-04   -0.10134E-03  1456   0.831E-02    0.381E-02
DAV:   3    -0.109548910236E+03    0.99763E-05   -0.41234E-05   798   0.197E-02
  16 F= -.10954891E+03 E0= -.10954891E+03  d E =-.341885E-02
 curvature:  -1.14 expect dE=-0.118E-02 dE for cont linesearch -0.419E-03
 ZBRENT: increasing intervall
 opt :   3.6051  next Energy=  -109.550547 (dE=-0.506E-02)
 bond charge predicted
       N       E                     dE             d eps       ncg     rms          rms(c)
DAV:   1    -0.109549512776E+03   -0.59256E-03   -0.51022E-02  1176   0.548E-01    0.181E-01
DAV:   2    -0.109549783874E+03   -0.27110E-03   -0.42899E-03  1442   0.170E-01    0.699E-02
DAV:   3    -0.109549749742E+03    0.34132E-04   -0.15956E-04   910   0.386E-02
  17 F= -.10954975E+03 E0= -.10954975E+03  d E =-.425835E-02
 curvature:  -4.46 expect dE=-0.549E-02 dE for cont linesearch -0.284E-04
 trial: gam= 0.37149 g(F)=  0.112E-02 g(S)=  0.112E-03 ort = 0.154E-03 (trialstep = 0.162E+01)
 search vector abs. value=  0.186E-02
 bond charge predicted
       N       E                     dE             d eps       ncg     rms          rms(c)
DAV:   1    -0.109550902553E+03   -0.11187E-02   -0.26848E-02  1176   0.403E-01    0.120E-01
DAV:   2    -0.109551007114E+03   -0.10456E-03   -0.19043E-03  1442   0.114E-01    0.458E-02
DAV:   3    -0.109550983834E+03    0.23280E-04   -0.50778E-05   840   0.233E-02
  18 F= -.10955098E+03 E0= -.10955098E+03  d E =-.123409E-02
 trial-energy change:   -0.001234  1 .order   -0.001153   -0.002086   -0.000221
 step:   1.8130(harm=  1.8130)  dis= 0.00280  next Energy=  -109.550916 (dE=-0.117E-02)
 bond charge predicted
       N       E                     dE             d eps       ncg     rms          rms(c)
DAV:   1    -0.109550981970E+03    0.25144E-04   -0.29244E-04  1176   0.437E-02    0.143E-02
DAV:   2    -0.109550981679E+03    0.29096E-06   -0.19827E-05   798   0.133E-02
  19 F= -.10955098E+03 E0= -.10955098E+03  d E =-.123194E-02
 curvature:  -1.31 expect dE=-0.102E-02 dE for cont linesearch -0.659E-07
 trial: gam= 0.40554 g(F)=  0.712E-03 g(S)=  0.627E-04 ort =-0.967E-05 (trialstep = 0.166E+01)
 search vector abs. value=  0.107E-02
 bond charge predicted
       N       E                     dE             d eps       ncg     rms          rms(c)
DAV:   1    -0.109551922705E+03   -0.94074E-03   -0.23036E-02  1204   0.368E-01    0.127E-01
DAV:   2    -0.109552006426E+03   -0.83721E-04   -0.18330E-03  1442   0.112E-01    0.487E-02
DAV:   3    -0.109551989717E+03    0.16709E-04   -0.55340E-05   840   0.226E-02
  20 F= -.10955199E+03 E0= -.10955199E+03  d E =-.100804E-02
 trial-energy change:   -0.001008  1 .order   -0.000973   -0.001280   -0.000667
 step:   3.4646(harm=  3.4646)  dis= 0.00315  next Energy=  -109.552318 (dE=-0.134E-02)
 bond charge predicted
       N       E                     dE             d eps       ncg     rms          rms(c)
DAV:   1    -0.109552301012E+03   -0.29459E-03   -0.26028E-02  1204   0.392E-01    0.133E-01
DAV:   2    -0.109552375849E+03   -0.74836E-04   -0.20207E-03  1456   0.117E-01    0.544E-02
DAV:   3    -0.109552355081E+03    0.20768E-04   -0.67983E-05   840   0.248E-02
  21 F= -.10955236E+03 E0= -.10955236E+03  d E =-.137340E-02
 curvature:  -2.41 expect dE=-0.229E-02 dE for cont linesearch -0.570E-04
 ZBRENT: interpolating
 opt :   2.9522  next Energy=  -109.552396 (dE=-0.141E-02)
 bond charge predicted
       N       E                     dE             d eps       ncg     rms          rms(c)
DAV:   1    -0.109552315653E+03    0.60196E-04   -0.25315E-03  1218   0.123E-01    0.461E-02
DAV:   2    -0.109552330703E+03   -0.15050E-04   -0.19949E-04   840   0.386E-02
  22 F= -.10955233E+03 E0= -.10955233E+03  d E =-.134902E-02
 curvature:  -1.73 expect dE=-0.775E-03 dE for cont linesearch -0.349E-04
 ZBRENT: interpolating
 opt :   3.1984  next Energy=  -109.552349 (dE=-0.137E-02)
 bond charge predicted
       N       E                     dE             d eps       ncg     rms          rms(c)
DAV:   1    -0.109552361739E+03   -0.46086E-04   -0.52086E-04  1134   0.585E-02    0.223E-02
DAV:   2    -0.109552363173E+03   -0.14344E-05   -0.42280E-05   714   0.181E-02
  23 F= -.10955236E+03 E0= -.10955236E+03  d E =-.138149E-02
 curvature:  -0.90 expect dE=-0.606E-03 dE for cont linesearch -0.641E-06
 trial: gam= 0.97300 g(F)=  0.584E-03 g(S)=  0.923E-04 ort =-0.277E-04 (trialstep = 0.129E+01)
 search vector abs. value=  0.164E-02
 bond charge predicted
       N       E                     dE             d eps       ncg     rms          rms(c)
DAV:   1    -0.109552747724E+03   -0.38599E-03   -0.21763E-02  1176   0.359E-01    0.112E-01
DAV:   2    -0.109552847526E+03   -0.99801E-04   -0.15900E-03  1456   0.104E-01    0.411E-02
DAV:   3    -0.109552831264E+03    0.16262E-04   -0.39181E-05   812   0.199E-02
  24 F= -.10955283E+03 E0= -.10955283E+03  d E =-.468091E-03
 trial-energy change:   -0.000468  1 .order   -0.000489   -0.000836   -0.000141
 step:   1.5496(harm=  1.5496)  dis= 0.00175  next Energy=  -109.552866 (dE=-0.503E-03)
 bond charge predicted
       N       E                     dE             d eps       ncg     rms          rms(c)
DAV:   1    -0.109552818948E+03    0.28577E-04   -0.75065E-04  1274   0.672E-02    0.187E-02
DAV:   2    -0.109552817458E+03    0.14902E-05   -0.38925E-05   728   0.185E-02
  25 F= -.10955282E+03 E0= -.10955282E+03  d E =-.454285E-03
 curvature:  -1.96 expect dE=-0.106E-02 dE for cont linesearch -0.266E-05
 trial: gam= 0.72769 g(F)=  0.472E-03 g(S)=  0.696E-04 ort =-0.472E-04 (trialstep = 0.134E+01)
 search vector abs. value=  0.134E-02
 bond charge predicted
       N       E                     dE             d eps       ncg     rms          rms(c)
DAV:   1    -0.109553021570E+03   -0.20262E-03   -0.19632E-02  1176   0.342E-01    0.101E-01
DAV:   2    -0.109553094144E+03   -0.72574E-04   -0.13850E-03  1470   0.979E-02    0.398E-02
DAV:   3    -0.109553074402E+03    0.19741E-04   -0.32626E-05   826   0.185E-02
  26 F= -.10955307E+03 E0= -.10955307E+03  d E =-.256944E-03
 trial-energy change:   -0.000257  1 .order   -0.000345   -0.000680   -0.000010
 step:   1.3620(harm=  1.3620)  dis= 0.00136  next Energy=  -109.553163 (dE=-0.345E-03)
 bond charge predicted
       N       E                     dE             d eps       ncg     rms          rms(c)
DAV:   1    -0.109553062356E+03    0.31787E-04   -0.24047E-05   672   0.143E-02    0.991E-03
DAV:   2    -0.109553062737E+03   -0.38077E-06   -0.66049E-06   644   0.785E-03
  27 F= -.10955306E+03 E0= -.10955306E+03  d E =-.245279E-03
 curvature:  -1.80 expect dE=-0.387E-03 dE for cont linesearch -0.102E-05
 trial: gam= 0.33747 g(F)=  0.197E-03 g(S)=  0.186E-04 ort =-0.276E-04 (trialstep = 0.135E+01)
 search vector abs. value=  0.349E-03
 bond charge predicted
       N       E                     dE             d eps       ncg     rms          rms(c)
DAV:   1    -0.109553302767E+03   -0.24041E-03   -0.50662E-03  1176   0.171E-01    0.461E-02
DAV:   2    -0.109553318866E+03   -0.16099E-04   -0.32088E-04  1190   0.473E-02
  28 F= -.10955332E+03 E0= -.10955332E+03  d E =-.256129E-03
 trial-energy change:   -0.000256  1 .order   -0.000219   -0.000277   -0.000161
 step:   3.2172(harm=  3.2172)  dis= 0.00146  next Energy=  -109.553394 (dE=-0.331E-03)
 reached required accuracy - stopping structural energy minimisation
