<?xml version="1.0" encoding="ISO-8859-1"?>
<modeling>
 <generator>
  <i name="program" type="string">vasp </i>
  <i name="version" type="string">5.4.4.18Apr17-6-g9f103f2a35  </i>
  <i name="subversion" type="string">(build Oct 27 2022 13:04:57) complex            parallel </i>
  <i name="platform" type="string">LinuxIFC </i>
  <i name="date" type="string">2024 06 30 </i>
  <i name="time" type="string">21:25:23 </i>
 </generator>
 <incar>
  <i type="string" name="SYSTEM"> CIS</i>
  <i type="int" name="ISTART">     0</i>
  <i type="string" name="PREC">medium</i>
  <i type="int" name="ICHARG">     2</i>
  <i type="int" name="IBRION">     2</i>
  <i name="EDIFF">      0.00010000</i>
  <i name="EDIFFG">     -0.05000000</i>
  <i type="int" name="NSW">    99</i>
  <i type="int" name="ISIF">     3</i>
  <i name="ENCUT">    300.00000000</i>
  <i name="POTIM">      0.10000000</i>
  <i type="string" name="LREAL"> Auto</i>
  <i type="int" name="ISMEAR">     0</i>
  <i name="SIGMA">      0.05000000</i>
  <i type="int" name="LMAXMIX">     4</i>
  <i type="logical" name="LWAVE"> F  </i>
  <i type="logical" name="LCHARG"> F  </i>
  <i type="int" name="LORBIT">    10</i>
  <i type="logical" name="LASPH"> T  </i>
  <v type="int" name="KPOINT_BSE">    -1     0     0     0</v>
  <i type="logical" name="LASPH"> T  </i>
 </incar>
 <structure name="primitive_cell" >
  <crystal>
   <varray name="basis" >
    <v>      -7.60686607       0.00323026      -0.20134052 </v>
    <v>       2.15868396       9.37814567      -0.04232290 </v>
    <v>      -0.75538478      -1.92938566     -11.32541481 </v>
   </varray>
   <i name="volume">    808.04830123 </i>
   <varray name="rec_basis" >
    <v>      -0.13154294       0.03029517       0.00361262 </v>
    <v>       0.00052602       0.10642783      -0.01816602 </v>
    <v>       0.00233657      -0.00093630      -0.08829332 </v>
   </varray>
  </crystal>
  <varray name="positions" >
   <v>       0.27971191       0.33470695       0.11344170 </v>
   <v>      -0.12264560       0.32022812       0.22434690 </v>
   <v>      -0.45508313      -0.43734144       0.29212449 </v>
   <v>       0.44389662       0.06775597       0.15976174 </v>
   <v>      -0.34934591       0.33120387      -0.04835916 </v>
   <v>       0.19261179       0.13316300      -0.14848110 </v>
   <v>       0.34934591      -0.33120387       0.04835916 </v>
   <v>       0.15647921       0.43834725      -0.18556651 </v>
   <v>      -0.26820929       0.13246322       0.04634606 </v>
   <v>      -0.15647921      -0.43834725       0.18556651 </v>
   <v>      -0.49610467       0.19299390      -0.23348599 </v>
   <v>       0.49610467      -0.19299390       0.23348599 </v>
   <v>       0.26820929      -0.13246322      -0.04634606 </v>
   <v>       0.03319216      -0.30802000       0.35260723 </v>
   <v>      -0.42133288       0.26348789       0.43494716 </v>
   <v>       0.02949092      -0.05127324       0.34036999 </v>
   <v>       0.45508313       0.43734144      -0.29212449 </v>
   <v>      -0.27971191      -0.33470695      -0.11344170 </v>
   <v>      -0.19261179      -0.13316300       0.14848110 </v>
   <v>      -0.44389662      -0.06775597      -0.15976174 </v>
   <v>       0.12264560      -0.32022812      -0.22434690 </v>
   <v>      -0.02949092       0.05127324      -0.34036999 </v>
   <v>       0.42133288      -0.26348789      -0.43494716 </v>
   <v>      -0.03319216       0.30802000      -0.35260723 </v>
   <v>       0.23432147       0.01386768      -0.47074168 </v>
   <v>      -0.23432147      -0.01386768       0.47074168 </v>
  </varray>
 </structure>
 <varray name="primitive_index" >
  <v type="int" >        1 </v>
  <v type="int" >       22 </v>
  <v type="int" >       25 </v>
  <v type="int" >       19 </v>
  <v type="int" >       14 </v>
  <v type="int" >       26 </v>
  <v type="int" >       18 </v>
  <v type="int" >        6 </v>
  <v type="int" >        7 </v>
  <v type="int" >       11 </v>
  <v type="int" >        8 </v>
  <v type="int" >       12 </v>
  <v type="int" >        9 </v>
  <v type="int" >       17 </v>
  <v type="int" >        3 </v>
  <v type="int" >        5 </v>
  <v type="int" >       15 </v>
  <v type="int" >        4 </v>
  <v type="int" >       13 </v>
  <v type="int" >       21 </v>
  <v type="int" >       23 </v>
  <v type="int" >       10 </v>
  <v type="int" >        2 </v>
  <v type="int" >       20 </v>
  <v type="int" >       16 </v>
  <v type="int" >       24 </v>
 </varray>
 <kpoints>
  <generation param="Monkhorst-Pack">
   <v type="int" name="divisions">       3        2        2 </v>
   <v name="usershift">      0.00000000       0.00000000       0.00000000 </v>
   <v name="genvec1">      0.33333333       0.00000000       0.00000000 </v>
   <v name="genvec2">      0.00000000       0.50000000       0.00000000 </v>
   <v name="genvec3">      0.00000000       0.00000000       0.50000000 </v>
   <v name="shift">      0.00000000       0.50000000       0.50000000 </v>
  </generation>
  <varray name="kpointlist" >
   <v>       0.00000000       0.25000000       0.25000000 </v>
   <v>       0.33333333       0.25000000       0.25000000 </v>
   <v>      -0.33333333       0.25000000       0.25000000 </v>
   <v>       0.00000000      -0.25000000       0.25000000 </v>
   <v>       0.33333333      -0.25000000       0.25000000 </v>
   <v>      -0.33333333      -0.25000000       0.25000000 </v>
  </varray>
  <varray name="weights" >
   <v>       0.16666667 </v>
   <v>       0.16666667 </v>
   <v>       0.16666667 </v>
   <v>       0.16666667 </v>
   <v>       0.16666667 </v>
   <v>       0.16666667 </v>
  </varray>
 </kpoints>
 <parameters>
  <separator name="general" >
   <i type="string" name="SYSTEM">CIS</i>
   <i type="logical" name="LCOMPAT"> F  </i>
  </separator>
  <separator name="electronic" >
   <i type="string" name="PREC">medium</i>
   <i name="ENMAX">    300.00000000</i>
   <i name="ENAUG">    380.51300000</i>
   <i name="EDIFF">      0.00010000</i>
   <i type="int" name="IALGO">    38</i>
   <i type="int" name="IWAVPR">    11</i>
   <i type="int" name="NBANDS">    98</i>
   <i name="NELECT">    152.00000000</i>
   <i type="int" name="TURBO">     0</i>
   <i type="int" name="IRESTART">     0</i>
   <i type="int" name="NREBOOT">     0</i>
   <i type="int" name="NMIN">     0</i>
   <i name="EREF">      0.00000000</i>
   <separator name="electronic smearing" >
    <i type="int" name="ISMEAR">     0</i>
    <i name="SIGMA">      0.05000000</i>
    <i name="KSPACING">      0.50000000</i>
    <i type="logical" name="KGAMMA"> T  </i>
   </separator>
   <separator name="electronic projectors" >
    <i type="logical" name="LREAL"> T  </i>
    <v name="ROPT">     -0.00200000     -0.00200000     -0.00200000</v>
    <i type="int" name="LMAXPAW">  -100</i>
    <i type="int" name="LMAXMIX">     4</i>
    <i type="logical" name="NLSPLINE"> F  </i>
   </separator>
   <separator name="electronic startup" >
    <i type="int" name="ISTART">     0</i>
    <i type="int" name="ICHARG">     2</i>
    <i type="int" name="INIWAV">     1</i>
   </separator>
   <separator name="electronic spin" >
    <i type="int" name="ISPIN">     1</i>
    <i type="logical" name="LNONCOLLINEAR"> F  </i>
    <v name="MAGMOM">      1.00000000      1.00000000      1.00000000      1.00000000      1.00000000      1.00000000      1.00000000      1.00000000      1.00000000      1.00000000      1.00000000      1.00000000      1.00000000      1.00000000      1.00000000      1.00000000      1.00000000      1.00000000      1.00000000      1.00000000
      1.00000000      1.00000000      1.00000000      1.00000000      1.00000000      1.00000000</v>
    <i name="NUPDOWN">     -1.00000000</i>
    <i type="logical" name="LSORBIT"> F  </i>
    <v name="SAXIS">      0.00000000      0.00000000      1.00000000</v>
    <i type="logical" name="LSPIRAL"> F  </i>
    <v name="QSPIRAL">      0.00000000      0.00000000      0.00000000</v>
    <i type="logical" name="LZEROZ"> F  </i>
   </separator>
   <separator name="electronic exchange-correlation" >
    <i type="logical" name="LASPH"> T  </i>
    <i type="logical" name="LMETAGGA"> F  </i>
   </separator>
   <separator name="electronic convergence" >
    <i type="int" name="NELM">    60</i>
    <i type="int" name="NELMDL">    -5</i>
    <i type="int" name="NELMIN">     2</i>
    <i name="ENINI">    300.00000000</i>
    <separator name="electronic convergence detail" >
     <i type="logical" name="LDIAG"> T  </i>
     <i type="logical" name="LSUBROT"> F  </i>
     <i name="WEIMIN">      0.00100000</i>
     <i name="EBREAK">      0.00000026</i>
     <i name="DEPER">      0.30000000</i>
     <i type="int" name="NRMM">     4</i>
     <i name="TIME">      0.40000000</i>
    </separator>
   </separator>
   <separator name="electronic mixer" >
    <i name="AMIX">      0.40000000</i>
    <i name="BMIX">      1.00000000</i>
    <i name="AMIN">      0.10000000</i>
    <i name="AMIX_MAG">      1.60000000</i>
    <i name="BMIX_MAG">      1.00000000</i>
    <separator name="electronic mixer details" >
     <i type="int" name="IMIX">     4</i>
     <i type="logical" name="MIXFIRST"> F  </i>
     <i type="int" name="MAXMIX">   -45</i>
     <i name="WC">    100.00000000</i>
     <i type="int" name="INIMIX">     1</i>
     <i type="int" name="MIXPRE">     1</i>
     <i type="int" name="MREMOVE">     5</i>
    </separator>
   </separator>
   <separator name="electronic dipolcorrection" >
    <i type="logical" name="LDIPOL"> F  </i>
    <i type="logical" name="LMONO"> F  </i>
    <i type="int" name="IDIPOL">     0</i>
    <i name="EPSILON">      1.00000000</i>
    <v name="DIPOL">   -100.00000000   -100.00000000   -100.00000000</v>
    <i name="EFIELD">      0.00000000</i>
   </separator>
  </separator>
  <separator name="grids" >
   <i type="int" name="NGX">    32</i>
   <i type="int" name="NGY">    42</i>
   <i type="int" name="NGZ">    50</i>
   <i type="int" name="NGXF">    48</i>
   <i type="int" name="NGYF">    64</i>
   <i type="int" name="NGZF">    80</i>
   <i type="logical" name="ADDGRID"> F  </i>
  </separator>
  <separator name="ionic" >
   <i type="int" name="NSW">    99</i>
   <i type="int" name="IBRION">     2</i>
   <i type="int" name="MDALGO">     0</i>
   <i type="int" name="ISIF">     3</i>
   <i name="PSTRESS">      0.00000000</i>
   <i name="EDIFFG">     -0.05000000</i>
   <i type="int" name="NFREE">     1</i>
   <i name="POTIM">      0.10000000</i>
   <i name="SMASS">     -3.00000000</i>
   <i name="SCALEE">      1.00000000</i>
  </separator>
  <separator name="ionic md" >
   <i name="TEBEG">      0.00010000</i>
   <i name="TEEND">      0.00010000</i>
   <i type="int" name="NBLOCK">     1</i>
   <i type="int" name="KBLOCK">    99</i>
   <i type="int" name="NPACO">   256</i>
   <i name="APACO">     16.00000000</i>
  </separator>
  <separator name="symmetry" >
   <i type="int" name="ISYM">     2</i>
   <i name="SYMPREC">      0.00001000</i>
  </separator>
  <separator name="dos" >
   <i type="int" name="LORBIT">    10</i>
   <v name="RWIGS">     -1.00000000     -1.00000000     -1.00000000</v>
   <i type="int" name="NEDOS">   301</i>
   <i name="EMIN">     10.00000000</i>
   <i name="EMAX">    -10.00000000</i>
   <i name="EFERMI">      0.00000000</i>
  </separator>
  <separator name="writing" >
   <i type="int" name="NWRITE">     2</i>
   <i type="logical" name="LWAVE"> F  </i>
   <i type="logical" name="LDOWNSAMPLE"> F  </i>
   <i type="logical" name="LCHARG"> F  </i>
   <i type="logical" name="LPARD"> F  </i>
   <i type="logical" name="LVTOT"> F  </i>
   <i type="logical" name="LVHAR"> F  </i>
   <i type="logical" name="LELF"> F  </i>
   <i type="logical" name="LOPTICS"> F  </i>
   <v name="STM">      0.00000000      0.00000000      0.00000000      0.00000000      0.00000000      0.00000000      0.00000000</v>
  </separator>
  <separator name="performance" >
   <i type="int" name="NPAR">    14</i>
   <i type="int" name="NSIM">     4</i>
   <i type="int" name="NBLK">    -1</i>
   <i type="logical" name="LPLANE"> T  </i>
   <i type="logical" name="LSCALAPACK"> T  </i>
   <i type="logical" name="LSCAAWARE"> F  </i>
   <i type="logical" name="LSCALU"> F  </i>
   <i type="logical" name="LASYNC"> F  </i>
   <i type="logical" name="LORBITALREAL"> F  </i>
  </separator>
  <separator name="miscellaneous" >
   <i type="int" name="IDIOT">     3</i>
   <i type="int" name="ISPECIAL">     0</i>
   <i type="logical" name="LMUSIC"> F  </i>
   <v name="POMASS">     39.09800000    121.75000000     32.06600000</v>
   <v name="DARWINR">      0.00000000      0.00000000      0.00000000</v>
   <v name="DARWINV">      1.00000000      1.00000000      1.00000000</v>
   <i type="logical" name="LCORR"> T  </i>
  </separator>
  <i type="logical" name="GGA_COMPAT"> T  </i>
  <i type="logical" name="LBERRY"> F  </i>
  <i type="int" name="ICORELEVEL">     0</i>
  <i type="logical" name="LDAU"> F  </i>
  <i type="int" name="I_CONSTRAINED_M">     0</i>
  <separator name="electronic exchange-correlation" >
   <i type="string" name="GGA">--</i>
   <i type="int" name="VOSKOWN">     0</i>
   <i type="logical" name="LHFCALC"> F  </i>
   <i type="string" name="PRECFOCK"></i>
   <i type="logical" name="LSYMGRAD"> F  </i>
   <i type="logical" name="LHFONE"> F  </i>
   <i type="logical" name="LRHFCALC"> F  </i>
   <i type="logical" name="LTHOMAS"> F  </i>
   <i type="logical" name="LMODELHF"> F  </i>
   <i name="ENCUT4O">     -1.00000000</i>
   <i type="int" name="EXXOEP">     0</i>
   <i type="int" name="FOURORBIT">     0</i>
   <i name="AEXX">      0.00000000</i>
   <i name="HFALPHA">      0.00000000</i>
   <i name="MCALPHA">      0.00000000</i>
   <i name="ALDAX">      1.00000000</i>
   <i name="AGGAX">      1.00000000</i>
   <i name="ALDAC">      1.00000000</i>
   <i name="AGGAC">      1.00000000</i>
   <i type="int" name="NKREDX">     1</i>
   <i type="int" name="NKREDY">     1</i>
   <i type="int" name="NKREDZ">     1</i>
   <i type="logical" name="SHIFTRED"> F  </i>
   <i type="logical" name="ODDONLY"> F  </i>
   <i type="logical" name="EVENONLY"> F  </i>
   <i type="int" name="LMAXFOCK">     0</i>
   <i type="int" name="NMAXFOCKAE">     0</i>
   <i type="logical" name="LFOCKAEDFT"> F  </i>
   <i name="HFSCREEN">      0.00000000</i>
   <i name="HFSCREENC">      0.00000000</i>
   <i type="int" name="NBANDSGWLOW">     0</i>
  </separator>
  <separator name="vdW DFT" >
   <i type="logical" name="LUSE_VDW"> F  </i>
   <i name="Zab_VDW">     -0.84910000</i>
   <i name="PARAM1">      0.12340000</i>
   <i name="PARAM2">      1.00000000</i>
   <i name="PARAM3">      0.00000000</i>
  </separator>
  <separator name="model GW" >
   <i type="int" name="MODEL_GW">     0</i>
   <i name="MODEL_EPS0">     18.64726849</i>
   <i name="MODEL_ALPHA">      1.00000000</i>
  </separator>
  <separator name="linear response parameters" >
   <i type="logical" name="LEPSILON"> F  </i>
   <i type="logical" name="LRPA"> F  </i>
   <i type="logical" name="LNABLA"> F  </i>
   <i type="logical" name="LVEL"> F  </i>
   <i type="int" name="KINTER">     0</i>
   <i name="CSHIFT">      0.10000000</i>
   <i name="OMEGAMAX">     -1.00000000</i>
   <i name="DEG_THRESHOLD">      0.00200000</i>
   <i name="RTIME">     -0.10000000</i>
   <i name="WPLASMAI">      0.00000000</i>
   <v name="DFIELD">      0.00000000      0.00000000      0.00000000</v>
   <v name="WPLASMA">      0.00000000      0.00000000      0.00000000      0.00000000      0.00000000      0.00000000      0.00000000      0.00000000      0.00000000</v>
  </separator>
  <separator name="orbital magnetization" >
   <i type="logical" name="NUCIND"> F  </i>
   <v name="MAGPOS">      0.00000000      0.00000000      0.00000000</v>
   <i type="logical" name="LNICSALL"> T  </i>
   <i type="logical" name="ORBITALMAG"> F  </i>
   <i type="logical" name="LMAGBLOCH"> F  </i>
   <i type="logical" name="LCHIMAG"> F  </i>
   <i type="logical" name="LGAUGE"> T  </i>
   <i type="int" name="MAGATOM">     0</i>
   <v name="MAGDIPOL">      0.00000000      0.00000000      0.00000000</v>
   <v name="AVECCONST">      0.00000000      0.00000000      0.00000000</v>
  </separator>
  <separator name="response functions" >
   <i type="logical" name="LADDER"> F  </i>
   <i type="logical" name="LRPAFORCE"> F  </i>
   <i type="logical" name="LFXC"> F  </i>
   <i type="logical" name="LHARTREE"> T  </i>
   <i type="int" name="IBSE">     0</i>
   <v type="int" name="KPOINT">    -1     0     0     0</v>
   <i type="logical" name="LTCTE"> F  </i>
   <i type="logical" name="LTETE"> F  </i>
   <i type="logical" name="LTRIPLET"> F  </i>
   <i type="logical" name="LFXCEPS"> F  </i>
   <i type="logical" name="LFXHEG"> F  </i>
   <i type="int" name="NATURALO">     2</i>
   <i type="logical" name="L2ORDER"> F  </i>
   <i type="logical" name="LMP2LT"> F  </i>
   <i type="logical" name="LUSEW"> F  </i>
   <i name="ENCUTGW">     -2.00000000</i>
   <i name="ENCUTGWSOFT">     -2.00000000</i>
   <i name="ENCUTLF">     -1.00000000</i>
   <i type="int" name="LMAXMP2">    -1</i>
   <i name="SCISSOR">      0.00000000</i>
   <i type="int" name="NOMEGA">     0</i>
   <i type="int" name="NOMEGAR">     0</i>
   <i type="int" name="NBANDSGW">    -1</i>
   <i type="int" name="NBANDSO">    -1</i>
   <i type="int" name="NBANDSV">    -1</i>
   <i type="int" name="NELM">     1</i>
   <i type="int" name="NELMHF">     1</i>
   <i type="int" name="DIM">     3</i>
   <i type="int" name="ANTIRES">     0</i>
   <i name="OMEGAMAX">    -30.00000000</i>
   <i name="OMEGAMIN">    -30.00000000</i>
   <i name="OMEGATL">   -200.00000000</i>
   <i type="int" name="OMEGAGRID">   140</i>
   <i name="CSHIFT">     -0.10000000</i>
   <i type="logical" name="SELFENERGY"> F  </i>
   <i type="logical" name="LSPECTRAL"> F  </i>
   <i type="logical" name="LSPECTRALGW"> F  </i>
   <i type="logical" name="LSINGLES"> F  </i>
   <i type="logical" name="LFERMIGW"> F  </i>
   <i type="logical" name="ODDONLYGW"> F  </i>
   <i type="logical" name="EVENONLYGW"> F  </i>
   <i type="int" name="NKREDLFX">     1</i>
   <i type="int" name="NKREDLFY">     1</i>
   <i type="int" name="NKREDLFZ">     1</i>
   <i type="int" name="MAXMEM">  2800</i>
   <i type="int" name="TELESCOPE">     0</i>
   <i type="int" name="TAUPAR">     1</i>
   <i type="int" name="OMEGAPAR">    -1</i>
   <i name="LAMBDA">      1.00000000</i>
  </separator>
  <separator name="External order field" >
   <i name="OFIELD_KAPPA">      0.00000000</i>
   <v name="OFIELD_K">      0.00000000      0.00000000      0.00000000</v>
   <i name="OFIELD_Q6_NEAR">      0.00000000</i>
   <i name="OFIELD_Q6_FAR">      0.00000000</i>
   <i name="OFIELD_A">      0.00000000</i>
  </separator>
 </parameters>
 <atominfo>
  <atoms>      26 </atoms>
  <types>       3 </types>
  <array name="atoms" >
   <dimension dim="1">ion</dimension>
   <field type="string">element</field>
   <field type="int">atomtype</field>
   <set>
    <rc><c>K </c><c>   1</c></rc>
    <rc><c>K </c><c>   1</c></rc>
    <rc><c>K </c><c>   1</c></rc>
    <rc><c>K </c><c>   1</c></rc>
    <rc><c>Sb</c><c>   2</c></rc>
    <rc><c>Sb</c><c>   2</c></rc>
    <rc><c>Sb</c><c>   2</c></rc>
    <rc><c>Sb</c><c>   2</c></rc>
    <rc><c>Sb</c><c>   2</c></rc>
    <rc><c>Sb</c><c>   2</c></rc>
    <rc><c>Sb</c><c>   2</c></rc>
    <rc><c>Sb</c><c>   2</c></rc>
    <rc><c>S </c><c>   3</c></rc>
    <rc><c>S </c><c>   3</c></rc>
    <rc><c>S </c><c>   3</c></rc>
    <rc><c>S </c><c>   3</c></rc>
    <rc><c>S </c><c>   3</c></rc>
    <rc><c>S </c><c>   3</c></rc>
    <rc><c>S </c><c>   3</c></rc>
    <rc><c>S </c><c>   3</c></rc>
    <rc><c>S </c><c>   3</c></rc>
    <rc><c>S </c><c>   3</c></rc>
    <rc><c>S </c><c>   3</c></rc>
    <rc><c>S </c><c>   3</c></rc>
    <rc><c>S </c><c>   3</c></rc>
    <rc><c>S </c><c>   3</c></rc>
   </set>
  </array>
  <array name="atomtypes" >
   <dimension dim="1">type</dimension>
   <field type="int">atomspertype</field>
   <field type="string">element</field>
   <field>mass</field>
   <field>valence</field>
   <field type="string">pseudopotential</field>
   <set>
    <rc><c>   4</c><c>K </c><c>     39.09800000</c><c>      7.00000000</c><c>  PAW_PBE K_pv 17Jan2003                </c></rc>
    <rc><c>   8</c><c>Sb</c><c>    121.75000000</c><c>      5.00000000</c><c>  PAW_PBE Sb 06Sep2000                  </c></rc>
    <rc><c>  14</c><c>S </c><c>     32.06600000</c><c>      6.00000000</c><c>  PAW_PBE S 06Sep2000                   </c></rc>
   </set>
  </array>
 </atominfo>
 <structure name="initialpos" >
  <crystal>
   <varray name="basis" >
    <v>      -7.60686607       0.00323026      -0.20134052 </v>
    <v>       2.15868396       9.37814567      -0.04232290 </v>
    <v>      -0.75538478      -1.92938566     -11.32541481 </v>
   </varray>
   <i name="volume">    808.04830123 </i>
   <varray name="rec_basis" >
    <v>      -0.13154294       0.03029517       0.00361262 </v>
    <v>       0.00052602       0.10642783      -0.01816602 </v>
    <v>       0.00233657      -0.00093630      -0.08829332 </v>
   </varray>
  </crystal>
  <varray name="positions" >
   <v>       0.27971191       0.33470695       0.11344170 </v>
   <v>       0.42133288       0.73651211       0.56505284 </v>
   <v>       0.57866712       0.26348789       0.43494716 </v>
   <v>       0.72028809       0.66529305       0.88655830 </v>
   <v>       0.02949092       0.94872676       0.34036999 </v>
   <v>       0.15647921       0.43834725       0.81443349 </v>
   <v>       0.73179071       0.13246322       0.04634606 </v>
   <v>       0.50389533       0.19299390       0.76651401 </v>
   <v>       0.26820929       0.86753678       0.95365394 </v>
   <v>       0.97050908       0.05127324       0.65963001 </v>
   <v>       0.84352079       0.56165275       0.18556651 </v>
   <v>       0.49610467       0.80700610       0.23348599 </v>
   <v>       0.80738821       0.86683700       0.14848110 </v>
   <v>       0.65065409       0.33120387       0.95164084 </v>
   <v>       0.45508313       0.43734144       0.70787551 </v>
   <v>       0.23432147       0.01386768       0.52925832 </v>
   <v>       0.03319216       0.69198000       0.35260723 </v>
   <v>       0.34934591       0.66879613       0.04835916 </v>
   <v>       0.44389662       0.06775597       0.15976174 </v>
   <v>       0.96680784       0.30802000       0.64739277 </v>
   <v>       0.55610338       0.93224403       0.84023826 </v>
   <v>       0.87735440       0.32022812       0.22434690 </v>
   <v>       0.12264560       0.67977188       0.77565310 </v>
   <v>       0.76567853       0.98613232       0.47074168 </v>
   <v>       0.54491687       0.56265856       0.29212449 </v>
   <v>       0.19261179       0.13316300       0.85151890 </v>
  </varray>
 </structure>
 <calculation>
  <scstep>
   <time name="dav">    0.81    0.82</time>
   <time name="total">    1.00    1.10</time>
   <energy>
    <i name="alphaZ">    190.34515020 </i>
    <i name="ewald">  -5341.95780635 </i>
    <i name="hartreedc">  -1434.98695950 </i>
    <i name="XCdc">   -155.61673439 </i>
    <i name="pawpsdc">   5707.97405778 </i>
    <i name="pawaedc">  -5218.53584324 </i>
    <i name="eentropy">     -0.01109112 </i>
    <i name="bandstr">    156.75607378 </i>
    <i name="atom">   6876.93431449 </i>
    <i name="e_fr_energy">    780.90116164 </i>
    <i name="e_wo_entrp">    780.91225277 </i>
    <i name="e_0_energy">    780.90670721 </i>
   </energy>
  </scstep>
  <scstep>
   <time name="dav">    0.73    0.73</time>
   <time name="total">    0.73    0.73</time>
   <energy>
    <i name="e_fr_energy">    -28.48360582 </i>
    <i name="e_wo_entrp">    -28.48360582 </i>
    <i name="e_0_energy">    -28.48360582 </i>
   </energy>
  </scstep>
  <scstep>
   <time name="dav">    0.84    0.84</time>
   <time name="total">    0.84    0.84</time>
   <energy>
    <i name="e_fr_energy">   -113.53184285 </i>
    <i name="e_wo_entrp">   -113.53184285 </i>
    <i name="e_0_energy">   -113.53184285 </i>
   </energy>
  </scstep>
  <scstep>
   <time name="dav">    0.93    0.93</time>
   <time name="total">    0.93    0.93</time>
   <energy>
    <i name="e_fr_energy">   -116.00696226 </i>
    <i name="e_wo_entrp">   -116.00696226 </i>
    <i name="e_0_energy">   -116.00696226 </i>
   </energy>
  </scstep>
  <scstep>
   <time name="dav">    0.80    0.81</time>
   <time name="total">    0.83    0.83</time>
   <energy>
    <i name="e_fr_energy">   -116.08022552 </i>
    <i name="e_wo_entrp">   -116.08022552 </i>
    <i name="e_0_energy">   -116.08022552 </i>
   </energy>
  </scstep>
  <scstep>
   <time name="dav">    0.85    0.85</time>
   <time name="total">    1.05    1.06</time>
   <energy>
    <i name="e_fr_energy">   -109.43031288 </i>
    <i name="e_wo_entrp">   -109.43031288 </i>
    <i name="e_0_energy">   -109.43031288 </i>
   </energy>
  </scstep>
  <scstep>
   <time name="dav">    0.87    0.88</time>
   <time name="total">    1.07    1.08</time>
   <energy>
    <i name="e_fr_energy">   -109.53610764 </i>
    <i name="e_wo_entrp">   -109.53610764 </i>
    <i name="e_0_energy">   -109.53610764 </i>
   </energy>
  </scstep>
  <scstep>
   <time name="dav">    0.65    0.65</time>
   <time name="total">    0.85    0.85</time>
   <energy>
    <i name="e_fr_energy">   -109.51150662 </i>
    <i name="e_wo_entrp">   -109.51150662 </i>
    <i name="e_0_energy">   -109.51150662 </i>
   </energy>
  </scstep>
  <scstep>
   <time name="dav">    0.86    0.87</time>
   <time name="total">    1.07    1.07</time>
   <energy>
    <i name="e_fr_energy">   -109.52606089 </i>
    <i name="e_wo_entrp">   -109.52606089 </i>
    <i name="e_0_energy">   -109.52606089 </i>
   </energy>
  </scstep>
  <scstep>
   <time name="dav">    0.98    0.98</time>
   <time name="total">    1.18    1.18</time>
   <energy>
    <i name="e_fr_energy">   -109.52766635 </i>
    <i name="e_wo_entrp">   -109.52766635 </i>
    <i name="e_0_energy">   -109.52766635 </i>
   </energy>
  </scstep>
  <scstep>
   <time name="dav">    0.73    0.73</time>
   <time name="total">    0.93    0.93</time>
   <energy>
    <i name="e_fr_energy">   -109.53091130 </i>
    <i name="e_wo_entrp">   -109.53091130 </i>
    <i name="e_0_energy">   -109.53091130 </i>
   </energy>
  </scstep>
  <scstep>
   <time name="dav">    0.84    0.84</time>
   <time name="total">    1.04    1.05</time>
   <energy>
    <i name="e_fr_energy">   -109.53131721 </i>
    <i name="e_wo_entrp">   -109.53131721 </i>
    <i name="e_0_energy">   -109.53131721 </i>
   </energy>
  </scstep>
  <scstep>
   <time name="dav">    0.74    0.74</time>
   <time name="total">    0.94    0.94</time>
   <energy>
    <i name="e_fr_energy">   -109.53171193 </i>
    <i name="e_wo_entrp">   -109.53171193 </i>
    <i name="e_0_energy">   -109.53171193 </i>
   </energy>
  </scstep>
  <scstep>
   <time name="dav">    0.64    0.64</time>
   <time name="total">    0.81    0.81</time>
   <energy>
    <i name="alphaZ">    190.34515020 </i>
    <i name="ewald">  -5341.95780635 </i>
    <i name="hartreedc">  -1515.20764442 </i>
    <i name="XCdc">   -147.93806457 </i>
    <i name="pawpsdc">  11208.16734979 </i>
    <i name="pawaedc"> -10719.33881489 </i>
    <i name="eentropy">     -0.00000000 </i>
    <i name="bandstr">   -660.53624493 </i>
    <i name="atom">   6876.93431449 </i>
    <i name="e_fr_energy">   -109.53176067 </i>
    <i name="e_wo_entrp">   -109.53176067 </i>
    <i name="e_0_energy">   -109.53176067 </i>
   </energy>
  </scstep>
  <structure>
   <crystal>
    <varray name="basis" >
     <v>      -7.60686607       0.00323026      -0.20134052 </v>
     <v>       2.15868396       9.37814567      -0.04232290 </v>
     <v>      -0.75538478      -1.92938566     -11.32541481 </v>
    </varray>
    <i name="volume">    808.04830123 </i>
    <varray name="rec_basis" >
     <v>      -0.13154294       0.03029517       0.00361262 </v>
     <v>       0.00052602       0.10642783      -0.01816602 </v>
     <v>       0.00233657      -0.00093630      -0.08829332 </v>
    </varray>
   </crystal>
   <varray name="positions" >
    <v>       0.27971191       0.33470695       0.11344170 </v>
    <v>       0.42133288       0.73651211       0.56505284 </v>
    <v>       0.57866712       0.26348789       0.43494716 </v>
    <v>       0.72028809       0.66529305       0.88655830 </v>
    <v>       0.02949092       0.94872676       0.34036999 </v>
    <v>       0.15647921       0.43834725       0.81443349 </v>
    <v>       0.73179071       0.13246322       0.04634606 </v>
    <v>       0.50389533       0.19299390       0.76651401 </v>
    <v>       0.26820929       0.86753678       0.95365394 </v>
    <v>       0.97050908       0.05127324       0.65963001 </v>
    <v>       0.84352079       0.56165275       0.18556651 </v>
    <v>       0.49610467       0.80700610       0.23348599 </v>
    <v>       0.80738821       0.86683700       0.14848110 </v>
    <v>       0.65065409       0.33120387       0.95164084 </v>
    <v>       0.45508313       0.43734144       0.70787551 </v>
    <v>       0.23432147       0.01386768       0.52925832 </v>
    <v>       0.03319216       0.69198000       0.35260723 </v>
    <v>       0.34934591       0.66879613       0.04835916 </v>
    <v>       0.44389662       0.06775597       0.15976174 </v>
    <v>       0.96680784       0.30802000       0.64739277 </v>
    <v>       0.55610338       0.93224403       0.84023826 </v>
    <v>       0.87735440       0.32022812       0.22434690 </v>
    <v>       0.12264560       0.67977188       0.77565310 </v>
    <v>       0.76567853       0.98613232       0.47074168 </v>
    <v>       0.54491687       0.56265856       0.29212449 </v>
    <v>       0.19261179       0.13316300       0.85151890 </v>
   </varray>
  </structure>
  <varray name="forces" >
   <v>      -0.00914487       0.00770843       0.00551559 </v>
   <v>       0.00592224       0.00088372      -0.00553293 </v>
   <v>      -0.00592224      -0.00088372       0.00553293 </v>
   <v>       0.00914487      -0.00770843      -0.00551559 </v>
   <v>       0.03601972      -0.11432691      -0.07952940 </v>
   <v>      -0.01389769       0.10831661       0.00787773 </v>
   <v>       0.15621106      -0.00932945      -0.11395680 </v>
   <v>      -0.05675850      -0.06528753      -0.14660982 </v>
   <v>      -0.15621106       0.00932945       0.11395680 </v>
   <v>      -0.03601972       0.11432691       0.07952940 </v>
   <v>       0.01389769      -0.10831661      -0.00787773 </v>
   <v>       0.05675850       0.06528753       0.14660982 </v>
   <v>       0.02076250      -0.00709176       0.01586035 </v>
   <v>      -0.00617205      -0.01449890      -0.00509822 </v>
   <v>       0.03076425       0.00283835      -0.01718774 </v>
   <v>       0.00923835       0.03127590       0.02495095 </v>
   <v>      -0.00243003       0.01933398       0.02294097 </v>
   <v>       0.00617205       0.01449890       0.00509822 </v>
   <v>      -0.00510839       0.01540412       0.02406327 </v>
   <v>       0.00243003      -0.01933398      -0.02294097 </v>
   <v>       0.00510839      -0.01540412      -0.02406327 </v>
   <v>      -0.04721442      -0.01306068      -0.00939331 </v>
   <v>       0.04721442       0.01306068       0.00939331 </v>
   <v>      -0.00923835      -0.03127590      -0.02495095 </v>
   <v>      -0.03076425      -0.00283835       0.01718774 </v>
   <v>      -0.02076250       0.00709176      -0.01586035 </v>
  </varray>
  <varray name="stress" >
   <v>      -1.17456790      -0.51279304       0.37754055 </v>
   <v>      -0.51279233      -0.57609338      -0.80338086 </v>
   <v>       0.37753972      -0.80338082      -0.92644881 </v>
  </varray>
  <energy>
   <i name="e_fr_energy">   -109.53176067 </i>
   <i name="e_wo_entrp">   -109.53176067 </i>
   <i name="e_0_energy">     -0.00000000 </i>
  </energy>
  <time name="totalsc">   14.43   14.70</time>
 </calculation>
 <calculation>
  <scstep>
   <time name="dav">    0.58    0.59</time>
   <time name="total">    0.80    0.88</time>
   <energy>
    <i name="alphaZ">    190.44056206 </i>
    <i name="ewald">  -5342.28560690 </i>
    <i name="hartreedc">  -1516.00305689 </i>
    <i name="XCdc">   -147.87022372 </i>
    <i name="pawpsdc">  11205.96028211 </i>
    <i name="pawaedc"> -10717.13138550 </i>
    <i name="eentropy">     -0.00000000 </i>
    <i name="bandstr">   -659.57903757 </i>
    <i name="atom">   6876.93431449 </i>
    <i name="e_fr_energy">   -109.53415194 </i>
    <i name="e_wo_entrp">   -109.53415194 </i>
    <i name="e_0_energy">   -109.53415194 </i>
   </energy>
  </scstep>
  <scstep>
   <time name="dav">    0.94    0.95</time>
   <time name="total">    1.12    1.12</time>
   <energy>
    <i name="alphaZ">    190.44056206 </i>
    <i name="ewald">  -5342.28560690 </i>
    <i name="hartreedc">  -1515.64992114 </i>
    <i name="XCdc">   -147.88869960 </i>
    <i name="pawpsdc">  11214.62760260 </i>
    <i name="pawaedc"> -10725.79496277 </i>
    <i name="eentropy">     -0.00000000 </i>
    <i name="bandstr">   -659.91735118 </i>
    <i name="atom">   6876.93431449 </i>
    <i name="e_fr_energy">   -109.53406245 </i>
    <i name="e_wo_entrp">   -109.53406245 </i>
    <i name="e_0_energy">   -109.53406245 </i>
   </energy>
  </scstep>
  <structure>
   <crystal>
    <varray name="basis" >
     <v>      -7.60520836       0.00399025      -0.20184360 </v>
     <v>       2.15730636       9.37693368      -0.04357314 </v>
     <v>      -0.75583381      -1.92740223     -11.32321432 </v>
    </varray>
    <i name="volume">    807.64346419 </i>
    <varray name="rec_basis" >
     <v>      -0.13156921       0.03028635       0.00362710 </v>
     <v>       0.00053763       0.10643662      -0.01815320 </v>
     <v>       0.00234324      -0.00094946      -0.08830895 </v>
    </varray>
   </crystal>
   <varray name="positions" >
    <v>       0.27972596       0.33471386       0.11343673 </v>
    <v>       0.42132543       0.73651402       0.56505768 </v>
    <v>       0.57867457       0.26348598       0.43494232 </v>
    <v>       0.72027404       0.66528614       0.88656327 </v>
    <v>       0.02940902       0.94862348       0.34043958 </v>
    <v>       0.15652878       0.43845702       0.81442548 </v>
    <v>       0.73158574       0.13247441       0.04644675 </v>
    <v>       0.50394317       0.19295226       0.76663822 </v>
    <v>       0.26841426       0.86752559       0.95355325 </v>
    <v>       0.97059098       0.05137652       0.65956042 </v>
    <v>       0.84347122       0.56154298       0.18557452 </v>
    <v>       0.49605683       0.80704774       0.23336178 </v>
    <v>       0.80736034       0.86682705       0.14846812 </v>
    <v>       0.65065751       0.33118985       0.95164518 </v>
    <v>       0.45504431       0.43734752       0.70789082 </v>
    <v>       0.23431976       0.01389547       0.52923699 </v>
    <v>       0.03320169       0.69199582       0.35258746 </v>
    <v>       0.34934249       0.66881015       0.04835482 </v>
    <v>       0.44390844       0.06776754       0.15974098 </v>
    <v>       0.96679831       0.30800418       0.64741254 </v>
    <v>       0.55609156       0.93223246       0.84025902 </v>
    <v>       0.87741018       0.32021612       0.22435396 </v>
    <v>       0.12258982       0.67978388       0.77564604 </v>
    <v>       0.76568024       0.98610453       0.47076301 </v>
    <v>       0.54495569       0.56265248       0.29210918 </v>
    <v>       0.19263966       0.13317295       0.85153188 </v>
   </varray>
  </structure>
  <varray name="forces" >
   <v>      -0.00809245       0.00754883       0.00554273 </v>
   <v>       0.00506324       0.00002724      -0.00317703 </v>
   <v>      -0.00506324      -0.00002724       0.00317703 </v>
   <v>       0.00809245      -0.00754883      -0.00554273 </v>
   <v>       0.03802578      -0.09786326      -0.05479253 </v>
   <v>       0.00651094       0.09607095       0.00508636 </v>
   <v>       0.11011453      -0.05617799      -0.09305269 </v>
   <v>      -0.08236684      -0.00804850      -0.07792281 </v>
   <v>      -0.11011453       0.05617799       0.09305269 </v>
   <v>      -0.03802578       0.09786326       0.05479253 </v>
   <v>      -0.00651094      -0.09607095      -0.00508636 </v>
   <v>       0.08236684       0.00804850       0.07792281 </v>
   <v>       0.01292307      -0.00440638       0.01774803 </v>
   <v>      -0.00542235      -0.00283649      -0.00909381 </v>
   <v>       0.02005341       0.00712307      -0.00809523 </v>
   <v>       0.00312652       0.02662776       0.03348706 </v>
   <v>      -0.00653826       0.00228286       0.01480502 </v>
   <v>       0.00542235       0.00283649       0.00909381 </v>
   <v>       0.02187940       0.01482028       0.00977696 </v>
   <v>       0.00653826      -0.00228286      -0.01480502 </v>
   <v>      -0.02187940      -0.01482028      -0.00977696 </v>
   <v>      -0.04706827      -0.02042774      -0.01595895 </v>
   <v>       0.04706827       0.02042774       0.01595895 </v>
   <v>      -0.00312652      -0.02662776      -0.03348706 </v>
   <v>      -0.02005341      -0.00712307       0.00809523 </v>
   <v>      -0.01292307       0.00440638      -0.01774803 </v>
  </varray>
  <varray name="stress" >
   <v>      -1.12086860      -0.68201025       0.36486296 </v>
   <v>      -0.68200951      -0.92172609      -1.00123427 </v>
   <v>       0.36486205      -1.00123350      -1.23709068 </v>
  </varray>
  <energy>
   <i name="e_fr_energy">   -109.53406245 </i>
   <i name="e_wo_entrp">   -109.53406245 </i>
   <i name="e_0_energy">     -0.00000000 </i>
  </energy>
  <time name="totalsc">    3.01    3.31</time>
 </calculation>
 <calculation>
  <scstep>
   <time name="dav">    0.84    0.85</time>
   <time name="total">    1.06    1.11</time>
   <energy>
    <i name="alphaZ">    190.72727214 </i>
    <i name="ewald">  -5343.26397946 </i>
    <i name="hartreedc">  -1517.67933326 </i>
    <i name="XCdc">   -147.70128617 </i>
    <i name="pawpsdc">  11219.03234545 </i>
    <i name="pawaedc"> -10730.20178486 </i>
    <i name="eentropy">     -0.00000000 </i>
    <i name="bandstr">   -657.38583359 </i>
    <i name="atom">   6876.93431449 </i>
    <i name="e_fr_energy">   -109.53828526 </i>
    <i name="e_wo_entrp">   -109.53828526 </i>
    <i name="e_0_energy">   -109.53828526 </i>
   </energy>
  </scstep>
  <scstep>
   <time name="dav">    0.89    0.90</time>
   <time name="total">    1.10    1.10</time>
   <energy>
    <i name="e_fr_energy">   -109.53741852 </i>
    <i name="e_wo_entrp">   -109.53741852 </i>
    <i name="e_0_energy">   -109.53741852 </i>
   </energy>
  </scstep>
  <scstep>
   <time name="dav">    0.65    0.65</time>
   <time name="total">    0.85    0.85</time>
   <energy>
    <i name="e_fr_energy">   -109.53713842 </i>
    <i name="e_wo_entrp">   -109.53713842 </i>
    <i name="e_0_energy">   -109.53713842 </i>
   </energy>
  </scstep>
  <scstep>
   <time name="dav">    0.59    0.59</time>
   <time name="total">    0.76    0.77</time>
   <energy>
    <i name="alphaZ">    190.72727214 </i>
    <i name="ewald">  -5343.26397946 </i>
    <i name="hartreedc">  -1515.88579746 </i>
    <i name="XCdc">   -147.78074092 </i>
    <i name="pawpsdc">  11258.80638195 </i>
    <i name="pawaedc"> -10769.99061178 </i>
    <i name="eentropy">     -0.00000000 </i>
    <i name="bandstr">   -659.08391524 </i>
    <i name="atom">   6876.93431449 </i>
    <i name="e_fr_energy">   -109.53707629 </i>
    <i name="e_wo_entrp">   -109.53707629 </i>
    <i name="e_0_energy">   -109.53707629 </i>
   </energy>
  </scstep>
  <structure>
   <crystal>
    <varray name="basis" >
     <v>      -7.60023526       0.00627023      -0.20335285 </v>
     <v>       2.15317355       9.37329772      -0.04732385 </v>
     <v>      -0.75718090      -1.92145193     -11.31661283 </v>
    </varray>
    <i name="volume">    806.42937708 </i>
    <varray name="rec_basis" >
     <v>      -0.13164812       0.03025989       0.00367058 </v>
     <v>       0.00057251       0.10646307      -0.01811471 </v>
     <v>       0.00236324      -0.00098896      -0.08835587 </v>
    </varray>
   </crystal>
   <varray name="positions" >
    <v>       0.27976813       0.33473456       0.11342180 </v>
    <v>       0.42130307       0.73651974       0.56507220 </v>
    <v>       0.57869693       0.26348026       0.43492780 </v>
    <v>       0.72023187       0.66526544       0.88657820 </v>
    <v>       0.02916327       0.94831360       0.34064846 </v>
    <v>       0.15667749       0.43878638       0.81440143 </v>
    <v>       0.73097069       0.13250798       0.04674889 </v>
    <v>       0.50408670       0.19282727       0.76701092 </v>
    <v>       0.26902931       0.86749202       0.95325111 </v>
    <v>       0.97083673       0.05168640       0.65935154 </v>
    <v>       0.84332251       0.56121362       0.18559857 </v>
    <v>       0.49591330       0.80717273       0.23298908 </v>
    <v>       0.80727671       0.86679719       0.14842918 </v>
    <v>       0.65066777       0.33114776       0.95165819 </v>
    <v>       0.45492784       0.43736577       0.70793677 </v>
    <v>       0.23431461       0.01397886       0.52917298 </v>
    <v>       0.03323031       0.69204329       0.35252812 </v>
    <v>       0.34933223       0.66885224       0.04834181 </v>
    <v>       0.44394393       0.06780227       0.15967870 </v>
    <v>       0.96676969       0.30795671       0.64747188 </v>
    <v>       0.55605607       0.93219773       0.84032130 </v>
    <v>       0.87757755       0.32018008       0.22437513 </v>
    <v>       0.12242245       0.67981992       0.77562487 </v>
    <v>       0.76568539       0.98602114       0.47082702 </v>
    <v>       0.54507216       0.56263423       0.29206323 </v>
    <v>       0.19272329       0.13320281       0.85157082 </v>
   </varray>
  </structure>
  <varray name="forces" >
   <v>      -0.00549715       0.00852981       0.00559694 </v>
   <v>       0.00353509      -0.00127494       0.00107642 </v>
   <v>      -0.00353509       0.00127494      -0.00107642 </v>
   <v>       0.00549715      -0.00852981      -0.00559694 </v>
   <v>       0.01508686      -0.02328544      -0.01965317 </v>
   <v>       0.01968219       0.11563921      -0.03646435 </v>
   <v>      -0.02875391       0.06084468      -0.03293544 </v>
   <v>      -0.08218723      -0.00843704      -0.10131769 </v>
   <v>       0.02875391      -0.06084468       0.03293544 </v>
   <v>      -0.01508686       0.02328544       0.01965317 </v>
   <v>      -0.01968219      -0.11563921       0.03646435 </v>
   <v>       0.08218723       0.00843704       0.10131769 </v>
   <v>      -0.00096940       0.00228156       0.02863610 </v>
   <v>      -0.00854788       0.02427862      -0.02131250 </v>
   <v>       0.00065810       0.01106458       0.01158341 </v>
   <v>      -0.03133664       0.02266401       0.04829992 </v>
   <v>      -0.01343332      -0.03936993       0.00877465 </v>
   <v>       0.00854788      -0.02427862       0.02131250 </v>
   <v>       0.06766826       0.00320175      -0.01858474 </v>
   <v>       0.01343332       0.03936993      -0.00877465 </v>
   <v>      -0.06766826      -0.00320175       0.01858474 </v>
   <v>      -0.05447544      -0.05002619      -0.03302671 </v>
   <v>       0.05447544       0.05002619       0.03302671 </v>
   <v>       0.03133664      -0.02266401      -0.04829992 </v>
   <v>      -0.00065810      -0.01106458      -0.01158341 </v>
   <v>       0.00096940      -0.00228156      -0.02863610 </v>
  </varray>
  <varray name="stress" >
   <v>       0.74446882      -0.79362112      -0.34989315 </v>
   <v>      -0.79362000       0.61102822      -0.36901380 </v>
   <v>      -0.34989428      -0.36901328       0.26636603 </v>
  </varray>
  <energy>
   <i name="e_fr_energy">   -109.53707629 </i>
   <i name="e_wo_entrp">   -109.53707629 </i>
   <i name="e_0_energy">     -0.00000000 </i>
  </energy>
  <time name="totalsc">    4.92    5.09</time>
 </calculation>
 <calculation>
  <scstep>
   <time name="dav">    0.61    0.61</time>
   <time name="total">    0.82    0.86</time>
   <energy>
    <i name="alphaZ">    191.30283546 </i>
    <i name="ewald">  -5345.19736391 </i>
    <i name="hartreedc">  -1520.12563034 </i>
    <i name="XCdc">   -147.39680028 </i>
    <i name="pawpsdc">  11259.43669526 </i>
    <i name="pawaedc"> -10770.63351035 </i>
    <i name="eentropy">     -0.00000000 </i>
    <i name="bandstr">   -653.85507522 </i>
    <i name="atom">   6876.93431449 </i>
    <i name="e_fr_energy">   -109.53453490 </i>
    <i name="e_wo_entrp">   -109.53453490 </i>
    <i name="e_0_energy">   -109.53453490 </i>
   </energy>
  </scstep>
  <scstep>
   <time name="dav">    0.83    0.83</time>
   <time name="total">    1.03    1.03</time>
   <energy>
    <i name="e_fr_energy">   -109.53148635 </i>
    <i name="e_wo_entrp">   -109.53148635 </i>
    <i name="e_0_energy">   -109.53148635 </i>
   </energy>
  </scstep>
  <scstep>
   <time name="dav">    0.93    0.94</time>
   <time name="total">    1.13    1.14</time>
   <energy>
    <i name="e_fr_energy">   -109.53052741 </i>
    <i name="e_wo_entrp">   -109.53052741 </i>
    <i name="e_0_energy">   -109.53052741 </i>
   </energy>
  </scstep>
  <scstep>
   <time name="dav">    0.52    0.52</time>
   <time name="total">    0.72    0.72</time>
   <energy>
    <i name="e_fr_energy">   -109.53028550 </i>
    <i name="e_wo_entrp">   -109.53028550 </i>
    <i name="e_0_energy">   -109.53028550 </i>
   </energy>
  </scstep>
  <scstep>
   <time name="dav">    0.66    0.66</time>
   <time name="total">    0.83    0.84</time>
   <energy>
    <i name="alphaZ">    191.30283546 </i>
    <i name="ewald">  -5345.19736391 </i>
    <i name="hartreedc">  -1516.44499438 </i>
    <i name="XCdc">   -147.56107645 </i>
    <i name="pawpsdc">  11336.02272740 </i>
    <i name="pawaedc"> -10847.25997234 </i>
    <i name="eentropy">     -0.00000000 </i>
    <i name="bandstr">   -657.32671760 </i>
    <i name="atom">   6876.93431449 </i>
    <i name="e_fr_energy">   -109.53024733 </i>
    <i name="e_wo_entrp">   -109.53024733 </i>
    <i name="e_0_energy">   -109.53024733 </i>
   </energy>
  </scstep>
  <structure>
   <crystal>
    <varray name="basis" >
     <v>      -7.59028904       0.01083018      -0.20637133 </v>
     <v>       2.14490793       9.36602581      -0.05482528 </v>
     <v>      -0.75987508      -1.90955134     -11.30340985 </v>
    </varray>
    <i name="volume">    804.00311316 </i>
    <varray name="rec_basis" >
     <v>      -0.13180636       0.03020689       0.00375769 </v>
     <v>       0.00064240       0.10651617      -0.01803759 </v>
     <v>       0.00240333      -0.00106814      -0.08845000 </v>
    </varray>
   </crystal>
   <varray name="positions" >
    <v>       0.27985250       0.33477599       0.11339189 </v>
    <v>       0.42125831       0.73653119       0.56510126 </v>
    <v>       0.57874169       0.26346881       0.43489874 </v>
    <v>       0.72014750       0.66522401       0.88660811 </v>
    <v>       0.02867157       0.94769357       0.34106673 </v>
    <v>       0.15697483       0.43944524       0.81435303 </v>
    <v>       0.72973961       0.13257516       0.04735369 </v>
    <v>       0.50437375       0.19257675       0.76775681 </v>
    <v>       0.27026039       0.86742484       0.95264631 </v>
    <v>       0.97132843       0.05230643       0.65893327 </v>
    <v>       0.84302517       0.56055476       0.18564697 </v>
    <v>       0.49562625       0.80742325       0.23224319 </v>
    <v>       0.80710942       0.86673753       0.14835130 </v>
    <v>       0.65068832       0.33106354       0.95168425 </v>
    <v>       0.45469469       0.43740231       0.70802873 </v>
    <v>       0.23430430       0.01414576       0.52904483 </v>
    <v>       0.03328757       0.69213832       0.35240934 </v>
    <v>       0.34931168       0.66893646       0.04831575 </v>
    <v>       0.44401496       0.06787181       0.15955404 </v>
    <v>       0.96671243       0.30786168       0.64759066 </v>
    <v>       0.55598504       0.93212819       0.84044596 </v>
    <v>       0.87791251       0.32010787       0.22441746 </v>
    <v>       0.12208749       0.67989213       0.77558254 </v>
    <v>       0.76569570       0.98585424       0.47095517 </v>
    <v>       0.54530531       0.56259769       0.29197127 </v>
    <v>       0.19289058       0.13326247       0.85164870 </v>
   </varray>
  </structure>
  <varray name="forces" >
   <v>       0.00076701       0.01178744       0.00594976 </v>
   <v>      -0.00064648      -0.00321765       0.01005140 </v>
   <v>       0.00064648       0.00321765      -0.01005140 </v>
   <v>      -0.00076701      -0.01178744      -0.00594976 </v>
   <v>      -0.13135634       0.11494098       0.24734470 </v>
   <v>       0.12110323       0.05771138      -0.03554024 </v>
   <v>      -0.24155946       0.13623023       0.00351085 </v>
   <v>      -0.11342823      -0.02662514       0.01558983 </v>
   <v>       0.24155946      -0.13623023      -0.00351085 </v>
   <v>       0.13135634      -0.11494098      -0.24734470 </v>
   <v>      -0.12110323      -0.05771138       0.03554024 </v>
   <v>       0.11342823       0.02662514      -0.01558983 </v>
   <v>      -0.02285299       0.01185236       0.05354451 </v>
   <v>      -0.01099566       0.07236459      -0.05180581 </v>
   <v>      -0.03935267       0.03775839       0.04751319 </v>
   <v>      -0.10152174       0.03420138       0.08248015 </v>
   <v>      -0.03451925      -0.12956773      -0.01840637 </v>
   <v>       0.01099566      -0.07236459       0.05180581 </v>
   <v>       0.18284610      -0.01289926      -0.09606942 </v>
   <v>       0.03451925       0.12956773       0.01840637 </v>
   <v>      -0.18284610       0.01289926       0.09606942 </v>
   <v>      -0.05093610      -0.09354471      -0.05637106 </v>
   <v>       0.05093610       0.09354471       0.05637106 </v>
   <v>       0.10152174      -0.03420138      -0.08248015 </v>
   <v>       0.03935267      -0.03775839      -0.04751319 </v>
   <v>       0.02285299      -0.01185236      -0.05354451 </v>
  </varray>
  <varray name="stress" >
   <v>       3.76222098      -0.72073767      -1.30790698 </v>
   <v>      -0.72073667       2.80466916       0.77614982 </v>
   <v>      -1.30790836       0.77615085       2.39860074 </v>
  </varray>
  <energy>
   <i name="e_fr_energy">   -109.53024733 </i>
   <i name="e_wo_entrp">   -109.53024733 </i>
   <i name="e_0_energy">     -0.00000000 </i>
  </energy>
  <time name="totalsc">    5.65    5.88</time>
 </calculation>
 <calculation>
  <scstep>
   <time name="dav">    0.84    0.84</time>
   <time name="total">    1.05    1.18</time>
   <energy>
    <i name="alphaZ">    190.86863369 </i>
    <i name="ewald">  -5343.74653845 </i>
    <i name="hartreedc">  -1513.02806065 </i>
    <i name="XCdc">   -147.85751083 </i>
    <i name="pawpsdc">  11335.21021317 </i>
    <i name="pawaedc"> -10846.45837030 </i>
    <i name="eentropy">     -0.00000000 </i>
    <i name="bandstr">   -661.46216053 </i>
    <i name="atom">   6876.93431449 </i>
    <i name="e_fr_energy">   -109.53947941 </i>
    <i name="e_wo_entrp">   -109.53947941 </i>
    <i name="e_0_energy">   -109.53947941 </i>
   </energy>
  </scstep>
  <scstep>
   <time name="dav">    0.91    0.92</time>
   <time name="total">    1.12    1.12</time>
   <energy>
    <i name="e_fr_energy">   -109.53777966 </i>
    <i name="e_wo_entrp">   -109.53777966 </i>
    <i name="e_0_energy">   -109.53777966 </i>
   </energy>
  </scstep>
  <scstep>
   <time name="dav">    0.63    0.63</time>
   <time name="total">    0.83    0.83</time>
   <energy>
    <i name="e_fr_energy">   -109.53722618 </i>
    <i name="e_wo_entrp">   -109.53722618 </i>
    <i name="e_0_energy">   -109.53722618 </i>
   </energy>
  </scstep>
  <scstep>
   <time name="dav">    0.68    0.68</time>
   <time name="total">    0.88    0.89</time>
   <energy>
    <i name="e_fr_energy">   -109.53704961 </i>
    <i name="e_wo_entrp">   -109.53704961 </i>
    <i name="e_0_energy">   -109.53704961 </i>
   </energy>
  </scstep>
  <scstep>
   <time name="dav">    0.57    0.57</time>
   <time name="total">    0.75    0.75</time>
   <energy>
    <i name="alphaZ">    190.86863369 </i>
    <i name="ewald">  -5343.74653845 </i>
    <i name="hartreedc">  -1515.78598312 </i>
    <i name="XCdc">   -147.73605514 </i>
    <i name="pawpsdc">  11270.28414131 </i>
    <i name="pawaedc"> -10781.51193460 </i>
    <i name="eentropy">     -0.00000000 </i>
    <i name="bandstr">   -658.84357821 </i>
    <i name="atom">   6876.93431449 </i>
    <i name="e_fr_energy">   -109.53700004 </i>
    <i name="e_wo_entrp">   -109.53700004 </i>
    <i name="e_0_energy">   -109.53700004 </i>
   </energy>
  </scstep>
  <structure>
   <crystal>
    <varray name="basis" >
     <v>      -7.59778782       0.00739228      -0.20409560 </v>
     <v>       2.15113965       9.37150834      -0.04916971 </v>
     <v>      -0.75784385      -1.91852359     -11.31336401 </v>
    </varray>
    <i name="volume">    805.83211758 </i>
    <varray name="rec_basis" >
     <v>      -0.13168701       0.03024686       0.00369199 </v>
     <v>       0.00058969       0.10647611      -0.01809575 </v>
     <v>       0.00237310      -0.00100842      -0.08837900 </v>
    </varray>
   </crystal>
   <varray name="positions" >
    <v>       0.27978882       0.33474475       0.11341451 </v>
    <v>       0.42129212       0.73652256       0.56507932 </v>
    <v>       0.57870788       0.26347744       0.43492068 </v>
    <v>       0.72021118       0.66525525       0.88658549 </v>
    <v>       0.02904256       0.94816145       0.34075060 </v>
    <v>       0.15675078       0.43894826       0.81438995 </v>
    <v>       0.73066926       0.13252444       0.04689694 </v>
    <v>       0.50415735       0.19276645       0.76719373 </v>
    <v>       0.26933074       0.86747556       0.95310306 </v>
    <v>       0.97095744       0.05183855       0.65924940 </v>
    <v>       0.84324922       0.56105174       0.18561005 </v>
    <v>       0.49584265       0.80723355       0.23280627 </v>
    <v>       0.80723562       0.86678241       0.14841003 </v>
    <v>       0.65067277       0.33112711       0.95166454 </v>
    <v>       0.45487075       0.43737472       0.70795928 </v>
    <v>       0.23431212       0.01401975       0.52914164 </v>
    <v>       0.03324434       0.69206656       0.35249906 </v>
    <v>       0.34932723       0.66887289       0.04833546 </v>
    <v>       0.44396131       0.06781928       0.15964819 </v>
    <v>       0.96675566       0.30793344       0.64750094 </v>
    <v>       0.55603869       0.93218072       0.84035181 </v>
    <v>       0.87765966       0.32016252       0.22438554 </v>
    <v>       0.12234034       0.67983748       0.77561446 </v>
    <v>       0.76568788       0.98598025       0.47085836 </v>
    <v>       0.54512925       0.56262528       0.29204072 </v>
    <v>       0.19276438       0.13321759       0.85158997 </v>
   </varray>
  </structure>
  <varray name="forces" >
   <v>      -0.00477600       0.00945650       0.00590930 </v>
   <v>       0.00285992      -0.00104149       0.00268547 </v>
   <v>      -0.00285992       0.00104149      -0.00268547 </v>
   <v>       0.00477600      -0.00945650      -0.00590930 </v>
   <v>      -0.05251696       0.06585174       0.08580743 </v>
   <v>       0.03084109       0.09997490      -0.00436716 </v>
   <v>      -0.11488125       0.15154310       0.04440267 </v>
   <v>      -0.09946697      -0.03398956       0.01572602 </v>
   <v>       0.11488125      -0.15154310      -0.04440267 </v>
   <v>       0.05251696      -0.06585174      -0.08580743 </v>
   <v>      -0.03084109      -0.09997490       0.00436716 </v>
   <v>       0.09946697       0.03398956      -0.01572602 </v>
   <v>      -0.00087778       0.00045613       0.02726783 </v>
   <v>      -0.01150759       0.03264642      -0.02895206 </v>
   <v>      -0.01366684       0.01356794       0.01703728 </v>
   <v>      -0.04831891       0.01932657       0.05500406 </v>
   <v>      -0.01589144      -0.06147805       0.00435799 </v>
   <v>       0.01150759      -0.03264642       0.02895206 </v>
   <v>       0.09540590       0.00335904      -0.03527513 </v>
   <v>       0.01589144       0.06147805      -0.00435799 </v>
   <v>      -0.09540590      -0.00335904       0.03527513 </v>
   <v>      -0.04847238      -0.06074893      -0.03461251 </v>
   <v>       0.04847238       0.06074893       0.03461251 </v>
   <v>       0.04831891      -0.01932657      -0.05500406 </v>
   <v>       0.01366684      -0.01356794      -0.01703728 </v>
   <v>       0.00087778      -0.00045613      -0.02726783 </v>
  </varray>
  <varray name="stress" >
   <v>       1.65990813      -0.53615997      -0.46214298 </v>
   <v>      -0.53615972       0.78229134       0.46788191 </v>
   <v>      -0.46214360       0.46788316       1.16079677 </v>
  </varray>
  <energy>
   <i name="e_fr_energy">   -109.53700004 </i>
   <i name="e_wo_entrp">   -109.53700004 </i>
   <i name="e_0_energy">     -0.00000000 </i>
  </energy>
  <time name="totalsc">    5.65    6.05</time>
 </calculation>
 <calculation>
  <scstep>
   <time name="dav">    0.83    0.83</time>
   <time name="total">    1.05    1.09</time>
   <energy>
    <i name="alphaZ">    190.79428683 </i>
    <i name="ewald">  -5343.49544827 </i>
    <i name="hartreedc">  -1515.23600067 </i>
    <i name="XCdc">   -147.78546344 </i>
    <i name="pawpsdc">  11271.46852709 </i>
    <i name="pawaedc"> -10782.69173293 </i>
    <i name="eentropy">     -0.00000000 </i>
    <i name="bandstr">   -659.52584048 </i>
    <i name="atom">   6876.93431449 </i>
    <i name="e_fr_energy">   -109.53735738 </i>
    <i name="e_wo_entrp">   -109.53735738 </i>
    <i name="e_0_energy">   -109.53735738 </i>
   </energy>
  </scstep>
  <scstep>
   <time name="dav">    0.83    0.83</time>
   <time name="total">    1.00    1.00</time>
   <energy>
    <i name="alphaZ">    190.79428683 </i>
    <i name="ewald">  -5343.49544827 </i>
    <i name="hartreedc">  -1515.51681717 </i>
    <i name="XCdc">   -147.77103865 </i>
    <i name="pawpsdc">  11266.40713271 </i>
    <i name="pawaedc"> -10777.63043166 </i>
    <i name="eentropy">     -0.00000000 </i>
    <i name="bandstr">   -659.25929901 </i>
    <i name="atom">   6876.93431449 </i>
    <i name="e_fr_energy">   -109.53730073 </i>
    <i name="e_wo_entrp">   -109.53730073 </i>
    <i name="e_0_energy">   -109.53730073 </i>
   </energy>
  </scstep>
  <structure>
   <crystal>
    <varray name="basis" >
     <v>      -7.59907464       0.00680233      -0.20370507 </v>
     <v>       2.15220904       9.37244917      -0.04819919 </v>
     <v>      -0.75749528      -1.92006326     -11.31507218 </v>
    </varray>
    <i name="volume">    806.14612638 </i>
    <varray name="rec_basis" >
     <v>      -0.13166656       0.03025371       0.00368073 </v>
     <v>       0.00058066       0.10646925      -0.01810572 </v>
     <v>       0.00236792      -0.00099819      -0.08836683 </v>
    </varray>
   </crystal>
   <varray name="positions" >
    <v>       0.27977790       0.33473939       0.11341838 </v>
    <v>       0.42129791       0.73652107       0.56507556 </v>
    <v>       0.57870209       0.26347893       0.43492444 </v>
    <v>       0.72022210       0.66526061       0.88658162 </v>
    <v>       0.02910619       0.94824169       0.34069645 </v>
    <v>       0.15671232       0.43886301       0.81439623 </v>
    <v>       0.73082859       0.13251574       0.04681866 </v>
    <v>       0.50412021       0.19279889       0.76709720 </v>
    <v>       0.26917141       0.86748426       0.95318134 </v>
    <v>       0.97089381       0.05175831       0.65930355 </v>
    <v>       0.84328768       0.56113699       0.18560377 </v>
    <v>       0.49587979       0.80720111       0.23290280 </v>
    <v>       0.80725726       0.86679012       0.14842010 </v>
    <v>       0.65067011       0.33113801       0.95166117 </v>
    <v>       0.45490093       0.43736999       0.70794738 </v>
    <v>       0.23431345       0.01399814       0.52915823 </v>
    <v>       0.03323693       0.69205426       0.35251444 </v>
    <v>       0.34932989       0.66886199       0.04833883 </v>
    <v>       0.44395212       0.06781028       0.15966432 </v>
    <v>       0.96676307       0.30794574       0.64748556 </v>
    <v>       0.55604788       0.93218972       0.84033568 </v>
    <v>       0.87761631       0.32017187       0.22438007 </v>
    <v>       0.12238369       0.67982813       0.77561993 </v>
    <v>       0.76568655       0.98600186       0.47084177 </v>
    <v>       0.54509907       0.56263001       0.29205262 </v>
    <v>       0.19274274       0.13320988       0.85157990 </v>
   </varray>
  </structure>
  <varray name="forces" >
   <v>      -0.00550933       0.00953674       0.00557464 </v>
   <v>       0.00331443      -0.00082961       0.00150629 </v>
   <v>      -0.00331443       0.00082961      -0.00150629 </v>
   <v>       0.00550933      -0.00953674      -0.00557464 </v>
   <v>       0.00068027       0.03616930      -0.04265323 </v>
   <v>       0.01753675       0.12570246      -0.03987753 </v>
   <v>      -0.07231228       0.12088879       0.01812916 </v>
   <v>      -0.09040328      -0.02550976       0.03237323 </v>
   <v>       0.07231228      -0.12088879      -0.01812916 </v>
   <v>      -0.00068027      -0.03616930       0.04265323 </v>
   <v>      -0.01753675      -0.12570246       0.03987753 </v>
   <v>       0.09040328       0.02550976      -0.03237323 </v>
   <v>      -0.00317732       0.00355288       0.02999754 </v>
   <v>      -0.00627900       0.02897239      -0.02346312 </v>
   <v>      -0.00475497       0.01224042       0.01316245 </v>
   <v>      -0.03806908       0.02204194       0.05203896 </v>
   <v>      -0.01424821      -0.04924987       0.00760439 </v>
   <v>       0.00627900      -0.02897239       0.02346312 </v>
   <v>       0.07957591      -0.00055201      -0.02616034 </v>
   <v>       0.01424821       0.04924987      -0.00760439 </v>
   <v>      -0.07957591       0.00055201       0.02616034 </v>
   <v>      -0.05192398      -0.05525789      -0.03322923 </v>
   <v>       0.05192398       0.05525789       0.03322923 </v>
   <v>       0.03806908      -0.02204194      -0.05203896 </v>
   <v>       0.00475497      -0.01224042      -0.01316245 </v>
   <v>       0.00317732      -0.00355288      -0.02999754 </v>
  </varray>
  <varray name="stress" >
   <v>       1.43227091      -0.46692941      -0.55406451 </v>
   <v>      -0.46692873       0.87533484       0.21688946 </v>
   <v>      -0.55406565       0.21689016       0.73506988 </v>
  </varray>
  <energy>
   <i name="e_fr_energy">   -109.53730073 </i>
   <i name="e_wo_entrp">   -109.53730073 </i>
   <i name="e_0_energy">     -0.00000000 </i>
  </energy>
  <time name="totalsc">    3.05    3.28</time>
 </calculation>
 <calculation>
  <scstep>
   <time name="dav">    0.79    0.80</time>
   <time name="total">    1.00    1.07</time>
   <energy>
    <i name="alphaZ">    190.75581109 </i>
    <i name="ewald">  -5343.25089658 </i>
    <i name="hartreedc">  -1515.42353605 </i>
    <i name="XCdc">   -147.78136189 </i>
    <i name="pawpsdc">  11264.01088945 </i>
    <i name="pawaedc"> -10775.23073700 </i>
    <i name="eentropy">     -0.00000000 </i>
    <i name="bandstr">   -659.55360983 </i>
    <i name="atom">   6876.93431449 </i>
    <i name="e_fr_energy">   -109.53912633 </i>
    <i name="e_wo_entrp">   -109.53912633 </i>
    <i name="e_0_energy">   -109.53912633 </i>
   </energy>
  </scstep>
  <scstep>
   <time name="dav">    0.67    0.67</time>
   <time name="total">    0.87    0.87</time>
   <energy>
    <i name="e_fr_energy">   -109.53918596 </i>
    <i name="e_wo_entrp">   -109.53918596 </i>
    <i name="e_0_energy">   -109.53918596 </i>
   </energy>
  </scstep>
  <scstep>
   <time name="dav">    0.63    0.63</time>
   <time name="total">    0.81    0.81</time>
   <energy>
    <i name="alphaZ">    190.75581109 </i>
    <i name="ewald">  -5343.25089658 </i>
    <i name="hartreedc">  -1515.65589964 </i>
    <i name="XCdc">   -147.77226179 </i>
    <i name="pawpsdc">  11261.63762283 </i>
    <i name="pawaedc"> -10772.85471213 </i>
    <i name="eentropy">     -0.00000000 </i>
    <i name="bandstr">   -659.33314322 </i>
    <i name="atom">   6876.93431449 </i>
    <i name="e_fr_energy">   -109.53916495 </i>
    <i name="e_wo_entrp">   -109.53916495 </i>
    <i name="e_0_energy">   -109.53916495 </i>
   </energy>
  </scstep>
  <structure>
   <crystal>
    <varray name="basis" >
     <v>      -7.59992352       0.00854890      -0.20324749 </v>
     <v>       2.15033105       9.37289632      -0.04940951 </v>
     <v>      -0.75646644      -1.91877617     -11.31468610 </v>
    </varray>
    <i name="volume">    806.30872731 </i>
    <varray name="rec_basis" >
     <v>      -0.13164459       0.03022130       0.00367636 </v>
     <v>       0.00060363       0.10645674      -0.01809359 </v>
     <v>       0.00236212      -0.00100775      -0.08836774 </v>
    </varray>
   </crystal>
   <varray name="positions" >
    <v>       0.27980733       0.33475911       0.11340601 </v>
    <v>       0.42128351       0.73652175       0.56507942 </v>
    <v>       0.57871649       0.26347825       0.43492058 </v>
    <v>       0.72019267       0.66524089       0.88659399 </v>
    <v>       0.02902448       0.94818507       0.34082416 </v>
    <v>       0.15678601       0.43917168       0.81443201 </v>
    <v>       0.73076925       0.13269167       0.04690806 </v>
    <v>       0.50432130       0.19270779       0.76719813 </v>
    <v>       0.26923075       0.86730833       0.95309194 </v>
    <v>       0.97097552       0.05181493       0.65917584 </v>
    <v>       0.84321399       0.56082832       0.18556799 </v>
    <v>       0.49567870       0.80729221       0.23280187 </v>
    <v>       0.80723401       0.86677669       0.14837064 </v>
    <v>       0.65069510       0.33116790       0.95169259 </v>
    <v>       0.45487057       0.43739076       0.70794924 </v>
    <v>       0.23438818       0.01404770       0.52907253 </v>
    <v>       0.03325314       0.69200181       0.35248345 </v>
    <v>       0.34930490       0.66883210       0.04830741 </v>
    <v>       0.44382722       0.06782943       0.15967345 </v>
    <v>       0.96674686       0.30799819       0.64751655 </v>
    <v>       0.55617278       0.93217057       0.84032655 </v>
    <v>       0.87774537       0.32008887       0.22442552 </v>
    <v>       0.12225463       0.67991113       0.77557448 </v>
    <v>       0.76561182       0.98595230       0.47092747 </v>
    <v>       0.54512943       0.56260924       0.29205076 </v>
    <v>       0.19276599       0.13322331       0.85162936 </v>
   </varray>
  </structure>
  <varray name="forces" >
   <v>      -0.00582666       0.00907655       0.00604523 </v>
   <v>       0.00262400      -0.00166246       0.00250757 </v>
   <v>      -0.00262400       0.00166246      -0.00250757 </v>
   <v>       0.00582666      -0.00907655      -0.00604523 </v>
   <v>      -0.07076872       0.04773968       0.08703826 </v>
   <v>       0.07004437       0.13369371       0.01189462 </v>
   <v>      -0.02273712       0.10334227       0.01551110 </v>
   <v>      -0.10792454      -0.01479842       0.00020950 </v>
   <v>       0.02273712      -0.10334227      -0.01551110 </v>
   <v>       0.07076872      -0.04773968      -0.08703826 </v>
   <v>      -0.07004437      -0.13369371      -0.01189462 </v>
   <v>       0.10792454       0.01479842      -0.00020950 </v>
   <v>       0.00753130      -0.00061821       0.02069082 </v>
   <v>      -0.00282921       0.03644720      -0.02354881 </v>
   <v>      -0.00535638       0.01003466       0.01112375 </v>
   <v>      -0.03520873       0.01647028       0.05402054 </v>
   <v>      -0.01232710      -0.05381605       0.00886992 </v>
   <v>       0.00282921      -0.03644720       0.02354881 </v>
   <v>       0.08068847       0.01187297      -0.02612442 </v>
   <v>       0.01232710       0.05381605      -0.00886992 </v>
   <v>      -0.08068847      -0.01187297       0.02612442 </v>
   <v>      -0.05316903      -0.06443285      -0.03280995 </v>
   <v>       0.05316903       0.06443285       0.03280995 </v>
   <v>       0.03520873      -0.01647028      -0.05402054 </v>
   <v>       0.00535638      -0.01003466      -0.01112375 </v>
   <v>      -0.00753130       0.00061821      -0.02069082 </v>
  </varray>
  <varray name="stress" >
   <v>       0.97669409      -0.41408129      -0.44698254 </v>
   <v>      -0.41408104       0.61917109       0.30425631 </v>
   <v>      -0.44698317       0.30425637       1.02658223 </v>
  </varray>
  <energy>
   <i name="e_fr_energy">   -109.53916495 </i>
   <i name="e_wo_entrp">   -109.53916495 </i>
   <i name="e_0_energy">     -0.00000000 </i>
  </energy>
  <time name="totalsc">    3.78    3.94</time>
 </calculation>
 <calculation>
  <scstep>
   <time name="dav">    0.71    0.73</time>
   <time name="total">    0.92    1.07</time>
   <energy>
    <i name="alphaZ">    190.64061254 </i>
    <i name="ewald">  -5342.50568966 </i>
    <i name="hartreedc">  -1515.00917720 </i>
    <i name="XCdc">   -147.81896315 </i>
    <i name="pawpsdc">  11261.50219312 </i>
    <i name="pawaedc"> -10772.71664976 </i>
    <i name="eentropy">     -0.00000000 </i>
    <i name="bandstr">   -660.56855347 </i>
    <i name="atom">   6876.93431449 </i>
    <i name="e_fr_energy">   -109.54191310 </i>
    <i name="e_wo_entrp">   -109.54191310 </i>
    <i name="e_0_energy">   -109.54191310 </i>
   </energy>
  </scstep>
  <scstep>
   <time name="dav">    0.95    0.97</time>
   <time name="total">    1.15    1.17</time>
   <energy>
    <i name="e_fr_energy">   -109.54244778 </i>
    <i name="e_wo_entrp">   -109.54244778 </i>
    <i name="e_0_energy">   -109.54244778 </i>
   </energy>
  </scstep>
  <scstep>
   <time name="dav">    0.68    0.68</time>
   <time name="total">    0.88    0.88</time>
   <energy>
    <i name="e_fr_energy">   -109.54227443 </i>
    <i name="e_wo_entrp">   -109.54227443 </i>
    <i name="e_0_energy">   -109.54227443 </i>
   </energy>
  </scstep>
  <scstep>
   <time name="dav">    0.65    0.65</time>
   <time name="total">    0.82    0.82</time>
   <energy>
    <i name="alphaZ">    190.64061254 </i>
    <i name="ewald">  -5342.50568966 </i>
    <i name="hartreedc">  -1515.60558766 </i>
    <i name="XCdc">   -147.79559069 </i>
    <i name="pawpsdc">  11255.68052692 </i>
    <i name="pawaedc"> -10766.89614555 </i>
    <i name="eentropy">     -0.00000000 </i>
    <i name="bandstr">   -659.99462741 </i>
    <i name="atom">   6876.93431449 </i>
    <i name="e_fr_energy">   -109.54218703 </i>
    <i name="e_wo_entrp">   -109.54218703 </i>
    <i name="e_0_energy">   -109.54218703 </i>
   </energy>
  </scstep>
  <structure>
   <crystal>
    <varray name="basis" >
     <v>      -7.60247018       0.01378860      -0.20187473 </v>
     <v>       2.14469708       9.37423778      -0.05304047 </v>
     <v>      -0.75337991      -1.91491490     -11.31352787 </v>
    </varray>
    <i name="volume">    806.79595610 </i>
    <varray name="rec_basis" >
     <v>      -0.13157883       0.03012416       0.00366319 </v>
     <v>       0.00067250       0.10641931      -0.01805719 </v>
     <v>       0.00234469      -0.00103644      -0.08837047 </v>
    </varray>
   </crystal>
   <varray name="positions" >
    <v>       0.27989559       0.33481824       0.11336889 </v>
    <v>       0.42124031       0.73652378       0.56509100 </v>
    <v>       0.57875969       0.26347622       0.43490900 </v>
    <v>       0.72010441       0.66518176       0.88663111 </v>
    <v>       0.02877948       0.94801523       0.34120732 </v>
    <v>       0.15700682       0.44009755       0.81453927 </v>
    <v>       0.73059114       0.13321943       0.04717621 </v>
    <v>       0.50492455       0.19243436       0.76750098 </v>
    <v>       0.26940886       0.86678057       0.95282379 </v>
    <v>       0.97122052       0.05198477       0.65879268 </v>
    <v>       0.84299318       0.55990245       0.18546073 </v>
    <v>       0.49507545       0.80756564       0.23249902 </v>
    <v>       0.80716424       0.86673644       0.14822227 </v>
    <v>       0.65077006       0.33125755       0.95178687 </v>
    <v>       0.45477952       0.43745307       0.70795480 </v>
    <v>       0.23461224       0.01419633       0.52881540 </v>
    <v>       0.03330180       0.69184446       0.35239049 </v>
    <v>       0.34922994       0.66874245       0.04821313 </v>
    <v>       0.44345256       0.06788692       0.15970083 </v>
    <v>       0.96669820       0.30815554       0.64760951 </v>
    <v>       0.55654744       0.93211308       0.84029917 </v>
    <v>       0.87813257       0.31983980       0.22456191 </v>
    <v>       0.12186743       0.68016020       0.77543809 </v>
    <v>       0.76538776       0.98580367       0.47118460 </v>
    <v>       0.54522048       0.56254693       0.29204520 </v>
    <v>       0.19283576       0.13326356       0.85177773 </v>
   </varray>
  </structure>
  <varray name="forces" >
   <v>      -0.00619240       0.00885600       0.00741104 </v>
   <v>       0.00074261      -0.00430374       0.00500150 </v>
   <v>      -0.00074261       0.00430374      -0.00500150 </v>
   <v>       0.00619240      -0.00885600      -0.00741104 </v>
   <v>      -0.08936410       0.10855199       0.19294095 </v>
   <v>       0.09635425       0.09618669       0.06738799 </v>
   <v>      -0.05828839      -0.04731056      -0.05962072 </v>
   <v>      -0.12920653      -0.03563987      -0.01721774 </v>
   <v>       0.05828839       0.04731056       0.05962072 </v>
   <v>       0.08936410      -0.10855199      -0.19294095 </v>
   <v>      -0.09635425      -0.09618669      -0.06738799 </v>
   <v>       0.12920653       0.03563987       0.01721774 </v>
   <v>       0.04946316      -0.01486938      -0.00143586 </v>
   <v>      -0.00447703       0.04889162      -0.02983818 </v>
   <v>       0.00814672       0.01402312       0.00705776 </v>
   <v>      -0.04106000       0.02718047       0.04055769 </v>
   <v>      -0.00893722      -0.07206241       0.01600949 </v>
   <v>       0.00447703      -0.04889162       0.02983818 </v>
   <v>       0.05631026       0.01471825      -0.02324027 </v>
   <v>       0.00893722       0.07206241      -0.01600949 </v>
   <v>      -0.05631026      -0.01471825       0.02324027 </v>
   <v>      -0.04109653      -0.07861179      -0.04741178 </v>
   <v>       0.04109653       0.07861179       0.04741178 </v>
   <v>       0.04106000      -0.02718047      -0.04055769 </v>
   <v>      -0.00814672      -0.01402312      -0.00705776 </v>
   <v>      -0.04946316       0.01486938       0.00143586 </v>
  </varray>
  <varray name="stress" >
   <v>       1.03628249      -0.19581879      -0.55738494 </v>
   <v>      -0.19581812       0.66898744       0.56188319 </v>
   <v>      -0.55738630       0.56188345       1.36155038 </v>
  </varray>
  <energy>
   <i name="e_fr_energy">   -109.54218703 </i>
   <i name="e_wo_entrp">   -109.54218703 </i>
   <i name="e_0_energy">     -0.00000000 </i>
  </energy>
  <time name="totalsc">    4.87    5.25</time>
 </calculation>
 <calculation>
  <scstep>
   <time name="dav">    0.70    0.71</time>
   <time name="total">    0.92    0.95</time>
   <energy>
    <i name="alphaZ">    190.41124169 </i>
    <i name="ewald">  -5340.96360023 </i>
    <i name="hartreedc">  -1514.36048156 </i>
    <i name="XCdc">   -147.88868267 </i>
    <i name="pawpsdc">  11255.23670054 </i>
    <i name="pawaedc"> -10766.44616994 </i>
    <i name="eentropy">     -0.00000000 </i>
    <i name="bandstr">   -662.45381130 </i>
    <i name="atom">   6876.93431449 </i>
    <i name="e_fr_energy">   -109.53048898 </i>
    <i name="e_wo_entrp">   -109.53048898 </i>
    <i name="e_0_energy">   -109.53048898 </i>
   </energy>
  </scstep>
  <scstep>
   <time name="dav">    0.83    0.83</time>
   <time name="total">    1.04    1.04</time>
   <energy>
    <i name="e_fr_energy">   -109.53278688 </i>
    <i name="e_wo_entrp">   -109.53278688 </i>
    <i name="e_0_energy">   -109.53278688 </i>
   </energy>
  </scstep>
  <scstep>
   <time name="dav">    0.86    0.86</time>
   <time name="total">    1.06    1.06</time>
   <energy>
    <i name="e_fr_energy">   -109.53217100 </i>
    <i name="e_wo_entrp">   -109.53217100 </i>
    <i name="e_0_energy">   -109.53217100 </i>
   </energy>
  </scstep>
  <scstep>
   <time name="dav">    0.74    0.74</time>
   <time name="total">    0.94    0.94</time>
   <energy>
    <i name="e_fr_energy">   -109.53186354 </i>
    <i name="e_wo_entrp">   -109.53186354 </i>
    <i name="e_0_energy">   -109.53186354 </i>
   </energy>
  </scstep>
  <scstep>
   <time name="dav">    0.68    0.69</time>
   <time name="total">    0.89    0.89</time>
   <energy>
    <i name="e_fr_energy">   -109.53169974 </i>
    <i name="e_wo_entrp">   -109.53169974 </i>
    <i name="e_0_energy">   -109.53169974 </i>
   </energy>
  </scstep>
  <scstep>
   <time name="dav">    0.49    0.49</time>
   <time name="total">    0.66    0.66</time>
   <energy>
    <i name="alphaZ">    190.41124169 </i>
    <i name="ewald">  -5340.96360023 </i>
    <i name="hartreedc">  -1515.66551722 </i>
    <i name="XCdc">   -147.84270150 </i>
    <i name="pawpsdc">  11247.14757216 </i>
    <i name="pawaedc"> -10758.35141253 </i>
    <i name="eentropy">     -0.00000000 </i>
    <i name="bandstr">   -661.20159643 </i>
    <i name="atom">   6876.93431449 </i>
    <i name="e_fr_energy">   -109.53169957 </i>
    <i name="e_wo_entrp">   -109.53169957 </i>
    <i name="e_0_energy">   -109.53169957 </i>
   </energy>
  </scstep>
  <structure>
   <crystal>
    <varray name="basis" >
     <v>      -7.60756350       0.02426802      -0.19912922 </v>
     <v>       2.13342915       9.37692071      -0.06030240 </v>
     <v>      -0.74720685      -1.90719236     -11.31121142 </v>
    </varray>
    <i name="volume">    807.76782873 </i>
    <varray name="rec_basis" >
     <v>      -0.13144785       0.02993029       0.00363674 </v>
     <v>       0.00080998       0.10634487      -0.01798440 </v>
     <v>       0.00230977      -0.00109386      -0.08837601 </v>
    </varray>
   </crystal>
   <varray name="positions" >
    <v>       0.28007191       0.33493642       0.11329462 </v>
    <v>       0.42115396       0.73652788       0.56511414 </v>
    <v>       0.57884604       0.26347212       0.43488586 </v>
    <v>       0.71992809       0.66506358       0.88670538 </v>
    <v>       0.02829019       0.94767557       0.34197376 </v>
    <v>       0.15744686       0.44194861       0.81475329 </v>
    <v>       0.73023443       0.13427471       0.04771218 </v>
    <v>       0.50613106       0.19188673       0.76810708 </v>
    <v>       0.26976557       0.86572529       0.95228782 </v>
    <v>       0.97170981       0.05232443       0.65802624 </v>
    <v>       0.84255314       0.55805139       0.18524671 </v>
    <v>       0.49386894       0.80811327       0.23189292 </v>
    <v>       0.80702477       0.86665614       0.14792550 </v>
    <v>       0.65091983       0.33143665       0.95197539 </v>
    <v>       0.45459741       0.43757776       0.70796587 </v>
    <v>       0.23505978       0.01449351       0.52830106 </v>
    <v>       0.03339927       0.69152986       0.35220466 </v>
    <v>       0.34908017       0.66856335       0.04802461 </v>
    <v>       0.44270354       0.06800226       0.15975545 </v>
    <v>       0.96660073       0.30847014       0.64779534 </v>
    <v>       0.55729646       0.93199774       0.84024455 </v>
    <v>       0.87890704       0.31934124       0.22483499 </v>
    <v>       0.12109296       0.68065876       0.77516501 </v>
    <v>       0.76494022       0.98550649       0.47169894 </v>
    <v>       0.54540259       0.56242224       0.29203413 </v>
[...]
        <r>  0.0008  0.0015  0.0016 </r>
        <r>  0.0053  0.0358  0.0013 </r>
        <r>  0.0009  0.0159  0.0008 </r>
        <r>  0.0006  0.0235  0.0006 </r>
        <r>  0.0001  0.0440  0.0014 </r>
        <r>  0.0006  0.0235  0.0006 </r>
        <r>  0.0053  0.0358  0.0013 </r>
        <r>  0.0009  0.0159  0.0008 </r>
        <r>  0.0001  0.0440  0.0014 </r>
        <r>  0.0032  0.0083  0.0000 </r>
        <r>  0.0025  0.0050  0.0000 </r>
        <r>  0.0017  0.0046  0.0000 </r>
        <r>  0.0000  0.0145  0.0000 </r>
        <r>  0.0011  0.0160  0.0000 </r>
        <r>  0.0025  0.0050  0.0000 </r>
        <r>  0.0013  0.0099  0.0000 </r>
        <r>  0.0011  0.0160  0.0000 </r>
        <r>  0.0013  0.0099  0.0000 </r>
        <r>  0.0075  0.0197  0.0000 </r>
        <r>  0.0075  0.0197  0.0000 </r>
        <r>  0.0000  0.0145  0.0000 </r>
        <r>  0.0017  0.0046  0.0000 </r>
        <r>  0.0032  0.0083  0.0000 </r>
       </set>
       <set comment="band 84">
        <r>  0.0003  0.0026  0.0034 </r>
        <r>  0.0007  0.0025  0.0019 </r>
        <r>  0.0007  0.0025  0.0019 </r>
        <r>  0.0003  0.0026  0.0034 </r>
        <r>  0.0023  0.0213  0.0006 </r>
        <r>  0.0022  0.0386  0.0027 </r>
        <r>  0.0005  0.0343  0.0013 </r>
        <r>  0.0002  0.0186  0.0009 </r>
        <r>  0.0005  0.0343  0.0013 </r>
        <r>  0.0023  0.0213  0.0006 </r>
        <r>  0.0022  0.0386  0.0027 </r>
        <r>  0.0002  0.0186  0.0009 </r>
        <r>  0.0037  0.0137  0.0000 </r>
        <r>  0.0069  0.0112  0.0000 </r>
        <r>  0.0038  0.0131  0.0000 </r>
        <r>  0.0012  0.0047  0.0000 </r>
        <r>  0.0020  0.0121  0.0000 </r>
        <r>  0.0069  0.0112  0.0000 </r>
        <r>  0.0004  0.0067  0.0000 </r>
        <r>  0.0020  0.0121  0.0000 </r>
        <r>  0.0004  0.0067  0.0000 </r>
        <r>  0.0025  0.0166  0.0000 </r>
        <r>  0.0025  0.0166  0.0000 </r>
        <r>  0.0012  0.0047  0.0000 </r>
        <r>  0.0038  0.0131  0.0000 </r>
        <r>  0.0037  0.0137  0.0000 </r>
       </set>
       <set comment="band 85">
        <r>  0.0020  0.0013  0.0027 </r>
        <r>  0.0009  0.0010  0.0008 </r>
        <r>  0.0009  0.0010  0.0008 </r>
        <r>  0.0020  0.0013  0.0027 </r>
        <r>  0.0036  0.0572  0.0022 </r>
        <r>  0.0040  0.0224  0.0003 </r>
        <r>  0.0005  0.0258  0.0007 </r>
        <r>  0.0014  0.0123  0.0009 </r>
        <r>  0.0005  0.0258  0.0007 </r>
        <r>  0.0036  0.0572  0.0022 </r>
        <r>  0.0040  0.0224  0.0003 </r>
        <r>  0.0014  0.0123  0.0009 </r>
        <r>  0.0040  0.0078  0.0000 </r>
        <r>  0.0010  0.0136  0.0000 </r>
        <r>  0.0019  0.0032  0.0000 </r>
        <r>  0.0025  0.0161  0.0000 </r>
        <r>  0.0009  0.0326  0.0000 </r>
        <r>  0.0010  0.0136  0.0000 </r>
        <r>  0.0008  0.0092  0.0000 </r>
        <r>  0.0009  0.0326  0.0000 </r>
        <r>  0.0008  0.0092  0.0000 </r>
        <r>  0.0016  0.0076  0.0000 </r>
        <r>  0.0016  0.0076  0.0000 </r>
        <r>  0.0025  0.0161  0.0000 </r>
        <r>  0.0019  0.0032  0.0000 </r>
        <r>  0.0040  0.0078  0.0000 </r>
       </set>
       <set comment="band 86">
        <r>  0.0003  0.0022  0.0032 </r>
        <r>  0.0017  0.0023  0.0020 </r>
        <r>  0.0017  0.0023  0.0020 </r>
        <r>  0.0003  0.0022  0.0032 </r>
        <r>  0.0000  0.0263  0.0012 </r>
        <r>  0.0015  0.0551  0.0037 </r>
        <r>  0.0022  0.0270  0.0007 </r>
        <r>  0.0000  0.0079  0.0008 </r>
        <r>  0.0022  0.0270  0.0007 </r>
        <r>  0.0000  0.0263  0.0012 </r>
        <r>  0.0015  0.0551  0.0037 </r>
        <r>  0.0000  0.0079  0.0008 </r>
        <r>  0.0023  0.0049  0.0000 </r>
        <r>  0.0007  0.0215  0.0000 </r>
        <r>  0.0036  0.0234  0.0000 </r>
        <r>  0.0010  0.0121  0.0000 </r>
        <r>  0.0005  0.0127  0.0000 </r>
        <r>  0.0007  0.0215  0.0000 </r>
        <r>  0.0001  0.0018  0.0000 </r>
        <r>  0.0005  0.0127  0.0000 </r>
        <r>  0.0001  0.0018  0.0000 </r>
        <r>  0.0000  0.0052  0.0000 </r>
        <r>  0.0000  0.0052  0.0000 </r>
        <r>  0.0010  0.0121  0.0000 </r>
        <r>  0.0036  0.0234  0.0000 </r>
        <r>  0.0023  0.0049  0.0000 </r>
       </set>
       <set comment="band 87">
        <r>  0.0003  0.0017  0.0034 </r>
        <r>  0.0003  0.0010  0.0018 </r>
        <r>  0.0003  0.0010  0.0018 </r>
        <r>  0.0003  0.0017  0.0034 </r>
        <r>  0.0031  0.0176  0.0016 </r>
        <r>  0.0090  0.0411  0.0019 </r>
        <r>  0.0019  0.0327  0.0017 </r>
        <r>  0.0001  0.0125  0.0010 </r>
        <r>  0.0019  0.0327  0.0017 </r>
        <r>  0.0031  0.0176  0.0016 </r>
        <r>  0.0090  0.0411  0.0019 </r>
        <r>  0.0001  0.0125  0.0010 </r>
        <r>  0.0020  0.0031  0.0000 </r>
        <r>  0.0002  0.0131  0.0000 </r>
        <r>  0.0012  0.0198  0.0000 </r>
        <r>  0.0007  0.0142  0.0000 </r>
        <r>  0.0046  0.0243  0.0000 </r>
        <r>  0.0002  0.0131  0.0000 </r>
        <r>  0.0010  0.0111  0.0000 </r>
        <r>  0.0046  0.0243  0.0000 </r>
        <r>  0.0010  0.0111  0.0000 </r>
        <r>  0.0001  0.0068  0.0000 </r>
        <r>  0.0001  0.0068  0.0000 </r>
        <r>  0.0007  0.0142  0.0000 </r>
        <r>  0.0012  0.0198  0.0000 </r>
        <r>  0.0020  0.0031  0.0000 </r>
       </set>
       <set comment="band 88">
        <r>  0.0000  0.0015  0.0009 </r>
        <r>  0.0017  0.0016  0.0011 </r>
        <r>  0.0017  0.0016  0.0011 </r>
        <r>  0.0000  0.0015  0.0009 </r>
        <r>  0.0041  0.0193  0.0012 </r>
        <r>  0.0003  0.0303  0.0016 </r>
        <r>  0.0008  0.0426  0.0014 </r>
        <r>  0.0012  0.0348  0.0009 </r>
        <r>  0.0008  0.0426  0.0014 </r>
        <r>  0.0041  0.0193  0.0012 </r>
        <r>  0.0003  0.0303  0.0016 </r>
        <r>  0.0012  0.0348  0.0009 </r>
        <r>  0.0002  0.0040  0.0000 </r>
        <r>  0.0002  0.0088  0.0000 </r>
        <r>  0.0010  0.0065  0.0000 </r>
        <r>  0.0015  0.0077  0.0000 </r>
        <r>  0.0002  0.0232  0.0000 </r>
        <r>  0.0002  0.0088  0.0000 </r>
        <r>  0.0005  0.0111  0.0000 </r>
        <r>  0.0002  0.0232  0.0000 </r>
        <r>  0.0005  0.0111  0.0000 </r>
        <r>  0.0001  0.0377  0.0000 </r>
        <r>  0.0001  0.0377  0.0000 </r>
        <r>  0.0015  0.0077  0.0000 </r>
        <r>  0.0010  0.0065  0.0000 </r>
        <r>  0.0002  0.0040  0.0000 </r>
       </set>
       <set comment="band 89">
        <r>  0.0017  0.0041  0.0030 </r>
        <r>  0.0023  0.0025  0.0028 </r>
        <r>  0.0023  0.0025  0.0028 </r>
        <r>  0.0017  0.0041  0.0030 </r>
        <r>  0.0006  0.0263  0.0021 </r>
        <r>  0.0028  0.0310  0.0016 </r>
        <r>  0.0002  0.0081  0.0010 </r>
        <r>  0.0007  0.0585  0.0013 </r>
        <r>  0.0002  0.0081  0.0010 </r>
        <r>  0.0006  0.0263  0.0021 </r>
        <r>  0.0028  0.0310  0.0016 </r>
        <r>  0.0007  0.0585  0.0013 </r>
        <r>  0.0001  0.0055  0.0000 </r>
        <r>  0.0008  0.0060  0.0000 </r>
        <r>  0.0016  0.0343  0.0000 </r>
        <r>  0.0006  0.0057  0.0000 </r>
        <r>  0.0022  0.0162  0.0000 </r>
        <r>  0.0008  0.0060  0.0000 </r>
        <r>  0.0013  0.0129  0.0000 </r>
        <r>  0.0022  0.0162  0.0000 </r>
        <r>  0.0013  0.0129  0.0000 </r>
        <r>  0.0000  0.0036  0.0000 </r>
        <r>  0.0000  0.0036  0.0000 </r>
        <r>  0.0006  0.0057  0.0000 </r>
        <r>  0.0016  0.0343  0.0000 </r>
        <r>  0.0001  0.0055  0.0000 </r>
       </set>
       <set comment="band 90">
        <r>  0.0002  0.0038  0.0041 </r>
        <r>  0.0039  0.0036  0.0029 </r>
        <r>  0.0039  0.0036  0.0029 </r>
        <r>  0.0002  0.0038  0.0041 </r>
        <r>  0.0003  0.0308  0.0006 </r>
        <r>  0.0013  0.0180  0.0016 </r>
        <r>  0.0017  0.0346  0.0015 </r>
        <r>  0.0015  0.0276  0.0010 </r>
        <r>  0.0017  0.0346  0.0015 </r>
        <r>  0.0003  0.0308  0.0006 </r>
        <r>  0.0013  0.0180  0.0016 </r>
        <r>  0.0015  0.0276  0.0010 </r>
        <r>  0.0016  0.0212  0.0000 </r>
        <r>  0.0009  0.0104  0.0000 </r>
        <r>  0.0015  0.0085  0.0000 </r>
        <r>  0.0019  0.0023  0.0000 </r>
        <r>  0.0004  0.0213  0.0000 </r>
        <r>  0.0009  0.0104  0.0000 </r>
        <r>  0.0074  0.0240  0.0000 </r>
        <r>  0.0004  0.0213  0.0000 </r>
        <r>  0.0074  0.0240  0.0000 </r>
        <r>  0.0002  0.0103  0.0000 </r>
        <r>  0.0002  0.0103  0.0000 </r>
        <r>  0.0019  0.0023  0.0000 </r>
        <r>  0.0015  0.0085  0.0000 </r>
        <r>  0.0016  0.0212  0.0000 </r>
       </set>
       <set comment="band 91">
        <r>  0.0008  0.0015  0.0053 </r>
        <r>  0.0007  0.0023  0.0042 </r>
        <r>  0.0007  0.0023  0.0042 </r>
        <r>  0.0008  0.0015  0.0053 </r>
        <r>  0.0002  0.0094  0.0015 </r>
        <r>  0.0081  0.0394  0.0009 </r>
        <r>  0.0063  0.0423  0.0030 </r>
        <r>  0.0002  0.0141  0.0007 </r>
        <r>  0.0063  0.0423  0.0030 </r>
        <r>  0.0002  0.0094  0.0015 </r>
        <r>  0.0081  0.0394  0.0009 </r>
        <r>  0.0002  0.0141  0.0007 </r>
        <r>  0.0015  0.0027  0.0000 </r>
        <r>  0.0009  0.0062  0.0000 </r>
        <r>  0.0050  0.0146  0.0000 </r>
        <r>  0.0006  0.0047  0.0000 </r>
        <r>  0.0006  0.0103  0.0000 </r>
        <r>  0.0009  0.0062  0.0000 </r>
        <r>  0.0041  0.0350  0.0000 </r>
        <r>  0.0006  0.0103  0.0000 </r>
        <r>  0.0041  0.0350  0.0000 </r>
        <r>  0.0001  0.0113  0.0000 </r>
        <r>  0.0001  0.0113  0.0000 </r>
        <r>  0.0006  0.0047  0.0000 </r>
        <r>  0.0050  0.0146  0.0000 </r>
        <r>  0.0015  0.0027  0.0000 </r>
       </set>
       <set comment="band 92">
        <r>  0.0004  0.0026  0.0036 </r>
        <r>  0.0001  0.0037  0.0033 </r>
        <r>  0.0001  0.0037  0.0033 </r>
        <r>  0.0004  0.0026  0.0036 </r>
        <r>  0.0001  0.0201  0.0006 </r>
        <r>  0.0020  0.0433  0.0031 </r>
        <r>  0.0003  0.0212  0.0023 </r>
        <r>  0.0007  0.0403  0.0010 </r>
        <r>  0.0003  0.0212  0.0023 </r>
        <r>  0.0001  0.0201  0.0006 </r>
        <r>  0.0020  0.0433  0.0031 </r>
        <r>  0.0007  0.0403  0.0010 </r>
        <r>  0.0003  0.0127  0.0000 </r>
        <r>  0.0006  0.0154  0.0000 </r>
        <r>  0.0009  0.0168  0.0000 </r>
        <r>  0.0014  0.0050  0.0000 </r>
        <r>  0.0008  0.0147  0.0000 </r>
        <r>  0.0006  0.0154  0.0000 </r>
        <r>  0.0011  0.0167  0.0000 </r>
        <r>  0.0008  0.0147  0.0000 </r>
        <r>  0.0011  0.0167  0.0000 </r>
        <r>  0.0011  0.0135  0.0000 </r>
        <r>  0.0011  0.0135  0.0000 </r>
        <r>  0.0014  0.0050  0.0000 </r>
        <r>  0.0009  0.0168  0.0000 </r>
        <r>  0.0003  0.0127  0.0000 </r>
       </set>
       <set comment="band 93">
        <r>  0.0049  0.0003  0.0008 </r>
        <r>  0.0004  0.0025  0.0045 </r>
        <r>  0.0004  0.0025  0.0045 </r>
        <r>  0.0049  0.0003  0.0008 </r>
        <r>  0.0013  0.0416  0.0019 </r>
        <r>  0.0006  0.0185  0.0008 </r>
        <r>  0.0019  0.0459  0.0010 </r>
        <r>  0.0013  0.0122  0.0022 </r>
        <r>  0.0019  0.0459  0.0010 </r>
        <r>  0.0013  0.0416  0.0019 </r>
        <r>  0.0006  0.0185  0.0008 </r>
        <r>  0.0013  0.0122  0.0022 </r>
        <r>  0.0006  0.0032  0.0000 </r>
        <r>  0.0002  0.0202  0.0000 </r>
        <r>  0.0003  0.0013  0.0000 </r>
        <r>  0.0007  0.0171  0.0000 </r>
        <r>  0.0028  0.0134  0.0000 </r>
        <r>  0.0002  0.0202  0.0000 </r>
        <r>  0.0004  0.0201  0.0000 </r>
        <r>  0.0028  0.0134  0.0000 </r>
        <r>  0.0004  0.0201  0.0000 </r>
        <r>  0.0064  0.0243  0.0000 </r>
        <r>  0.0064  0.0243  0.0000 </r>
        <r>  0.0007  0.0171  0.0000 </r>
        <r>  0.0003  0.0013  0.0000 </r>
        <r>  0.0006  0.0032  0.0000 </r>
       </set>
       <set comment="band 94">
        <r>  0.0006  0.0011  0.0035 </r>
        <r>  0.0003  0.0016  0.0037 </r>
        <r>  0.0003  0.0016  0.0037 </r>
        <r>  0.0006  0.0011  0.0035 </r>
        <r>  0.0009  0.0168  0.0008 </r>
        <r>  0.0014  0.0065  0.0011 </r>
        <r>  0.0022  0.0252  0.0016 </r>
        <r>  0.0067  0.0600  0.0044 </r>
        <r>  0.0022  0.0252  0.0016 </r>
        <r>  0.0009  0.0168  0.0008 </r>
        <r>  0.0014  0.0065  0.0011 </r>
        <r>  0.0067  0.0600  0.0044 </r>
        <r>  0.0052  0.0491  0.0000 </r>
        <r>  0.0002  0.0057  0.0000 </r>
        <r>  0.0022  0.0108  0.0000 </r>
        <r>  0.0008  0.0070  0.0000 </r>
        <r>  0.0005  0.0043  0.0000 </r>
        <r>  0.0002  0.0057  0.0000 </r>
        <r>  0.0020  0.0150  0.0000 </r>
        <r>  0.0005  0.0043  0.0000 </r>
        <r>  0.0020  0.0150  0.0000 </r>
        <r>  0.0005  0.0061  0.0000 </r>
        <r>  0.0005  0.0061  0.0000 </r>
        <r>  0.0008  0.0070  0.0000 </r>
        <r>  0.0022  0.0108  0.0000 </r>
        <r>  0.0052  0.0491  0.0000 </r>
       </set>
       <set comment="band 95">
        <r>  0.0005  0.0004  0.0033 </r>
        <r>  0.0044  0.0032  0.0043 </r>
        <r>  0.0044  0.0032  0.0043 </r>
        <r>  0.0005  0.0004  0.0033 </r>
        <r>  0.0018  0.0269  0.0012 </r>
        <r>  0.0001  0.0153  0.0017 </r>
        <r>  0.0009  0.0283  0.0019 </r>
        <r>  0.0002  0.0307  0.0051 </r>
        <r>  0.0009  0.0283  0.0019 </r>
        <r>  0.0018  0.0269  0.0012 </r>
        <r>  0.0001  0.0153  0.0017 </r>
        <r>  0.0002  0.0307  0.0051 </r>
        <r>  0.0009  0.0261  0.0000 </r>
        <r>  0.0010  0.0161  0.0000 </r>
        <r>  0.0010  0.0045  0.0000 </r>
        <r>  0.0038  0.0163  0.0000 </r>
        <r>  0.0009  0.0089  0.0000 </r>
        <r>  0.0010  0.0161  0.0000 </r>
        <r>  0.0009  0.0228  0.0000 </r>
        <r>  0.0009  0.0089  0.0000 </r>
        <r>  0.0009  0.0228  0.0000 </r>
        <r>  0.0003  0.0092  0.0000 </r>
        <r>  0.0003  0.0092  0.0000 </r>
        <r>  0.0038  0.0163  0.0000 </r>
        <r>  0.0010  0.0045  0.0000 </r>
        <r>  0.0009  0.0261  0.0000 </r>
       </set>
       <set comment="band 96">
        <r>  0.0023  0.0029  0.0041 </r>
        <r>  0.0008  0.0029  0.0040 </r>
        <r>  0.0008  0.0029  0.0040 </r>
        <r>  0.0023  0.0029  0.0041 </r>
        <r>  0.0001  0.0143  0.0011 </r>
        <r>  0.0039  0.0462  0.0016 </r>
        <r>  0.0012  0.0266  0.0011 </r>
        <r>  0.0061  0.0173  0.0019 </r>
        <r>  0.0012  0.0266  0.0011 </r>
        <r>  0.0001  0.0143  0.0011 </r>
        <r>  0.0039  0.0462  0.0016 </r>
        <r>  0.0061  0.0173  0.0019 </r>
        <r>  0.0017  0.0267  0.0000 </r>
        <r>  0.0009  0.0261  0.0000 </r>
        <r>  0.0007  0.0037  0.0000 </r>
        <r>  0.0001  0.0040  0.0000 </r>
        <r>  0.0001  0.0136  0.0000 </r>
        <r>  0.0009  0.0261  0.0000 </r>
        <r>  0.0015  0.0094  0.0000 </r>
        <r>  0.0001  0.0136  0.0000 </r>
        <r>  0.0015  0.0094  0.0000 </r>
        <r>  0.0009  0.0236  0.0000 </r>
        <r>  0.0009  0.0236  0.0000 </r>
        <r>  0.0001  0.0040  0.0000 </r>
        <r>  0.0007  0.0037  0.0000 </r>
        <r>  0.0017  0.0267  0.0000 </r>
       </set>
       <set comment="band 97">
        <r>  0.0008  0.0037  0.0052 </r>
        <r>  0.0007  0.0022  0.0053 </r>
        <r>  0.0007  0.0022  0.0053 </r>
        <r>  0.0008  0.0037  0.0052 </r>
        <r>  0.0029  0.0396  0.0026 </r>
        <r>  0.0024  0.0139  0.0009 </r>
        <r>  0.0030  0.0247  0.0025 </r>
        <r>  0.0005  0.0266  0.0024 </r>
        <r>  0.0030  0.0247  0.0025 </r>
        <r>  0.0029  0.0396  0.0026 </r>
        <r>  0.0024  0.0139  0.0009 </r>
        <r>  0.0005  0.0266  0.0024 </r>
        <r>  0.0006  0.0226  0.0000 </r>
        <r>  0.0004  0.0038  0.0000 </r>
        <r>  0.0005  0.0091  0.0000 </r>
        <r>  0.0058  0.0308  0.0000 </r>
        <r>  0.0003  0.0043  0.0000 </r>
        <r>  0.0004  0.0038  0.0000 </r>
        <r>  0.0007  0.0144  0.0000 </r>
        <r>  0.0003  0.0043  0.0000 </r>
        <r>  0.0007  0.0144  0.0000 </r>
        <r>  0.0001  0.0117  0.0000 </r>
        <r>  0.0001  0.0117  0.0000 </r>
        <r>  0.0058  0.0308  0.0000 </r>
        <r>  0.0005  0.0091  0.0000 </r>
        <r>  0.0006  0.0226  0.0000 </r>
       </set>
       <set comment="band 98">
        <r>  0.0003  0.0030  0.0030 </r>
        <r>  0.0038  0.0038  0.0040 </r>
        <r>  0.0038  0.0038  0.0040 </r>
        <r>  0.0003  0.0030  0.0030 </r>
        <r>  0.0034  0.0287  0.0024 </r>
        <r>  0.0001  0.0369  0.0011 </r>
        <r>  0.0036  0.0307  0.0014 </r>
        <r>  0.0007  0.0170  0.0018 </r>
        <r>  0.0036  0.0307  0.0014 </r>
        <r>  0.0034  0.0287  0.0024 </r>
        <r>  0.0001  0.0369  0.0011 </r>
        <r>  0.0007  0.0170  0.0018 </r>
        <r>  0.0002  0.0204  0.0000 </r>
        <r>  0.0010  0.0178  0.0000 </r>
        <r>  0.0005  0.0068  0.0000 </r>
        <r>  0.0034  0.0241  0.0000 </r>
        <r>  0.0022  0.0083  0.0000 </r>
        <r>  0.0010  0.0178  0.0000 </r>
        <r>  0.0005  0.0126  0.0000 </r>
        <r>  0.0022  0.0083  0.0000 </r>
        <r>  0.0005  0.0126  0.0000 </r>
        <r>  0.0026  0.0152  0.0000 </r>
        <r>  0.0026  0.0152  0.0000 </r>
        <r>  0.0034  0.0241  0.0000 </r>
        <r>  0.0005  0.0068  0.0000 </r>
        <r>  0.0002  0.0204  0.0000 </r>
       </set>
      </set>
     </set>
    </set>
   </array>
  </projected>
 </calculation>
 <structure name="finalpos" >
  <crystal>
   <varray name="basis" >
    <v>      -7.60068938       0.02217102      -0.20138784 </v>
    <v>       2.13371512       9.37103816      -0.04785917 </v>
    <v>      -0.75006190      -1.92045883     -11.32561368 </v>
   </varray>
   <i name="volume">    807.32699224 </i>
   <varray name="rec_basis" >
    <v>      -0.13157577       0.02997736       0.00363068 </v>
    <v>       0.00079009       0.10643942      -0.01810102 </v>
    <v>       0.00233629      -0.00098283      -0.08828351 </v>
   </varray>
  </crystal>
  <varray name="positions" >
   <v>       0.28032084       0.33524883       0.11313904 </v>
   <v>       0.42117067       0.73630591       0.56491356 </v>
   <v>       0.57882933       0.26369409       0.43508644 </v>
   <v>       0.71967916       0.66475117       0.88686096 </v>
   <v>       0.02913440       0.94836702       0.34082066 </v>
   <v>       0.15628968       0.44079064       0.81382765 </v>
   <v>       0.72992005       0.13325883       0.04752666 </v>
   <v>       0.50527511       0.19198448       0.76796825 </v>
   <v>       0.27007995       0.86674117       0.95247334 </v>
   <v>       0.97086560       0.05163298       0.65917934 </v>
   <v>       0.84371032       0.55920936       0.18617235 </v>
   <v>       0.49472489       0.80801552       0.23203175 </v>
   <v>       0.80598874       0.86661211       0.14823492 </v>
   <v>       0.65098255       0.33192719       0.95230072 </v>
   <v>       0.45440569       0.43741383       0.70802697 </v>
   <v>       0.23474796       0.01513295       0.52847594 </v>
   <v>       0.03375626       0.69159623       0.35243751 </v>
   <v>       0.34901745       0.66807281       0.04769928 </v>
   <v>       0.44194488       0.06823351       0.16006111 </v>
   <v>       0.96624374       0.30840377       0.64756249 </v>
   <v>       0.55805512       0.93176649       0.83993889 </v>
   <v>       0.87871114       0.31823352       0.22533768 </v>
   <v>       0.12128886       0.68176648       0.77466232 </v>
   <v>       0.76525204       0.98486705       0.47152406 </v>
   <v>       0.54559431       0.56258617       0.29197303 </v>
   <v>       0.19401126       0.13338789       0.85176508 </v>
  </varray>
 </structure>
</modeling>
