/etc/profile: 第 79 行:ulimit: stack size: 无法修改 limit 值: 不允许的操作
/home/customer/.bashrc: 第 12 行:ulimit: stack size: 无法修改 limit 值: 不允许的操作
Intel(R) Parallel Studio XE 2018 Update 3 for Linux*
Copyright (C) 2009-2018 Intel Corporation. All rights reserved.
 running on   14 total cores
 distrk:  each k-point on   14 cores,    1 groups
 distr:  one band on    1 cores,   14 groups
 using from now: INCAR     
 vasp.5.4.4.18Apr17-6-g9f103f2a35 (build Oct 27 2022 13:04:57) complex          
  
 POSCAR found type information on POSCAR  K  Sb S 
 POSCAR found :  3 types and      26 ions
 scaLAPACK will be used

 ----------------------------------------------------------------------------- 
|                                                                             |
|           W    W    AA    RRRRR   N    N  II  N    N   GGGG   !!!           |
|           W    W   A  A   R    R  NN   N  II  NN   N  G    G  !!!           |
|           W    W  A    A  R    R  N N  N  II  N N  N  G       !!!           |
|           W WW W  AAAAAA  RRRRR   N  N N  II  N  N N  G  GGG   !            |
|           WW  WW  A    A  R   R   N   NN  II  N   NN  G    G                |
|           W    W  A    A  R    R  N    N  II  N    N   GGGG   !!!           |
|                                                                             |
|      For optimal performance we recommend to set                            |
|        NCORE= 4 - approx SQRT( number of cores)                             |
|      NCORE specifies how many cores store one orbital (NPAR=cpu/NCORE).     |
|      This setting can  greatly improve the performance of VASP for DFT.     |
|      The default,   NCORE=1            might be grossly inefficient         |
|      on modern multi-core architectures or massively parallel machines.     |
|      Do your own testing !!!!                                               |
|      Unfortunately you need to use the default for GW and RPA calculations. |
|      (for HF NCORE is supported but not extensively tested yet)             |
|                                                                             |
 ----------------------------------------------------------------------------- 

 LDA part: xc-table for Pade appr. of Perdew
 POSCAR, INCAR and KPOINTS ok, starting setup
 FFT: planning ...
 WAVECAR not read
 entering main loop
       N       E                     dE             d eps       ncg     rms          rms(c)
DAV:   1     0.789198201614E+03    0.78920E+03   -0.43278E+04  1204   0.836E+02
DAV:   2    -0.255567842986E+02   -0.81475E+03   -0.79060E+03  1442   0.212E+02
DAV:   3    -0.113244843023E+03   -0.87688E+02   -0.86720E+02  1428   0.684E+01
DAV:   4    -0.115711379467E+03   -0.24665E+01   -0.24496E+01  1442   0.131E+01
DAV:   5    -0.115780353662E+03   -0.68974E-01   -0.68908E-01  1414   0.225E+00    0.217E+01
DAV:   6    -0.109322707025E+03    0.64576E+01   -0.13786E+01  1344   0.996E+00    0.161E+01
DAV:   7    -0.109390898402E+03   -0.68191E-01   -0.48139E+00  1414   0.488E+00    0.659E+00
DAV:   8    -0.109357654526E+03    0.33244E-01   -0.39053E-01  1428   0.178E+00    0.268E+00
DAV:   9    -0.109372809380E+03   -0.15155E-01   -0.90751E-02  1372   0.934E-01    0.638E-01
DAV:  10    -0.109374430945E+03   -0.16216E-02   -0.62219E-03  1484   0.228E-01    0.311E-01
DAV:  11    -0.109378199088E+03   -0.37681E-02   -0.41799E-03  1344   0.188E-01    0.178E-01
DAV:  12    -0.109378564770E+03   -0.36568E-03   -0.40099E-04  1330   0.596E-02    0.784E-02
DAV:  13    -0.109378935247E+03   -0.37048E-03   -0.33919E-04  1134   0.546E-02    0.496E-02
DAV:  14    -0.109378988893E+03   -0.53646E-04   -0.74715E-05  1008   0.263E-02
   1 F= -.10937899E+03 E0= -.10937899E+03  d E =-.109379E+03
 curvature:   0.00 expect dE= 0.000E+00 dE for cont linesearch  0.000E+00
 trial: gam= 0.00000 g(F)=  0.209E-01 g(S)=  0.674E-02 ort = 0.000E+00 (trialstep = 0.100E+01)
 search vector abs. value=  0.277E-01
 bond charge predicted
       N       E                     dE             d eps       ncg     rms          rms(c)
DAV:   1    -0.109404333227E+03   -0.25398E-01   -0.23614E-01  1344   0.125E+00    0.554E-01
DAV:   2    -0.109403298323E+03    0.10349E-02   -0.21772E-02  1428   0.385E-01    0.224E-01
DAV:   3    -0.109402858827E+03    0.43950E-03   -0.14572E-03  1414   0.992E-02    0.125E-01
DAV:   4    -0.109402650514E+03    0.20831E-03   -0.20463E-04   854   0.488E-02    0.437E-02
DAV:   5    -0.109402609191E+03    0.41324E-04   -0.10042E-04   840   0.294E-02
   2 F= -.10940261E+03 E0= -.10940261E+03  d E =-.236203E-01
 trial-energy change:   -0.023620  1 .order   -0.023412   -0.027673   -0.019151
 step:   3.2473(harm=  3.2473)  dis= 0.01020  next Energy=  -109.423920 (dE=-0.449E-01)
 bond charge predicted
       N       E                     dE             d eps       ncg     rms          rms(c)
DAV:   1    -0.109434819722E+03   -0.32169E-01   -0.11895E+00  1344   0.281E+00    0.123E+00
DAV:   2    -0.109429273403E+03    0.55463E-02   -0.10963E-01  1428   0.862E-01    0.509E-01
DAV:   3    -0.109427101707E+03    0.21717E-02   -0.73966E-03  1386   0.223E-01    0.285E-01
DAV:   4    -0.109426127220E+03    0.97449E-03   -0.11397E-03  1414   0.110E-01    0.928E-02
DAV:   5    -0.109425963856E+03    0.16336E-03   -0.30358E-04  1022   0.502E-02    0.329E-02
DAV:   6    -0.109425947776E+03    0.16080E-04   -0.51778E-05   840   0.192E-02
   3 F= -.10942595E+03 E0= -.10942595E+03  d E =-.469589E-01
 curvature:  -1.62 expect dE=-0.108E-01 dE for cont linesearch -0.178E-03
 ZBRENT: extrapolating
 opt :   3.4724  next Energy=  -109.426144 (dE=-0.472E-01)
 bond charge predicted
       N       E                     dE             d eps       ncg     rms          rms(c)
DAV:   1    -0.109426267673E+03   -0.30382E-03   -0.11863E-02  1344   0.280E-01    0.131E-01
DAV:   2    -0.109426210174E+03    0.57499E-04   -0.10909E-03  1428   0.857E-02    0.472E-02
DAV:   3    -0.109426182246E+03    0.27928E-04   -0.63796E-05   840   0.225E-02
   4 F= -.10942618E+03 E0= -.10942618E+03  d E =-.471934E-01
 curvature:  -1.79 expect dE=-0.119E-01 dE for cont linesearch -0.451E-04
 trial: gam= 0.21150 g(F)=  0.358E-02 g(S)=  0.311E-02 ort = 0.836E-03 (trialstep = 0.149E+01)
 search vector abs. value=  0.828E-02
 bond charge predicted
       N       E                     dE             d eps       ncg     rms          rms(c)
DAV:   1    -0.109437352696E+03   -0.11143E-01   -0.18175E-01  1176   0.102E+00    0.328E-01
DAV:   2    -0.109436828801E+03    0.52390E-03   -0.11867E-02  1386   0.285E-01    0.150E-01
DAV:   3    -0.109436500384E+03    0.32842E-03   -0.57719E-04  1428   0.641E-02    0.951E-02
DAV:   4    -0.109436348880E+03    0.15150E-03   -0.22651E-04   938   0.406E-02    0.436E-02
DAV:   5    -0.109436335520E+03    0.13360E-04   -0.12237E-04   840   0.290E-02
   5 F= -.10943634E+03 E0= -.10943634E+03  d E =-.101533E-01
 ZBRENT: can't locate minimum, use default step
 trial-energy change:   -0.010153  1 .order   -0.010149   -0.010260   -0.010037
 step:   5.9779(harm= 68.8005)  dis= 0.01245  next Energy=  -109.662348 (dE=-0.236E+00)
 bond charge predicted
       N       E                     dE             d eps       ncg     rms          rms(c)
DAV:   1    -0.109472500470E+03   -0.36152E-01   -0.16325E+00  1176   0.306E+00    0.983E-01
DAV:   2    -0.109467688430E+03    0.48120E-02   -0.10850E-01  1372   0.861E-01    0.446E-01
DAV:   3    -0.109464651469E+03    0.30370E-02   -0.52877E-03  1428   0.194E-01    0.284E-01
DAV:   4    -0.109463258684E+03    0.13928E-02   -0.22747E-03  1428   0.122E-01    0.144E-01
DAV:   5    -0.109463083789E+03    0.17490E-03   -0.56826E-04  1428   0.619E-02    0.739E-02
DAV:   6    -0.109463070457E+03    0.13332E-04   -0.58521E-05   840   0.216E-02
   6 F= -.10946307E+03 E0= -.10946307E+03  d E =-.368882E-01
 curvature:  -5.34 expect dE=-0.334E-01 dE for cont linesearch -0.191E-01
 ZBRENT: increasing intervall
 opt :  14.9448  next Energy=  -109.500504 (dE=-0.743E-01)
 bond charge predicted
       N       E                     dE             d eps       ncg     rms          rms(c)
DAV:   1    -0.109532231471E+03   -0.69148E-01   -0.65467E+00  1176   0.613E+00    0.196E+00
DAV:   2    -0.109513188402E+03    0.19043E-01   -0.43682E-01  1358   0.173E+00    0.902E-01
DAV:   3    -0.109501088137E+03    0.12100E-01   -0.21294E-02  1428   0.390E-01    0.567E-01
DAV:   4    -0.109495626940E+03    0.54612E-02   -0.87794E-03  1428   0.241E-01    0.297E-01
DAV:   5    -0.109494857128E+03    0.76981E-03   -0.21862E-03  1456   0.122E-01    0.146E-01
DAV:   6    -0.109494779430E+03    0.77698E-04   -0.25447E-04  1022   0.433E-02
   7 F= -.10949478E+03 E0= -.10949478E+03  d E =-.685972E-01
 curvature: -10.45 expect dE=-0.802E-01 dE for cont linesearch -0.277E-02
 trial: gam= 0.90511 g(F)=  0.586E-02 g(S)=  0.181E-02 ort = 0.148E-02 (trialstep = 0.202E+01)
 search vector abs. value=  0.171E-01
 bond charge predicted
       N       E                     dE             d eps       ncg     rms          rms(c)
DAV:   1    -0.109517727775E+03   -0.22871E-01   -0.67278E-01  1176   0.201E+00    0.689E-01
DAV:   2    -0.109512517041E+03    0.52107E-02   -0.45058E-02  1400   0.559E-01    0.322E-01
DAV:   3    -0.109510824056E+03    0.16930E-02   -0.35290E-03  1428   0.149E-01    0.190E-01
DAV:   4    -0.109510244314E+03    0.57974E-03   -0.87097E-04  1428   0.787E-02    0.949E-02
DAV:   5    -0.109510149020E+03    0.95295E-04   -0.21985E-04   868   0.410E-02
   8 F= -.10951015E+03 E0= -.10951015E+03  d E =-.153696E-01
 trial-energy change:   -0.015370  1 .order   -0.015853   -0.018226   -0.013480
 step:   7.7619(harm=  7.7619)  dis= 0.02146  next Energy=  -109.529775 (dE=-0.350E-01)
 bond charge predicted
       N       E                     dE             d eps       ncg     rms          rms(c)
DAV:   1    -0.109586811109E+03   -0.76567E-01   -0.54313E+00  1176   0.570E+00    0.200E+00
DAV:   2    -0.109544130742E+03    0.42680E-01   -0.36789E-01  1400   0.159E+00    0.912E-01
DAV:   3    -0.109530316636E+03    0.13814E-01   -0.29605E-02  1428   0.431E-01    0.518E-01
DAV:   4    -0.109525791178E+03    0.45255E-02   -0.65301E-03  1428   0.218E-01    0.275E-01
DAV:   5    -0.109524927224E+03    0.86395E-03   -0.17790E-03  1428   0.111E-01    0.140E-01
DAV:   6    -0.109524861298E+03    0.65926E-04   -0.21297E-04   840   0.394E-02
   9 F= -.10952486E+03 E0= -.10952486E+03  d E =-.300819E-01
 curvature:  -7.38 expect dE=-0.429E-01 dE for cont linesearch -0.111E-03
 trial: gam= 0.77303 g(F)=  0.373E-02 g(S)=  0.209E-02 ort = 0.508E-03 (trialstep = 0.317E+01)
 search vector abs. value=  0.168E-01
 bond charge predicted
       N       E                     dE             d eps       ncg     rms          rms(c)
DAV:   1    -0.109535599844E+03   -0.10673E-01   -0.13966E+00  1176   0.285E+00    0.806E-01
DAV:   2    -0.109539418909E+03   -0.38191E-02   -0.91206E-02  1428   0.797E-01    0.344E-01
DAV:   3    -0.109537984131E+03    0.14348E-02   -0.30014E-03  1428   0.160E-01    0.229E-01
DAV:   4    -0.109537256792E+03    0.72734E-03   -0.10580E-03  1428   0.853E-02    0.131E-01
DAV:   5    -0.109537051364E+03    0.20543E-03   -0.52569E-04  1358   0.619E-02    0.616E-02
DAV:   6    -0.109537051115E+03    0.24906E-06   -0.72049E-05   840   0.247E-02
  10 F= -.10953705E+03 E0= -.10953705E+03  d E =-.121898E-01
 trial-energy change:   -0.012190  1 .order   -0.014757   -0.019680   -0.009834
 step:   6.3352(harm=  6.3352)  dis= 0.02375  next Energy=  -109.544530 (dE=-0.197E-01)
 bond charge predicted
       N       E                     dE             d eps       ncg     rms          rms(c)
DAV:   1    -0.109537970042E+03   -0.91868E-03   -0.13996E+00  1176   0.285E+00    0.820E-01
DAV:   2    -0.109541837106E+03   -0.38671E-02   -0.91700E-02  1428   0.798E-01    0.338E-01
DAV:   3    -0.109540403114E+03    0.14340E-02   -0.30182E-03  1428   0.161E-01    0.221E-01
DAV:   4    -0.109539692204E+03    0.71091E-03   -0.10383E-03  1428   0.846E-02    0.126E-01
DAV:   5    -0.109539490147E+03    0.20206E-03   -0.50300E-04  1344   0.608E-02    0.598E-02
DAV:   6    -0.109539489224E+03    0.92319E-06   -0.69986E-05   840   0.244E-02
  11 F= -.10953949E+03 E0= -.10953949E+03  d E =-.146279E-01
 curvature:  -8.59 expect dE=-0.365E-01 dE for cont linesearch -0.376E-03
 ZBRENT: interpolating
 opt :   5.6492  next Energy=  -109.539784 (dE=-0.149E-01)
 bond charge predicted
       N       E                     dE             d eps       ncg     rms          rms(c)
DAV:   1    -0.109539673803E+03   -0.18366E-03   -0.64783E-02  1176   0.612E-01    0.169E-01
DAV:   2    -0.109539845979E+03   -0.17218E-03   -0.41258E-03  1428   0.171E-01    0.839E-02
DAV:   3    -0.109539782127E+03    0.63852E-04   -0.12757E-04   826   0.351E-02
  12 F= -.10953978E+03 E0= -.10953978E+03  d E =-.149208E-01
 curvature:  -6.73 expect dE=-0.256E-01 dE for cont linesearch -0.858E-04
 trial: gam= 0.47602 g(F)=  0.261E-02 g(S)=  0.120E-02 ort =-0.463E-03 (trialstep = 0.367E+01)
 search vector abs. value=  0.718E-02
 bond charge predicted
       N       E                     dE             d eps       ncg     rms          rms(c)
DAV:   1    -0.109547555163E+03   -0.77092E-02   -0.82189E-01  1176   0.226E+00    0.714E-01
DAV:   2    -0.109549275609E+03   -0.17204E-02   -0.50180E-02  1428   0.600E-01    0.267E-01
DAV:   3    -0.109548156041E+03    0.11196E-02   -0.14108E-03  1442   0.120E-01    0.193E-01
DAV:   4    -0.109547470459E+03    0.68558E-03   -0.13604E-03  1400   0.102E-01    0.649E-02
DAV:   5    -0.109547450952E+03    0.19506E-04   -0.28719E-04  1008   0.484E-02
  13 F= -.10954745E+03 E0= -.10954745E+03  d E =-.766883E-02
 trial-energy change:   -0.007669  1 .order   -0.005729   -0.013138    0.001680
 step:   3.4256(harm=  3.2497)  dis= 0.00734  next Energy=  -109.547505 (dE=-0.772E-02)
 bond charge predicted
       N       E                     dE             d eps       ncg     rms          rms(c)
DAV:   1    -0.109547497729E+03   -0.27270E-04   -0.35717E-03  1344   0.148E-01    0.327E-02
DAV:   2    -0.109547500270E+03   -0.25412E-05   -0.17479E-04   840   0.395E-02
  14 F= -.10954750E+03 E0= -.10954750E+03  d E =-.771814E-02
 curvature:  -2.67 expect dE=-0.986E-02 dE for cont linesearch -0.518E-04
 trial: gam= 0.75796 g(F)=  0.333E-02 g(S)=  0.361E-03 ort = 0.373E-03 (trialstep = 0.310E+01)
 search vector abs. value=  0.838E-02
 bond charge predicted
       N       E                     dE             d eps       ncg     rms          rms(c)
DAV:   1    -0.109553486162E+03   -0.59884E-02   -0.68275E-01  1176   0.202E+00    0.603E-01
DAV:   2    -0.109556201268E+03   -0.27151E-02   -0.43750E-02  1442   0.555E-01    0.212E-01
DAV:   3    -0.109555716839E+03    0.48443E-03   -0.12431E-03  1484   0.110E-01    0.150E-01
DAV:   4    -0.109555466729E+03    0.25011E-03   -0.56421E-04  1386   0.651E-02    0.693E-02
DAV:   5    -0.109555435602E+03    0.31128E-04   -0.11973E-04   840   0.337E-02
  15 F= -.10955544E+03 E0= -.10955544E+03  d E =-.793533E-02
 trial-energy change:   -0.007935  1 .order   -0.008663   -0.012311   -0.005016
 step:   5.2312(harm=  5.2312)  dis= 0.01305  next Energy=  -109.557888 (dE=-0.104E-01)
 bond charge predicted
       N       E                     dE             d eps       ncg     rms          rms(c)
DAV:   1    -0.109556140772E+03   -0.67404E-03   -0.32008E-01  1190   0.138E+00    0.425E-01
DAV:   2    -0.109557353034E+03   -0.12123E-02   -0.20409E-02  1442   0.378E-01    0.146E-01
DAV:   3    -0.109557119531E+03    0.23350E-03   -0.59121E-04  1470   0.756E-02    0.989E-02
DAV:   4    -0.109557001204E+03    0.11833E-03   -0.24130E-04   994   0.453E-02    0.442E-02
DAV:   5    -0.109556991047E+03    0.10157E-04   -0.95825E-05   840   0.294E-02
  16 F= -.10955699E+03 E0= -.10955699E+03  d E =-.949078E-02
 curvature:  -5.52 expect dE=-0.203E-01 dE for cont linesearch -0.583E-04
 trial: gam= 0.77443 g(F)=  0.308E-02 g(S)=  0.589E-03 ort = 0.298E-03 (trialstep = 0.323E+01)
 search vector abs. value=  0.916E-02
 bond charge predicted
       N       E                     dE             d eps       ncg     rms          rms(c)
DAV:   1    -0.109560949920E+03   -0.39487E-02   -0.74780E-01  1176   0.213E+00    0.621E-01
DAV:   2    -0.109562713552E+03   -0.17636E-02   -0.46742E-02  1428   0.575E-01    0.255E-01
DAV:   3    -0.109562174164E+03    0.53939E-03   -0.16938E-03  1484   0.120E-01    0.168E-01
DAV:   4    -0.109561902309E+03    0.27186E-03   -0.54253E-04  1414   0.665E-02    0.776E-02
DAV:   5    -0.109561874425E+03    0.27883E-04   -0.12097E-04   840   0.337E-02
  17 F= -.10956187E+03 E0= -.10956187E+03  d E =-.488338E-02
 trial-energy change:   -0.004883  1 .order   -0.005845   -0.012589    0.000899
 step:   2.8788(harm=  3.0116)  dis= 0.00673  next Energy=  -109.561924 (dE=-0.493E-02)
 bond charge predicted
       N       E                     dE             d eps       ncg     rms          rms(c)
DAV:   1    -0.109561914957E+03   -0.12649E-04   -0.91890E-03  1302   0.236E-01    0.610E-02
DAV:   2    -0.109561939643E+03   -0.24686E-04   -0.56777E-04  1344   0.651E-02
  18 F= -.10956194E+03 E0= -.10956194E+03  d E =-.494860E-02
 curvature:  -2.19 expect dE=-0.379E-02 dE for cont linesearch -0.353E-06
 trial: gam= 0.35894 g(F)=  0.162E-02 g(S)=  0.113E-03 ort = 0.384E-04 (trialstep = 0.316E+01)
 search vector abs. value=  0.294E-02
 bond charge predicted
       N       E                     dE             d eps       ncg     rms          rms(c)
DAV:   1    -0.109565049910E+03   -0.31350E-02   -0.25980E-01  1176   0.123E+00    0.378E-01
DAV:   2    -0.109566200875E+03   -0.11510E-02   -0.16739E-02  1428   0.340E-01    0.120E-01
DAV:   3    -0.109566053169E+03    0.14771E-03   -0.37125E-04  1386   0.586E-02    0.856E-02
DAV:   4    -0.109565965581E+03    0.87587E-04   -0.17089E-04   840   0.380E-02
  19 F= -.10956597E+03 E0= -.10956597E+03  d E =-.402594E-02
 trial-energy change:   -0.004026  1 .order   -0.004014   -0.005509   -0.002519
 step:   5.8165(harm=  5.8165)  dis= 0.00827  next Energy=  -109.567015 (dE=-0.508E-02)
 bond charge predicted
       N       E                     dE             d eps       ncg     rms          rms(c)
DAV:   1    -0.109566336728E+03   -0.28356E-03   -0.18202E-01  1176   0.103E+00    0.314E-01
DAV:   2    -0.109567066882E+03   -0.73015E-03   -0.11473E-02  1456   0.281E-01    0.101E-01
DAV:   3    -0.109566949500E+03    0.11738E-03   -0.24513E-04  1078   0.501E-02    0.694E-02
DAV:   4    -0.109566885178E+03    0.64322E-04   -0.20854E-04   896   0.401E-02
  20 F= -.10956689E+03 E0= -.10956689E+03  d E =-.494553E-02
 curvature:  -4.90 expect dE=-0.832E-02 dE for cont linesearch -0.119E-05
 trial: gam= 0.88069 g(F)=  0.160E-02 g(S)=  0.992E-04 ort = 0.268E-04 (trialstep = 0.269E+01)
 search vector abs. value=  0.402E-02
 bond charge predicted
       N       E                     dE             d eps       ncg     rms          rms(c)
DAV:   1    -0.109569403035E+03   -0.24535E-02   -0.25350E-01  1176   0.121E+00    0.334E-01
DAV:   2    -0.109570372757E+03   -0.96972E-03   -0.15770E-02  1428   0.327E-01    0.132E-01
DAV:   3    -0.109570246795E+03    0.12596E-03   -0.37232E-04  1330   0.573E-02    0.886E-02
DAV:   4    -0.109570176112E+03    0.70683E-04   -0.11227E-04   840   0.306E-02
  21 F= -.10957018E+03 E0= -.10957018E+03  d E =-.329093E-02
 trial-energy change:   -0.003291  1 .order   -0.003500   -0.004637   -0.002362
 step:   5.4900(harm=  5.4900)  dis= 0.01010  next Energy=  -109.571611 (dE=-0.473E-02)
 bond charge predicted
       N       E                     dE             d eps       ncg     rms          rms(c)
DAV:   1    -0.109570128857E+03    0.11794E-03   -0.26923E-01  1176   0.125E+00    0.341E-01
DAV:   2    -0.109571117376E+03   -0.98852E-03   -0.16619E-02  1428   0.336E-01    0.141E-01
DAV:   3    -0.109570983530E+03    0.13385E-03   -0.41435E-04  1386   0.597E-02    0.927E-02
DAV:   4    -0.109570907249E+03    0.76281E-04   -0.11481E-04   840   0.312E-02
  22 F= -.10957091E+03 E0= -.10957091E+03  d E =-.402207E-02
 curvature:  -6.42 expect dE=-0.109E-01 dE for cont linesearch -0.185E-04
 trial: gam= 1.06040 g(F)=  0.154E-02 g(S)=  0.157E-03 ort =-0.108E-03 (trialstep = 0.218E+01)
 search vector abs. value=  0.600E-02
 bond charge predicted
       N       E                     dE             d eps       ncg     rms          rms(c)
DAV:   1    -0.109572839703E+03   -0.18562E-02   -0.29294E-01  1176   0.130E+00    0.384E-01
DAV:   2    -0.109573425945E+03   -0.58624E-03   -0.17441E-02  1358   0.344E-01    0.157E-01
DAV:   3    -0.109573218035E+03    0.20791E-03   -0.50249E-04  1498   0.641E-02    0.108E-01
DAV:   4    -0.109573091736E+03    0.12630E-03   -0.21251E-04   840   0.446E-02    0.462E-02
DAV:   5    -0.109573095221E+03   -0.34845E-05   -0.10943E-04   812   0.285E-02
  23 F= -.10957310E+03 E0= -.10957310E+03  d E =-.218797E-02
 trial-energy change:   -0.002188  1 .order   -0.002482   -0.003463   -0.001501
 step:   3.8527(harm=  3.8527)  dis= 0.00941  next Energy=  -109.573963 (dE=-0.306E-02)
 bond charge predicted
       N       E                     dE             d eps       ncg     rms          rms(c)
DAV:   1    -0.109573430671E+03   -0.33893E-03   -0.17413E-01  1176   0.101E+00    0.302E-01
DAV:   2    -0.109573819668E+03   -0.38900E-03   -0.10652E-02  1358   0.268E-01    0.122E-01
DAV:   3    -0.109573693934E+03    0.12573E-03   -0.26522E-04  1064   0.495E-02    0.821E-02
DAV:   4    -0.109573619220E+03    0.74715E-04   -0.22898E-04   924   0.426E-02
  24 F= -.10957362E+03 E0= -.10957362E+03  d E =-.271197E-02
 curvature:  -7.28 expect dE=-0.161E-01 dE for cont linesearch -0.286E-04
 trial: gam= 0.72558 g(F)=  0.172E-02 g(S)=  0.492E-03 ort = 0.153E-03 (trialstep = 0.252E+01)
 search vector abs. value=  0.559E-02
 bond charge predicted
       N       E                     dE             d eps       ncg     rms          rms(c)
DAV:   1    -0.109575857466E+03   -0.21635E-02   -0.29851E-01  1176   0.133E+00    0.352E-01
DAV:   2    -0.109576987468E+03   -0.11300E-02   -0.19048E-02  1428   0.362E-01    0.152E-01
DAV:   3    -0.109576830574E+03    0.15689E-03   -0.68965E-04  1498   0.750E-02    0.107E-01
DAV:   4    -0.109576738962E+03    0.91612E-04   -0.10281E-04   840   0.300E-02
  25 F= -.10957674E+03 E0= -.10957674E+03  d E =-.311974E-02
 trial-energy change:   -0.003120  1 .order   -0.003774   -0.005842   -0.001706
 step:   3.5555(harm=  3.5555)  dis= 0.00715  next Energy=  -109.577745 (dE=-0.413E-02)
 bond charge predicted
       N       E                     dE             d eps       ncg     rms          rms(c)
DAV:   1    -0.109576627385E+03    0.20319E-03   -0.48370E-02  1204   0.537E-01    0.143E-01
DAV:   2    -0.109576762280E+03   -0.13489E-03   -0.29536E-03  1428   0.143E-01    0.672E-02
DAV:   3    -0.109576733411E+03    0.28869E-04   -0.11830E-04   812   0.327E-02
  26 F= -.10957673E+03 E0= -.10957673E+03  d E =-.311419E-02
 curvature:  -4.28 expect dE=-0.577E-02 dE for cont linesearch -0.655E-04
 ZBRENT: interpolating
 opt :   3.2425  next Energy=  -109.576779 (dE=-0.316E-02)
 bond charge predicted
       N       E                     dE             d eps       ncg     rms          rms(c)
DAV:   1    -0.109576769557E+03   -0.72772E-05   -0.50244E-03  1232   0.173E-01    0.561E-02
DAV:   2    -0.109576800011E+03   -0.30454E-04   -0.37242E-04  1288   0.501E-02
  27 F= -.10957680E+03 E0= -.10957680E+03  d E =-.318079E-02
 curvature:  -2.99 expect dE=-0.399E-02 dE for cont linesearch -0.363E-04
 trial: gam= 0.63892 g(F)=  0.916E-03 g(S)=  0.416E-03 ort =-0.260E-03 (trialstep = 0.266E+01)
 search vector abs. value=  0.328E-02
 bond charge predicted
       N       E                     dE             d eps       ncg     rms          rms(c)
DAV:   1    -0.109578633005E+03   -0.18634E-02   -0.21666E-01  1176   0.114E+00    0.348E-01
DAV:   2    -0.109578470084E+03    0.16292E-03   -0.13752E-02  1414   0.306E-01    0.159E-01
DAV:   3    -0.109578227697E+03    0.24239E-03   -0.65214E-04  1428   0.686E-02    0.996E-02
DAV:   4    -0.109578090418E+03    0.13728E-03   -0.13581E-04   840   0.356E-02    0.435E-02
DAV:   5    -0.109578058853E+03    0.31566E-04   -0.98401E-05   840   0.268E-02
  28 F= -.10957806E+03 E0= -.10957806E+03  d E =-.125884E-02
 trial-energy change:   -0.001259  1 .order   -0.001516   -0.003104    0.000072
 step:   2.6014(harm=  2.6014)  dis= 0.00414  next Energy=  -109.578317 (dE=-0.152E-02)
 bond charge predicted
       N       E                     dE             d eps       ncg     rms          rms(c)
DAV:   1    -0.109578057147E+03    0.33271E-04   -0.10332E-04   812   0.269E-02    0.105E-02
DAV:   2    -0.109578057313E+03   -0.16609E-06   -0.17265E-05   770   0.132E-02
  29 F= -.10957806E+03 E0= -.10957806E+03  d E =-.125730E-02
 curvature:  -3.66 expect dE=-0.322E-02 dE for cont linesearch -0.643E-06
 trial: gam= 0.38008 g(F)=  0.731E-03 g(S)=  0.148E-03 ort = 0.240E-04 (trialstep = 0.265E+01)
 search vector abs. value=  0.137E-02
 bond charge predicted
       N       E                     dE             d eps       ncg     rms          rms(c)
DAV:   1    -0.109578977828E+03   -0.92068E-03   -0.76110E-02  1176   0.680E-01    0.207E-01
DAV:   2    -0.109579310179E+03   -0.33235E-03   -0.52542E-03  1428   0.189E-01    0.745E-02
DAV:   3    -0.109579266425E+03    0.43754E-04   -0.17231E-04   896   0.400E-02
  30 F= -.10957927E+03 E0= -.10957927E+03  d E =-.120911E-02
 trial-energy change:   -0.001209  1 .order   -0.001392   -0.002354   -0.000430
 step:   3.2427(harm=  3.2427)  dis= 0.00252  next Energy=  -109.579498 (dE=-0.144E-02)
 bond charge predicted
       N       E                     dE             d eps       ncg     rms          rms(c)
DAV:   1    -0.109579275183E+03    0.34996E-04   -0.34672E-03  1316   0.145E-01    0.414E-02
DAV:   2    -0.109579269775E+03    0.54083E-05   -0.16655E-04   924   0.380E-02
  31 F= -.10957927E+03 E0= -.10957927E+03  d E =-.121246E-02
 curvature:  -2.50 expect dE=-0.210E-02 dE for cont linesearch -0.638E-06
 trial: gam= 0.97911 g(F)=  0.640E-03 g(S)=  0.198E-03 ort = 0.187E-04 (trialstep = 0.173E+01)
 search vector abs. value=  0.219E-02
 bond charge predicted
       N       E                     dE             d eps       ncg     rms          rms(c)
DAV:   1    -0.109579997868E+03   -0.72268E-03   -0.52385E-02  1176   0.564E-01    0.172E-01
DAV:   2    -0.109580081217E+03   -0.83349E-04   -0.32595E-03  1428   0.152E-01    0.748E-02
DAV:   3    -0.109580029252E+03    0.51965E-04   -0.10922E-04   840   0.318E-02
  32 F= -.10958003E+03 E0= -.10958003E+03  d E =-.759477E-03
 trial-energy change:   -0.000759  1 .order   -0.000806   -0.001486   -0.000125
 step:   1.8940(harm=  1.8940)  dis= 0.00234  next Energy=  -109.580081 (dE=-0.811E-03)
 bond charge predicted
       N       E                     dE             d eps       ncg     rms          rms(c)
DAV:   1    -0.109579985757E+03    0.95460E-04   -0.31829E-04  1190   0.456E-02    0.189E-02
DAV:   2    -0.109579983082E+03    0.26747E-05   -0.24037E-05   770   0.149E-02
  33 F= -.10957998E+03 E0= -.10957998E+03  d E =-.713307E-03
 curvature:  -2.42 expect dE=-0.154E-02 dE for cont linesearch -0.153E-03
 ZBRENT: interpolating
 opt :   1.7600  next Energy=  -109.580030 (dE=-0.760E-03)
 bond charge predicted
       N       E                     dE             d eps       ncg     rms          rms(c)
DAV:   1    -0.109580005786E+03   -0.20029E-04   -0.30487E-04  1120   0.446E-02    0.116E-02
DAV:   2    -0.109580007692E+03   -0.19059E-05   -0.23807E-05   756   0.141E-02
  34 F= -.10958001E+03 E0= -.10958001E+03  d E =-.737917E-03
 curvature:  -0.01 expect dE=-0.696E-05 dE for cont linesearch -0.229E-08
 trial: gam= 0.41853 g(F)=  0.420E-03 g(S)=  0.459E-04 ort =-0.183E-04 (trialstep = 0.174E+01)
 search vector abs. value=  0.834E-03
 bond charge predicted
       N       E                     dE             d eps       ncg     rms          rms(c)
DAV:   1    -0.109580323679E+03   -0.31789E-03   -0.17691E-02  1176   0.327E-01    0.791E-02
DAV:   2    -0.109580393228E+03   -0.69549E-04   -0.10511E-03  1428   0.846E-02    0.317E-02
DAV:   3    -0.109580384971E+03    0.82564E-05   -0.21544E-05   784   0.152E-02
  35 F= -.10958038E+03 E0= -.10958038E+03  d E =-.377279E-03
 trial-energy change:   -0.000377  1 .order   -0.000437   -0.000797   -0.000078
 step:   1.9283(harm=  1.9283)  dis= 0.00128  next Energy=  -109.580449 (dE=-0.442E-03)
 bond charge predicted
       N       E                     dE             d eps       ncg     rms          rms(c)
DAV:   1    -0.109580373581E+03    0.19647E-04   -0.15779E-04   868   0.325E-02    0.116E-02
DAV:   2    -0.109580374147E+03   -0.56567E-06   -0.18390E-05   672   0.126E-02
  36 F= -.10958037E+03 E0= -.10958037E+03  d E =-.366455E-03
 curvature:  -1.76 expect dE=-0.137E-02 dE for cont linesearch -0.119E-04
 trial: gam= 1.34696 g(F)=  0.662E-03 g(S)=  0.121E-03 ort =-0.751E-04 (trialstep = 0.708E+00)
 search vector abs. value=  0.209E-02
 bond charge predicted
       N       E                     dE             d eps       ncg     rms          rms(c)
DAV:   1    -0.109580740141E+03   -0.36656E-03   -0.80977E-03  1190   0.220E-01    0.525E-02
DAV:   2    -0.109580759158E+03   -0.19016E-04   -0.43179E-04  1358   0.559E-02
  37 F= -.10958076E+03 E0= -.10958076E+03  d E =-.385011E-03
 trial-energy change:   -0.000385  1 .order   -0.000386   -0.000482   -0.000289
 step:   1.7700(harm=  1.7700)  dis= 0.00180  next Energy=  -109.580977 (dE=-0.603E-03)
 bond charge predicted
       N       E                     dE             d eps       ncg     rms          rms(c)
DAV:   1    -0.109580827639E+03   -0.87497E-04   -0.17898E-02  1176   0.328E-01    0.735E-02
DAV:   2    -0.109580846074E+03   -0.18436E-04   -0.92269E-04  1428   0.824E-02
  38 F= -.10958085E+03 E0= -.10958085E+03  d E =-.471928E-03
 curvature:  -2.72 expect dE=-0.146E-02 dE for cont linesearch -0.766E-05
 trial: gam= 0.44305 g(F)=  0.461E-03 g(S)=  0.738E-04 ort =-0.768E-04 (trialstep = 0.920E+00)
 search vector abs. value=  0.878E-03
 bond charge predicted
       N       E                     dE             d eps       ncg     rms          rms(c)
DAV:   1    -0.109581084940E+03   -0.25730E-03   -0.57643E-03  1246   0.188E-01    0.551E-02
DAV:   2    -0.109581055026E+03    0.29914E-04   -0.28725E-04  1092   0.490E-02
  39 F= -.10958106E+03 E0= -.10958106E+03  d E =-.208952E-03
 trial-energy change:   -0.000209  1 .order   -0.000310   -0.000461   -0.000159
 step:   1.4033(harm=  1.4033)  dis= 0.00102  next Energy=  -109.581198 (dE=-0.352E-03)
 bond charge predicted
       N       E                     dE             d eps       ncg     rms          rms(c)
DAV:   1    -0.109581074363E+03    0.10577E-04   -0.15693E-03  1330   0.969E-02    0.319E-02
DAV:   2    -0.109581057397E+03    0.16967E-04   -0.74269E-05   812   0.261E-02
  40 F= -.10958106E+03 E0= -.10958106E+03  d E =-.211322E-03
 curvature:  -1.23 expect dE=-0.466E-03 dE for cont linesearch -0.939E-06
 trial: gam= 0.59484 g(F)=  0.352E-03 g(S)=  0.268E-04 ort =-0.259E-04 (trialstep = 0.102E+01)
 search vector abs. value=  0.659E-03
 bond charge predicted
       N       E                     dE             d eps       ncg     rms          rms(c)
DAV:   1    -0.109581255008E+03   -0.18064E-03   -0.43578E-03  1218   0.162E-01    0.426E-02
DAV:   2    -0.109581259883E+03   -0.48755E-05   -0.25103E-04  1106   0.434E-02
  41 F= -.10958126E+03 E0= -.10958126E+03  d E =-.202487E-03
 trial-energy change:   -0.000202  1 .order   -0.000185   -0.000370   -0.000001
 step:   1.0206(harm=  1.0206)  dis= 0.00082  next Energy=  -109.581243 (dE=-0.185E-03)
 bond charge predicted
       N       E                     dE             d eps       ncg     rms          rms(c)
DAV:   1    -0.109581256366E+03   -0.13580E-05   -0.22449E-05   826   0.144E-02    0.141E-02
DAV:   2    -0.109581254411E+03    0.19550E-05   -0.63066E-06   686   0.756E-03
  42 F= -.10958125E+03 E0= -.10958125E+03  d E =-.197014E-03
 curvature:  -0.92 expect dE=-0.267E-03 dE for cont linesearch -0.557E-10
 trial: gam= 0.47665 g(F)=  0.236E-03 g(S)=  0.520E-04 ort =-0.199E-06 (trialstep = 0.102E+01)
 search vector abs. value=  0.438E-03
 bond charge predicted
       N       E                     dE             d eps       ncg     rms          rms(c)
DAV:   1    -0.109581470005E+03   -0.21364E-03   -0.27674E-03  1204   0.131E-01    0.340E-02
DAV:   2    -0.109581473211E+03   -0.32060E-05   -0.14116E-04   840   0.342E-02
  43 F= -.10958147E+03 E0= -.10958147E+03  d E =-.218801E-03
 trial-energy change:   -0.000219  1 .order   -0.000134   -0.000293    0.000025
 step:   0.9382(harm=  0.9382)  dis= 0.00049  next Energy=  -109.581390 (dE=-0.135E-03)
 bond charge predicted
       N       E                     dE             d eps       ncg     rms          rms(c)
DAV:   1    -0.109581470009E+03   -0.36434E-08   -0.40787E-05   630   0.196E-02    0.731E-03
DAV:   2    -0.109581469673E+03    0.33562E-06   -0.60787E-06   630   0.784E-03
  44 F= -.10958147E+03 E0= -.10958147E+03  d E =-.215263E-03
 curvature:  -0.71 expect dE=-0.184E-03 dE for cont linesearch -0.686E-05
 ZBRENT: interpolating
 opt :   0.9960  next Energy=  -109.581473 (dE=-0.219E-03)
 bond charge predicted
       N       E                     dE             d eps       ncg     rms          rms(c)
DAV:   1    -0.109581472008E+03   -0.19992E-05   -0.67298E-06   630   0.694E-03    0.462E-03
DAV:   2    -0.109581471863E+03    0.14543E-06   -0.11289E-06   630   0.314E-03
  45 F= -.10958147E+03 E0= -.10958147E+03  d E =-.217452E-03
 curvature:  -0.03 expect dE=-0.716E-05 dE for cont linesearch -0.509E-07
 trial: gam= 0.72268 g(F)=  0.218E-03 g(S)=  0.419E-04 ort = 0.285E-04 (trialstep = 0.837E+00)
 search vector abs. value=  0.530E-03
 bond charge predicted
       N       E                     dE             d eps       ncg     rms          rms(c)
DAV:   1    -0.109581621637E+03   -0.14963E-03   -0.25264E-03  1176   0.126E-01    0.329E-02
DAV:   2    -0.109581619319E+03    0.23183E-05   -0.12187E-04   714   0.316E-02
  46 F= -.10958162E+03 E0= -.10958162E+03  d E =-.147456E-03
 trial-energy change:   -0.000147  1 .order   -0.000168   -0.000235   -0.000101
 step:   1.4661(harm=  1.4661)  dis= 0.00078  next Energy=  -109.581678 (dE=-0.206E-03)
 bond charge predicted
       N       E                     dE             d eps       ncg     rms          rms(c)
DAV:   1    -0.109581637987E+03   -0.16350E-04   -0.14434E-03  1246   0.940E-02    0.263E-02
DAV:   2    -0.109581631563E+03    0.64247E-05   -0.70257E-05   630   0.246E-02
  47 F= -.10958163E+03 E0= -.10958163E+03  d E =-.159700E-03
 curvature:  -1.38 expect dE=-0.510E-03 dE for cont linesearch -0.840E-07
 trial: gam= 1.46667 g(F)=  0.294E-03 g(S)=  0.741E-04 ort =-0.567E-05 (trialstep = 0.342E+00)
 search vector abs. value=  0.149E-02
 bond charge predicted
       N       E                     dE             d eps       ncg     rms          rms(c)
DAV:   1    -0.109581712782E+03   -0.74794E-04   -0.13687E-03  1344   0.923E-02    0.297E-02
DAV:   2    -0.109581701036E+03    0.11745E-04   -0.70339E-05   756   0.244E-02
  48 F= -.10958170E+03 E0= -.10958170E+03  d E =-.694737E-04
 trial-energy change:   -0.000069  1 .order   -0.000088   -0.000123   -0.000053
 step:   0.5971(harm=  0.5971)  dis= 0.00048  next Energy=  -109.581739 (dE=-0.108E-03)
 bond charge predicted
       N       E                     dE             d eps       ncg     rms          rms(c)
DAV:   1    -0.109581730147E+03   -0.17366E-04   -0.74312E-04  1274   0.676E-02    0.224E-02
DAV:   2    -0.109581721685E+03    0.84629E-05   -0.39247E-05   672   0.183E-02
  49 F= -.10958172E+03 E0= -.10958172E+03  d E =-.901218E-04
 curvature:  -1.24 expect dE=-0.542E-03 dE for cont linesearch -0.524E-05
 trial: gam= 0.47658 g(F)=  0.409E-03 g(S)=  0.290E-04 ort = 0.795E-04 (trialstep = 0.393E+00)
 search vector abs. value=  0.853E-03
 bond charge predicted
       N       E                     dE             d eps       ncg     rms          rms(c)
DAV:   1    -0.109581820454E+03   -0.90307E-04   -0.85950E-04  1316   0.738E-02    0.260E-02
DAV:   2    -0.109581812411E+03    0.80429E-05   -0.52781E-05   616   0.208E-02
  50 F= -.10958181E+03 E0= -.10958181E+03  d E =-.907266E-04
 trial-energy change:   -0.000091  1 .order   -0.000117   -0.000187   -0.000047
 step:   0.5262(harm=  0.5262)  dis= 0.00035  next Energy=  -109.581847 (dE=-0.125E-03)
 bond charge predicted
       N       E                     dE             d eps       ncg     rms          rms(c)
DAV:   1    -0.109581815885E+03    0.45691E-05   -0.85491E-05   588   0.245E-02    0.104E-02
DAV:   2    -0.109581813989E+03    0.18962E-05   -0.16447E-05   588   0.121E-02
  51 F= -.10958181E+03 E0= -.10958181E+03  d E =-.923041E-04
 curvature:  -0.47 expect dE=-0.133E-03 dE for cont linesearch -0.239E-08
 trial: gam= 0.52244 g(F)=  0.232E-03 g(S)=  0.494E-04 ort = 0.208E-05 (trialstep = 0.420E+00)
 search vector abs. value=  0.516E-03
 bond charge predicted
       N       E                     dE             d eps       ncg     rms          rms(c)
DAV:   1    -0.109581883116E+03   -0.67231E-04   -0.67230E-04  1232   0.636E-02    0.185E-02
DAV:   2    -0.109581881720E+03    0.13959E-05   -0.33896E-05   630   0.167E-02
  52 F= -.10958188E+03 E0= -.10958188E+03  d E =-.677310E-04
 trial-energy change:   -0.000068  1 .order   -0.000065   -0.000118   -0.000012
 step:   0.4688(harm=  0.4688)  dis= 0.00033  next Energy=  -109.581880 (dE=-0.662E-04)
 bond charge predicted
       N       E                     dE             d eps       ncg     rms          rms(c)
DAV:   1    -0.109581881464E+03    0.16513E-05   -0.12182E-05   602   0.963E-03    0.559E-03
DAV:   2    -0.109581880774E+03    0.68999E-06   -0.27943E-06   588   0.507E-03
  53 F= -.10958188E+03 E0= -.10958188E+03  d E =-.667857E-04
 curvature:  -0.43 expect dE=-0.138E-03 dE for cont linesearch -0.205E-06
 trial: gam= 0.96437 g(F)=  0.305E-03 g(S)=  0.180E-04 ort = 0.157E-04 (trialstep = 0.266E+00)
 search vector abs. value=  0.833E-03
 bond charge predicted
       N       E                     dE             d eps       ncg     rms          rms(c)
DAV:   1    -0.109581928047E+03   -0.46583E-04   -0.43054E-04  1218   0.512E-02    0.155E-02
DAV:   2    -0.109581928145E+03   -0.97523E-07   -0.23164E-05   602   0.136E-02
  54 F= -.10958193E+03 E0= -.10958193E+03  d E =-.473703E-04
 trial-energy change:   -0.000047  1 .order   -0.000055   -0.000090   -0.000019
 step:   0.3398(harm=  0.3398)  dis= 0.00022  next Energy=  -109.581938 (dE=-0.574E-04)
 bond charge predicted
       N       E                     dE             d eps       ncg     rms          rms(c)
DAV:   1    -0.109581929002E+03   -0.95510E-06   -0.32986E-05   588   0.150E-02    0.530E-03
DAV:   2    -0.109581928894E+03    0.10830E-06   -0.62059E-06   588   0.753E-03
  55 F= -.10958193E+03 E0= -.10958193E+03  d E =-.481195E-04
 curvature:  -0.42 expect dE=-0.927E-04 dE for cont linesearch -0.116E-07
 trial: gam= 0.44121 g(F)=  0.191E-03 g(S)=  0.299E-04 ort =-0.481E-05 (trialstep = 0.281E+00)
 search vector abs. value=  0.379E-03
 bond charge predicted
       N       E                     dE             d eps       ncg     rms          rms(c)
DAV:   1    -0.109581961965E+03   -0.32963E-04   -0.21118E-04   812   0.372E-02    0.897E-03
DAV:   2    -0.109581963073E+03   -0.11082E-05   -0.25248E-05   630   0.146E-02
  56 F= -.10958196E+03 E0= -.10958196E+03  d E =-.341793E-04
 trial-energy change:   -0.000034  1 .order   -0.000040   -0.000062   -0.000019
 step:   0.4025(harm=  0.4025)  dis= 0.00017  next Energy=  -109.581973 (dE=-0.441E-04)
 bond charge predicted
       N       E                     dE             d eps       ncg     rms          rms(c)
DAV:   1    -0.109581971929E+03   -0.99643E-05   -0.51904E-05   602   0.189E-02    0.499E-03
DAV:   2    -0.109581972296E+03   -0.36648E-06   -0.96997E-06   588   0.934E-03
  57 F= -.10958197E+03 E0= -.10958197E+03  d E =-.434019E-04
 curvature:  -0.35 expect dE=-0.622E-04 dE for cont linesearch -0.448E-05
 ZBRENT: increasing intervall
 opt :   0.6458  next Energy=  -109.581990 (dE=-0.613E-04)
 bond charge predicted
       N       E                     dE             d eps       ncg     rms          rms(c)
DAV:   1    -0.109581981022E+03   -0.90925E-05   -0.16177E-04   686   0.333E-02    0.802E-03
DAV:   2    -0.109581982586E+03   -0.15638E-05   -0.27568E-05   616   0.155E-02
  58 F= -.10958198E+03 E0= -.10958198E+03  d E =-.536918E-04
 curvature:  -1.39 expect dE=-0.392E-03 dE for cont linesearch -0.144E-05
 trial: gam= 1.18396 g(F)=  0.266E-03 g(S)=  0.163E-04 ort =-0.198E-04 (trialstep = 0.175E+00)
 search vector abs. value=  0.767E-03
 bond charge predicted
       N       E                     dE             d eps       ncg     rms          rms(c)
DAV:   1    -0.109582009600E+03   -0.28578E-04   -0.18984E-04   798   0.350E-02    0.744E-03
DAV:   2    -0.109582010918E+03   -0.13180E-05   -0.26887E-05   658   0.153E-02
  59 F= -.10958201E+03 E0= -.10958201E+03  d E =-.283324E-04
 trial-energy change:   -0.000028  1 .order   -0.000022   -0.000045    0.000001
 step:   0.1720(harm=  0.1720)  dis= 0.00015  next Energy=  -109.582005 (dE=-0.223E-04)
 bond charge predicted
       N       E                     dE             d eps       ncg     rms          rms(c)
DAV:   1    -0.109582010979E+03   -0.13792E-05   -0.50232E-06   588   0.698E-03    0.297E-03
DAV:   2    -0.109582010927E+03    0.52113E-07   -0.11913E-06   588   0.339E-03
  60 F= -.10958201E+03 E0= -.10958201E+03  d E =-.283414E-04
 curvature:  -0.25 expect dE=-0.584E-04 dE for cont linesearch -0.404E-07
 trial: gam= 0.73713 g(F)=  0.196E-03 g(S)=  0.329E-04 ort = 0.110E-04 (trialstep = 0.174E+00)
 search vector abs. value=  0.662E-03
 bond charge predicted
       N       E                     dE             d eps       ncg     rms          rms(c)
DAV:   1    -0.109582040947E+03   -0.29968E-04   -0.13664E-04   588   0.303E-02    0.672E-03
DAV:   2    -0.109582042492E+03   -0.15446E-05   -0.23731E-05   588   0.143E-02
  61 F= -.10958204E+03 E0= -.10958204E+03  d E =-.315644E-04
 trial-energy change:   -0.000032  1 .order   -0.000034   -0.000041   -0.000026
 step:   0.4839(harm=  0.4839)  dis= 0.00031  next Energy=  -109.582068 (dE=-0.574E-04)
 bond charge predicted
       N       E                     dE             d eps       ncg     rms          rms(c)
DAV:   1    -0.109582080529E+03   -0.39582E-04   -0.57082E-04  1162   0.576E-02    0.167E-02
DAV:   2    -0.109582081105E+03   -0.57546E-06   -0.28051E-05   588   0.157E-02
  62 F= -.10958208E+03 E0= -.10958208E+03  d E =-.701777E-04
 curvature:  -0.68 expect dE=-0.161E-03 dE for cont linesearch -0.138E-05
 trial: gam= 0.81475 g(F)=  0.201E-03 g(S)=  0.371E-04 ort = 0.368E-04 (trialstep = 0.212E+00)
 search vector abs. value=  0.738E-03
 bond charge predicted
       N       E                     dE             d eps       ncg     rms          rms(c)
DAV:   1    -0.109582117370E+03   -0.36841E-04   -0.25921E-04   854   0.403E-02    0.959E-03
DAV:   2    -0.109582118344E+03   -0.97443E-06   -0.28550E-05   588   0.157E-02
  63 F= -.10958212E+03 E0= -.10958212E+03  d E =-.372397E-04
 trial-energy change:   -0.000037  1 .order   -0.000035   -0.000057   -0.000012
 step:   0.2717(harm=  0.2717)  dis= 0.00019  next Energy=  -109.582118 (dE=-0.364E-04)
 bond charge predicted
       N       E                     dE             d eps       ncg     rms          rms(c)
DAV:   1    -0.109582121674E+03   -0.43039E-05   -0.30914E-05   588   0.145E-02    0.479E-03
DAV:   2    -0.109582121855E+03   -0.18150E-06   -0.61592E-06   588   0.760E-03
  64 F= -.10958212E+03 E0= -.10958212E+03  d E =-.407507E-04
 curvature:  -0.37 expect dE=-0.656E-04 dE for cont linesearch -0.825E-06
 ZBRENT: increasing intervall
 opt :   0.3907  next Energy=  -109.582124 (dE=-0.434E-04)
 bond charge predicted
       N       E                     dE             d eps       ncg     rms          rms(c)
DAV:   1    -0.109582123915E+03   -0.22406E-05   -0.82578E-05   588   0.234E-02    0.513E-03
DAV:   2    -0.109582124876E+03   -0.96189E-06   -0.14577E-05   588   0.114E-02
  65 F= -.10958212E+03 E0= -.10958212E+03  d E =-.437716E-04
 curvature:  -1.18 expect dE=-0.301E-03 dE for cont linesearch -0.672E-06
 trial: gam= 1.27341 g(F)=  0.237E-03 g(S)=  0.172E-04 ort =-0.204E-04 (trialstep = 0.131E+00)
 search vector abs. value=  0.140E-02
 bond charge predicted
       N       E                     dE             d eps       ncg     rms          rms(c)
DAV:   1    -0.109582150748E+03   -0.26834E-04   -0.21693E-04   742   0.365E-02    0.749E-03
DAV:   2    -0.109582152335E+03   -0.15867E-05   -0.26219E-05   588   0.150E-02
  66 F= -.10958215E+03 E0= -.10958215E+03  d E =-.274588E-04
 trial-energy change:   -0.000027  1 .order   -0.000025   -0.000030   -0.000021
 step:   0.4192(harm=  0.4192)  dis= 0.00042  next Energy=  -109.582173 (dE=-0.478E-04)
 bond charge predicted
       N       E                     dE             d eps       ncg     rms          rms(c)
DAV:   1    -0.109582183785E+03   -0.33037E-04   -0.10456E-03  1232   0.778E-02    0.216E-02
DAV:   2    -0.109582184665E+03   -0.87960E-06   -0.51907E-05   588   0.212E-02
  67 F= -.10958218E+03 E0= -.10958218E+03  d E =-.597883E-04
 curvature:  -1.29 expect dE=-0.214E-03 dE for cont linesearch -0.779E-05
 ZBRENT: increasing intervall
 opt :   0.9960  next Energy=  -109.582200 (dE=-0.755E-04)
 bond charge predicted
       N       E                     dE             d eps       ncg     rms          rms(c)
DAV:   1    -0.109582194866E+03   -0.11081E-04   -0.38746E-03  1176   0.151E-01    0.390E-02
DAV:   2    -0.109582198193E+03   -0.33273E-05   -0.20798E-04   966   0.411E-02
  68 F= -.10958220E+03 E0= -.10958220E+03  d E =-.733165E-04
 curvature:  -2.59 expect dE=-0.134E-02 dE for cont linesearch -0.412E-05
 ZBRENT: bracketing found
 ZBRENT: interpolating
 opt :   0.8008  next Energy=  -109.582203 (dE=-0.779E-04)
 bond charge predicted
       N       E                     dE             d eps       ncg     rms          rms(c)
DAV:   1    -0.109582196103E+03   -0.12369E-05   -0.46637E-04  1204   0.554E-02    0.222E-02
DAV:   2    -0.109582196621E+03   -0.51804E-06   -0.30643E-05   588   0.151E-02
  69 F= -.10958220E+03 E0= -.10958220E+03  d E =-.717442E-04
 curvature:  -2.90 expect dE=-0.915E-03 dE for cont linesearch -0.182E-05
 trial: gam= 1.45006 g(F)=  0.290E-03 g(S)=  0.258E-04 ort = 0.296E-04 (trialstep = 0.111E+00)
 search vector abs. value=  0.334E-02
 bond charge predicted
       N       E                     dE             d eps       ncg     rms          rms(c)
DAV:   1    -0.109582233325E+03   -0.37222E-04   -0.33016E-04  1036   0.453E-02    0.910E-03
DAV:   2    -0.109582233788E+03   -0.46315E-06   -0.21478E-05   588   0.135E-02
  70 F= -.10958223E+03 E0= -.10958223E+03  d E =-.371675E-04
 ZBRENT: can't locate minimum, use default step
 trial-energy change:   -0.000037  1 .order   -0.000035   -0.000040   -0.000031
 step:   0.4431(harm=  0.4784)  dis= 0.00075  next Energy=  -109.582282 (dE=-0.858E-04)
 bond charge predicted
       N       E                     dE             d eps       ncg     rms          rms(c)
DAV:   1    -0.109582293065E+03   -0.59740E-04   -0.32791E-03  1176   0.138E-01    0.358E-02
DAV:   2    -0.109582296990E+03   -0.39247E-05   -0.17109E-04   700   0.374E-02
  71 F= -.10958230E+03 E0= -.10958230E+03  d E =-.100369E-03
 curvature:  -2.21 expect dE=-0.582E-03 dE for cont linesearch -0.837E-05
 ZBRENT: increasing intervall
 opt :   1.1078  next Energy=  -109.582263 (dE=-0.668E-04)
 bond charge predicted
       N       E                     dE             d eps       ncg     rms          rms(c)
DAV:   1    -0.109582394038E+03   -0.10097E-03   -0.12872E-02  1176   0.273E-01    0.675E-02
DAV:   2    -0.109582412796E+03   -0.18758E-04   -0.76534E-04  1428   0.738E-02
  72 F= -.10958241E+03 E0= -.10958241E+03  d E =-.216176E-03
 curvature:   8.86 expect dE= 0.323E-02 dE for cont linesearch  0.672E-04
 ZBRENT: increasing intervall
 opt :   2.4372  next Energy=  -109.582686 (dE=-0.490E-03)
 bond charge predicted
       N       E                     dE             d eps       ncg     rms          rms(c)
DAV:   1    -0.109582545364E+03   -0.15133E-03   -0.51027E-02  1176   0.546E-01    0.131E-01
DAV:   2    -0.109582595632E+03   -0.50267E-04   -0.30073E-03  1428   0.147E-01    0.849E-02
DAV:   3    -0.109582542152E+03    0.53480E-04   -0.12215E-04   840   0.331E-02
  73 F= -.10958254E+03 E0= -.10958254E+03  d E =-.345531E-03
 curvature: -36.08 expect dE=-0.234E-01 dE for cont linesearch -0.208E-03
 ZBRENT: increasing intervall
 opt :   5.0961  next Energy=  -109.582858 (dE=-0.661E-03)
 bond charge predicted
       N       E                     dE             d eps       ncg     rms          rms(c)
DAV:   1    -0.109581393374E+03    0.12023E-02   -0.20070E-01  1176   0.108E+00    0.270E-01
DAV:   2    -0.109581715814E+03   -0.32244E-03   -0.11977E-02  1428   0.290E-01    0.153E-01
DAV:   3    -0.109581557858E+03    0.15796E-03   -0.58863E-04  1428   0.665E-02    0.100E-01
DAV:   4    -0.109581449076E+03    0.10878E-03   -0.86579E-05   840   0.290E-02    0.589E-02
DAV:   5    -0.109581398063E+03    0.51013E-04   -0.14842E-04   854   0.352E-02
  74 F= -.10958140E+03 E0= -.10958140E+03  d E =0.798557E-03
 curvature: -54.62 expect dE=-0.513E-01 dE for cont linesearch -0.229E-02
 ZBRENT: bracketing found
 ZBRENT: interpolating
 opt :   3.1569  next Energy=  -109.582592 (dE=-0.396E-03)
 bond charge predicted
       N       E                     dE             d eps       ncg     rms          rms(c)
DAV:   1    -0.109582188109E+03   -0.73903E-03   -0.10903E-01  1176   0.798E-01    0.201E-01
DAV:   2    -0.109582455098E+03   -0.26699E-03   -0.66590E-03  1428   0.216E-01    0.109E-01
DAV:   3    -0.109582379251E+03    0.75847E-04   -0.25082E-04   980   0.464E-02
  75 F= -.10958238E+03 E0= -.10958238E+03  d E =-.182631E-03
 curvature:  -1.19 expect dE=-0.134E-02 dE for cont linesearch -0.104E-03
 ZBRENT: interpolating
 opt :   2.5845  next Energy=  -109.582552 (dE=-0.356E-03)
 bond charge predicted
       N       E                     dE             d eps       ncg     rms          rms(c)
DAV:   1    -0.109582550467E+03   -0.95369E-04   -0.88066E-03  1176   0.227E-01    0.543E-02
DAV:   2    -0.109582515044E+03    0.35424E-04   -0.44260E-04  1414   0.582E-02
  76 F= -.10958252E+03 E0= -.10958252E+03  d E =-.318423E-03
 curvature:  -0.12 expect dE=-0.102E-03 dE for cont linesearch -0.102E-05
 ZBRENT: interpolating
 opt :   2.5034  next Energy=  -109.582547 (dE=-0.350E-03)
 bond charge predicted
       N       E                     dE             d eps       ncg     rms          rms(c)
DAV:   1    -0.109582504376E+03    0.46091E-04   -0.19135E-04   742   0.351E-02    0.303E-02
DAV:   2    -0.109582492367E+03    0.12010E-04   -0.25991E-05   588   0.160E-02
  77 F= -.10958249E+03 E0= -.10958249E+03  d E =-.295746E-03
 curvature:  -0.53 expect dE=-0.378E-03 dE for cont linesearch -0.814E-07
 trial: gam= 2.61078 g(F)=  0.587E-03 g(S)=  0.126E-03 ort =-0.226E-04 (trialstep = 0.843E-01)
 search vector abs. value=  0.234E-01
 bond charge predicted
       N       E                     dE             d eps       ncg     rms          rms(c)
DAV:   1    -0.109582530106E+03   -0.25730E-04   -0.15545E-03  1176   0.962E-02    0.256E-02
DAV:   2    -0.109582535442E+03   -0.53362E-05   -0.90753E-05   588   0.268E-02
  78 F= -.10958254E+03 E0= -.10958254E+03  d E =-.430755E-04
 trial-energy change:   -0.000043  1 .order   -0.000041   -0.000055   -0.000027
 step:   0.1628(harm=  0.1628)  dis= 0.00072  next Energy=  -109.582546 (dE=-0.532E-04)
 bond charge predicted
       N       E                     dE             d eps       ncg     rms          rms(c)
DAV:   1    -0.109582519390E+03    0.10716E-04   -0.12953E-03  1204   0.855E-02    0.201E-02
DAV:   2    -0.109582520442E+03   -0.10522E-05   -0.61999E-05   588   0.229E-02
  79 F= -.10958252E+03 E0= -.10958252E+03  d E =-.280752E-04
 curvature:  -2.91 expect dE=-0.223E-02 dE for cont linesearch -0.217E-04
 ZBRENT: interpolating
 opt :   0.1180  next Energy=  -109.582541 (dE=-0.484E-04)
 bond charge predicted
       N       E                     dE             d eps       ncg     rms          rms(c)
DAV:   1    -0.109582536456E+03   -0.17066E-04   -0.42062E-04  1162   0.509E-02    0.191E-02
DAV:   2    -0.109582537452E+03   -0.99580E-06   -0.24761E-05   588   0.138E-02
  80 F= -.10958254E+03 E0= -.10958254E+03  d E =-.450853E-04
 curvature:  -0.71 expect dE=-0.499E-03 dE for cont linesearch -0.547E-06
 trial: gam= 0.09538 g(F)=  0.588E-03 g(S)=  0.112E-03 ort = 0.134E-03 (trialstep = 0.910E-01)
 search vector abs. value=  0.938E-03
 bond charge predicted
       N       E                     dE             d eps       ncg     rms          rms(c)
DAV:   1    -0.109582596103E+03   -0.59647E-04   -0.38029E-05   588   0.176E-02    0.516E-03
DAV:   2    -0.109582596181E+03   -0.78148E-07   -0.54676E-06   588   0.684E-03
  81 F= -.10958260E+03 E0= -.10958260E+03  d E =-.587294E-04
 trial-energy change:   -0.000059  1 .order   -0.000053   -0.000065   -0.000040
 step:   0.2393(harm=  0.2393)  dis= 0.00021  next Energy=  -109.582623 (dE=-0.853E-04)
 bond charge predicted
       N       E                     dE             d eps       ncg     rms          rms(c)
DAV:   1    -0.109582661788E+03   -0.65684E-04   -0.11357E-04   588   0.287E-02    0.724E-03
DAV:   2    -0.109582662542E+03   -0.75392E-06   -0.20485E-05   588   0.133E-02
  82 F= -.10958266E+03 E0= -.10958266E+03  d E =-.125089E-03
 curvature:  -0.16 expect dE=-0.891E-04 dE for cont linesearch -0.330E-04
 ZBRENT: increasing intervall
 opt :   0.5358  next Energy=  -109.582795 (dE=-0.257E-03)
 bond charge predicted
       N       E                     dE             d eps       ncg     rms          rms(c)
DAV:   1    -0.109582740517E+03   -0.78729E-04   -0.51116E-04  1218   0.571E-02    0.189E-02
DAV:   2    -0.109582738463E+03    0.20543E-05   -0.31236E-05   588   0.162E-02
  83 F= -.10958274E+03 E0= -.10958274E+03  d E =-.201011E-03
 curvature:  -0.63 expect dE=-0.470E-03 dE for cont linesearch -0.685E-06
 trial: gam= 0.92700 g(F)=  0.667E-03 g(S)=  0.793E-04 ort = 0.319E-04 (trialstep = 0.105E+00)
 search vector abs. value=  0.161E-02
 bond charge predicted
       N       E                     dE             d eps       ncg     rms          rms(c)
DAV:   1    -0.109582814330E+03   -0.73813E-04   -0.86361E-05   588   0.248E-02    0.788E-03
DAV:   2    -0.109582815408E+03   -0.10782E-05   -0.16883E-05   588   0.120E-02
  84 F= -.10958282E+03 E0= -.10958282E+03  d E =-.769456E-04
 ZBRENT: can't locate minimum, use default step
 trial-energy change:   -0.000077  1 .order   -0.000075   -0.000081   -0.000069
 step:   0.4191(harm=  0.6947)  dis= 0.00054  next Energy=  -109.583008 (dE=-0.269E-03)
 bond charge predicted
       N       E                     dE             d eps       ncg     rms          rms(c)
DAV:   1    -0.109582949630E+03   -0.13530E-03   -0.90270E-04  1274   0.761E-02    0.259E-02
DAV:   2    -0.109582948723E+03    0.90680E-06   -0.55915E-05   602   0.212E-02
  85 F= -.10958295E+03 E0= -.10958295E+03  d E =-.210261E-03
 curvature:  -0.56 expect dE=-0.209E-03 dE for cont linesearch -0.314E-04
 ZBRENT: increasing intervall
 opt :   1.0478  next Energy=  -109.582911 (dE=-0.173E-03)
 bond charge predicted
       N       E                     dE             d eps       ncg     rms          rms(c)
DAV:   1    -0.109582994286E+03   -0.44656E-04   -0.33555E-03  1176   0.147E-01    0.501E-02
DAV:   2    -0.109582989901E+03    0.43848E-05   -0.23650E-04  1134   0.417E-02
  86 F= -.10958299E+03 E0= -.10958299E+03  d E =-.251439E-03
 curvature:   0.68 expect dE= 0.292E-03 dE for cont linesearch  0.551E-07
 trial: gam= 0.57717 g(F)=  0.340E-03 g(S)=  0.909E-04 ort =-0.115E-04 (trialstep = 0.293E+00)
 search vector abs. value=  0.954E-03
 bond charge predicted
       N       E                     dE             d eps       ncg     rms          rms(c)
DAV:   1    -0.109583108511E+03   -0.11423E-03   -0.49855E-04  1190   0.554E-02    0.186E-02
DAV:   2    -0.109583107177E+03    0.13340E-05   -0.27525E-05   588   0.158E-02
  87 F= -.10958311E+03 E0= -.10958311E+03  d E =-.117276E-03
 trial-energy change:   -0.000117  1 .order   -0.000099   -0.000124   -0.000074
 step:   0.7233(harm=  0.7233)  dis= 0.00099  next Energy=  -109.583143 (dE=-0.153E-03)
 bond charge predicted
       N       E                     dE             d eps       ncg     rms          rms(c)
DAV:   1    -0.109583166526E+03   -0.58015E-04   -0.97825E-04  1246   0.784E-02    0.221E-02
DAV:   2    -0.109583166102E+03    0.42362E-06   -0.56833E-05   672   0.213E-02
  88 F= -.10958317E+03 E0= -.10958317E+03  d E =-.176201E-03
 curvature:  -0.81 expect dE=-0.379E-03 dE for cont linesearch -0.537E-05
 trial: gam= 0.51079 g(F)=  0.318E-03 g(S)=  0.147E-03 ort = 0.794E-04 (trialstep = 0.379E+00)
 search vector abs. value=  0.796E-03
 bond charge predicted
       N       E                     dE             d eps       ncg     rms          rms(c)
DAV:   1    -0.109583299138E+03   -0.13261E-03   -0.84421E-04  1316   0.746E-02    0.290E-02
DAV:   2    -0.109583289470E+03    0.96680E-05   -0.52144E-05   588   0.208E-02
  89 F= -.10958329E+03 E0= -.10958329E+03  d E =-.123368E-03
 trial-energy change:   -0.000123  1 .order   -0.000142   -0.000192   -0.000091
 step:   0.7232(harm=  0.7232)  dis= 0.00060  next Energy=  -109.583349 (dE=-0.183E-03)
 bond charge predicted
       N       E                     dE             d eps       ncg     rms          rms(c)
DAV:   1    -0.109583335773E+03   -0.36635E-04   -0.63450E-04  1204   0.646E-02    0.243E-02
DAV:   2    -0.109583326061E+03    0.97116E-05   -0.42955E-05   658   0.190E-02
  90 F= -.10958333E+03 E0= -.10958333E+03  d E =-.159959E-03
 curvature:  -0.57 expect dE=-0.218E-03 dE for cont linesearch -0.125E-05
 trial: gam= 0.77833 g(F)=  0.333E-03 g(S)=  0.515E-04 ort =-0.418E-04 (trialstep = 0.445E+00)
 search vector abs. value=  0.801E-03
 bond charge predicted
       N       E                     dE             d eps       ncg     rms          rms(c)
DAV:   1    -0.109583432018E+03   -0.96246E-04   -0.14529E-03  1330   0.968E-02    0.390E-02
DAV:   2    -0.109583415234E+03    0.16784E-04   -0.94735E-05   756   0.280E-02
  91 F= -.10958342E+03 E0= -.10958342E+03  d E =-.891733E-04
 trial-energy change:   -0.000089  1 .order   -0.000120   -0.000156   -0.000085
 step:   0.9685(harm=  0.9685)  dis= 0.00048  next Energy=  -109.583496 (dE=-0.170E-03)
 bond charge predicted
       N       E                     dE             d eps       ncg     rms          rms(c)
DAV:   1    -0.109583460262E+03   -0.28244E-04   -0.19910E-03  1316   0.113E-01    0.461E-02
DAV:   2    -0.109583434543E+03    0.25719E-04   -0.12996E-04   798   0.329E-02
  92 F= -.10958343E+03 E0= -.10958343E+03  d E =-.108482E-03
 curvature:  -1.10 expect dE=-0.411E-03 dE for cont linesearch -0.151E-05
 trial: gam= 0.52429 g(F)=  0.348E-03 g(S)=  0.248E-04 ort = 0.331E-04 (trialstep = 0.550E+00)
 search vector abs. value=  0.627E-03
 bond charge predicted
       N       E                     dE             d eps       ncg     rms          rms(c)
DAV:   1    -0.109583551662E+03   -0.91399E-04   -0.11370E-03  1358   0.838E-02    0.300E-02
DAV:   2    -0.109583542145E+03    0.95170E-05   -0.75430E-05   840   0.253E-02
  93 F= -.10958354E+03 E0= -.10958354E+03  d E =-.107601E-03
 trial-energy change:   -0.000108  1 .order   -0.000093   -0.000214    0.000028
 step:   0.4854(harm=  0.4854)  dis= 0.00039  next Energy=  -109.583529 (dE=-0.947E-04)
 bond charge predicted
       N       E                     dE             d eps       ncg     rms          rms(c)
DAV:   1    -0.109583539481E+03    0.12181E-04   -0.33990E-05   784   0.175E-02    0.967E-03
DAV:   2    -0.109583537965E+03    0.15160E-05   -0.66991E-06   658   0.769E-03
  94 F= -.10958354E+03 E0= -.10958354E+03  d E =-.103422E-03
 curvature:  -0.39 expect dE=-0.146E-03 dE for cont linesearch -0.748E-09
 trial: gam= 0.73686 g(F)=  0.298E-03 g(S)=  0.751E-04 ort = 0.110E-05 (trialstep = 0.471E+00)
 search vector abs. value=  0.715E-03
 bond charge predicted
       N       E                     dE             d eps       ncg     rms          rms(c)
DAV:   1    -0.109583556373E+03   -0.16892E-04   -0.90425E-04  1176   0.751E-02    0.206E-02
DAV:   2    -0.109583559194E+03   -0.28206E-05   -0.58399E-05   630   0.214E-02
  95 F= -.10958356E+03 E0= -.10958356E+03  d E =-.212287E-04
 trial-energy change:   -0.000021  1 .order   -0.000048   -0.000176    0.000081
 step:   0.3228(harm=  0.3228)  dis= 0.00023  next Energy=  -109.583598 (dE=-0.603E-04)
 bond charge predicted
       N       E                     dE             d eps       ncg     rms          rms(c)
DAV:   1    -0.109583572670E+03   -0.16297E-04   -0.88180E-05   630   0.262E-02    0.598E-03
DAV:   2    -0.109583573360E+03   -0.68952E-06   -0.15064E-05   630   0.109E-02
  96 F= -.10958357E+03 E0= -.10958357E+03  d E =-.353951E-04
 curvature:  -0.31 expect dE=-0.114E-03 dE for cont linesearch -0.141E-05
 trial: gam= 1.00125 g(F)=  0.356E-03 g(S)=  0.129E-04 ort =-0.571E-04 (trialstep = 0.325E+00)
 search vector abs. value=  0.971E-03
 bond charge predicted
       N       E                     dE             d eps       ncg     rms          rms(c)
DAV:   1    -0.109583587450E+03   -0.14780E-04   -0.66364E-04  1120   0.643E-02    0.155E-02
DAV:   2    -0.109583589788E+03   -0.23380E-05   -0.44179E-05   630   0.186E-02
  97 F= -.10958359E+03 E0= -.10958359E+03  d E =-.164282E-04
 trial-energy change:   -0.000016  1 .order   -0.000043   -0.000101    0.000016
 step:   0.2810(harm=  0.2810)  dis= 0.00024  next Energy=  -109.583617 (dE=-0.437E-04)
 bond charge predicted
       N       E                     dE             d eps       ncg     rms          rms(c)
DAV:   1    -0.109583591607E+03   -0.41564E-05   -0.17148E-05   630   0.125E-02    0.420E-03
DAV:   2    -0.109583591596E+03    0.10225E-07   -0.26500E-06   588   0.482E-03
  98 F= -.10958359E+03 E0= -.10958359E+03  d E =-.182364E-04
 curvature:  -0.44 expect dE=-0.138E-03 dE for cont linesearch -0.599E-06
 trial: gam= 0.55327 g(F)=  0.270E-03 g(S)=  0.442E-04 ort =-0.364E-04 (trialstep = 0.316E+00)
 search vector abs. value=  0.571E-03
 bond charge predicted
       N       E                     dE             d eps       ncg     rms          rms(c)
DAV:   1    -0.109583669353E+03   -0.77746E-04   -0.41339E-04  1008   0.506E-02    0.124E-02
DAV:   2    -0.109583670319E+03   -0.96620E-06   -0.28824E-05   588   0.157E-02
  99 F= -.10958367E+03 E0= -.10958367E+03  d E =-.787228E-04
 trial-energy change:   -0.000079  1 .order   -0.000081   -0.000093   -0.000070
 step:   1.2589(harm=  1.2589)  dis= 0.00060  next Energy=  -109.583776 (dE=-0.185E-03)
