CIS                                     
           1
    -7.606866    0.003230   -0.201341
     2.158684    9.378146   -0.042323
    -0.755385   -1.929386  -11.325415
   K    Sb   S 
   4   8  14
Direct configuration=     1
   0.27971191  0.33470695  0.11344170
   0.42133288  0.73651211  0.56505284
   0.57866712  0.26348789  0.43494716
   0.72028809  0.66529305  0.88655830
   0.02949092  0.94872676  0.34036999
   0.15647921  0.43834725  0.81443349
   0.73179071  0.13246322  0.04634606
   0.50389533  0.19299390  0.76651401
   0.26820929  0.86753678  0.95365394
   0.97050908  0.05127324  0.65963001
   0.84352079  0.56165275  0.18556651
   0.49610467  0.80700610  0.23348599
   0.80738821  0.86683700  0.14848110
   0.65065409  0.33120387  0.95164084
   0.45508313  0.43734144  0.70787551
   0.23432147  0.01386768  0.52925832
   0.03319216  0.69198000  0.35260723
   0.34934591  0.66879613  0.04835916
   0.44389662  0.06775597  0.15976174
   0.96680784  0.30802000  0.64739277
   0.55610338  0.93224403  0.84023826
   0.87735440  0.32022812  0.22434690
   0.12264560  0.67977188  0.77565310
   0.76567853  0.98613232  0.47074168
   0.54491687  0.56265856  0.29212449
   0.19261179  0.13316300  0.85151890
CIS                                     
           1
    -7.605208    0.003990   -0.201844
     2.157306    9.376934   -0.043573
    -0.755834   -1.927402  -11.323214
   K    Sb   S 
   4   8  14
Direct configuration=     2
   0.27972596  0.33471386  0.11343673
   0.42132543  0.73651402  0.56505768
   0.57867457  0.26348598  0.43494232
   0.72027404  0.66528614  0.88656327
   0.02940902  0.94862348  0.34043958
   0.15652878  0.43845702  0.81442548
   0.73158574  0.13247441  0.04644675
   0.50394317  0.19295226  0.76663822
   0.26841426  0.86752559  0.95355325
   0.97059098  0.05137652  0.65956042
   0.84347122  0.56154298  0.18557452
   0.49605683  0.80704774  0.23336178
   0.80736034  0.86682705  0.14846812
   0.65065751  0.33118985  0.95164518
   0.45504431  0.43734752  0.70789082
   0.23431976  0.01389547  0.52923699
   0.03320169  0.69199582  0.35258746
   0.34934249  0.66881015  0.04835482
   0.44390844  0.06776754  0.15974098
   0.96679831  0.30800418  0.64741254
   0.55609156  0.93223246  0.84025902
   0.87741018  0.32021612  0.22435396
   0.12258982  0.67978388  0.77564604
   0.76568024  0.98610453  0.47076301
   0.54495569  0.56265248  0.29210918
   0.19263966  0.13317295  0.85153188
CIS                                     
           1
    -7.600235    0.006270   -0.203353
     2.153174    9.373298   -0.047324
    -0.757181   -1.921452  -11.316613
   K    Sb   S 
   4   8  14
Direct configuration=     3
   0.27976813  0.33473456  0.11342180
   0.42130307  0.73651974  0.56507220
   0.57869693  0.26348026  0.43492780
   0.72023187  0.66526544  0.88657820
   0.02916327  0.94831360  0.34064846
   0.15667749  0.43878638  0.81440143
   0.73097069  0.13250798  0.04674889
   0.50408670  0.19282727  0.76701092
   0.26902931  0.86749202  0.95325111
   0.97083673  0.05168640  0.65935154
   0.84332251  0.56121362  0.18559857
   0.49591330  0.80717273  0.23298908
   0.80727671  0.86679719  0.14842918
   0.65066777  0.33114776  0.95165819
   0.45492784  0.43736577  0.70793677
   0.23431461  0.01397886  0.52917298
   0.03323031  0.69204329  0.35252812
   0.34933223  0.66885224  0.04834181
   0.44394393  0.06780227  0.15967870
   0.96676969  0.30795671  0.64747188
   0.55605607  0.93219773  0.84032130
   0.87757755  0.32018008  0.22437513
   0.12242245  0.67981992  0.77562487
   0.76568539  0.98602114  0.47082702
   0.54507216  0.56263423  0.29206323
   0.19272329  0.13320281  0.85157082
CIS                                     
           1
    -7.590289    0.010830   -0.206371
     2.144908    9.366026   -0.054825
    -0.759875   -1.909551  -11.303410
   K    Sb   S 
   4   8  14
Direct configuration=     4
   0.27985250  0.33477599  0.11339189
   0.42125831  0.73653119  0.56510126
   0.57874169  0.26346881  0.43489874
   0.72014750  0.66522401  0.88660811
   0.02867157  0.94769357  0.34106673
   0.15697483  0.43944524  0.81435303
   0.72973961  0.13257516  0.04735369
   0.50437375  0.19257675  0.76775681
   0.27026039  0.86742484  0.95264631
   0.97132843  0.05230643  0.65893327
   0.84302517  0.56055476  0.18564697
   0.49562625  0.80742325  0.23224319
   0.80710942  0.86673753  0.14835130
   0.65068832  0.33106354  0.95168425
   0.45469469  0.43740231  0.70802873
   0.23430430  0.01414576  0.52904483
   0.03328757  0.69213832  0.35240934
   0.34931168  0.66893646  0.04831575
   0.44401496  0.06787181  0.15955404
   0.96671243  0.30786168  0.64759066
   0.55598504  0.93212819  0.84044596
   0.87791251  0.32010787  0.22441746
   0.12208749  0.67989213  0.77558254
   0.76569570  0.98585424  0.47095517
   0.54530531  0.56259769  0.29197127
   0.19289058  0.13326247  0.85164870
CIS                                     
           1
    -7.597788    0.007392   -0.204096
     2.151140    9.371508   -0.049170
    -0.757844   -1.918524  -11.313364
   K    Sb   S 
   4   8  14
Direct configuration=     5
   0.27978882  0.33474475  0.11341451
   0.42129212  0.73652256  0.56507932
   0.57870788  0.26347744  0.43492068
   0.72021118  0.66525525  0.88658549
   0.02904256  0.94816145  0.34075060
   0.15675078  0.43894826  0.81438995
   0.73066926  0.13252444  0.04689694
   0.50415735  0.19276645  0.76719373
   0.26933074  0.86747556  0.95310306
   0.97095744  0.05183855  0.65924940
   0.84324922  0.56105174  0.18561005
   0.49584265  0.80723355  0.23280627
   0.80723562  0.86678241  0.14841003
   0.65067277  0.33112711  0.95166454
   0.45487075  0.43737472  0.70795928
   0.23431212  0.01401975  0.52914164
   0.03324434  0.69206656  0.35249906
   0.34932723  0.66887289  0.04833546
   0.44396131  0.06781928  0.15964819
   0.96675566  0.30793344  0.64750094
   0.55603869  0.93218072  0.84035181
   0.87765966  0.32016252  0.22438554
   0.12234034  0.67983748  0.77561446
   0.76568788  0.98598025  0.47085836
   0.54512925  0.56262528  0.29204072
   0.19276438  0.13321759  0.85158997
CIS                                     
           1
    -7.599075    0.006802   -0.203705
     2.152209    9.372449   -0.048199
    -0.757495   -1.920063  -11.315072
   K    Sb   S 
   4   8  14
Direct configuration=     6
   0.27977790  0.33473939  0.11341838
   0.42129791  0.73652107  0.56507556
   0.57870209  0.26347893  0.43492444
   0.72022210  0.66526061  0.88658162
   0.02910619  0.94824169  0.34069645
   0.15671232  0.43886301  0.81439623
   0.73082859  0.13251574  0.04681866
   0.50412021  0.19279889  0.76709720
   0.26917141  0.86748426  0.95318134
   0.97089381  0.05175831  0.65930355
   0.84328768  0.56113699  0.18560377
   0.49587979  0.80720111  0.23290280
   0.80725726  0.86679012  0.14842010
   0.65067011  0.33113801  0.95166117
   0.45490093  0.43736999  0.70794738
   0.23431345  0.01399814  0.52915823
   0.03323693  0.69205426  0.35251444
   0.34932989  0.66886199  0.04833883
   0.44395212  0.06781028  0.15966432
   0.96676307  0.30794574  0.64748556
   0.55604788  0.93218972  0.84033568
   0.87761631  0.32017187  0.22438007
   0.12238369  0.67982813  0.77561993
   0.76568655  0.98600186  0.47084177
   0.54509907  0.56263001  0.29205262
   0.19274274  0.13320988  0.85157990
CIS                                     
           1
    -7.599924    0.008549   -0.203247
     2.150331    9.372896   -0.049410
    -0.756466   -1.918776  -11.314686
   K    Sb   S 
   4   8  14
Direct configuration=     7
   0.27980733  0.33475911  0.11340601
   0.42128351  0.73652175  0.56507942
   0.57871649  0.26347825  0.43492058
   0.72019267  0.66524089  0.88659399
   0.02902448  0.94818507  0.34082416
   0.15678601  0.43917168  0.81443201
   0.73076925  0.13269167  0.04690806
   0.50432130  0.19270779  0.76719813
   0.26923075  0.86730833  0.95309194
   0.97097552  0.05181493  0.65917584
   0.84321399  0.56082832  0.18556799
   0.49567870  0.80729221  0.23280187
   0.80723401  0.86677669  0.14837064
   0.65069510  0.33116790  0.95169259
   0.45487057  0.43739076  0.70794924
   0.23438818  0.01404770  0.52907253
   0.03325314  0.69200181  0.35248345
   0.34930490  0.66883210  0.04830741
   0.44382722  0.06782943  0.15967345
   0.96674686  0.30799819  0.64751655
   0.55617278  0.93217057  0.84032655
   0.87774537  0.32008887  0.22442552
   0.12225463  0.67991113  0.77557448
   0.76561182  0.98595230  0.47092747
   0.54512943  0.56260924  0.29205076
   0.19276599  0.13322331  0.85162936
CIS                                     
           1
    -7.602470    0.013789   -0.201875
     2.144697    9.374238   -0.053040
    -0.753380   -1.914915  -11.313528
   K    Sb   S 
   4   8  14
Direct configuration=     8
   0.27989559  0.33481824  0.11336889
   0.42124031  0.73652378  0.56509100
   0.57875969  0.26347622  0.43490900
   0.72010441  0.66518176  0.88663111
   0.02877948  0.94801523  0.34120732
   0.15700682  0.44009755  0.81453927
   0.73059114  0.13321943  0.04717621
   0.50492455  0.19243436  0.76750098
   0.26940886  0.86678057  0.95282379
   0.97122052  0.05198477  0.65879268
   0.84299318  0.55990245  0.18546073
   0.49507545  0.80756564  0.23249902
   0.80716424  0.86673644  0.14822227
   0.65077006  0.33125755  0.95178687
   0.45477952  0.43745307  0.70795480
   0.23461224  0.01419633  0.52881540
   0.03330180  0.69184446  0.35239049
   0.34922994  0.66874245  0.04821313
   0.44345256  0.06788692  0.15970083
   0.96669820  0.30815554  0.64760951
   0.55654744  0.93211308  0.84029917
   0.87813257  0.31983980  0.22456191
   0.12186743  0.68016020  0.77543809
   0.76538776  0.98580367  0.47118460
   0.54522048  0.56254693  0.29204520
   0.19283576  0.13326356  0.85177773
CIS                                     
           1
    -7.607563    0.024268   -0.199129
     2.133429    9.376921   -0.060302
    -0.747207   -1.907192  -11.311211
   K    Sb   S 
   4   8  14
Direct configuration=     9
   0.28007191  0.33493642  0.11329462
   0.42115396  0.73652788  0.56511414
   0.57884604  0.26347212  0.43488586
   0.71992809  0.66506358  0.88670538
   0.02829019  0.94767557  0.34197376
   0.15744686  0.44194861  0.81475329
   0.73023443  0.13427471  0.04771218
   0.50613106  0.19188673  0.76810708
   0.26976557  0.86572529  0.95228782
   0.97170981  0.05232443  0.65802624
   0.84255314  0.55805139  0.18524671
   0.49386894  0.80811327  0.23189292
   0.80702477  0.86665614  0.14792550
   0.65091983  0.33143665  0.95197539
   0.45459741  0.43757776  0.70796587
   0.23505978  0.01449351  0.52830106
   0.03339927  0.69152986  0.35220466
   0.34908017  0.66856335  0.04802461
   0.44270354  0.06800226  0.15975545
   0.96660073  0.30847014  0.64779534
   0.55729646  0.93199774  0.84024455
   0.87890704  0.31934124  0.22483499
   0.12109296  0.68065876  0.77516501
   0.76494022  0.98550649  0.47169894
   0.54540259  0.56242224  0.29203413
   0.19297523  0.13334386  0.85207450
CIS                                     
           1
    -7.603662    0.016242   -0.201232
     2.142060    9.374866   -0.054740
    -0.751935   -1.913107  -11.312986
   K    Sb   S 
   4   8  14
Direct configuration=    10
   0.27993717  0.33484604  0.11335153
   0.42122003  0.73652468  0.56509643
   0.57877997  0.26347532  0.43490357
   0.72006283  0.66515396  0.88664847
   0.02866384  0.94793568  0.34138654
   0.15711224  0.44053189  0.81459011
   0.73050838  0.13346680  0.04730215
   0.50520697  0.19230735  0.76764226
   0.26949162  0.86653320  0.95269785
   0.97133616  0.05206432  0.65861346
   0.84288776  0.55946811  0.18540989
   0.49479303  0.80769265  0.23235774
   0.80713153  0.86671733  0.14815284
   0.65080536  0.33129976  0.95183102
   0.45473689  0.43748215  0.70795748
   0.23471791  0.01426604  0.52869514
   0.03332440  0.69177069  0.35234685
   0.34919464  0.66870024  0.04816898
   0.44327678  0.06791338  0.15971381
   0.96667560  0.30822931  0.64765315
   0.55672322  0.93208662  0.84028619
   0.87831373  0.31972374  0.22462540
   0.12168627  0.68027626  0.77537460
   0.76528209  0.98573396  0.47130486
   0.54526311  0.56251785  0.29204252
   0.19286847  0.13328267  0.85184716
CIS                                     
           1
    -7.604592    0.017407   -0.200726
     2.140890    9.377494   -0.054591
    -0.750910   -1.913981  -11.315741
   K    Sb   S 
   4   8  14
Direct configuration=    11
   0.27997602  0.33487442  0.11333321
   0.42120482  0.73651958  0.56509602
   0.57879518  0.26348042  0.43490398
   0.72002398  0.66512558  0.88666679
   0.02873769  0.94793685  0.34136402
   0.15704334  0.44079423  0.81458478
   0.73039713  0.13353898  0.04741301
   0.50542563  0.19216772  0.76778100
   0.26960287  0.86646102  0.95258699
   0.97126231  0.05206315  0.65863598
   0.84295666  0.55920577  0.18541522
   0.49457437  0.80783228  0.23221900
   0.80702067  0.86668535  0.14811876
   0.65084820  0.33140022  0.95189099
   0.45469918  0.43751488  0.70795831
   0.23485539  0.01433956  0.52858184
   0.03331846  0.69163598  0.35229889
   0.34915180  0.66859978  0.04810901
   0.44309697  0.06795000  0.15974011
   0.96668154  0.30836402  0.64770111
   0.55690303  0.93205000  0.84025989
   0.87845738  0.31956608  0.22470971
   0.12154262  0.68043392  0.77529029
   0.76514461  0.98566044  0.47141816
   0.54530082  0.56248512  0.29204169
   0.19297933  0.13331465  0.85188124
CIS                                     
           1
    -7.607381    0.020904   -0.199209
     2.137380    9.385378   -0.054142
    -0.747836   -1.916600  -11.324005
   K    Sb   S 
   4   8  14
Direct configuration=    12
   0.28009253  0.33495952  0.11327826
   0.42115919  0.73650427  0.56509477
   0.57884081  0.26349573  0.43490523
   0.71990747  0.66504048  0.88672174
   0.02895919  0.94794030  0.34129647
   0.15683648  0.44158105  0.81456880
   0.73006344  0.13375553  0.04774552
   0.50608166  0.19174889  0.76819717
   0.26993656  0.86624447  0.95225448
   0.97104081  0.05205970  0.65870353
   0.84316352  0.55841895  0.18543120
   0.49391834  0.80825111  0.23180283
   0.80668817  0.86658948  0.14801652
   0.65097666  0.33170149  0.95207088
   0.45458604  0.43761306  0.70796078
   0.23526764  0.01456001  0.52824204
   0.03330069  0.69123194  0.35215504
   0.34902334  0.66829851  0.04792912
   0.44255764  0.06805989  0.15981896
   0.96669931  0.30876806  0.64784496
   0.55744236  0.93194011  0.84018104
   0.87888841  0.31909320  0.22496259
   0.12111159  0.68090680  0.77503741
   0.76473236  0.98543999  0.47175796
   0.54541396  0.56238694  0.29203922
   0.19331183  0.13341052  0.85198348
CIS                                     
           1
    -7.606280    0.019523   -0.199808
     2.138766    9.382266   -0.054319
    -0.749050   -1.915566  -11.320743
   K    Sb   S 
   4   8  14
Direct configuration=    13
   0.28004659  0.33492597  0.11329993
   0.42117719  0.73651030  0.56509526
   0.57882281  0.26348970  0.43490474
   0.71995341  0.66507403  0.88670007
   0.02887181  0.94793897  0.34132310
   0.15691832  0.44127069  0.81457510
   0.73019509  0.13367006  0.04761438
   0.50582262  0.19191415  0.76803299
   0.26980491  0.86632994  0.95238562
   0.97112819  0.05206103  0.65867690
   0.84308168  0.55872931  0.18542490
   0.49417738  0.80808585  0.23196701
   0.80681935  0.86662725  0.14805687
   0.65092602  0.33158267  0.95199991
   0.45463071  0.43757432  0.70795981
   0.23510512  0.01447314  0.52837604
   0.03330762  0.69139130  0.35221179
   0.34907398  0.66841733  0.04800009
   0.44277045  0.06801647  0.15978788
   0.96669238  0.30860870  0.64778821
   0.55722955  0.93198353  0.84021212
   0.87871816  0.31927975  0.22486283
   0.12128184  0.68072025  0.77513717
   0.76489488  0.98552686  0.47162396
   0.54536929  0.56242568  0.29204019
   0.19318065  0.13337275  0.85194313
CIS                                     
           1
    -7.605436    0.018465   -0.200267
     2.139828    9.379880   -0.054455
    -0.749980   -1.914773  -11.318242
   K    Sb   S 
   4   8  14
Direct configuration=    14
   0.28001136  0.33490024  0.11331654
   0.42119099  0.73651493  0.56509564
   0.57880901  0.26348507  0.43490436
   0.71998864  0.66509976  0.88668346
   0.02880480  0.94793794  0.34134353
   0.15698100  0.44103268  0.81457993
   0.73029604  0.13360453  0.04751380
   0.50562405  0.19204087  0.76790709
   0.26970396  0.86639547  0.95248620
   0.97119520  0.05206206  0.65865647
   0.84301900  0.55896732  0.18542007
   0.49437595  0.80795913  0.23209291
   0.80691995  0.86665623  0.14808780
   0.65088718  0.33149155  0.95194549
   0.45466495  0.43754462  0.70795906
   0.23498045  0.01440649  0.52847882
   0.03331296  0.69151352  0.35225531
   0.34911282  0.66850845  0.04805451
   0.44293363  0.06798319  0.15976405
   0.96668704  0.30848648  0.64774469
   0.55706637  0.93201681  0.84023595
   0.87858768  0.31942281  0.22478633
   0.12141232  0.68057719  0.77521367
   0.76501955  0.98559351  0.47152118
   0.54533505  0.56245538  0.29204094
   0.19308005  0.13334377  0.85191220
CIS                                     
           1
    -7.604584    0.018091   -0.200346
     2.140028    9.380109   -0.053636
    -0.750049   -1.915822  -11.320586
   K    Sb   S 
   4   8  14
Direct configuration=    15
   0.28003499  0.33491988  0.11330370
   0.42118673  0.73650354  0.56508753
   0.57881327  0.26349646  0.43491247
   0.71996501  0.66508012  0.88669630
   0.02902316  0.94801814  0.34117990
   0.15675177  0.44097610  0.81446100
   0.73028708  0.13343600  0.04757121
   0.50558113  0.19195551  0.76790344
   0.26971292  0.86656400  0.95242879
   0.97097684  0.05198186  0.65882010
   0.84324823  0.55902390  0.18553900
   0.49441887  0.80804449  0.23209656
   0.80677214  0.86663165  0.14810469
   0.65091157  0.33158654  0.95199447
   0.45463157  0.43754974  0.70797021
   0.23504219  0.01446501  0.52844500
   0.03329597  0.69142286  0.35222602
   0.34908843  0.66841346  0.04800553
   0.44283223  0.06800439  0.15979689
   0.96670403  0.30857714  0.64777398
   0.55716777  0.93199561  0.84020311
   0.87862191  0.31930687  0.22484481
   0.12137809  0.68069313  0.77515519
   0.76495781  0.98553499  0.47155500
   0.54536843  0.56245026  0.29202979
   0.19322786  0.13336835  0.85189531
CIS                                     
           1
    -7.603958    0.017816   -0.200405
     2.140175    9.380278   -0.053034
    -0.750099   -1.916593  -11.322307
   K    Sb   S 
   4   8  14
Direct configuration=    16
   0.28005235  0.33493431  0.11329427
   0.42118360  0.73649517  0.56508157
   0.57881640  0.26350483  0.43491843
   0.71994765  0.66506569  0.88670573
   0.02918358  0.94807705  0.34105973
   0.15658336  0.44093451  0.81437366
   0.73028050  0.13331220  0.04761337
   0.50554959  0.19189281  0.76790076
   0.26971950  0.86668780  0.95238663
   0.97081642  0.05192295  0.65894027
   0.84341664  0.55906549  0.18562634
   0.49445041  0.80810719  0.23209924
   0.80666355  0.86661358  0.14811708
   0.65092948  0.33165633  0.95203045
   0.45460704  0.43755350  0.70797841
   0.23508756  0.01450799  0.52842016
   0.03328349  0.69135626  0.35220449
   0.34907052  0.66834367  0.04796955
   0.44275773  0.06801996  0.15982102
   0.96671651  0.30864374  0.64779551
   0.55724227  0.93198004  0.84017898
   0.87864706  0.31922170  0.22488775
   0.12135294  0.68077830  0.77511225
   0.76491244  0.98549201  0.47157984
   0.54539296  0.56244650  0.29202159
   0.19333645  0.13338642  0.85188292
CIS                                     
           1
    -7.602706    0.017266   -0.200521
     2.140469    9.380615   -0.051831
    -0.750200   -1.918134  -11.325751
   K    Sb   S 
   4   8  14
Direct configuration=    17
   0.28008708  0.33496318  0.11327542
   0.42117734  0.73647844  0.56506964
   0.57882266  0.26352156  0.43493036
   0.71991292  0.66503682  0.88672458
   0.02950445  0.94819487  0.34081943
   0.15624649  0.44085133  0.81419898
   0.73026734  0.13306459  0.04769766
   0.50548651  0.19176740  0.76789539
   0.26973266  0.86693541  0.95230234
   0.97049555  0.05180513  0.65918057
   0.84375351  0.55914867  0.18580102
   0.49451349  0.80823260  0.23210461
   0.80644634  0.86657745  0.14814188
   0.65096533  0.33179591  0.95210240
   0.45455799  0.43756102  0.70799479
   0.23517829  0.01459396  0.52837050
   0.03325853  0.69122305  0.35216145
   0.34903467  0.66820409  0.04789760
   0.44260872  0.06805110  0.15986926
   0.96674147  0.30877695  0.64783855
   0.55739128  0.93194890  0.84013074
   0.87869737  0.31905137  0.22497362
   0.12130263  0.68094863  0.77502638
   0.76482171  0.98540604  0.47162950
   0.54544201  0.56243898  0.29200521
   0.19355366  0.13342255  0.85185812
CIS                                     
           1
    -7.601528    0.017594   -0.201667
     2.139673    9.379430   -0.049941
    -0.751654   -1.919790  -11.327956
   K    Sb   S 
   4   8  14
Direct configuration=    18
   0.28012708  0.33500165  0.11325573
   0.42117486  0.73645446  0.56504972
   0.57882514  0.26354554  0.43495028
   0.71987292  0.66499835  0.88674427
   0.02946466  0.94840499  0.34080784
   0.15613589  0.44089720  0.81397949
   0.73023366  0.13304569  0.04769902
   0.50540257  0.19175817  0.76789531
   0.26976634  0.86695431  0.95230098
   0.97053534  0.05159501  0.65919216
   0.84386411  0.55910280  0.18602051
   0.49459743  0.80824183  0.23210469
   0.80630832  0.86656076  0.14816813
   0.65097511  0.33184445  0.95214812
   0.45449437  0.43753430  0.70802144
   0.23509901  0.01468092  0.52839763
   0.03329831  0.69122380  0.35217580
   0.34902489  0.66815555  0.04785188
   0.44247191  0.06807939  0.15991369
   0.96670169  0.30877620  0.64782420
   0.55752809  0.93192061  0.84008631
   0.87871631  0.31889815  0.22503578
   0.12128369  0.68110185  0.77496422
   0.76490099  0.98531908  0.47160237
   0.54550563  0.56246570  0.29197856
   0.19369168  0.13343924  0.85183187
CIS                                     
           1
    -7.601388    0.017633   -0.201802
     2.139578    9.379290   -0.049717
    -0.751826   -1.919986  -11.328216
   K    Sb   S 
   4   8  14
Direct configuration=    19
   0.28013182  0.33500621  0.11325340
   0.42117457  0.73645162  0.56504736
   0.57882543  0.26354838  0.43495264
   0.71986818  0.66499379  0.88674660
   0.02945995  0.94842985  0.34080647
   0.15612281  0.44090263  0.81395353
   0.73022968  0.13304346  0.04769919
   0.50539264  0.19175708  0.76789530
   0.26977032  0.86695654  0.95230081
   0.97054005  0.05157015  0.65919353
   0.84387719  0.55909737  0.18604647
   0.49460736  0.80824292  0.23210470
   0.80629198  0.86655879  0.14817124
   0.65097627  0.33185019  0.95215353
   0.45448684  0.43753114  0.70802459
   0.23508963  0.01469122  0.52840084
   0.03330301  0.69122389  0.35217749
   0.34902373  0.66814981  0.04784647
   0.44245572  0.06808274  0.15991895
   0.96669699  0.30877611  0.64782251
   0.55754428  0.93191726  0.84008105
   0.87871855  0.31888002  0.22504313
   0.12128145  0.68111998  0.77495687
   0.76491037  0.98530878  0.47159916
   0.54551316  0.56246886  0.29197541
   0.19370802  0.13344121  0.85182876
CIS                                     
           1
    -7.600369    0.018460   -0.201920
     2.138245    9.377486   -0.048911
    -0.751716   -1.920505  -11.327346
   K    Sb   S 
   4   8  14
Direct configuration=    20
   0.28017343  0.33504966  0.11323188
   0.42117350  0.73642435  0.56502326
   0.57882650  0.26357565  0.43497674
   0.71982657  0.66495034  0.88676812
   0.02932182  0.94846683  0.34088074
   0.15622911  0.44082178  0.81389050
   0.73015773  0.13310726  0.04767276
   0.50537898  0.19181185  0.76794633
   0.26984227  0.86689274  0.95232724
   0.97067818  0.05153317  0.65911926
   0.84377089  0.55917822  0.18610950
   0.49462102  0.80818815  0.23205367
   0.80621212  0.86656614  0.14819209
   0.65097314  0.33185157  0.95218212
   0.45444494  0.43749542  0.70804016
   0.23497495  0.01478126  0.52843605
   0.03338342  0.69130558  0.35222587
   0.34902686  0.66814843  0.04781788
   0.44233864  0.06810990  0.15995427
   0.96661658  0.30869442  0.64777413
   0.55766136  0.93189010  0.84004573
   0.87871452  0.31873215  0.22510569
   0.12128548  0.68126785  0.77489431
   0.76502505  0.98521874  0.47156395
   0.54555506  0.56250458  0.29195984
   0.19378788  0.13343386  0.85180791
CIS                                     
           1
    -7.599259    0.019359   -0.202048
     2.136794    9.375524   -0.048034
    -0.751596   -1.921069  -11.326399
   K    Sb   S 
   4   8  14
Direct configuration=    21
   0.28021868  0.33509693  0.11320849
   0.42117235  0.73639468  0.56499704
   0.57882765  0.26360532  0.43500296
   0.71978132  0.66490307  0.88679151
   0.02917157  0.94850707  0.34096153
   0.15634475  0.44073382  0.81382194
   0.73007945  0.13317666  0.04764402
   0.50536412  0.19187143  0.76800184
   0.26992055  0.86682334  0.95235598
   0.97082843  0.05149293  0.65903847
   0.84365525  0.55926618  0.18617806
   0.49463588  0.80812857  0.23199816
   0.80612525  0.86657416  0.14821478
   0.65096975  0.33185306  0.95221322
   0.45439938  0.43745657  0.70805709
   0.23485020  0.01487922  0.52847434
   0.03347088  0.69139444  0.35227850
   0.34903025  0.66814694  0.04778678
   0.44221129  0.06813946  0.15999269
   0.96652912  0.30860556  0.64772150
   0.55778871  0.93186054  0.84000731
   0.87871016  0.31857129  0.22517372
   0.12128984  0.68142871  0.77482628
   0.76514980  0.98512078  0.47152566
   0.54560062  0.56254343  0.29194291
   0.19387475  0.13342584  0.85178522
CIS                                     
           1
    -7.599574    0.019104   -0.202012
     2.137206    9.376081   -0.048283
    -0.751630   -1.920909  -11.326668
   K    Sb   S 
   4   8  14
Direct configuration=    22
   0.28020584  0.33508351  0.11321513
   0.42117268  0.73640311  0.56500449
   0.57882732  0.26359689  0.43499551
   0.71979416  0.66491649  0.88678487
   0.02921423  0.94849564  0.34093860
   0.15631192  0.44075880  0.81384140
   0.73010168  0.13315696  0.04765217
   0.50536834  0.19185451  0.76798608
   0.26989832  0.86684304  0.95234783
   0.97078577  0.05150436  0.65906140
   0.84368808  0.55924120  0.18615860
   0.49463166  0.80814549  0.23201392
   0.80614991  0.86657188  0.14820834
   0.65097071  0.33185264  0.95220439
   0.45441231  0.43746760  0.70805229
   0.23488562  0.01485141  0.52846347
   0.03344606  0.69136921  0.35226356
   0.34902929  0.66814736  0.04779561
   0.44224744  0.06813106  0.15998178
   0.96655394  0.30863079  0.64773644
   0.55775256  0.93186894  0.84001822
   0.87871139  0.31861696  0.22515441
   0.12128861  0.68138304  0.77484559
   0.76511438  0.98514859  0.47153653
   0.54558769  0.56253240  0.29194771
   0.19385009  0.13342812  0.85179166
CIS                                     
           1
    -7.599423    0.019227   -0.202029
     2.137008    9.375813   -0.048163
    -0.751614   -1.920985  -11.326539
   K    Sb   S 
   4   8  14
Direct configuration=    23
   0.28021201  0.33508996  0.11321194
   0.42117252  0.73639906  0.56500091
   0.57882748  0.26360094  0.43499909
   0.71978799  0.66491004  0.88678806
   0.02919374  0.94850113  0.34094961
   0.15632769  0.44074680  0.81383205
   0.73009100  0.13316642  0.04764825
   0.50536631  0.19186264  0.76799365
   0.26990900  0.86683358  0.95235175
   0.97080626  0.05149887  0.65905039
   0.84367231  0.55925320  0.18616795
   0.49463369  0.80813736  0.23200635
   0.80613806  0.86657298  0.14821143
   0.65097025  0.33185284  0.95220863
   0.45440610  0.43746231  0.70805460
   0.23486860  0.01486477  0.52846869
   0.03345798  0.69138133  0.35227073
   0.34902975  0.66814716  0.04779137
   0.44223008  0.06813510  0.15998702
   0.96654202  0.30861867  0.64772927
   0.55776992  0.93186490  0.84001298
   0.87871080  0.31859502  0.22516369
   0.12128920  0.68140498  0.77483631
   0.76513140  0.98513523  0.47153131
   0.54559390  0.56253769  0.29194540
   0.19386194  0.13342702  0.85178857
CIS                                     
           1
    -7.599711    0.020471   -0.202027
     2.135530    9.373679   -0.047475
    -0.751301   -1.921337  -11.327459
   K    Sb   S 
   4   8  14
Direct configuration=    24
   0.28025390  0.33514208  0.11318745
   0.42117146  0.73636703  0.56497231
   0.57882854  0.26363297  0.43502769
   0.71974610  0.66485792  0.88681255
   0.02911948  0.94849444  0.34088634
   0.15628403  0.44072279  0.81384516
   0.73005011  0.13326282  0.04759302
   0.50532460  0.19193905  0.76804564
   0.26994989  0.86673718  0.95240698
   0.97088052  0.05150556  0.65911366
   0.84371597  0.55927721  0.18615484
   0.49467540  0.80806095  0.23195436
   0.80606927  0.86658266  0.14822645
   0.65097370  0.33185942  0.95224153
   0.45439722  0.43743219  0.70805218
   0.23478965  0.01496152  0.52848839
   0.03355990  0.69147740  0.35233196
   0.34902630  0.66814058  0.04775847
   0.44210264  0.06816573  0.16002485
   0.96644010  0.30852260  0.64766804
   0.55789736  0.93183427  0.83997515
   0.87870771  0.31845333  0.22522996
   0.12129229  0.68154667  0.77477004
   0.76521035  0.98503848  0.47151161
   0.54560278  0.56256781  0.29194782
   0.19393073  0.13341734  0.85177355
CIS                                     
           1
    -7.599769    0.020723   -0.202027
     2.135231    9.373247   -0.047336
    -0.751238   -1.921408  -11.327645
   K    Sb   S 
   4   8  14
Direct configuration=    25
   0.28026237  0.33515262  0.11318250
   0.42117125  0.73636055  0.56496653
   0.57882875  0.26363945  0.43503347
   0.71973763  0.66484738  0.88681750
   0.02910447  0.94849309  0.34087355
   0.15627520  0.44071793  0.81384782
   0.73004184  0.13328231  0.04758185
   0.50531617  0.19195451  0.76805616
   0.26995816  0.86671769  0.95241815
   0.97089553  0.05150691  0.65912645
   0.84372480  0.55928207  0.18615218
   0.49468383  0.80804549  0.23194384
   0.80605536  0.86658462  0.14822949
   0.65097440  0.33186075  0.95224818
   0.45439542  0.43742610  0.70805169
   0.23477369  0.01498109  0.52849238
   0.03358051  0.69149683  0.35234434