  26  26   1   0
  0.2690591E+02  0.7174750E-09  0.9242102E-09  0.1094001E-08  0.1000000E-15
  1.000000000000000E-004
  CAR 
 CIS                                     
      8.58033393    -11.20747272  301      3.50558602      1.00000000
    -11.207  0.0000E+00  0.0000E+00
    -11.142  0.0000E+00  0.0000E+00
    -11.076  0.0000E+00  0.0000E+00
    -11.010  0.0000E+00  0.0000E+00
    -10.944  0.0000E+00  0.0000E+00
    -10.878  0.0000E+00  0.0000E+00
    -10.812  0.0000E+00  0.0000E+00
    -10.746  0.0000E+00  0.0000E+00
    -10.680  0.0000E+00  0.0000E+00
    -10.614  0.0000E+00  0.0000E+00
    -10.548  0.2983E-12  0.1967E-13
    -10.482  0.2227E-07  0.1469E-08
    -10.416  0.5786E-04  0.3818E-05
    -10.350  0.6007E-02  0.4000E-03
    -10.284  0.3862E-01  0.2947E-02
    -10.218  0.5606E-01  0.6645E-02
    -10.152  0.1154E+00  0.1425E-01
    -10.086  0.1146E+00  0.2182E-01
    -10.020  0.6127E-01  0.2586E-01
     -9.954  0.1136E+00  0.3335E-01
     -9.888  0.7358E-01  0.3820E-01
     -9.822  0.3228E-01  0.4033E-01
     -9.756  0.3140E-01  0.4240E-01
     -9.690  0.7225E-01  0.4717E-01
     -9.624  0.9541E-01  0.5346E-01
     -9.558  0.9571E-01  0.5977E-01
     -9.493  0.1459E+00  0.6940E-01
     -9.427  0.1174E+00  0.7714E-01
     -9.361  0.4213E-01  0.7992E-01
     -9.295  0.3127E-01  0.8198E-01
     -9.229  0.1127E+00  0.8941E-01
     -9.163  0.1489E+00  0.9924E-01
     -9.097  0.1330E+00  0.1080E+00
     -9.031  0.1285E+00  0.1165E+00
     -8.965  0.3110E-01  0.1185E+00
     -8.899  0.5562E-01  0.1222E+00
     -8.833  0.1070E+00  0.1293E+00
     -8.767  0.9308E-01  0.1354E+00
     -8.701  0.2073E+00  0.1491E+00
     -8.635  0.1867E+00  0.1614E+00
     -8.569  0.1414E+00  0.1707E+00
     -8.503  0.2274E+00  0.1857E+00
     -8.437  0.3324E+00  0.2076E+00
     -8.371  0.4067E+00  0.2345E+00
     -8.305  0.3020E+00  0.2544E+00
     -8.239  0.2561E+00  0.2713E+00
     -8.173  0.1481E+00  0.2810E+00
     -8.107  0.2659E-01  0.2828E+00
     -8.041  0.5098E-03  0.2828E+00
     -7.975  0.4676E-06  0.2828E+00
     -7.910  0.1592E-10  0.2828E+00
     -7.844  0.1700E-16  0.2828E+00
     -7.778  0.0000E+00  0.2828E+00
     -7.712  0.0000E+00  0.2828E+00
     -7.646  0.0000E+00  0.2828E+00
     -7.580  0.0000E+00  0.2828E+00
     -7.514  0.0000E+00  0.2828E+00
     -7.448  0.0000E+00  0.2828E+00
     -7.382  0.0000E+00  0.2828E+00
     -7.316  0.0000E+00  0.2828E+00
     -7.250  0.0000E+00  0.2828E+00
     -7.184  0.0000E+00  0.2828E+00
     -7.118  0.0000E+00  0.2828E+00
     -7.052  0.0000E+00  0.2828E+00
     -6.986  0.0000E+00  0.2828E+00
     -6.920  0.0000E+00  0.2828E+00
     -6.854  0.0000E+00  0.2828E+00
     -6.788  0.0000E+00  0.2828E+00
     -6.722  0.0000E+00  0.2828E+00
     -6.656  0.0000E+00  0.2828E+00
     -6.590  0.0000E+00  0.2828E+00
     -6.524  0.0000E+00  0.2828E+00
     -6.458  0.0000E+00  0.2828E+00
     -6.392  0.0000E+00  0.2828E+00
     -6.326  0.0000E+00  0.2828E+00
     -6.261  0.0000E+00  0.2828E+00
     -6.195  0.0000E+00  0.2828E+00
     -6.129  0.0000E+00  0.2828E+00
     -6.063  0.0000E+00  0.2828E+00
     -5.997  0.0000E+00  0.2828E+00
     -5.931  0.1502E-15  0.2828E+00
     -5.865  0.7485E-10  0.2828E+00
     -5.799  0.1285E-05  0.2828E+00
     -5.733  0.8932E-03  0.2829E+00
     -5.667  0.3376E-01  0.2851E+00
     -5.601  0.1099E+00  0.2924E+00
     -5.535  0.5517E-01  0.2960E+00
     -5.469  0.3004E-01  0.2980E+00
     -5.403  0.1273E+00  0.3064E+00
     -5.337  0.1501E+00  0.3163E+00
     -5.271  0.1285E+00  0.3248E+00
     -5.205  0.6870E-01  0.3293E+00
     -5.139  0.5567E-01  0.3330E+00
     -5.073  0.1657E+00  0.3439E+00
     -5.007  0.8871E-01  0.3497E+00
     -4.941  0.6775E-01  0.3542E+00
     -4.875  0.7100E-01  0.3589E+00
     -4.809  0.8157E-01  0.3643E+00
     -4.743  0.1041E+00  0.3711E+00
     -4.677  0.7669E-01  0.3762E+00
     -4.612  0.3887E-01  0.3788E+00
     -4.546  0.2507E-01  0.3804E+00
     -4.480  0.3449E-01  0.3827E+00
     -4.414  0.1328E+00  0.3915E+00
     -4.348  0.9822E-01  0.3979E+00
     -4.282  0.4682E-01  0.4010E+00
     -4.216  0.3881E-01  0.4036E+00
     -4.150  0.4439E-01  0.4065E+00
     -4.084  0.9375E-01  0.4127E+00
     -4.018  0.6359E-01  0.4169E+00
     -3.952  0.9194E-01  0.4230E+00
     -3.886  0.2135E-01  0.4244E+00
     -3.820  0.3199E-01  0.4265E+00
     -3.754  0.5922E-01  0.4304E+00
     -3.688  0.5254E-01  0.4338E+00
     -3.622  0.6093E-01  0.4379E+00
     -3.556  0.5514E-01  0.4415E+00
     -3.490  0.3833E-01  0.4440E+00
     -3.424  0.6245E-02  0.4444E+00
     -3.358  0.6283E-04  0.4444E+00
     -3.292  0.2527E-07  0.4444E+00
     -3.226  0.3542E-12  0.4444E+00
     -3.160  0.0000E+00  0.4444E+00
     -3.094  0.0000E+00  0.4444E+00
     -3.029  0.0000E+00  0.4444E+00
     -2.963  0.0000E+00  0.4444E+00
     -2.897  0.0000E+00  0.4444E+00
     -2.831  0.0000E+00  0.4444E+00
     -2.765  0.0000E+00  0.4444E+00
     -2.699  0.0000E+00  0.4444E+00
     -2.633  0.0000E+00  0.4444E+00
     -2.567  0.0000E+00  0.4444E+00
     -2.501  0.0000E+00  0.4444E+00
     -2.435  0.0000E+00  0.4444E+00
     -2.369  0.0000E+00  0.4444E+00
     -2.303  0.0000E+00  0.4444E+00
     -2.237  0.0000E+00  0.4444E+00
     -2.171  0.0000E+00  0.4444E+00
     -2.105  0.0000E+00  0.4444E+00
     -2.039  0.0000E+00  0.4444E+00
     -1.973  0.0000E+00  0.4444E+00
     -1.907  0.0000E+00  0.4444E+00
     -1.841  0.0000E+00  0.4444E+00
     -1.775  0.2261E-14  0.4444E+00
     -1.709  0.5826E-09  0.4444E+00
     -1.643  0.5222E-05  0.4444E+00
     -1.577  0.1874E-02  0.4446E+00
     -1.511  0.3639E-01  0.4470E+00
     -1.445  0.6142E-01  0.4510E+00
     -1.380  0.8205E-01  0.4564E+00
     -1.314  0.1424E+00  0.4658E+00
     -1.248  0.1764E+00  0.4775E+00
     -1.182  0.1174E+00  0.4852E+00
     -1.116  0.8364E-01  0.4907E+00
     -1.050  0.1416E+00  0.5001E+00
     -0.984  0.1630E+00  0.5108E+00
     -0.918  0.1069E+00  0.5179E+00
     -0.852  0.1211E+00  0.5258E+00
     -0.786  0.1634E+00  0.5366E+00
     -0.720  0.2139E+00  0.5507E+00
     -0.654  0.1497E+00  0.5606E+00
     -0.588  0.1115E+00  0.5680E+00
     -0.522  0.1057E+00  0.5749E+00
     -0.456  0.1348E+00  0.5838E+00
     -0.390  0.9143E-01  0.5899E+00
     -0.324  0.1268E+00  0.5982E+00
     -0.258  0.1769E+00  0.6099E+00
     -0.192  0.1319E+00  0.6186E+00
     -0.126  0.9040E-01  0.6245E+00
     -0.060  0.1311E+00  0.6332E+00
      0.006  0.1671E+00  0.6442E+00
      0.072  0.1900E+00  0.6567E+00
      0.138  0.1632E+00  0.6675E+00
      0.203  0.1404E+00  0.6768E+00
      0.269  0.1934E+00  0.6895E+00
      0.335  0.1460E+00  0.6992E+00
      0.401  0.1981E+00  0.7122E+00
      0.467  0.2600E+00  0.7294E+00
      0.533  0.2171E+00  0.7437E+00
      0.599  0.2371E+00  0.7593E+00
      0.665  0.1876E+00  0.7717E+00
      0.731  0.2070E+00  0.7854E+00
      0.797  0.2534E+00  0.8021E+00
      0.863  0.1969E+00  0.8151E+00
      0.929  0.2430E+00  0.8311E+00
      0.995  0.2128E+00  0.8451E+00
      1.061  0.1997E+00  0.8583E+00
      1.127  0.2029E+00  0.8717E+00
      1.193  0.2082E+00  0.8854E+00
      1.259  0.1732E+00  0.8968E+00
      1.325  0.1761E+00  0.9085E+00
      1.391  0.1289E+00  0.9170E+00
      1.457  0.1548E+00  0.9272E+00
      1.523  0.1574E+00  0.9375E+00
      1.589  0.1728E+00  0.9489E+00
      1.655  0.1716E+00  0.9603E+00
      1.721  0.1942E+00  0.9731E+00
      1.787  0.2702E+00  0.9909E+00
      1.852  0.2770E+00  0.1009E+01
      1.918  0.1968E+00  0.1022E+01
      1.984  0.1868E+00  0.1034E+01
      2.050  0.2714E+00  0.1052E+01
      2.116  0.2278E+00  0.1067E+01
      2.182  0.2550E+00  0.1084E+01
      2.248  0.2076E+00  0.1098E+01
      2.314  0.2829E+00  0.1117E+01
      2.380  0.2520E+00  0.1133E+01
      2.446  0.1952E+00  0.1146E+01
      2.512  0.2536E+00  0.1163E+01
      2.578  0.2087E+00  0.1177E+01
      2.644  0.1452E+00  0.1186E+01
      2.710  0.1380E+00  0.1195E+01
      2.776  0.2140E+00  0.1209E+01
      2.842  0.1643E+00  0.1220E+01
      2.908  0.2259E+00  0.1235E+01
      2.974  0.2195E+00  0.1250E+01
      3.040  0.2106E+00  0.1263E+01
      3.106  0.1609E+00  0.1274E+01
      3.172  0.1257E+00  0.1282E+01
      3.238  0.1149E+00  0.1290E+01
      3.304  0.4241E-01  0.1293E+01
      3.370  0.2786E-02  0.1293E+01
      3.436  0.1165E-04  0.1293E+01
      3.501  0.1958E-08  0.1293E+01
      3.567  0.1139E-13  0.1293E+01
      3.633  0.0000E+00  0.1293E+01
      3.699  0.0000E+00  0.1293E+01
      3.765  0.0000E+00  0.1293E+01
      3.831  0.0000E+00  0.1293E+01
      3.897  0.0000E+00  0.1293E+01
      3.963  0.0000E+00  0.1293E+01
      4.029  0.0000E+00  0.1293E+01
      4.095  0.0000E+00  0.1293E+01
      4.161  0.0000E+00  0.1293E+01
      4.227  0.0000E+00  0.1293E+01
      4.293  0.0000E+00  0.1293E+01
      4.359  0.0000E+00  0.1293E+01
      4.425  0.0000E+00  0.1293E+01
      4.491  0.0000E+00  0.1293E+01
      4.557  0.0000E+00  0.1293E+01
      4.623  0.5667E-16  0.1293E+01
      4.689  0.3449E-10  0.1293E+01
      4.755  0.6947E-06  0.1293E+01
      4.821  0.5054E-03  0.1293E+01
      4.887  0.1632E-01  0.1294E+01
      4.953  0.4555E-01  0.1297E+01
      5.019  0.4226E-01  0.1300E+01
      5.084  0.3780E-01  0.1302E+01
      5.150  0.2661E-01  0.1304E+01
      5.216  0.6848E-01  0.1309E+01
      5.282  0.9351E-01  0.1315E+01
      5.348  0.1120E+00  0.1322E+01
      5.414  0.1459E+00  0.1332E+01
      5.480  0.1662E+00  0.1343E+01
      5.546  0.1776E+00  0.1354E+01
      5.612  0.1657E+00  0.1365E+01
      5.678  0.1741E+00  0.1377E+01
      5.744  0.1981E+00  0.1390E+01
      5.810  0.1606E+00  0.1401E+01
      5.876  0.1174E+00  0.1408E+01
      5.942  0.2722E+00  0.1426E+01
      6.008  0.2118E+00  0.1440E+01
      6.074  0.1181E+00  0.1448E+01
      6.140  0.1573E+00  0.1458E+01
      6.206  0.1679E+00  0.1469E+01
      6.272  0.1757E+00  0.1481E+01
      6.338  0.1533E+00  0.1491E+01
      6.404  0.6793E-01  0.1496E+01
      6.470  0.1558E+00  0.1506E+01
      6.536  0.2940E+00  0.1525E+01
      6.602  0.1379E+00  0.1534E+01
      6.668  0.1654E+00  0.1545E+01
      6.733  0.1974E+00  0.1558E+01
      6.799  0.2333E+00  0.1574E+01
      6.865  0.1549E+00  0.1584E+01
      6.931  0.1132E+00  0.1591E+01
      6.997  0.1409E+00  0.1601E+01
      7.063  0.1912E+00  0.1613E+01
      7.129  0.1858E+00  0.1626E+01
      7.195  0.9825E-01  0.1632E+01
      7.261  0.1208E+00  0.1640E+01
      7.327  0.1021E+00  0.1647E+01
      7.393  0.1091E+00  0.1654E+01
      7.459  0.9870E-01  0.1660E+01
      7.525  0.1242E+00  0.1669E+01
      7.591  0.1815E+00  0.1681E+01
      7.657  0.1681E+00  0.1692E+01
      7.723  0.7323E-01  0.1697E+01
      7.789  0.6901E-02  0.1697E+01
      7.855  0.5898E-04  0.1697E+01
      7.921  0.2232E-07  0.1697E+01
      7.987  0.2983E-12  0.1697E+01
      8.053  0.0000E+00  0.1697E+01
      8.119  0.0000E+00  0.1697E+01
      8.185  0.0000E+00  0.1697E+01
      8.251  0.0000E+00  0.1697E+01
      8.316  0.0000E+00  0.1697E+01
      8.382  0.0000E+00  0.1697E+01
      8.448  0.0000E+00  0.1697E+01
      8.514  0.0000E+00  0.1697E+01
      8.580  0.0000E+00  0.1697E+01
      8.58033393    -11.20747272  301      3.50558602      1.00000000
    -11.207  0.0000E+00  0.0000E+00  0.0000E+00
    -11.142  0.0000E+00  0.0000E+00  0.0000E+00
    -11.076  0.0000E+00  0.0000E+00  0.0000E+00
    -11.010  0.0000E+00  0.0000E+00  0.0000E+00
    -10.944  0.0000E+00  0.0000E+00  0.0000E+00
    -10.878  0.0000E+00  0.0000E+00  0.0000E+00
    -10.812  0.0000E+00  0.0000E+00  0.0000E+00
    -10.746  0.0000E+00  0.0000E+00  0.0000E+00
    -10.680  0.0000E+00  0.0000E+00  0.0000E+00
    -10.614  0.0000E+00  0.0000E+00  0.0000E+00
    -10.548  0.4194E-14  0.2180E-15  0.0000E+00
    -10.482  0.3131E-09  0.1628E-10  0.0000E+00
    -10.416  0.8136E-06  0.4233E-07  0.0000E+00
    -10.350  0.8417E-04  0.4462E-05  0.0000E+00
    -10.284  0.5123E-03  0.3529E-04  0.0000E+00
    -10.218  0.5691E-03  0.9198E-04  0.0000E+00
    -10.152  0.1020E-02  0.2230E-03  0.0000E+00
    -10.086  0.9232E-03  0.1912E-03  0.0000E+00
    -10.020  0.4593E-03  0.1628E-03  0.0000E+00
     -9.954  0.6931E-03  0.4081E-03  0.0000E+00
     -9.888  0.3597E-03  0.2612E-03  0.0000E+00
     -9.822  0.1405E-03  0.1234E-03  0.0000E+00
     -9.756  0.9968E-04  0.1996E-03  0.0000E+00
     -9.690  0.3296E-03  0.4267E-03  0.0000E+00
     -9.624  0.7262E-03  0.3876E-03  0.0000E+00
     -9.558  0.8546E-03  0.3853E-03  0.0000E+00
     -9.493  0.1433E-02  0.7908E-03  0.0000E+00
     -9.427  0.8939E-03  0.7558E-03  0.0000E+00
     -9.361  0.2157E-03  0.1692E-03  0.0000E+00
     -9.295  0.1594E-03  0.9830E-04  0.0000E+00
     -9.229  0.5976E-03  0.3824E-03  0.0000E+00
     -9.163  0.8900E-03  0.4932E-03  0.0000E+00
     -9.097  0.4897E-03  0.5010E-03  0.0000E+00
     -9.031  0.7202E-03  0.4218E-03  0.0000E+00
     -8.965  0.2032E-03  0.9262E-04  0.0000E+00
     -8.899  0.1557E-03  0.1802E-03  0.0000E+00
     -8.833  0.2559E-03  0.3765E-03  0.0000E+00
     -8.767  0.1956E-03  0.3449E-03  0.0000E+00
     -8.701  0.3400E-03  0.8142E-03  0.0000E+00
     -8.635  0.3699E-03  0.8680E-03  0.0000E+00
     -8.569  0.3565E-03  0.7443E-03  0.0000E+00
     -8.503  0.7073E-03  0.1214E-02  0.0000E+00
     -8.437  0.1578E-02  0.1313E-02  0.0000E+00
     -8.371  0.2032E-02  0.1590E-02  0.0000E+00
     -8.305  0.1742E-02  0.1539E-02  0.0000E+00
     -8.239  0.2840E-02  0.1657E-02  0.0000E+00
     -8.173  0.1674E-02  0.1026E-02  0.0000E+00
     -8.107  0.1615E-03  0.1847E-03  0.0000E+00
     -8.041  0.2428E-05  0.3497E-05  0.0000E+00
     -7.975  0.2200E-08  0.3170E-08  0.0000E+00
     -7.910  0.7605E-13  0.1069E-12  0.0000E+00
     -7.844  0.8543E-19  0.1111E-18  0.0000E+00
     -7.778  0.0000E+00  0.0000E+00  0.0000E+00
     -7.712  0.0000E+00  0.0000E+00  0.0000E+00
     -7.646  0.0000E+00  0.0000E+00  0.0000E+00
     -7.580  0.0000E+00  0.0000E+00  0.0000E+00
     -7.514  0.0000E+00  0.0000E+00  0.0000E+00
     -7.448  0.0000E+00  0.0000E+00  0.0000E+00
     -7.382  0.0000E+00  0.0000E+00  0.0000E+00
     -7.316  0.0000E+00  0.0000E+00  0.0000E+00
     -7.250  0.0000E+00  0.0000E+00  0.0000E+00
     -7.184  0.0000E+00  0.0000E+00  0.0000E+00
     -7.118  0.0000E+00  0.0000E+00  0.0000E+00
     -7.052  0.0000E+00  0.0000E+00  0.0000E+00
     -6.986  0.0000E+00  0.0000E+00  0.0000E+00
     -6.920  0.0000E+00  0.0000E+00  0.0000E+00
     -6.854  0.0000E+00  0.0000E+00  0.0000E+00
     -6.788  0.0000E+00  0.0000E+00  0.0000E+00
     -6.722  0.0000E+00  0.0000E+00  0.0000E+00
     -6.656  0.0000E+00  0.0000E+00  0.0000E+00
     -6.590  0.0000E+00  0.0000E+00  0.0000E+00
     -6.524  0.0000E+00  0.0000E+00  0.0000E+00
     -6.458  0.0000E+00  0.0000E+00  0.0000E+00
     -6.392  0.0000E+00  0.0000E+00  0.0000E+00
     -6.326  0.0000E+00  0.0000E+00  0.0000E+00
     -6.261  0.0000E+00  0.0000E+00  0.0000E+00
     -6.195  0.0000E+00  0.0000E+00  0.0000E+00
     -6.129  0.0000E+00  0.0000E+00  0.0000E+00
     -6.063  0.0000E+00  0.0000E+00  0.0000E+00
     -5.997  0.0000E+00  0.0000E+00  0.0000E+00
     -5.931  0.2230E-18  0.3590E-18  0.0000E+00
     -5.865  0.1125E-12  0.1770E-12  0.0000E+00
     -5.799  0.1999E-08  0.2977E-08  0.0000E+00
     -5.733  0.1537E-05  0.1973E-05  0.0000E+00
     -5.667  0.6915E-04  0.6921E-04  0.0000E+00
     -5.601  0.2440E-03  0.2123E-03  0.0000E+00
     -5.535  0.8342E-04  0.1059E-03  0.0000E+00
     -5.469  0.3788E-04  0.5838E-04  0.0000E+00
     -5.403  0.2262E-03  0.2706E-03  0.0000E+00
     -5.337  0.6386E-03  0.3144E-03  0.0000E+00
     -5.271  0.5186E-03  0.2274E-03  0.0000E+00
     -5.205  0.1996E-03  0.1106E-03  0.0000E+00
     -5.139  0.1980E-03  0.1317E-03  0.0000E+00
     -5.073  0.4568E-03  0.4198E-03  0.0000E+00
     -5.007  0.1422E-03  0.1986E-03  0.0000E+00
     -4.941  0.1212E-03  0.1408E-03  0.0000E+00
     -4.875  0.2052E-03  0.1281E-03  0.0000E+00
     -4.809  0.3935E-03  0.1083E-03  0.0000E+00
     -4.743  0.4449E-03  0.1891E-03  0.0000E+00
     -4.677  0.2075E-03  0.2984E-03  0.0000E+00
     -4.612  0.2469E-03  0.1111E-03  0.0000E+00
     -4.546  0.2228E-03  0.5012E-04  0.0000E+00
     -4.480  0.2725E-03  0.9666E-04  0.0000E+00
     -4.414  0.7219E-03  0.4711E-03  0.0000E+00
     -4.348  0.3597E-03  0.3596E-03  0.0000E+00
     -4.282  0.1328E-03  0.1206E-03  0.0000E+00
     -4.216  0.4734E-04  0.1284E-03  0.0000E+00
     -4.150  0.6090E-04  0.1160E-03  0.0000E+00
     -4.084  0.1994E-03  0.2108E-03  0.0000E+00
     -4.018  0.1976E-03  0.1800E-03  0.0000E+00
     -3.952  0.4362E-03  0.3283E-03  0.0000E+00
     -3.886  0.1384E-03  0.7873E-04  0.0000E+00
     -3.820  0.5804E-03  0.1275E-03  0.0000E+00
     -3.754  0.1295E-02  0.2907E-03  0.0000E+00
     -3.688  0.1523E-02  0.2770E-03  0.0000E+00
     -3.622  0.2029E-02  0.3115E-03  0.0000E+00
     -3.556  0.2382E-02  0.2648E-03  0.0000E+00
     -3.490  0.1809E-02  0.1609E-03  0.0000E+00
     -3.424  0.2963E-03  0.2540E-04  0.0000E+00
     -3.358  0.2981E-05  0.2551E-06  0.0000E+00
     -3.292  0.1199E-08  0.1026E-09  0.0000E+00
     -3.226  0.1680E-13  0.1438E-14  0.0000E+00
     -3.160  0.0000E+00  0.0000E+00  0.0000E+00
     -3.094  0.0000E+00  0.0000E+00  0.0000E+00
     -3.029  0.0000E+00  0.0000E+00  0.0000E+00
     -2.963  0.0000E+00  0.0000E+00  0.0000E+00
     -2.897  0.0000E+00  0.0000E+00  0.0000E+00
     -2.831  0.0000E+00  0.0000E+00  0.0000E+00
     -2.765  0.0000E+00  0.0000E+00  0.0000E+00
     -2.699  0.0000E+00  0.0000E+00  0.0000E+00
     -2.633  0.0000E+00  0.0000E+00  0.0000E+00
     -2.567  0.0000E+00  0.0000E+00  0.0000E+00
     -2.501  0.0000E+00  0.0000E+00  0.0000E+00
     -2.435  0.0000E+00  0.0000E+00  0.0000E+00
     -2.369  0.0000E+00  0.0000E+00  0.0000E+00
     -2.303  0.0000E+00  0.0000E+00  0.0000E+00
     -2.237  0.0000E+00  0.0000E+00  0.0000E+00
     -2.171  0.0000E+00  0.0000E+00  0.0000E+00
     -2.105  0.0000E+00  0.0000E+00  0.0000E+00
     -2.039  0.0000E+00  0.0000E+00  0.0000E+00
     -1.973  0.0000E+00  0.0000E+00  0.0000E+00
     -1.907  0.0000E+00  0.0000E+00  0.0000E+00
     -1.841  0.0000E+00  0.0000E+00  0.0000E+00
     -1.775  0.2087E-17  0.5303E-16  0.0000E+00
     -1.709  0.5435E-12  0.1368E-10  0.0000E+00
     -1.643  0.5037E-08  0.1231E-06  0.0000E+00
     -1.577  0.1974E-05  0.4470E-04  0.0000E+00
     -1.511  0.4476E-04  0.8875E-03  0.0000E+00
     -1.445  0.9720E-04  0.1552E-02  0.0000E+00
     -1.380  0.2245E-03  0.2228E-02  0.0000E+00
     -1.314  0.1207E-02  0.3866E-02  0.0000E+00
     -1.248  0.2940E-02  0.5069E-02  0.0000E+00
     -1.182  0.2397E-02  0.3293E-02  0.0000E+00
     -1.116  0.2294E-02  0.2132E-02  0.0000E+00
     -1.050  0.2169E-02  0.2820E-02  0.0000E+00
     -0.984  0.4262E-02  0.2511E-02  0.0000E+00
     -0.918  0.5054E-02  0.1063E-02  0.0000E+00
     -0.852  0.3973E-02  0.1361E-02  0.0000E+00
     -0.786  0.3194E-02  0.1815E-02  0.0000E+00
     -0.720  0.4740E-02  0.2634E-02  0.0000E+00
     -0.654  0.4189E-02  0.1848E-02  0.0000E+00
     -0.588  0.4205E-02  0.1211E-02  0.0000E+00
     -0.522  0.4583E-02  0.1446E-02  0.0000E+00
     -0.456  0.3280E-02  0.1994E-02  0.0000E+00
     -0.390  0.3322E-02  0.9118E-03  0.0000E+00
     -0.324  0.6529E-02  0.1669E-02  0.0000E+00
     -0.258  0.9917E-02  0.2587E-02  0.0000E+00
     -0.192  0.5834E-02  0.1811E-02  0.0000E+00
     -0.126  0.3083E-02  0.1703E-02  0.0000E+00
     -0.060  0.6466E-02  0.2891E-02  0.0000E+00
      0.006  0.8816E-02  0.2905E-02  0.0000E+00
      0.072  0.7889E-02  0.4014E-02  0.0000E+00
      0.138  0.7825E-02  0.4200E-02  0.0000E+00
      0.203  0.7712E-02  0.3426E-02  0.0000E+00
      0.269  0.1234E-01  0.4663E-02  0.0000E+00
      0.335  0.9598E-02  0.3767E-02  0.0000E+00
      0.401  0.1054E-01  0.4680E-02  0.0000E+00
      0.467  0.1326E-01  0.5348E-02  0.0000E+00
      0.533  0.8819E-02  0.3709E-02  0.0000E+00
      0.599  0.1048E-01  0.4779E-02  0.0000E+00
      0.665  0.8740E-02  0.4328E-02  0.0000E+00
      0.731  0.6624E-02  0.5060E-02  0.0000E+00
      0.797  0.1211E-01  0.5852E-02  0.0000E+00
      0.863  0.9404E-02  0.4316E-02  0.0000E+00
      0.929  0.1035E-01  0.5718E-02  0.0000E+00
      0.995  0.1279E-01  0.4263E-02  0.0000E+00
      1.061  0.1996E-01  0.5262E-02  0.0000E+00
      1.127  0.2161E-01  0.6644E-02  0.0000E+00
      1.193  0.1870E-01  0.7870E-02  0.0000E+00
      1.259  0.2414E-01  0.7729E-02  0.0000E+00
      1.325  0.2408E-01  0.6399E-02  0.0000E+00
      1.391  0.1949E-01  0.3807E-02  0.0000E+00
      1.457  0.1458E-01  0.8552E-02  0.0000E+00
      1.523  0.1482E-01  0.8701E-02  0.0000E+00
      1.589  0.3054E-01  0.1087E-01  0.0000E+00
      1.655  0.2187E-01  0.1306E-01  0.0000E+00
      1.721  0.3089E-01  0.1163E-01  0.0000E+00
      1.787  0.3318E-01  0.1615E-01  0.0000E+00
      1.852  0.2243E-01  0.1707E-01  0.0000E+00
      1.918  0.1201E-01  0.1508E-01  0.0000E+00
      1.984  0.8384E-02  0.1400E-01  0.0000E+00
      2.050  0.8676E-02  0.2034E-01  0.0000E+00
      2.116  0.7031E-02  0.1466E-01  0.0000E+00
      2.182  0.1046E-01  0.1517E-01  0.0000E+00
      2.248  0.6942E-02  0.1324E-01  0.0000E+00
      2.314  0.5199E-02  0.1788E-01  0.0000E+00
      2.380  0.7214E-02  0.1834E-01  0.0000E+00
      2.446  0.5619E-02  0.1365E-01  0.0000E+00
      2.512  0.9875E-02  0.1340E-01  0.0000E+00
      2.578  0.7491E-02  0.1144E-01  0.0000E+00
      2.644  0.4784E-02  0.6584E-02  0.0000E+00
      2.710  0.4055E-02  0.5232E-02  0.0000E+00
      2.776  0.5730E-02  0.9415E-02  0.0000E+00
      2.842  0.3745E-02  0.6540E-02  0.0000E+00
      2.908  0.4770E-02  0.7408E-02  0.0000E+00
      2.974  0.2508E-02  0.6452E-02  0.0000E+00
      3.040  0.1423E-02  0.6235E-02  0.0000E+00
      3.106  0.1310E-02  0.5692E-02  0.0000E+00
      3.172  0.2974E-02  0.2480E-02  0.0000E+00
      3.238  0.2358E-02  0.1214E-02  0.0000E+00
      3.304  0.4370E-03  0.4170E-03  0.0000E+00
      3.370  0.2739E-04  0.2898E-04  0.0000E+00
      3.436  0.1195E-06  0.1230E-06  0.0000E+00
      3.501  0.2030E-10  0.2074E-10  0.0000E+00
      3.567  0.1183E-15  0.1207E-15  0.0000E+00
      3.633  0.0000E+00  0.0000E+00  0.0000E+00
      3.699  0.0000E+00  0.0000E+00  0.0000E+00
      3.765  0.0000E+00  0.0000E+00  0.0000E+00
      3.831  0.0000E+00  0.0000E+00  0.0000E+00
      3.897  0.0000E+00  0.0000E+00  0.0000E+00
      3.963  0.0000E+00  0.0000E+00  0.0000E+00
      4.029  0.0000E+00  0.0000E+00  0.0000E+00
      4.095  0.0000E+00  0.0000E+00  0.0000E+00
      4.161  0.0000E+00  0.0000E+00  0.0000E+00
      4.227  0.0000E+00  0.0000E+00  0.0000E+00
      4.293  0.0000E+00  0.0000E+00  0.0000E+00
      4.359  0.0000E+00  0.0000E+00  0.0000E+00
      4.425  0.0000E+00  0.0000E+00  0.0000E+00
      4.491  0.0000E+00  0.0000E+00  0.0000E+00
      4.557  0.0000E+00  0.0000E+00  0.0000E+00
      4.623  0.3883E-17  0.9068E-18  0.0000E+00
      4.689  0.2363E-11  0.5519E-12  0.0000E+00
      4.755  0.4760E-07  0.1112E-07  0.0000E+00
      4.821  0.3460E-04  0.8089E-05  0.0000E+00
      4.887  0.1091E-02  0.2629E-03  0.0000E+00
      4.953  0.2182E-02  0.7916E-03  0.0000E+00
      5.019  0.5552E-03  0.1105E-02  0.0000E+00
      5.084  0.4603E-03  0.2056E-02  0.0000E+00
      5.150  0.6740E-03  0.1469E-02  0.0000E+00
      5.216  0.2284E-02  0.4604E-02  0.0000E+00
      5.282  0.2917E-02  0.6506E-02  0.0000E+00
      5.348  0.1125E-01  0.6922E-02  0.0000E+00
      5.414  0.1321E-01  0.7961E-02  0.0000E+00
      5.480  0.1027E-01  0.7933E-02  0.0000E+00
      5.546  0.1602E-01  0.5994E-02  0.0000E+00
      5.612  0.1416E-01  0.8040E-02  0.0000E+00
      5.678  0.1173E-01  0.1053E-01  0.0000E+00
      5.744  0.8844E-02  0.9980E-02  0.0000E+00
      5.810  0.8693E-02  0.8139E-02  0.0000E+00
      5.876  0.1049E-01  0.9976E-02  0.0000E+00
      5.942  0.1534E-01  0.1883E-01  0.0000E+00
      6.008  0.1158E-01  0.1516E-01  0.0000E+00
      6.074  0.9018E-02  0.6668E-02  0.0000E+00
      6.140  0.1423E-01  0.6013E-02  0.0000E+00
      6.206  0.1673E-01  0.7337E-02  0.0000E+00
      6.272  0.1447E-01  0.6046E-02  0.0000E+00
      6.338  0.1703E-01  0.4951E-02  0.0000E+00
      6.404  0.8773E-02  0.2333E-02  0.0000E+00
      6.470  0.1647E-01  0.5067E-02  0.0000E+00
      6.536  0.2308E-01  0.1105E-01  0.0000E+00
      6.602  0.1447E-01  0.6847E-02  0.0000E+00
      6.668  0.2060E-01  0.9499E-02  0.0000E+00
      6.733  0.1708E-01  0.1175E-01  0.0000E+00
      6.799  0.1368E-01  0.1503E-01  0.0000E+00
      6.865  0.9671E-02  0.8356E-02  0.0000E+00
      6.931  0.6513E-02  0.6153E-02  0.0000E+00
      6.997  0.1186E-01  0.5705E-02  0.0000E+00
      7.063  0.3060E-01  0.8600E-02  0.0000E+00
      7.129  0.3342E-01  0.8745E-02  0.0000E+00
      7.195  0.1623E-01  0.4014E-02  0.0000E+00
      7.261  0.1288E-01  0.4564E-02  0.0000E+00
      7.327  0.9178E-02  0.4780E-02  0.0000E+00
      7.393  0.1302E-01  0.3866E-02  0.0000E+00
      7.459  0.9727E-02  0.3682E-02  0.0000E+00
      7.525  0.1572E-01  0.5704E-02  0.0000E+00
      7.591  0.3963E-01  0.1229E-01  0.0000E+00
      7.657  0.3575E-01  0.1204E-01  0.0000E+00
      7.723  0.1032E-01  0.5210E-02  0.0000E+00
      7.789  0.3902E-03  0.6137E-03  0.0000E+00
      7.855  0.1982E-05  0.5655E-05  0.0000E+00
      7.921  0.6856E-09  0.2166E-08  0.0000E+00
      7.987  0.9067E-14  0.2901E-13  0.0000E+00
      8.053  0.0000E+00  0.0000E+00  0.0000E+00
      8.119  0.0000E+00  0.0000E+00  0.0000E+00
      8.185  0.0000E+00  0.0000E+00  0.0000E+00
      8.251  0.0000E+00  0.0000E+00  0.0000E+00
      8.316  0.0000E+00  0.0000E+00  0.0000E+00
      8.382  0.0000E+00  0.0000E+00  0.0000E+00
      8.448  0.0000E+00  0.0000E+00  0.0000E+00
      8.514  0.0000E+00  0.0000E+00  0.0000E+00
      8.580  0.0000E+00  0.0000E+00  0.0000E+00
      8.58033393    -11.20747272  301      3.50558602      1.00000000
    -11.207  0.0000E+00  0.0000E+00  0.0000E+00
    -11.142  0.0000E+00  0.0000E+00  0.0000E+00
    -11.076  0.0000E+00  0.0000E+00  0.0000E+00
    -11.010  0.0000E+00  0.0000E+00  0.0000E+00
    -10.944  0.0000E+00  0.0000E+00  0.0000E+00
    -10.878  0.0000E+00  0.0000E+00  0.0000E+00
    -10.812  0.0000E+00  0.0000E+00  0.0000E+00
    -10.746  0.0000E+00  0.0000E+00  0.0000E+00
    -10.680  0.0000E+00  0.0000E+00  0.0000E+00
    -10.614  0.0000E+00  0.0000E+00  0.0000E+00
    -10.548  0.2032E-14  0.4307E-15  0.0000E+00
    -10.482  0.1517E-09  0.3216E-10  0.0000E+00
    -10.416  0.3943E-06  0.8355E-07  0.0000E+00
    -10.350  0.4105E-04  0.8631E-05  0.0000E+00
    -10.284  0.2749E-03  0.5148E-04  0.0000E+00
    -10.218  0.4264E-03  0.5674E-04  0.0000E+00
    -10.152  0.5420E-03  0.1730E-03  0.0000E+00
    -10.086  0.2893E-03  0.2358E-03  0.0000E+00
    -10.020  0.1655E-03  0.1014E-03  0.0000E+00
     -9.954  0.2930E-03  0.1586E-03  0.0000E+00
     -9.888  0.1711E-03  0.1076E-03  0.0000E+00
     -9.822  0.1017E-03  0.3181E-04  0.0000E+00
     -9.756  0.5751E-04  0.6643E-04  0.0000E+00
     -9.690  0.2607E-03  0.1899E-03  0.0000E+00
     -9.624  0.2861E-03  0.2667E-03  0.0000E+00
     -9.558  0.4592E-03  0.2400E-03  0.0000E+00
     -9.493  0.9078E-03  0.3364E-03  0.0000E+00
     -9.427  0.5541E-03  0.2593E-03  0.0000E+00
     -9.361  0.2481E-03  0.1716E-03  0.0000E+00
     -9.295  0.1857E-03  0.1031E-03  0.0000E+00
     -9.229  0.6493E-03  0.3165E-03  0.0000E+00
     -9.163  0.8999E-03  0.5047E-03  0.0000E+00
     -9.097  0.6983E-03  0.3762E-03  0.0000E+00
     -9.031  0.5704E-03  0.2584E-03  0.0000E+00
     -8.965  0.9552E-04  0.6282E-04  0.0000E+00
     -8.899  0.1655E-03  0.1588E-03  0.0000E+00
     -8.833  0.4486E-03  0.2927E-03  0.0000E+00
     -8.767  0.2835E-03  0.2202E-03  0.0000E+00
     -8.701  0.4051E-03  0.4535E-03  0.0000E+00
     -8.635  0.3290E-03  0.3925E-03  0.0000E+00
     -8.569  0.3537E-03  0.5038E-03  0.0000E+00
     -8.503  0.1372E-02  0.8915E-03  0.0000E+00
     -8.437  0.1891E-02  0.1391E-02  0.0000E+00
     -8.371  0.1836E-02  0.1614E-02  0.0000E+00
     -8.305  0.9111E-03  0.1143E-02  0.0000E+00
     -8.239  0.4130E-03  0.9356E-03  0.0000E+00
     -8.173  0.1748E-03  0.4699E-03  0.0000E+00
     -8.107  0.2496E-04  0.7178E-04  0.0000E+00
     -8.041  0.4507E-06  0.1377E-05  0.0000E+00
     -7.975  0.4126E-09  0.1306E-08  0.0000E+00
     -7.910  0.1412E-13  0.4579E-13  0.0000E+00
     -7.844  0.1531E-19  0.5303E-19  0.0000E+00
     -7.778  0.0000E+00  0.0000E+00  0.0000E+00
     -7.712  0.0000E+00  0.0000E+00  0.0000E+00
     -7.646  0.0000E+00  0.0000E+00  0.0000E+00
     -7.580  0.0000E+00  0.0000E+00  0.0000E+00
     -7.514  0.0000E+00  0.0000E+00  0.0000E+00
     -7.448  0.0000E+00  0.0000E+00  0.0000E+00
     -7.382  0.0000E+00  0.0000E+00  0.0000E+00
     -7.316  0.0000E+00  0.0000E+00  0.0000E+00
     -7.250  0.0000E+00  0.0000E+00  0.0000E+00
     -7.184  0.0000E+00  0.0000E+00  0.0000E+00
     -7.118  0.0000E+00  0.0000E+00  0.0000E+00
     -7.052  0.0000E+00  0.0000E+00  0.0000E+00
     -6.986  0.0000E+00  0.0000E+00  0.0000E+00
     -6.920  0.0000E+00  0.0000E+00  0.0000E+00
     -6.854  0.0000E+00  0.0000E+00  0.0000E+00
     -6.788  0.0000E+00  0.0000E+00  0.0000E+00
     -6.722  0.0000E+00  0.0000E+00  0.0000E+00
     -6.656  0.0000E+00  0.0000E+00  0.0000E+00
     -6.590  0.0000E+00  0.0000E+00  0.0000E+00
     -6.524  0.0000E+00  0.0000E+00  0.0000E+00
     -6.458  0.0000E+00  0.0000E+00  0.0000E+00
     -6.392  0.0000E+00  0.0000E+00  0.0000E+00
     -6.326  0.0000E+00  0.0000E+00  0.0000E+00
     -6.261  0.0000E+00  0.0000E+00  0.0000E+00
     -6.195  0.0000E+00  0.0000E+00  0.0000E+00
     -6.129  0.0000E+00  0.0000E+00  0.0000E+00
     -6.063  0.0000E+00  0.0000E+00  0.0000E+00
     -5.997  0.0000E+00  0.0000E+00  0.0000E+00
     -5.931  0.1681E-18  0.2324E-18  0.0000E+00
     -5.865  0.8363E-13  0.1153E-12  0.0000E+00
     -5.799  0.1429E-08  0.1961E-08  0.0000E+00
     -5.733  0.9788E-06  0.1331E-05  0.0000E+00
     -5.667  0.3626E-04  0.4841E-04  0.0000E+00
     -5.601  0.1289E-03  0.1549E-03  0.0000E+00
     -5.535  0.9212E-04  0.8221E-04  0.0000E+00
     -5.469  0.8580E-04  0.4368E-04  0.0000E+00
     -5.403  0.2715E-03  0.1567E-03  0.0000E+00
     -5.337  0.2543E-03  0.1312E-03  0.0000E+00