 vasp.5.4.4.18Apr17-6-g9f103f2a35 (build Oct 27 2022 13:04:57) complex          
  
 executed on             LinuxIFC date 2024.06.29  19:12:45
 running on   14 total cores
 distrk:  each k-point on   14 cores,    1 groups
 distr:  one band on NCORES_PER_BAND=   1 cores,   14 groups


--------------------------------------------------------------------------------------------------------


 INCAR:
 POTCAR:    PAW_PBE Na 08Apr2002                  
 POTCAR:    PAW_PBE Sb 06Sep2000                  
 POTCAR:    PAW_PBE S 06Sep2000                   

 ----------------------------------------------------------------------------- 
|                                                                             |
|           W    W    AA    RRRRR   N    N  II  N    N   GGGG   !!!           |
|           W    W   A  A   R    R  NN   N  II  NN   N  G    G  !!!           |
|           W    W  A    A  R    R  N N  N  II  N N  N  G       !!!           |
|           W WW W  AAAAAA  RRRRR   N  N N  II  N  N N  G  GGG   !            |
|           WW  WW  A    A  R   R   N   NN  II  N   NN  G    G                |
|           W    W  A    A  R    R  N    N  II  N    N   GGGG   !!!           |
|                                                                             |
|      For optimal performance we recommend to set                            |
|        NCORE= 4 - approx SQRT( number of cores)                             |
|      NCORE specifies how many cores store one orbital (NPAR=cpu/NCORE).     |
|      This setting can  greatly improve the performance of VASP for DFT.     |
|      The default,   NCORE=1            might be grossly inefficient         |
|      on modern multi-core architectures or massively parallel machines.     |
|      Do your own testing !!!!                                               |
|      Unfortunately you need to use the default for GW and RPA calculations. |
|      (for HF NCORE is supported but not extensively tested yet)             |
|                                                                             |
 ----------------------------------------------------------------------------- 

 POTCAR:    PAW_PBE Na 08Apr2002                  
   VRHFIN =Na: s1p0                                                             
   LEXCH  = PE                                                                  
   EATOM  =     5.1581 eV,    0.3791 Ry                                         
                                                                                
   TITEL  = PAW_PBE Na 08Apr2002                                                
   LULTRA =        F    use ultrasoft PP ?                                      
   IUNSCR =        1    unscreen: 0-lin 1-nonlin 2-no                           
   RPACOR =    1.800    partial core radius                                     
   POMASS =   22.990; ZVAL   =    1.000    mass and valenz                      
   RCORE  =    2.200    outmost cutoff radius                                   
   RWIGS  =    3.320; RWIGS  =    1.757    wigner-seitz radius (au A)           
   ENMAX  =  101.968; ENMIN  =   76.476 eV                                      
   ICORE  =        2    local potential                                         
   LCOR   =        T    correct aug charges                                     
   LPAW   =        T    paw PP                                                  
   EAUG   =  250.695                                                            
   DEXC   =    0.000                                                            
   RMAX   =    2.245    core radius for proj-oper                               
   RAUG   =    1.300    factor for augmentation sphere                          
   RDEP   =    2.259    radius for radial grids                                 
   RDEPT  =    2.115    core radius for aug-charge                              
                                                                                
   Atomic configuration                                                         
    6 entries                                                                   
     n  l   j            E        occ.                                          
     1  0  0.50     -1033.6933   2.0000                                         
     2  0  0.50       -56.7526   2.0000                                         
     2  1  1.50       -28.6721   6.0000                                         
     3  0  0.50        -2.7440   1.0000                                         
     3  1  0.50        -1.3606   0.0000                                         
     3  2  1.50        -1.3606   0.0000                                         
   Description                                                                  
     l       E           TYP  RCUT    TYP  RCUT                                 
     0     -2.7439560     23  2.200                                             
     0     27.2116520     23  2.200                                             
     1     -1.3605826     23  2.200                                             
     2     -1.3605826     23  2.200                                             
  local pseudopotential read in
  partial core-charges read in
  partial kinetic energy density read in
  atomic valenz-charges read in
  non local Contribution for L=           0  read in
    real space projection operators read in
  non local Contribution for L=           0  read in
    real space projection operators read in
  non local Contribution for L=           1  read in
    real space projection operators read in
    PAW grid and wavefunctions read in
 
   number of l-projection  operators is LMAX  =           3
   number of lm-projection operators is LMMAX =           5
 
 POTCAR:    PAW_PBE Sb 06Sep2000                  
   VRHFIN =Sb: s2p3                                                             
   LEXCH  = PE                                                                  
   EATOM  =   149.9515 eV,   11.0211 Ry                                         
                                                                                
   TITEL  = PAW_PBE Sb 06Sep2000                                                
   LULTRA =        F    use ultrasoft PP ?                                      
   IUNSCR =        1    unscreen: 0-lin 1-nonlin 2-no                           
   RPACOR =    2.200    partial core radius                                     
   POMASS =  121.750; ZVAL   =    5.000    mass and valenz                      
   RCORE  =    2.300    outmost cutoff radius                                   
   RWIGS  =    2.980; RWIGS  =    1.577    wigner-seitz radius (au A)           
   ENMAX  =  172.069; ENMIN  =  129.052 eV                                      
   ICORE  =        3    local potential                                         
   LCOR   =        T    correct aug charges                                     
   LPAW   =        T    paw PP                                                  
   EAUG   =  380.513                                                            
   DEXC   =    0.000                                                            
   RMAX   =    2.346    core radius for proj-oper                               
   RAUG   =    1.300    factor for augmentation sphere                          
   RDEP   =    2.360    radius for radial grids                                 
   RDEPT  =    2.192    core radius for aug-charge                              
                                                                                
   Atomic configuration                                                         
   13 entries                                                                   
     n  l   j            E        occ.                                          
     1  0  0.50    -30298.2797   2.0000                                         
     2  0  0.50     -4610.2252   2.0000                                         
     2  1  1.50     -4138.3407   6.0000                                         
     3  0  0.50      -903.8815   2.0000                                         
     3  1  1.50      -750.1337   6.0000                                         
     3  2  2.50      -515.7092  10.0000                                         
     4  0  0.50      -148.8034   2.0000                                         
     4  1  1.50      -101.7581   6.0000                                         
     4  2  2.50       -33.5048  10.0000                                         
     5  0  0.50       -12.8298   2.0000                                         
     5  1  0.50        -4.8276   3.0000                                         
     5  2  1.50        -4.0817   0.0000                                         
     4  3  2.50        -4.0817   0.0000                                         
   Description                                                                  
     l       E           TYP  RCUT    TYP  RCUT                                 
     0    -12.8297861     23  2.300                                             
     0     13.6058260     23  2.300                                             
     1     -4.8275512     23  2.300                                             
     1     -0.7245443     23  2.300                                             
     2     -4.0817478     23  2.300                                             
     3     -1.3605826     23  2.300                                             
  local pseudopotential read in
  partial core-charges read in
  partial kinetic energy density read in
  atomic valenz-charges read in
  non local Contribution for L=           0  read in
    real space projection operators read in
  non local Contribution for L=           0  read in
    real space projection operators read in
  non local Contribution for L=           1  read in
    real space projection operators read in
  non local Contribution for L=           1  read in
    real space projection operators read in
  non local Contribution for L=           2  read in
    real space projection operators read in
    PAW grid and wavefunctions read in
 
   number of l-projection  operators is LMAX  =           5
   number of lm-projection operators is LMMAX =          13
 
 POTCAR:    PAW_PBE S 06Sep2000                   
   VRHFIN =S : s2p4                                                             
   LEXCH  = PE                                                                  
   EATOM  =   276.8230 eV,   20.3459 Ry                                         
                                                                                
   TITEL  = PAW_PBE S 06Sep2000                                                 
   LULTRA =        F    use ultrasoft PP ?                                      
   IUNSCR =        1    unscreen: 0-lin 1-nonlin 2-no                           
   RPACOR =    1.500    partial core radius                                     
   POMASS =   32.066; ZVAL   =    6.000    mass and valenz                      
   RCORE  =    1.900    outmost cutoff radius                                   
   RWIGS  =    2.200; RWIGS  =    1.164    wigner-seitz radius (au A)           
   ENMAX  =  258.689; ENMIN  =  194.016 eV                                      
   ICORE  =        2    local potential                                         
   LCOR   =        T    correct aug charges                                     
   LPAW   =        T    paw PP                                                  
   EAUG   =  335.092                                                            
   DEXC   =    0.000                                                            
   RMAX   =    1.942    core radius for proj-oper                               
   RAUG   =    1.300    factor for augmentation sphere                          
   RDEP   =    1.954    radius for radial grids                                 
   RDEPT  =    1.744    core radius for aug-charge                              
                                                                                
   Atomic configuration                                                         
    6 entries                                                                   
     n  l   j            E        occ.                                          
     1  0  0.50     -2405.8406   2.0000                                         
     2  0  0.50      -211.7007   2.0000                                         
     2  1  1.50      -156.4958   6.0000                                         
     3  0  0.50       -17.2562   2.0000                                         
     3  1  0.50        -7.0085   4.0000                                         
     3  2  1.50        -6.8029   0.0000                                         
   Description                                                                  
     l       E           TYP  RCUT    TYP  RCUT                                 
     0    -17.2561641     23  1.900                                             
     0    -15.8743224     23  1.900                                             
     1     -7.0085400     23  1.900                                             
     1     -2.7779785     23  1.900                                             
     2     -6.8029130     23  1.900                                             
  local pseudopotential read in
  partial core-charges read in
  partial kinetic energy density read in
  atomic valenz-charges read in
  non local Contribution for L=           0  read in
    real space projection operators read in
  non local Contribution for L=           0  read in
    real space projection operators read in
  non local Contribution for L=           1  read in
    real space projection operators read in
  non local Contribution for L=           1  read in
    real space projection operators read in
    PAW grid and wavefunctions read in
 
   number of l-projection  operators is LMAX  =           4
   number of lm-projection operators is LMMAX =           8
 
 Optimization of the real space projectors (new method)

 maximal supplied QI-value         = 17.01
 optimisation between [QCUT,QGAM] = [  8.84, 17.69] = [ 21.90, 87.61] Ry 
 Optimized for a Real-space Cutoff    1.22 Angstroem

   l    n(q)    QCUT    max X(q) W(low)/X(q) W(high)/X(q)  e(spline) 
   0      6     8.844    45.123    0.62E-03    0.70E-03    0.80E-07
   0      6     8.844    12.364    0.51E-03    0.48E-03    0.55E-07
   1      6     8.844     8.302    0.36E-03    0.27E-03    0.23E-07
 Optimization of the real space projectors (new method)

 maximal supplied QI-value         = 16.25
 optimisation between [QCUT,QGAM] = [  8.78, 17.71] = [ 21.57, 87.87] Ry 
 Optimized for a Real-space Cutoff    1.26 Angstroem

   l    n(q)    QCUT    max X(q) W(low)/X(q) W(high)/X(q)  e(spline) 
   0      7     8.776    19.000    0.12E-02    0.42E-03    0.95E-07
   0      7     8.776     9.057    0.14E-02    0.54E-03    0.11E-06
   1      6     8.776   125.345    0.45E-03    0.22E-02    0.77E-07
   1      6     8.776    79.963    0.45E-03    0.21E-02    0.76E-07
   2      6     8.776     6.963    0.11E-02    0.51E-03    0.39E-07
 Optimization of the real space projectors (new method)

 maximal supplied QI-value         = 19.84
 optimisation between [QCUT,QGAM] = [  8.73, 17.66] = [ 21.34, 87.33] Ry 
 Optimized for a Real-space Cutoff    1.22 Angstroem

   l    n(q)    QCUT    max X(q) W(low)/X(q) W(high)/X(q)  e(spline) 
   0      6     8.731   187.594    0.15E-02    0.56E-03    0.90E-07
   0      6     8.731   164.243    0.15E-02    0.56E-03    0.89E-07
   1      6     8.731    67.533    0.37E-03    0.20E-02    0.11E-06
   1      6     8.731    50.729    0.36E-03    0.19E-02    0.10E-06
  PAW_PBE Na 08Apr2002                  :
 energy of atom  1       EATOM=   -5.1581
 kinetic energy error for atom=    0.0001 (will be added to EATOM!!)
  PAW_PBE Sb 06Sep2000                  :
 energy of atom  2       EATOM= -149.9515
 kinetic energy error for atom=    0.0018 (will be added to EATOM!!)
  PAW_PBE S 06Sep2000                   :
 energy of atom  3       EATOM= -276.8230
 kinetic energy error for atom=    0.0077 (will be added to EATOM!!)
 
 
 POSCAR: Na4 Sb8 S14                             
  positions in direct lattice
  velocities in cartesian coordinates
 exchange correlation table for  LEXCH =        8
   RHO(1)=    0.500       N(1)  =     2000
   RHO(2)=  100.500       N(2)  =     4000
 


--------------------------------------------------------------------------------------------------------


 ion  position               nearest neighbor table
   1  0.312  0.340  0.120-  19 2.87  25 2.91  22 2.94  14 2.95  18 3.06  26 3.15   7 3.95   3 4.21

   2  0.422  0.767  0.592-  23 2.92  21 2.94  24 3.00  16 3.03  15 3.31  12 3.86   9 3.97   4 4.21

   3  0.578  0.233  0.408-  22 2.92  19 2.94  16 3.00  24 3.03  25 3.31   8 3.86   7 3.97   1 4.21

   4  0.688  0.660  0.880-  21 2.87  15 2.91  23 2.94  18 2.95  14 3.06  13 3.15   9 3.95   2 4.21

   5  0.027  0.948  0.335-  24 2.46  17 2.51  16 2.72  13 2.80  10 3.58  12 3.78
   6  0.138  0.448  0.815-  20 2.50  15 2.51  23 2.57  26 2.96  18 3.20
   7  0.750  0.131  0.052-  19 2.45  22 2.59  14 2.63  13 3.03  21 3.16   1 3.95   3 3.97
   8  0.523  0.211  0.760-  26 2.52  14 2.53  15 2.62  21 2.99  20 3.27  10 3.78   3 3.86
   9  0.250  0.869  0.948-  21 2.45  23 2.59  18 2.63  26 3.03  19 3.16   4 3.95   2 3.97
  10  0.973  0.052  0.665-  16 2.46  20 2.51  24 2.72  26 2.80   5 3.58   8 3.78
  11  0.862  0.552  0.185-  17 2.50  25 2.51  22 2.57  13 2.96  14 3.20
  12  0.477  0.789  0.240-  13 2.52  18 2.53  25 2.62  19 2.99  17 3.27   5 3.78   2 3.86
  13  0.810  0.846  0.133-  12 2.52   5 2.80  11 2.96   7 3.03   4 3.15
  14  0.668  0.350  0.954-   8 2.53   7 2.63   1 2.95   4 3.06  11 3.20
  15  0.463  0.459  0.698-   6 2.51   8 2.62   4 2.91   2 3.31
  16  0.259  0.019  0.523-  10 2.46   5 2.72   3 3.00   2 3.03
  17  0.042  0.687  0.363-  11 2.50   5 2.51  12 3.27
  18  0.332  0.650  0.046-  12 2.53   9 2.63   4 2.95   1 3.06   6 3.20
  19  0.438  0.082  0.171-   7 2.45   1 2.87   3 2.94  12 2.99   9 3.16
  20  0.958  0.313  0.637-   6 2.50  10 2.51   8 3.27
  21  0.562  0.918  0.829-   9 2.45   4 2.87   2 2.94   8 2.99   7 3.16
  22  0.916  0.301  0.234-  11 2.57   7 2.59   3 2.92   1 2.94
  23  0.084  0.699  0.766-   6 2.57   9 2.59   2 2.92   4 2.94
  24  0.741  0.981  0.477-   5 2.46  10 2.72   2 3.00   3 3.03
  25  0.537  0.541  0.302-  11 2.51  12 2.62   1 2.91   3 3.31
  26  0.190  0.154  0.867-   8 2.52  10 2.80   6 2.96   9 3.03   1 3.15
 
  LATTYP: Found a triclinic cell.
 ALAT       =    10.9400108539
 B/A-ratio  =     1.1267935511
 C/A-ratio  =     0.8447982385
 COS(alpha) =     0.0209459162
 COS(beta)  =     0.1531878942
 COS(gamma) =     0.8162787451
  
  Lattice vectors:
  
 A1 = (  -0.8711952806,  -1.6925615650, -10.7731189363)
 A2 = (   6.2957034841,  -1.7765768516, -10.4482590447)
 A3 = (  -1.9403689965,  -9.0350527891,   0.1386966321)


Analysis of symmetry for initial positions (statically):
=====================================================================
 Subroutine PRICEL returns:
 Original cell was already a primitive cell.
 

 Routine SETGRP: Setting up the symmetry group for a 
 triclinic supercell.


 Subroutine GETGRP returns: Found  2 space group operations
 (whereof  2 operations were pure point group operations)
 out of a pool of  2 trial point group operations.


The static configuration has the point symmetry S_2 .


Analysis of symmetry for dynamics (positions and initial velocities):
=====================================================================
 Subroutine PRICEL returns:
 Original cell was already a primitive cell.
 

 Routine SETGRP: Setting up the symmetry group for a 
 triclinic supercell.


 Subroutine GETGRP returns: Found  2 space group operations
 (whereof  2 operations were pure point group operations)
 out of a pool of  2 trial point group operations.


The dynamic configuration has the point symmetry S_2 .


 Subroutine INISYM returns: Found  2 space group operations
 (whereof  2 operations are pure point group operations),
 and found     1 'primitive' translations

 
 
 KPOINTS: pymatgen with grid density = 807 / numbe

Automatic generation of k-mesh.
Space group operators:
 irot       det(A)        alpha          n_x          n_y          n_z        tau_x        tau_y        tau_z
    1     1.000000     0.000000     1.000000     0.000000     0.000000     0.000000     0.000000     0.000000
    2    -1.000000     0.000000     1.000000     0.000000     0.000000     0.000000     0.000000     0.000000
 
 Subroutine IBZKPT returns following result:
 ===========================================
 
 Found      6 irreducible k-points:
 
 Following reciprocal coordinates:
            Coordinates               Weight
 -0.000000  0.250000  0.250000      2.000000
  0.333333  0.250000  0.250000      2.000000
 -0.333333  0.250000  0.250000      2.000000
  0.000000 -0.250000  0.250000      2.000000
  0.333333 -0.250000  0.250000      2.000000
 -0.333333 -0.250000  0.250000      2.000000
 
 Following cartesian coordinates:
            Coordinates               Weight
  0.001565  0.026911 -0.027560      2.000000
 -0.044927  0.036929 -0.025375      2.000000
  0.048056  0.016893 -0.029746      2.000000
  0.000525 -0.028072 -0.018838      2.000000
 -0.045967 -0.018054 -0.016652      2.000000
  0.047017 -0.038090 -0.021024      2.000000
 


--------------------------------------------------------------------------------------------------------




 Dimension of arrays:
   k-points           NKPTS =      6   k-points in BZ     NKDIM =      6   number of bands    NBANDS=     84
   number of dos      NEDOS =    301   number of ions     NIONS =     26
   non local maximal  LDIM  =      5   non local SUM 2l+1 LMDIM =     13
   total plane-waves  NPLWV =  57600
   max r-space proj   IRMAX =    737   max aug-charges    IRDMAX=   2198
   dimension x,y,z NGX =    30 NGY =   40 NGZ =   48
   dimension x,y,z NGXF=    48 NGYF=   60 NGZF=   70
   support grid    NGXF=    48 NGYF=   60 NGZF=   70
   ions per type =               4   8  14
   NGX,Y,Z   is equivalent  to a cutoff of   6.95,  7.20,  7.29 a.u.
   NGXF,Y,Z  is equivalent  to a cutoff of  11.12, 10.79, 10.64 a.u.

 SYSTEM =  CIS                                     
 POSCAR =  Na4 Sb8 S14                             

 Startparameter for this run:
   NWRITE =      2    write-flag & timer
   PREC   = medium    normal or accurate (medium, high low for compatibility)
   ISTART =      0    job   : 0-new  1-cont  2-samecut
   ICHARG =      2    charge: 1-file 2-atom 10-const
   ISPIN  =      1    spin polarized calculation?
   LNONCOLLINEAR =      F non collinear calculations
   LSORBIT =      F    spin-orbit coupling
   INIWAV =      1    electr: 0-lowe 1-rand  2-diag
   LASPH  =      T    aspherical Exc in radial PAW
   METAGGA=      F    non-selfconsistent MetaGGA calc.

 Electronic Relaxation 1
   ENCUT  =  300.0 eV  22.05 Ry    4.70 a.u.  10.13 13.05 15.45*2*pi/ulx,y,z
   ENINI  =  300.0     initial cutoff
   ENAUG  =  380.5 eV  augmentation charge cutoff
   NELM   =     60;   NELMIN=  2; NELMDL= -5     # of ELM steps 
   EDIFF  = 0.1E-03   stopping-criterion for ELM
   LREAL  =      T    real-space projection
   NLSPLINE    = F    spline interpolate recip. space projectors
   LCOMPAT=      F    compatible to vasp.4.4
   GGA_COMPAT  = T    GGA compatible to vasp.4.4-vasp.4.6
   LMAXPAW     = -100 max onsite density
   LMAXMIX     =    4 max onsite mixed and CHGCAR
   VOSKOWN=      0    Vosko Wilk Nusair interpolation
   ROPT   =   -0.00200  -0.00200  -0.00200
 Ionic relaxation
   EDIFFG = -.5E-01   stopping-criterion for IOM
   NSW    =     99    number of steps for IOM
   NBLOCK =      1;   KBLOCK =     99    inner block; outer block 
   IBRION =      2    ionic relax: 0-MD 1-quasi-New 2-CG
   NFREE  =      1    steps in history (QN), initial steepest desc. (CG)
   ISIF   =      3    stress and relaxation
   IWAVPR =     11    prediction:  0-non 1-charg 2-wave 3-comb
   ISYM   =      2    0-nonsym 1-usesym 2-fastsym
   LCORR  =      T    Harris-Foulkes like correction to forces

   POTIM  = 0.1000    time-step for ionic-motion
   TEIN   =    0.0    initial temperature
   TEBEG  =    0.0;   TEEND  =   0.0 temperature during run
   SMASS  =  -3.00    Nose mass-parameter (am)
   estimated Nose-frequenzy (Omega)   =  0.10E-29 period in steps =****** mass=  -0.118E-26a.u.
   SCALEE = 1.0000    scale energy and forces
   NPACO  =    256;   APACO  = 16.0  distance and # of slots for P.C.
   PSTRESS=    0.0 pullay stress

  Mass of Ions in am
   POMASS =  22.99121.75 32.07
  Ionic Valenz
   ZVAL   =   1.00  5.00  6.00
  Atomic Wigner-Seitz radii
   RWIGS  =  -1.00 -1.00 -1.00
  virtual crystal weights 
   VCA    =   1.00  1.00  1.00
   NELECT =     128.0000    total number of electrons
   NUPDOWN=      -1.0000    fix difference up-down

 DOS related values:
   EMIN   =  10.00;   EMAX   =-10.00  energy-range for DOS
   EFERMI =   0.00
   ISMEAR =     0;   SIGMA  =   0.05  broadening in eV -4-tet -1-fermi 0-gaus

 Electronic relaxation 2 (details)
   IALGO  =     38    algorithm
   LDIAG  =      T    sub-space diagonalisation (order eigenvalues)
   LSUBROT=      F    optimize rotation matrix (better conditioning)
   TURBO    =      0    0=normal 1=particle mesh
   IRESTART =      0    0=no restart 2=restart with 2 vectors
   NREBOOT  =      0    no. of reboots
   NMIN     =      0    reboot dimension
   EREF     =   0.00    reference energy to select bands
   IMIX   =      4    mixing-type and parameters
     AMIX     =   0.40;   BMIX     =  1.00
     AMIX_MAG =   1.60;   BMIX_MAG =  1.00
     AMIN     =   0.10
     WC   =   100.;   INIMIX=   1;  MIXPRE=   1;  MAXMIX= -45

 Intra band minimization:
   WEIMIN = 0.0010     energy-eigenvalue tresh-hold
   EBREAK =  0.30E-06  absolut break condition
   DEPER  =   0.30     relativ break condition  

   TIME   =   0.40     timestep for ELM

  volume/ion in A,a.u.               =      26.91       181.57
  Fermi-wavevector in a.u.,A,eV,Ry     =   0.929404  1.756319 11.752596  0.863791
  Thomas-Fermi vector in A             =   2.055683
 
 Write flags
   LWAVE        =      F    write WAVECAR
   LDOWNSAMPLE  =      F    k-point downsampling of WAVECAR
   LCHARG       =      F    write CHGCAR
   LVTOT        =      F    write LOCPOT, total local potential
   LVHAR        =      F    write LOCPOT, Hartree potential only
   LELF         =      F    write electronic localiz. function (ELF)
   LORBIT       =     10    0 simple, 1 ext, 2 COOP (PROOUT), +10 PAW based schemes


 Dipole corrections
   LMONO  =      F    monopole corrections only (constant potential shift)
   LDIPOL =      F    correct potential (dipole corrections)
   IDIPOL =      0    1-x, 2-y, 3-z, 4-all directions 
   EPSILON=  1.0000000 bulk dielectric constant

 Exchange correlation treatment:
   GGA     =    --    GGA type
   LEXCH   =     8    internal setting for exchange type
   VOSKOWN=      0    Vosko Wilk Nusair interpolation
   LHFCALC =     F    Hartree Fock is set to
   LHFONE  =     F    Hartree Fock one center treatment
   AEXX    =    0.0000 exact exchange contribution

 Linear response parameters
   LEPSILON=     F    determine dielectric tensor
   LRPA    =     F    only Hartree local field effects (RPA)
   LNABLA  =     F    use nabla operator in PAW spheres
   LVEL    =     F    velocity operator in full k-point grid
   LINTERFAST=   F  fast interpolation
   KINTER  =     0    interpolate to denser k-point grid
   CSHIFT  =0.1000    complex shift for real part using Kramers Kronig
   OMEGAMAX=  -1.0    maximum frequency
   DEG_THRESHOLD= 0.2000000E-02 threshold for treating states as degnerate
   RTIME   =   -0.100 relaxation time in fs
  (WPLASMAI=    0.000 imaginary part of plasma frequency in eV, 0.658/RTIME)
   DFIELD  = 0.0000000 0.0000000 0.0000000 field for delta impulse in time
 
 Orbital magnetization related:
   ORBITALMAG=     F  switch on orbital magnetization
   LCHIMAG   =     F  perturbation theory with respect to B field
   DQ        =  0.001000  dq finite difference perturbation B field
   LLRAUG    =     F  two centre corrections for induced B field



--------------------------------------------------------------------------------------------------------


 conjugate gradient relaxation of ions
 charge density and potential will be updated during run
 non-spin polarized calculation
 Variant of blocked Davidson
 Davidson routine will perform the subspace rotation
 perform sub-space diagonalisation
    after iterative eigenvector-optimisation
 modified Broyden-mixing scheme, WC =      100.0
 initial mixing is a Kerker type mixing with AMIX =  0.4000 and BMIX =      1.0000
 Hartree-type preconditioning will be used
 using additional bands           20
 real space projection scheme for non local part
 use partial core corrections
 calculate Harris-corrections to forces 
   (improved forces if not selfconsistent)
 use gradient corrections 
 use of overlap-Matrix (Vanderbilt PP)
 Gauss-broadening in eV      SIGMA  =   0.05


--------------------------------------------------------------------------------------------------------


  energy-cutoff  :      300.00
  volume of cell :      699.55
      direct lattice vectors                 reciprocal lattice vectors
    -7.166898765  0.084015287 -0.324859892    -0.139475270  0.030054384  0.006557182
     1.940368996  9.035052789 -0.138696632     0.002079829  0.109965580 -0.017444851
    -0.871195281 -1.692561565-10.773118936     0.004179055 -0.002322013 -0.092796768

  length of vectors
     7.174749502  9.242101898 10.940010854     0.142827216  0.111360125  0.092919839


 
 k-points in units of 2pi/SCALE and weight: pymatgen with grid density = 807 / numbe
   0.00156472  0.02691089 -0.02756040       0.167
  -0.04492704  0.03692902 -0.02537468       0.167
   0.04805648  0.01689276 -0.02974613       0.167
   0.00052481 -0.02807190 -0.01883798       0.167
  -0.04596695 -0.01805377 -0.01665225       0.167
   0.04701656 -0.03809003 -0.02102371       0.167
 
 k-points in reciprocal lattice and weights: pymatgen with grid density = 807 / numbe
  -0.00000000  0.25000000  0.25000000       0.167
   0.33333333  0.25000000  0.25000000       0.167
  -0.33333333  0.25000000  0.25000000       0.167
   0.00000000 -0.25000000  0.25000000       0.167
   0.33333333 -0.25000000  0.25000000       0.167
  -0.33333333 -0.25000000  0.25000000       0.167
 
 position of ions in fractional coordinates (direct lattice) 
   0.31176962  0.34031863  0.12012074
   0.42160166  0.76656661  0.59154414
   0.57839834  0.23343339  0.40845586
   0.68823038  0.65968137  0.87987926
   0.02671036  0.94844475  0.33510056
   0.13778534  0.44805708  0.81476551
   0.75039513  0.13131519  0.05227710
   0.52263573  0.21094146  0.76044909
   0.24960487  0.86868481  0.94772290
   0.97328964  0.05155525  0.66489944
   0.86221466  0.55194292  0.18523449
   0.47736427  0.78905854  0.23955091
   0.80979791  0.84589315  0.13323526
   0.66790590  0.35009449  0.95365048
   0.46259249  0.45938105  0.69845121
   0.25904243  0.01912198  0.52271101
   0.04220022  0.68700936  0.36339589
   0.33209410  0.64990551  0.04634952
   0.43844752  0.08198874  0.17137842
   0.95779978  0.31299064  0.63660411
   0.56155248  0.91801126  0.82862158
   0.91572223  0.30100269  0.23358856
   0.08427777  0.69899731  0.76641144
   0.74095757  0.98087802  0.47728899
   0.53740751  0.54061895  0.30154879
   0.19020209  0.15410685  0.86676474
 
 position of ions in cartesian coordinates  (Angst):
  -1.67872622  2.89767842 -1.44255752
  -2.04950476  5.96016589 -6.61605710
  -4.04822028  1.46634062 -4.62061836
  -4.41899883  4.52882809 -9.79411794
   1.35696435  8.00431414 -3.75030139
  -0.82791739  2.68075466 -8.88447073
  -5.16874954  1.16100213 -0.82517363
  -3.99887274  0.66266970 -8.39144880
  -0.92897551  6.26550438-10.41150183
  -7.45468939 -0.57780763 -7.48637407
  -5.26980765  4.74575185 -2.35220473
  -2.09885231  6.76383681 -2.84522666
  -4.27846870  7.48521583 -1.81575273
  -4.93831730  1.60512435-10.53932286
  -3.03247223  3.00722518 -7.73849028
  -2.27481052 -0.69018899 -5.71803257
   0.71401814  5.59564135 -4.02390224
  -1.15940775  5.82138216 -0.69735260
  -3.13252468  0.48754039 -2.00008573
  -6.81174318  1.83086516 -7.21277322
  -2.96520037  6.93896612 -9.23658973
  -6.18233350  2.40114687 -2.85570681
   0.08460845  5.02535964 -8.38096865
  -3.82291453  8.11669550 -5.51864289
  -3.06525282  4.41928133 -3.49818518
  -1.81925635 -0.05870932 -9.42092273
 


--------------------------------------------------------------------------------------------------------


 k-point  1 :  -0.0000 0.2500 0.2500  plane waves:    8259
 k-point  2 :   0.3333 0.2500 0.2500  plane waves:    8259
 k-point  3 :  -0.3333 0.2500 0.2500  plane waves:    8270
 k-point  4 :   0.0000-0.2500 0.2500  plane waves:    8242
 k-point  5 :   0.3333-0.2500 0.2500  plane waves:    8267
 k-point  6 :  -0.3333-0.2500 0.2500  plane waves:    8250

 maximum and minimum number of plane-waves per node :      8270     8242

 maximum number of plane-waves:      8270
 maximum index in each direction: 
   IXMAX=   10   IYMAX=   13   IZMAX=   15
   IXMIN=  -10   IYMIN=  -13   IZMIN=  -15


 serial   3D FFT for wavefunctions
 parallel 3D FFT for charge:
    minimum data exchange during FFTs selected (reduces bandwidth)


 total amount of memory used by VASP MPI-rank0    40995. kBytes
=======================================================================

   base      :      30000. kBytes
   nonlr-proj:       1625. kBytes
   fftplans  :        837. kBytes
   grid      :       3421. kBytes
   one-center:        210. kBytes
   wavefun   :       4902. kBytes
 
     INWAV:  cpu time    0.0001: real time    0.0002
 Broyden mixing: mesh for mixing (old mesh)
   NGX = 21   NGY = 27   NGZ = 31
  (NGX  = 48   NGY  = 60   NGZ  = 70)
  gives a total of  17577 points

 initial charge density was supplied:
 charge density of overlapping atoms calculated
 number of electron     128.0000000 magnetization 
 keeping initial charge density in first step


--------------------------------------------------------------------------------------------------------


 Maximum index for non-local projection operator          675
 Maximum index for augmentation-charges          294 (set IRDMAX)


--------------------------------------------------------------------------------------------------------


 First call to EWALD:  gamma=   0.200
 Maximum number of real-space cells 3x 3x 2
 Maximum number of reciprocal cells 2x 3x 3

    FEWALD:  cpu time    0.0023: real time    0.0023


--------------------------------------- Iteration      1(   1)  ---------------------------------------


    POTLOK:  cpu time    0.0205: real time    0.0414
    SETDIJ:  cpu time    0.1605: real time    0.1620
     EDDAV:  cpu time    0.7975: real time    0.8200
       DOS:  cpu time    0.0006: real time    0.0006
    --------------------------------------------
      LOOP:  cpu time    0.9791: real time    1.0239

 eigenvalue-minimisations  :  1008
 total energy-change (2. order) : 0.5910415E+03  (-0.3505794E+04)
 number of electron     128.0000000 magnetization 
 augmentation part      128.0000000 magnetization 

 Free energy of the ion-electron system (eV)
  ---------------------------------------------------
  alpha Z        PSCENC =        33.59088480
  Ewald energy   TEWEN  =     -4152.22460328
  -Hartree energ DENC   =     -1065.30536717
  -exchange      EXHF   =         0.00000000
  -V(xc)+E(xc)   XCENC  =      -344.70344403
  PAW double counting   =      4513.71819298    -3887.37164350
  entropy T*S    EENTRO =        -0.00942455
  eigenvalues    EBANDS =       397.70259503
  atomic energy  EATOM  =      5095.64428410
  Solvation  Ediel_sol  =         0.00000000
  ---------------------------------------------------
  free energy    TOTEN  =       591.04147439 eV

  energy without entropy =      591.05089894  energy(sigma->0) =      591.04618666


--------------------------------------------------------------------------------------------------------




--------------------------------------- Iteration      1(   2)  ---------------------------------------


     EDDAV:  cpu time    0.8833: real time    0.8912
       DOS:  cpu time    0.0002: real time    0.0002
    --------------------------------------------
      LOOP:  cpu time    0.8835: real time    0.8914

 eigenvalue-minimisations  :  1260
 total energy-change (2. order) :-0.6325903E+03  (-0.6129009E+03)
 number of electron     128.0000000 magnetization 
 augmentation part      128.0000000 magnetization 

 Free energy of the ion-electron system (eV)
  ---------------------------------------------------
  alpha Z        PSCENC =        33.59088480
  Ewald energy   TEWEN  =     -4152.22460328
  -Hartree energ DENC   =     -1065.30536717
  -exchange      EXHF   =         0.00000000
  -V(xc)+E(xc)   XCENC  =      -344.70344403
  PAW double counting   =      4513.71819298    -3887.37164350
  entropy T*S    EENTRO =        -0.00000000
  eigenvalues    EBANDS =      -234.89710462
  atomic energy  EATOM  =      5095.64428410
  Solvation  Ediel_sol  =         0.00000000
  ---------------------------------------------------
  free energy    TOTEN  =       -41.54880072 eV

  energy without entropy =      -41.54880072  energy(sigma->0) =      -41.54880072


--------------------------------------------------------------------------------------------------------




--------------------------------------- Iteration      1(   3)  ---------------------------------------


     EDDAV:  cpu time    0.7894: real time    0.7957
       DOS:  cpu time    0.0004: real time    0.0004
    --------------------------------------------
      LOOP:  cpu time    0.7898: real time    0.7962

 eigenvalue-minimisations  :  1246
 total energy-change (2. order) :-0.7103998E+02  (-0.7000532E+02)
 number of electron     128.0000000 magnetization 
 augmentation part      128.0000000 magnetization 

 Free energy of the ion-electron system (eV)
  ---------------------------------------------------
  alpha Z        PSCENC =        33.59088480
  Ewald energy   TEWEN  =     -4152.22460328
  -Hartree energ DENC   =     -1065.30536717
  -exchange      EXHF   =         0.00000000
  -V(xc)+E(xc)   XCENC  =      -344.70344403
  PAW double counting   =      4513.71819298    -3887.37164350
  entropy T*S    EENTRO =        -0.00000000
  eigenvalues    EBANDS =      -305.93708757
  atomic energy  EATOM  =      5095.64428410
  Solvation  Ediel_sol  =         0.00000000
  ---------------------------------------------------
  free energy    TOTEN  =      -112.58878367 eV

  energy without entropy =     -112.58878367  energy(sigma->0) =     -112.58878367


--------------------------------------------------------------------------------------------------------




--------------------------------------- Iteration      1(   4)  ---------------------------------------


     EDDAV:  cpu time    0.8952: real time    0.9021
       DOS:  cpu time    0.0004: real time    0.0004
    --------------------------------------------
      LOOP:  cpu time    0.8956: real time    0.9025

 eigenvalue-minimisations  :  1372
 total energy-change (2. order) :-0.2716192E+01  (-0.2697735E+01)
 number of electron     128.0000000 magnetization 
 augmentation part      128.0000000 magnetization 

 Free energy of the ion-electron system (eV)
  ---------------------------------------------------
  alpha Z        PSCENC =        33.59088480
  Ewald energy   TEWEN  =     -4152.22460328
  -Hartree energ DENC   =     -1065.30536717
  -exchange      EXHF   =         0.00000000
  -V(xc)+E(xc)   XCENC  =      -344.70344403
  PAW double counting   =      4513.71819298    -3887.37164350
  entropy T*S    EENTRO =        -0.00000000
  eigenvalues    EBANDS =      -308.65327994
  atomic energy  EATOM  =      5095.64428410
  Solvation  Ediel_sol  =         0.00000000
  ---------------------------------------------------
  free energy    TOTEN  =      -115.30497604 eV

  energy without entropy =     -115.30497604  energy(sigma->0) =     -115.30497604


--------------------------------------------------------------------------------------------------------




--------------------------------------- Iteration      1(   5)  ---------------------------------------


     EDDAV:  cpu time    0.9073: real time    0.9153
       DOS:  cpu time    0.0003: real time    0.0003
    CHARGE:  cpu time    0.0286: real time    0.0286
    MIXING:  cpu time    0.0007: real time    0.0008
    --------------------------------------------
      LOOP:  cpu time    0.9369: real time    0.9449

 eigenvalue-minimisations  :  1414
 total energy-change (2. order) :-0.1039047E+00  (-0.1038286E+00)
 number of electron     128.0000501 magnetization 
 augmentation part      -18.2603569 magnetization 

 Broyden mixing:
  rms(total) = 0.20995E+01    rms(broyden)= 0.20994E+01
  rms(prec ) = 0.24553E+01
  weight for this iteration     100.00

 Free energy of the ion-electron system (eV)
  ---------------------------------------------------
  alpha Z        PSCENC =        33.59088480
  Ewald energy   TEWEN  =     -4152.22460328
  -Hartree energ DENC   =     -1065.30536717
  -exchange      EXHF   =         0.00000000
  -V(xc)+E(xc)   XCENC  =      -344.70344403
  PAW double counting   =      4513.71819298    -3887.37164350
  entropy T*S    EENTRO =        -0.00000000
  eigenvalues    EBANDS =      -308.75718465
  atomic energy  EATOM  =      5095.64428410
  Solvation  Ediel_sol  =         0.00000000
  ---------------------------------------------------
  free energy    TOTEN  =      -115.40888074 eV

  energy without entropy =     -115.40888074  energy(sigma->0) =     -115.40888074


--------------------------------------------------------------------------------------------------------




--------------------------------------- Iteration      1(   6)  ---------------------------------------


    POTLOK:  cpu time    0.0113: real time    0.0115
    SETDIJ:  cpu time    0.1652: real time    0.1654
     EDDAV:  cpu time    0.9434: real time    0.9520
       DOS:  cpu time    0.0006: real time    0.0006
    CHARGE:  cpu time    0.0262: real time    0.0262
    MIXING:  cpu time    0.0008: real time    0.0008
    --------------------------------------------
      LOOP:  cpu time    1.1474: real time    1.1564

 eigenvalue-minimisations  :  1176
 total energy-change (2. order) : 0.6168560E+01  (-0.1416788E+01)
 number of electron     128.0000487 magnetization 
 augmentation part      -18.0063051 magnetization 

 Broyden mixing:
  rms(total) = 0.16124E+01    rms(broyden)= 0.16123E+01
  rms(prec ) = 0.16498E+01
  weight for this iteration     100.00

 eigenvalues of (default mixing * dielectric matrix)
  average eigenvalue GAMMA=   1.7725
  1.7725

 Free energy of the ion-electron system (eV)
  ---------------------------------------------------
  alpha Z        PSCENC =        33.59088480
  Ewald energy   TEWEN  =     -4152.22460328
  -Hartree energ DENC   =     -1115.88329732
  -exchange      EXHF   =         0.00000000
  -V(xc)+E(xc)   XCENC  =      -339.96191564
  PAW double counting   =      6195.75725074    -5571.07270165
  entropy T*S    EENTRO =        -0.00000000
  eigenvalues    EBANDS =      -255.09022224
  atomic energy  EATOM  =      5095.64428410
  Solvation  Ediel_sol  =         0.00000000
  ---------------------------------------------------
  free energy    TOTEN  =      -109.24032049 eV

  energy without entropy =     -109.24032049  energy(sigma->0) =     -109.24032049


--------------------------------------------------------------------------------------------------------




--------------------------------------- Iteration      1(   7)  ---------------------------------------


    POTLOK:  cpu time    0.0109: real time    0.0111
    SETDIJ:  cpu time    0.1612: real time    0.1613
     EDDAV:  cpu time    1.0172: real time    1.0255
       DOS:  cpu time    0.0004: real time    0.0004
    CHARGE:  cpu time    0.0276: real time    0.0276
    MIXING:  cpu time    0.0008: real time    0.0008
    --------------------------------------------
      LOOP:  cpu time    1.2182: real time    1.2267

 eigenvalue-minimisations  :  1274
 total energy-change (2. order) :-0.5673603E-01  (-0.3850180E+00)
 number of electron     128.0000483 magnetization 
 augmentation part      -18.0155232 magnetization 

 Broyden mixing:
  rms(total) = 0.69259E+00    rms(broyden)= 0.69258E+00
  rms(prec ) = 0.71242E+00
  weight for this iteration     100.00

 eigenvalues of (default mixing * dielectric matrix)
  average eigenvalue GAMMA=   1.4891
  1.0585  1.9197

 Free energy of the ion-electron system (eV)
  ---------------------------------------------------
  alpha Z        PSCENC =        33.59088480
  Ewald energy   TEWEN  =     -4152.22460328
  -Hartree energ DENC   =     -1131.62852452
  -exchange      EXHF   =         0.00000000
  -V(xc)+E(xc)   XCENC  =      -338.10086823
  PAW double counting   =      8439.31906279    -7815.06121971
  entropy T*S    EENTRO =        -0.00000000
  eigenvalues    EBANDS =      -240.83607248
  atomic energy  EATOM  =      5095.64428410
  Solvation  Ediel_sol  =         0.00000000
  ---------------------------------------------------
  free energy    TOTEN  =      -109.29705652 eV

  energy without entropy =     -109.29705652  energy(sigma->0) =     -109.29705652


--------------------------------------------------------------------------------------------------------




--------------------------------------- Iteration      1(   8)  ---------------------------------------


    POTLOK:  cpu time    0.0133: real time    0.0135
    SETDIJ:  cpu time    0.1547: real time    0.1611
     EDDAV:  cpu time    0.9832: real time    0.9890
       DOS:  cpu time    0.0003: real time    0.0003
    CHARGE:  cpu time    0.0238: real time    0.0238
    MIXING:  cpu time    0.0007: real time    0.0007
    --------------------------------------------
      LOOP:  cpu time    1.1760: real time    1.1884

 eigenvalue-minimisations  :  1274
 total energy-change (2. order) : 0.1721572E-01  (-0.2699228E-01)
 number of electron     128.0000485 magnetization 
 augmentation part      -18.0418683 magnetization 

 Broyden mixing:
  rms(total) = 0.23576E+00    rms(broyden)= 0.23576E+00
  rms(prec ) = 0.24619E+00
  weight for this iteration     100.00

 eigenvalues of (default mixing * dielectric matrix)
  average eigenvalue GAMMA=   1.5926
  2.5195  1.1292  1.1292

 Free energy of the ion-electron system (eV)
  ---------------------------------------------------
  alpha Z        PSCENC =        33.59088480
  Ewald energy   TEWEN  =     -4152.22460328
  -Hartree energ DENC   =     -1130.92010381
  -exchange      EXHF   =         0.00000000
  -V(xc)+E(xc)   XCENC  =      -337.88427068
  PAW double counting   =      9578.36749422    -8954.15842350
  entropy T*S    EENTRO =        -0.00000000
  eigenvalues    EBANDS =      -241.69510265
  atomic energy  EATOM  =      5095.64428410
  Solvation  Ediel_sol  =         0.00000000
  ---------------------------------------------------
  free energy    TOTEN  =      -109.27984080 eV

  energy without entropy =     -109.27984080  energy(sigma->0) =     -109.27984080


--------------------------------------------------------------------------------------------------------




--------------------------------------- Iteration      1(   9)  ---------------------------------------


    POTLOK:  cpu time    0.0091: real time    0.0092
    SETDIJ:  cpu time    0.1622: real time    0.1622
     EDDAV:  cpu time    0.8103: real time    0.8181
       DOS:  cpu time    0.0002: real time    0.0002
    CHARGE:  cpu time    0.0230: real time    0.0230
    MIXING:  cpu time    0.0008: real time    0.0008
    --------------------------------------------
      LOOP:  cpu time    1.0055: real time    1.0134

 eigenvalue-minimisations  :  1260
 total energy-change (2. order) :-0.8628330E-02  (-0.6297336E-02)
 number of electron     128.0000485 magnetization 
 augmentation part      -18.0399056 magnetization 

 Broyden mixing:
  rms(total) = 0.57958E-01    rms(broyden)= 0.57957E-01
  rms(prec ) = 0.60863E-01
  weight for this iteration     100.00

 eigenvalues of (default mixing * dielectric matrix)
  average eigenvalue GAMMA=   1.4288
  2.2874  1.1216  1.1216  1.1849

 Free energy of the ion-electron system (eV)
  ---------------------------------------------------
  alpha Z        PSCENC =        33.59088480
  Ewald energy   TEWEN  =     -4152.22460328
  -Hartree energ DENC   =     -1134.65592411
  -exchange      EXHF   =         0.00000000
  -V(xc)+E(xc)   XCENC  =      -337.36975556
  PAW double counting   =     10199.09740413    -9575.01853618
  entropy T*S    EENTRO =        -0.00000000
  eigenvalues    EBANDS =      -238.35222304
  atomic energy  EATOM  =      5095.64428410
  Solvation  Ediel_sol  =         0.00000000
  ---------------------------------------------------
  free energy    TOTEN  =      -109.28846913 eV

  energy without entropy =     -109.28846913  energy(sigma->0) =     -109.28846913


--------------------------------------------------------------------------------------------------------




--------------------------------------- Iteration      1(  10)  ---------------------------------------


    POTLOK:  cpu time    0.0094: real time    0.0102
    SETDIJ:  cpu time    0.1593: real time    0.1593
     EDDAV:  cpu time    1.0337: real time    1.0404
       DOS:  cpu time    0.0003: real time    0.0003
    CHARGE:  cpu time    0.0262: real time    0.0262
    MIXING:  cpu time    0.0010: real time    0.0010
    --------------------------------------------
      LOOP:  cpu time    1.2300: real time    1.2374

 eigenvalue-minimisations  :  1330
 total energy-change (2. order) :-0.8920617E-03  (-0.5327601E-03)
 number of electron     128.0000485 magnetization 
 augmentation part      -18.0410484 magnetization 

 Broyden mixing:
  rms(total) = 0.28149E-01    rms(broyden)= 0.28148E-01
  rms(prec ) = 0.31743E-01
  weight for this iteration     100.00

 eigenvalues of (default mixing * dielectric matrix)
  average eigenvalue GAMMA=   1.4910
  2.4205  1.6709  1.1180  1.1227  1.1227

 Free energy of the ion-electron system (eV)
  ---------------------------------------------------
  alpha Z        PSCENC =        33.59088480
  Ewald energy   TEWEN  =     -4152.22460328
  -Hartree energ DENC   =     -1134.84566700
  -exchange      EXHF   =         0.00000000
  -V(xc)+E(xc)   XCENC  =      -337.38026878
  PAW double counting   =     10072.87988833    -9448.78925491
  entropy T*S    EENTRO =        -0.00000000
  eigenvalues    EBANDS =      -238.16462445
  atomic energy  EATOM  =      5095.64428410
  Solvation  Ediel_sol  =         0.00000000
  ---------------------------------------------------
  free energy    TOTEN  =      -109.28936119 eV

  energy without entropy =     -109.28936119  energy(sigma->0) =     -109.28936119


--------------------------------------------------------------------------------------------------------




--------------------------------------- Iteration      1(  11)  ---------------------------------------


    POTLOK:  cpu time    0.0108: real time    0.0111
    SETDIJ:  cpu time    0.1619: real time    0.1619
     EDDAV:  cpu time    0.9648: real time    0.9738
       DOS:  cpu time    0.0004: real time    0.0004
    CHARGE:  cpu time    0.0261: real time    0.0261
    MIXING:  cpu time    0.0012: real time    0.0012
    --------------------------------------------
      LOOP:  cpu time    1.1652: real time    1.1745

 eigenvalue-minimisations  :  1176
 total energy-change (2. order) :-0.1369404E-02  (-0.1682700E-03)
 number of electron     128.0000485 magnetization 
 augmentation part      -18.0401984 magnetization 

 Broyden mixing:
  rms(total) = 0.12401E-01    rms(broyden)= 0.12401E-01
  rms(prec ) = 0.13701E-01
  weight for this iteration     100.00

 eigenvalues of (default mixing * dielectric matrix)
  average eigenvalue GAMMA=   1.4711
  2.0617  2.0617  1.3320  1.1029  1.1342  1.1342

 Free energy of the ion-electron system (eV)
  ---------------------------------------------------
  alpha Z        PSCENC =        33.59088480
  Ewald energy   TEWEN  =     -4152.22460328
  -Hartree energ DENC   =     -1135.44095043
  -exchange      EXHF   =         0.00000000
  -V(xc)+E(xc)   XCENC  =      -337.32727455
  PAW double counting   =     10069.62645018    -9445.53724412
  entropy T*S    EENTRO =        -0.00000000
  eigenvalues    EBANDS =      -237.62227729
  atomic energy  EATOM  =      5095.64428410
  Solvation  Ediel_sol  =         0.00000000
  ---------------------------------------------------
  free energy    TOTEN  =      -109.29073060 eV

  energy without entropy =     -109.29073060  energy(sigma->0) =     -109.29073060


--------------------------------------------------------------------------------------------------------




--------------------------------------- Iteration      1(  12)  ---------------------------------------


    POTLOK:  cpu time    0.0142: real time    0.0144
    SETDIJ:  cpu time    0.1625: real time    0.1627
     EDDAV:  cpu time    0.7969: real time    0.8014
       DOS:  cpu time    0.0004: real time    0.0004
    CHARGE:  cpu time    0.0263: real time    0.0263
    MIXING:  cpu time    0.0012: real time    0.0012
    --------------------------------------------
      LOOP:  cpu time    1.0014: real time    1.0064

 eigenvalue-minimisations  :  1022
 total energy-change (2. order) :-0.2575994E-03  (-0.2732092E-04)
 number of electron     128.0000485 magnetization 
 augmentation part      -18.0394512 magnetization 

 Broyden mixing:
  rms(total) = 0.51924E-02    rms(broyden)= 0.51923E-02
  rms(prec ) = 0.66943E-02
  weight for this iteration     100.00

 eigenvalues of (default mixing * dielectric matrix)
  average eigenvalue GAMMA=   1.5948
  2.7123  2.7123  0.9437  1.1573  1.1573  1.2405  1.2405

 Free energy of the ion-electron system (eV)
  ---------------------------------------------------
  alpha Z        PSCENC =        33.59088480
  Ewald energy   TEWEN  =     -4152.22460328
  -Hartree energ DENC   =     -1135.66045713
  -exchange      EXHF   =         0.00000000
  -V(xc)+E(xc)   XCENC  =      -337.31629102
  PAW double counting   =     10039.04244595    -9414.95010019
  entropy T*S    EENTRO =        -0.00000000
  eigenvalues    EBANDS =      -237.41715143
  atomic energy  EATOM  =      5095.64428410
  Solvation  Ediel_sol  =         0.00000000
  ---------------------------------------------------
  free energy    TOTEN  =      -109.29098820 eV

  energy without entropy =     -109.29098820  energy(sigma->0) =     -109.29098820


--------------------------------------------------------------------------------------------------------




--------------------------------------- Iteration      1(  13)  ---------------------------------------


    POTLOK:  cpu time    0.0120: real time    0.0130
    SETDIJ:  cpu time    0.1624: real time    0.1626
     EDDAV:  cpu time    0.8620: real time    0.8692
       DOS:  cpu time    0.0003: real time    0.0003
    CHARGE:  cpu time    0.0265: real time    0.0265
    MIXING:  cpu time    0.0012: real time    0.0012
    --------------------------------------------
      LOOP:  cpu time    1.0643: real time    1.0727

 eigenvalue-minimisations  :  1022
 total energy-change (2. order) :-0.2073817E-03  (-0.3041323E-04)
 number of electron     128.0000485 magnetization 
 augmentation part      -18.0390954 magnetization 

 Broyden mixing:
  rms(total) = 0.30528E-02    rms(broyden)= 0.30528E-02
  rms(prec ) = 0.32752E-02
  weight for this iteration     100.00

 eigenvalues of (default mixing * dielectric matrix)
  average eigenvalue GAMMA=   1.5389
  2.7614  2.3052  1.4864  1.4864  1.1448  1.1448  1.1329  0.8496

 Free energy of the ion-electron system (eV)
  ---------------------------------------------------
  alpha Z        PSCENC =        33.59088480
  Ewald energy   TEWEN  =     -4152.22460328
  -Hartree energ DENC   =     -1135.96061136
  -exchange      EXHF   =         0.00000000
  -V(xc)+E(xc)   XCENC  =      -337.29314474
  PAW double counting   =     10024.21598004    -9400.12073306
  entropy T*S    EENTRO =        -0.00000000
  eigenvalues    EBANDS =      -237.14325207
  atomic energy  EATOM  =      5095.64428410
  Solvation  Ediel_sol  =         0.00000000
  ---------------------------------------------------
  free energy    TOTEN  =      -109.29119558 eV

  energy without entropy =     -109.29119558  energy(sigma->0) =     -109.29119558


--------------------------------------------------------------------------------------------------------




--------------------------------------- Iteration      1(  14)  ---------------------------------------


    POTLOK:  cpu time    0.0115: real time    0.0117
    SETDIJ:  cpu time    0.1622: real time    0.1624
     EDDAV:  cpu time    0.7063: real time    0.7136
       DOS:  cpu time    0.0003: real time    0.0003
    --------------------------------------------
      LOOP:  cpu time    0.8802: real time    0.8880

 eigenvalue-minimisations  :   756
 total energy-change (2. order) :-0.5649501E-05  (-0.1625327E-05)
 number of electron     128.0000485 magnetization 
 augmentation part      -18.0390954 magnetization 

 Free energy of the ion-electron system (eV)
  ---------------------------------------------------
  alpha Z        PSCENC =        33.59088480
  Ewald energy   TEWEN  =     -4152.22460328
  -Hartree energ DENC   =     -1135.97754136
  -exchange      EXHF   =         0.00000000
  -V(xc)+E(xc)   XCENC  =      -337.28989674
  PAW double counting   =     10033.50824165    -9409.41327018
  entropy T*S    EENTRO =        -0.00000000
  eigenvalues    EBANDS =      -237.12930022
  atomic energy  EATOM  =      5095.64428410
  Solvation  Ediel_sol  =         0.00000000
  ---------------------------------------------------
  free energy    TOTEN  =      -109.29120123 eV

  energy without entropy =     -109.29120123  energy(sigma->0) =     -109.29120123


--------------------------------------------------------------------------------------------------------




 average (electrostatic) potential at core
  the test charge radii are     1.1212  1.1712  0.9698
  (the norm of the test charge is              1.0000)
       1 -39.2738       2 -39.6649       3 -39.6649       4 -39.2738       5 -89.5978
       6 -89.5051       7 -89.4897       8 -89.6180       9 -89.4897      10 -89.5978
      11 -89.5051      12 -89.6180      13 -87.5877      14 -87.5338      15 -87.3745
      16 -87.4018      17 -87.6259      18 -87.5338      19 -87.2060      20 -87.6259
      21 -87.2060      22 -87.4153      23 -87.4153      24 -87.4018      25 -87.3745
      26 -87.5877
 
 
 
 E-fermi :   3.5114     XC(G=0):  -8.4452     alpha+bet : -9.2404


 k-point     1 :      -0.0000    0.2500    0.2500
  band No.  band energies     occupation 
      1     -10.2446      2.00000
      2     -10.1331      2.00000
      3      -9.5902      2.00000
      4      -9.3838      2.00000
      5      -9.2075      2.00000
      6      -9.0700      2.00000
      7      -8.7250      2.00000
      8      -8.6792      2.00000
      9      -8.5512      2.00000
     10      -8.4783      2.00000
     11      -8.4229      2.00000
     12      -8.3907      2.00000
     13      -8.2785      2.00000
     14      -8.2031      2.00000
     15      -5.6549      2.00000
     16      -5.4144      2.00000
     17      -5.2686      2.00000
     18      -4.8841      2.00000
     19      -4.8055      2.00000
     20      -4.4459      2.00000
     21      -3.9846      2.00000
     22      -3.6008      2.00000
     23      -1.3722      2.00000
     24      -1.3180      2.00000
     25      -1.1698      2.00000
     26      -1.0224      2.00000
     27      -0.8808      2.00000
     28      -0.7530      2.00000
     29      -0.5079      2.00000
     30      -0.3712      2.00000
     31      -0.2687      2.00000
     32      -0.0688      2.00000
     33       0.0023      2.00000
     34       0.1271      2.00000
     35       0.2562      2.00000
     36       0.4624      2.00000
     37       0.5652      2.00000
     38       0.7184      2.00000
     39       0.7928      2.00000
     40       0.8693      2.00000
     41       0.9241      2.00000
     42       1.0409      2.00000
     43       1.1282      2.00000
     44       1.2580      2.00000
     45       1.3720      2.00000
     46       1.4590      2.00000
     47       1.5685      2.00000
     48       1.7081      2.00000
     49       1.7569      2.00000
     50       1.8224      2.00000
     51       1.8610      2.00000
     52       2.0045      2.00000
     53       2.1471      2.00000
     54       2.1863      2.00000
     55       2.2853      2.00000
     56       2.3440      2.00000
     57       2.4634      2.00000
     58       2.4907      2.00000
     59       2.6707      2.00000
     60       2.7447      2.00000
     61       2.8783      2.00000
     62       2.8945      2.00000
     63       2.9527      2.00000
     64       3.0926      2.00000
     65       5.2146      0.00000
     66       5.2763      0.00000
     67       5.5290      0.00000
     68       5.5930      0.00000
     69       5.7612      0.00000
     70       5.9043      0.00000
     71       5.9358      0.00000
     72       6.1148      0.00000
     73       6.1258      0.00000
     74       6.2385      0.00000
     75       6.3212      0.00000
     76       6.5072      0.00000
     77       6.6319      0.00000
     78       6.6752      0.00000
     79       6.9220      0.00000
     80       7.0529      0.00000
     81       7.0763      0.00000
     82       7.2187      0.00000
     83       7.5788      0.00000
     84       7.6775      0.00000

 k-point     2 :       0.3333    0.2500    0.2500
  band No.  band energies     occupation 
      1     -10.0954      2.00000
      2     -10.0206      2.00000
      3      -9.7037      2.00000
      4      -9.4782      2.00000
      5      -9.2166      2.00000
      6      -9.0621      2.00000
      7      -8.8738      2.00000
      8      -8.7370      2.00000
      9      -8.5619      2.00000
     10      -8.4487      2.00000
     11      -8.4263      2.00000
     12      -8.3788      2.00000
     13      -8.3062      2.00000
     14      -8.2561      2.00000
     15      -5.6274      2.00000
     16      -5.3181      2.00000
     17      -5.1242      2.00000
     18      -4.8145      2.00000
     19      -4.7233      2.00000
     20      -4.3304      2.00000
     21      -3.9904      2.00000
     22      -3.8249      2.00000
     23      -1.3153      2.00000
     24      -1.2515      2.00000
     25      -1.0593      2.00000
     26      -0.9602      2.00000
     27      -0.8316      2.00000
     28      -0.7533      2.00000
     29      -0.5650      2.00000
     30      -0.3149      2.00000
     31      -0.1319      2.00000
     32       0.0490      2.00000
     33       0.1172      2.00000
     34       0.2211      2.00000
     35       0.3535      2.00000
     36       0.4109      2.00000
     37       0.5084      2.00000
     38       0.6068      2.00000
     39       0.6249      2.00000
     40       0.7741      2.00000
     41       0.8051      2.00000
     42       0.9169      2.00000
     43       0.9639      2.00000
     44       1.1404      2.00000
     45       1.2958      2.00000
     46       1.4394      2.00000
     47       1.5355      2.00000
     48       1.5480      2.00000
     49       1.7452      2.00000
     50       1.7816      2.00000
     51       1.8448      2.00000
     52       2.0319      2.00000
     53       2.1132      2.00000
     54       2.1506      2.00000
     55       2.2657      2.00000
     56       2.3134      2.00000
     57       2.4571      2.00000
     58       2.5302      2.00000
     59       2.5542      2.00000
     60       2.7420      2.00000
     61       2.8447      2.00000
     62       2.9133      2.00000
     63       3.0123      2.00000
     64       3.1760      2.00000
     65       4.9030      0.00000
     66       5.2434      0.00000
     67       5.4511      0.00000
     68       5.6487      0.00000
     69       5.7487      0.00000
     70       5.9056      0.00000
     71       6.0295      0.00000
     72       6.0881      0.00000
     73       6.2119      0.00000
     74       6.3227      0.00000
     75       6.4924      0.00000
     76       6.6123      0.00000
     77       6.7441      0.00000
     78       6.7802      0.00000
     79       6.8659      0.00000
     80       7.0602      0.00000
     81       7.1081      0.00000
     82       7.2868      0.00000
     83       7.4817      0.00000
     84       7.5596      0.00000

 k-point     3 :      -0.3333    0.2500    0.2500
  band No.  band energies     occupation 
      1     -10.1633      2.00000
      2      -9.9632      2.00000
      3      -9.6543      2.00000
      4      -9.4845      2.00000
      5      -9.2113      2.00000
      6      -9.0858      2.00000
      7      -8.8632      2.00000
      8      -8.7111      2.00000
      9      -8.5943      2.00000
     10      -8.4892      2.00000
     11      -8.4230      2.00000
     12      -8.3705      2.00000
     13      -8.3279      2.00000
     14      -8.2504      2.00000
     15      -5.4509      2.00000
     16      -5.3357      2.00000
     17      -5.0923      2.00000
     18      -4.9418      2.00000
     19      -4.7098      2.00000
     20      -4.4365      2.00000
     21      -4.1133      2.00000
     22      -3.6522      2.00000
     23      -1.3911      2.00000
     24      -1.2922      2.00000
     25      -1.0854      2.00000
     26      -0.7968      2.00000
     27      -0.7495      2.00000
     28      -0.5983      2.00000
     29      -0.4736      2.00000
     30      -0.3191      2.00000
     31      -0.2233      2.00000
     32      -0.0077      2.00000
     33       0.0345      2.00000
     34       0.1017      2.00000
     35       0.2831      2.00000
     36       0.4088      2.00000
     37       0.4886      2.00000
     38       0.5761      2.00000
     39       0.6295      2.00000
     40       0.7143      2.00000
     41       0.9102      2.00000
     42       0.9501      2.00000
     43       1.0147      2.00000
     44       1.0832      2.00000
     45       1.2141      2.00000
     46       1.3365      2.00000
     47       1.5702      2.00000
     48       1.6669      2.00000
     49       1.7235      2.00000
     50       1.8087      2.00000
     51       1.8972      2.00000
     52       2.0037      2.00000
     53       2.1084      2.00000
     54       2.2049      2.00000
     55       2.2755      2.00000
     56       2.3089      2.00000
     57       2.3560      2.00000
     58       2.4699      2.00000
     59       2.5044      2.00000
     60       2.7708      2.00000
     61       2.8325      2.00000
     62       3.0063      2.00000
     63       3.0836      2.00000
     64       3.2088      2.00000
     65       5.1705      0.00000
     66       5.3949      0.00000
     67       5.5358      0.00000
     68       5.5921      0.00000
     69       5.7298      0.00000
     70       5.8759      0.00000
     71       5.8973      0.00000
     72       5.9520      0.00000
     73       6.1963      0.00000
     74       6.2238      0.00000
     75       6.4452      0.00000
     76       6.4942      0.00000
     77       6.6285      0.00000
     78       6.7896      0.00000
     79       6.8362      0.00000
     80       7.0563      0.00000
     81       7.2165      0.00000
     82       7.2898      0.00000
     83       7.5295      0.00000
     84       7.6328      0.00000

 k-point     4 :       0.0000   -0.2500    0.2500
  band No.  band energies     occupation 
      1     -10.3095      2.00000
      2      -9.9832      2.00000
      3      -9.6670      2.00000
      4      -9.5305      2.00000
      5      -9.1125      2.00000
      6      -8.9368      2.00000
      7      -8.7953      2.00000
      8      -8.7062      2.00000
      9      -8.5519      2.00000
     10      -8.4633      2.00000
     11      -8.4226      2.00000
     12      -8.3507      2.00000
     13      -8.3314      2.00000
     14      -8.1958      2.00000
     15      -5.6342      2.00000
     16      -5.4199      2.00000
     17      -5.2388      2.00000
     18      -5.0934      2.00000
     19      -4.6142      2.00000
     20      -4.4061      2.00000
     21      -4.1142      2.00000
     22      -3.5331      2.00000
     23      -1.3803      2.00000
     24      -1.2114      2.00000
     25      -1.0611      2.00000
     26      -1.0190      2.00000
     27      -0.9364      2.00000
     28      -0.7758      2.00000
     29      -0.6630      2.00000
     30      -0.5120      2.00000
     31      -0.2362      2.00000
     32      -0.1218      2.00000
     33       0.0567      2.00000
     34       0.1951      2.00000
     35       0.3434      2.00000
     36       0.4153      2.00000
     37       0.5463      2.00000
     38       0.6775      2.00000
     39       0.7217      2.00000
     40       0.8979      2.00000
     41       0.9877      2.00000
     42       1.0362      2.00000
     43       1.1262      2.00000
     44       1.2468      2.00000
     45       1.3039      2.00000
     46       1.4668      2.00000
     47       1.6179      2.00000
     48       1.7504      2.00000
     49       1.8075      2.00000
     50       1.9302      2.00000
     51       1.9329      2.00000
     52       2.0027      2.00000
     53       2.0261      2.00000
     54       2.1244      2.00000
     55       2.2563      2.00000
     56       2.3144      2.00000
     57       2.4441      2.00000
     58       2.5841      2.00000
     59       2.6663      2.00000
     60       2.7041      2.00000
     61       2.7906      2.00000
     62       2.9950      2.00000
     63       3.0472      2.00000
     64       3.1533      2.00000
     65       5.0537      0.00000
     66       5.3449      0.00000
     67       5.4914      0.00000
     68       5.5167      0.00000
     69       5.6093      0.00000
     70       5.7562      0.00000
     71       5.9494      0.00000
     72       5.9879      0.00000
     73       6.1540      0.00000
     74       6.2811      0.00000
     75       6.4648      0.00000
     76       6.5092      0.00000
     77       6.7122      0.00000
     78       6.7582      0.00000
     79       6.8960      0.00000
     80       7.0000      0.00000
     81       7.1096      0.00000
     82       7.3781      0.00000
     83       7.5265      0.00000
     84       7.6916      0.00000

 k-point     5 :       0.3333   -0.2500    0.2500
  band No.  band energies     occupation 
      1     -10.1768      2.00000
      2      -9.9617      2.00000
      3      -9.5717      2.00000
      4      -9.5003      2.00000
      5      -9.2481      2.00000
      6      -9.1679      2.00000
      7      -8.8367      2.00000
      8      -8.7052      2.00000
      9      -8.5318      2.00000
     10      -8.4534      2.00000
     11      -8.4366      2.00000
     12      -8.4222      2.00000
     13      -8.3399      2.00000
     14      -8.2385      2.00000
     15      -5.4142      2.00000
     16      -5.3364      2.00000
     17      -5.1085      2.00000
     18      -4.9573      2.00000
     19      -4.7850      2.00000
     20      -4.4026      2.00000
     21      -4.0161      2.00000
     22      -3.7083      2.00000
     23      -1.4883      2.00000
     24      -1.2555      2.00000
     25      -1.1186      2.00000
     26      -0.8461      2.00000
     27      -0.7059      2.00000
     28      -0.6233      2.00000
     29      -0.4786      2.00000
     30      -0.2812      2.00000
     31      -0.1197      2.00000
     32      -0.0336      2.00000
     33       0.2136      2.00000
     34       0.2548      2.00000
     35       0.2889      2.00000
     36       0.4022      2.00000
     37       0.4362      2.00000
     38       0.4979      2.00000
     39       0.5493      2.00000
     40       0.7525      2.00000
     41       0.7925      2.00000
     42       0.9004      2.00000
     43       1.0756      2.00000
     44       1.1274      2.00000
     45       1.2184      2.00000
     46       1.2860      2.00000
     47       1.4390      2.00000
     48       1.6261      2.00000
     49       1.7215      2.00000
     50       1.8189      2.00000
     51       1.9390      2.00000
     52       2.0256      2.00000
     53       2.0547      2.00000
     54       2.1702      2.00000
     55       2.2755      2.00000
     56       2.3394      2.00000
     57       2.3559      2.00000
     58       2.5581      2.00000
     59       2.5962      2.00000
     60       2.7384      2.00000
     61       2.9040      2.00000
     62       2.9341      2.00000
     63       3.0422      2.00000
     64       3.2435      2.00000
     65       4.9699      0.00000
     66       5.3554      0.00000
     67       5.4517      0.00000
     68       5.6397      0.00000
     69       5.7331      0.00000
     70       5.8459      0.00000
     71       5.9096      0.00000
     72       6.0622      0.00000
     73       6.3288      0.00000
     74       6.4597      0.00000
     75       6.5051      0.00000
     76       6.5209      0.00000
     77       6.6558      0.00000
     78       6.7398      0.00000
     79       6.8107      0.00000
     80       6.9899      0.00000
     81       7.2193      0.00000
     82       7.3464      0.00000
     83       7.3964      0.00000
     84       7.6144      0.00000

 k-point     6 :      -0.3333   -0.2500    0.2500
  band No.  band energies     occupation 
      1     -10.1580      2.00000
      2      -9.8805      2.00000
      3      -9.7594      2.00000
      4      -9.4971      2.00000
      5      -9.2686      2.00000
      6      -9.1180      2.00000
      7      -8.7145      2.00000
      8      -8.6803      2.00000
      9      -8.5967      2.00000
     10      -8.5222      2.00000
     11      -8.4306      2.00000
     12      -8.3819      2.00000
     13      -8.2963      2.00000
     14      -8.2586      2.00000
     15      -5.5823      2.00000
     16      -5.3606      2.00000
     17      -5.1131      2.00000
     18      -5.0387      2.00000
     19      -4.4693      2.00000
     20      -4.2526      2.00000
     21      -4.1448      2.00000
     22      -3.7796      2.00000
     23      -1.5126      2.00000
     24      -1.2738      2.00000
     25      -1.0076      2.00000
     26      -0.8695      2.00000
     27      -0.7428      2.00000
     28      -0.6796      2.00000
     29      -0.4169      2.00000
     30      -0.3461      2.00000
     31      -0.2560      2.00000
     32      -0.0383      2.00000
     33       0.0726      2.00000
     34       0.1999      2.00000
     35       0.3921      2.00000
     36       0.4363      2.00000
     37       0.5412      2.00000
     38       0.6112      2.00000
     39       0.7134      2.00000
     40       0.7464      2.00000
     41       0.8278      2.00000
     42       0.8692      2.00000
     43       1.0144      2.00000
     44       1.1521      2.00000
     45       1.1753      2.00000
     46       1.3911      2.00000
     47       1.4896      2.00000
     48       1.6041      2.00000
     49       1.6887      2.00000
     50       1.7924      2.00000
     51       1.8741      2.00000
     52       2.0099      2.00000
     53       2.0801      2.00000
     54       2.1404      2.00000
     55       2.2110      2.00000
     56       2.4027      2.00000
     57       2.4241      2.00000
     58       2.4796      2.00000
     59       2.5893      2.00000
     60       2.7469      2.00000
     61       2.8720      2.00000
     62       2.9229      2.00000
     63       3.0119      2.00000
     64       3.1590      2.00000
     65       5.3368      0.00000
     66       5.4034      0.00000
     67       5.4741      0.00000
     68       5.6298      0.00000
     69       5.7079      0.00000
     70       5.7428      0.00000
     71       5.9353      0.00000
     72       5.9739      0.00000
     73       6.1493      0.00000
     74       6.2619      0.00000
     75       6.4762      0.00000
     76       6.5463      0.00000
     77       6.6927      0.00000
     78       6.7632      0.00000
     79       6.9697      0.00000
     80       6.9976      0.00000
     81       7.1280      0.00000
     82       7.4179      0.00000
     83       7.5356      0.00000
     84       7.6260      0.00000


--------------------------------------------------------------------------------------------------------


 soft charge-density along one line, spin component           1
         0         1         2         3         4         5         6         7         8         9
 total charge-density along one line
 
 pseudopotential strength for first ion, spin component:           1
  1.432   6.361  -0.000  -0.000  -0.001
  6.361  27.890   0.000   0.000   0.001
 -0.000   0.000   5.721  -0.000   0.000
 -0.000   0.000  -0.000   5.721  -0.000
 -0.001   0.001   0.000  -0.000   5.721
 total augmentation occupancy for first ion, spin component:           1
  0.400   0.002  -0.003  -0.007  -0.012
  0.002   0.000  -0.000  -0.000  -0.000
 -0.003  -0.000   0.017  -0.001  -0.000
 -0.007  -0.000  -0.001   0.015  -0.001
 -0.012  -0.000  -0.000  -0.001   0.020


------------------------ aborting loop because EDIFF is reached ----------------------------------------


 


 total charge     
 
# of ion       s       p       d       tot
------------------------------------------
    1        0.046   0.033   0.000   0.079
    2        0.038   0.025   0.000   0.063
    3        0.038   0.025   0.000   0.063
    4        0.046   0.033   0.000   0.079
    5        1.272   0.953   0.069   2.294
    6        1.271   0.959   0.070   2.300
    7        1.285   0.936   0.067   2.287
    8        1.286   0.924   0.068   2.278
    9        1.285   0.936   0.067   2.287
   10        1.272   0.953   0.069   2.294
   11        1.271   0.959   0.070   2.300
   12        1.286   0.924   0.068   2.278
   13        1.358   2.336   0.000   3.694
   14        1.352   2.351   0.000   3.704
   15        1.351   2.350   0.000   3.701
   16        1.352   2.350   0.000   3.702
   17        1.364   2.321   0.000   3.685
   18        1.352   2.351   0.000   3.704
   19        1.351   2.358   0.000   3.709
   20        1.364   2.321   0.000   3.685
   21        1.351   2.358   0.000   3.709
   22        1.352   2.348   0.000   3.700
   23        1.352   2.348   0.000   3.700
   24        1.352   2.350   0.000   3.702
   25        1.351   2.350   0.000   3.701
   26        1.358   2.336   0.000   3.694
--------------------------------------------------
tot         29.354  40.485   0.549  70.388
 
    CHARGE:  cpu time    0.0251: real time    0.0251
    FORLOC:  cpu time    0.0017: real time    0.0017
    FORNL :  cpu time    0.1731: real time    0.1733
    STRESS:  cpu time    0.4973: real time    0.5012
    FORCOR:  cpu time    0.0090: real time    0.0090
    FORHAR:  cpu time    0.0030: real time    0.0031
    MIXING:  cpu time    0.0006: real time    0.0006
    OFIELD:  cpu time    0.0000: real time    0.0000

  FORCE on cell =-STRESS in cart. coord.  units (eV):
  Direction    XX          YY          ZZ          XY          YZ          ZX
  --------------------------------------------------------------------------------------
  Alpha Z    33.59088    33.59088    33.59088
  Ewald   -1165.13998 -1368.64794 -1618.45063     5.84751  -179.71914   157.90925
[...]
      5      -9.2461      2.00000
      6      -9.1679      2.00000
      7      -8.8376      2.00000
      8      -8.7003      2.00000
      9      -8.5316      2.00000
     10      -8.4516      2.00000
     11      -8.4342      2.00000
     12      -8.4214      2.00000
     13      -8.3408      2.00000
     14      -8.2388      2.00000
     15      -5.4142      2.00000
     16      -5.3340      2.00000
     17      -5.1072      2.00000
     18      -4.9562      2.00000
     19      -4.7834      2.00000
     20      -4.4012      2.00000
     21      -4.0147      2.00000
     22      -3.7073      2.00000
     23      -1.4873      2.00000
     24      -1.2532      2.00000
     25      -1.1173      2.00000
     26      -0.8439      2.00000
     27      -0.7046      2.00000
     28      -0.6219      2.00000
     29      -0.4762      2.00000
     30      -0.2803      2.00000
     31      -0.1193      2.00000
     32      -0.0325      2.00000
     33       0.2135      2.00000
     34       0.2554      2.00000
     35       0.2883      2.00000
     36       0.4020      2.00000
     37       0.4357      2.00000
     38       0.4984      2.00000
     39       0.5499      2.00000
     40       0.7526      2.00000
     41       0.7934      2.00000
     42       0.9016      2.00000
     43       1.0771      2.00000
     44       1.1288      2.00000
     45       1.2181      2.00000
     46       1.2879      2.00000
     47       1.4379      2.00000
     48       1.6263      2.00000
     49       1.7226      2.00000
     50       1.8206      2.00000
     51       1.9396      2.00000
     52       2.0252      2.00000
     53       2.0563      2.00000
     54       2.1690      2.00000
     55       2.2766      2.00000
     56       2.3406      2.00000
     57       2.3557      2.00000
     58       2.5571      2.00000
     59       2.5979      2.00000
     60       2.7400      2.00000
     61       2.9042      2.00000
     62       2.9354      2.00000
     63       3.0445      2.00000
     64       3.2455      2.00000
     65       4.9710      0.00000
     66       5.3560      0.00000
     67       5.4531      0.00000
     68       5.6398      0.00000
     69       5.7319      0.00000
     70       5.8474      0.00000
     71       5.9104      0.00000
     72       6.0632      0.00000
     73       6.3276      0.00000
     74       6.4614      0.00000
     75       6.5062      0.00000
     76       6.5214      0.00000
     77       6.6562      0.00000
     78       6.7425      0.00000
     79       6.8130      0.00000
     80       6.9910      0.00000
     81       7.2196      0.00000
     82       7.3482      0.00000
     83       7.3998      0.00000
     84       7.6022      0.00000

 k-point     6 :      -0.3333   -0.2500    0.2500
  band No.  band energies     occupation 
      1     -10.1565      2.00000
      2      -9.8785      2.00000
      3      -9.7579      2.00000
      4      -9.4960      2.00000
      5      -9.2698      2.00000
      6      -9.1149      2.00000
      7      -8.7131      2.00000
      8      -8.6800      2.00000
      9      -8.5928      2.00000
     10      -8.5206      2.00000
     11      -8.4307      2.00000
     12      -8.3797      2.00000
     13      -8.2959      2.00000
     14      -8.2599      2.00000
     15      -5.5826      2.00000
     16      -5.3598      2.00000
     17      -5.1117      2.00000
     18      -5.0361      2.00000
     19      -4.4668      2.00000
     20      -4.2508      2.00000
     21      -4.1449      2.00000
     22      -3.7781      2.00000
     23      -1.5116      2.00000
     24      -1.2708      2.00000
     25      -1.0069      2.00000
     26      -0.8677      2.00000
     27      -0.7392      2.00000
     28      -0.6792      2.00000
     29      -0.4159      2.00000
     30      -0.3471      2.00000
     31      -0.2548      2.00000
     32      -0.0381      2.00000
     33       0.0720      2.00000
     34       0.1979      2.00000
     35       0.3926      2.00000
     36       0.4352      2.00000
     37       0.5415      2.00000
     38       0.6138      2.00000
     39       0.7185      2.00000
     40       0.7466      2.00000
     41       0.8291      2.00000
     42       0.8692      2.00000
     43       1.0156      2.00000
     44       1.1536      2.00000
     45       1.1758      2.00000
     46       1.3910      2.00000
     47       1.4896      2.00000
     48       1.6049      2.00000
     49       1.6880      2.00000
     50       1.7941      2.00000
     51       1.8734      2.00000
     52       2.0109      2.00000
     53       2.0797      2.00000
     54       2.1404      2.00000
     55       2.2123      2.00000
     56       2.4043      2.00000
     57       2.4240      2.00000
     58       2.4814      2.00000
     59       2.5888      2.00000
     60       2.7475      2.00000
     61       2.8738      2.00000
     62       2.9242      2.00000
     63       3.0128      2.00000
     64       3.1609      2.00000
     65       5.3377      0.00000
     66       5.4051      0.00000
     67       5.4739      0.00000
     68       5.6322      0.00000
     69       5.7067      0.00000
     70       5.7427      0.00000
     71       5.9338      0.00000
     72       5.9763      0.00000
     73       6.1483      0.00000
     74       6.2631      0.00000
     75       6.4782      0.00000
     76       6.5490      0.00000
     77       6.6957      0.00000
     78       6.7627      0.00000
     79       6.9698      0.00000
     80       6.9996      0.00000
     81       7.1304      0.00000
     82       7.4185      0.00000
     83       7.5291      0.00000
     84       7.6237      0.00000


--------------------------------------------------------------------------------------------------------


 soft charge-density along one line, spin component           1
         0         1         2         3         4         5         6         7         8         9
 total charge-density along one line
 
 pseudopotential strength for first ion, spin component:           1
  1.432   6.361  -0.000  -0.000  -0.001
  6.361  27.890   0.000   0.000   0.001
 -0.000   0.000   5.721  -0.000   0.000
 -0.000   0.000  -0.000   5.721  -0.000
 -0.001   0.001   0.000  -0.000   5.722
 total augmentation occupancy for first ion, spin component:           1
  0.400   0.002  -0.003  -0.007  -0.012
  0.002   0.000  -0.000  -0.000  -0.000
 -0.003  -0.000   0.017  -0.001  -0.000
 -0.007  -0.000  -0.001   0.015  -0.001
 -0.012  -0.000  -0.000  -0.001   0.020


------------------------ aborting loop because EDIFF is reached ----------------------------------------


 


 total charge     
 
# of ion       s       p       d       tot
------------------------------------------
    1        0.046   0.033   0.000   0.079
    2        0.038   0.025   0.000   0.063
    3        0.038   0.025   0.000   0.063
    4        0.046   0.033   0.000   0.079
    5        1.272   0.953   0.069   2.294
    6        1.271   0.958   0.070   2.300
    7        1.285   0.936   0.067   2.287
    8        1.286   0.924   0.068   2.277
    9        1.285   0.936   0.067   2.287
   10        1.272   0.953   0.069   2.294
   11        1.271   0.958   0.070   2.300
   12        1.286   0.924   0.068   2.277
   13        1.358   2.335   0.000   3.693
   14        1.352   2.351   0.000   3.703
   15        1.351   2.350   0.000   3.701
   16        1.352   2.350   0.000   3.702
   17        1.364   2.321   0.000   3.685
   18        1.352   2.351   0.000   3.703
   19        1.351   2.357   0.000   3.708
   20        1.364   2.321   0.000   3.685
   21        1.351   2.357   0.000   3.708
   22        1.352   2.348   0.000   3.700
   23        1.352   2.348   0.000   3.700
   24        1.352   2.350   0.000   3.702
   25        1.351   2.350   0.000   3.701
   26        1.358   2.335   0.000   3.693
--------------------------------------------------
tot         29.354  40.482   0.549  70.385
 
    CHARGE:  cpu time    0.0262: real time    0.0269
    FORLOC:  cpu time    0.0018: real time    0.0018
    FORNL :  cpu time    0.1711: real time    0.1842
    STRESS:  cpu time    0.4903: real time    0.5020
    FORCOR:  cpu time    0.0107: real time    0.0109
    FORHAR:  cpu time    0.0036: real time    0.0036
    MIXING:  cpu time    0.0006: real time    0.0008
    OFIELD:  cpu time    0.0000: real time    0.0000

  FORCE on cell =-STRESS in cart. coord.  units (eV):
  Direction    XX          YY          ZZ          XY          YZ          ZX
  --------------------------------------------------------------------------------------
  Alpha Z    33.58932    33.58932    33.58932
  Ewald   -1165.20471 -1369.48409 -1617.93270     5.39245  -180.20152   157.37900
  Hartree   528.15954   380.39802   226.89402     4.79817  -126.25150   102.24838
  E(xc)    -463.03684  -461.97061  -463.32405     0.18437    -0.18749     1.38030
  Local   -1632.99514 -1281.40504  -892.67866    -8.08337   303.99645  -249.06869
  n-local  1690.16211  1681.19073  1689.40637    -1.84233     0.22738    -9.90775
  augment  -382.11544  -381.21103  -384.24197     0.36641    -0.27094     2.61819
  Kinetic  1391.47556  1398.73917  1408.27589    -0.76816     2.57326    -4.51880
  Fock        0.00000     0.00000     0.00000     0.00000     0.00000     0.00000
  -------------------------------------------------------------------------------------
  Total       0.03440    -0.15353    -0.01178     0.04754    -0.11437     0.13062
  in kB       0.07877    -0.35161    -0.02699     0.10887    -0.26192     0.29915
  external pressure =       -0.10 kB  Pullay stress =        0.00 kB


 VOLUME and BASIS-vectors are now :
 -----------------------------------------------------------------------------
  energy-cutoff  :      300.00
  volume of cell :      699.59
      direct lattice vectors                 reciprocal lattice vectors
    -7.167199609  0.080991979 -0.324765879    -0.139480925  0.030120746  0.006549850
     1.944219234  9.033205993 -0.138233602     0.002033565  0.109998003 -0.017446454
    -0.871664143 -1.693088673-10.776341979     0.004177441 -0.002318747 -0.092769465

  length of vectors
     7.175010998  9.241098824 10.943303619     0.142846380  0.111391538  0.092892418


 FORCES acting on ions
    electron-ion (+dipol)            ewald-force                    non-local-force                 convergence-correction
 -----------------------------------------------------------------------------------------------
   -.482E+01 0.993E+00 0.742E+01   0.439E+01 -.107E+01 -.763E+01   0.434E+00 0.825E-01 0.218E+00   -.219E-03 -.466E-03 0.892E-03
   0.315E+01 0.939E+01 -.717E+01   -.293E+01 -.881E+01 0.648E+01   -.214E+00 -.590E+00 0.686E+00   0.291E-03 0.895E-03 -.682E-03
   -.315E+01 -.939E+01 0.717E+01   0.293E+01 0.881E+01 -.648E+01   0.214E+00 0.590E+00 -.686E+00   -.291E-03 -.895E-03 0.682E-03
   0.482E+01 -.993E+00 -.742E+01   -.439E+01 0.107E+01 0.763E+01   -.434E+00 -.825E-01 -.218E+00   0.219E-03 0.466E-03 -.892E-03
   0.117E+02 -.408E+02 -.120E+01   -.160E+02 0.490E+02 0.730E+01   0.432E+01 -.822E+01 -.612E+01   0.857E-03 -.113E-02 0.343E-02
   -.111E+02 -.150E+02 0.381E+01   0.127E+02 0.123E+02 -.145E+02   -.165E+01 0.268E+01 0.107E+02   -.994E-03 -.142E-02 -.250E-02
   0.330E+02 0.440E+00 -.224E+01   -.400E+02 -.488E+01 0.900E+01   0.698E+01 0.443E+01 -.672E+01   0.265E-02 -.254E-02 0.100E-02
   0.167E+02 -.656E+01 -.508E+02   -.213E+02 0.234E+01 0.592E+02   0.459E+01 0.419E+01 -.837E+01   0.653E-03 -.453E-02 -.589E-02
   -.330E+02 -.440E+00 0.224E+01   0.400E+02 0.488E+01 -.900E+01   -.698E+01 -.443E+01 0.672E+01   -.265E-02 0.254E-02 -.100E-02
   -.117E+02 0.408E+02 0.120E+01   0.160E+02 -.490E+02 -.730E+01   -.432E+01 0.822E+01 0.612E+01   -.857E-03 0.113E-02 -.343E-02
   0.111E+02 0.150E+02 -.381E+01   -.127E+02 -.123E+02 0.145E+02   0.165E+01 -.268E+01 -.107E+02   0.994E-03 0.142E-02 0.250E-02
   -.167E+02 0.656E+01 0.508E+02   0.213E+02 -.234E+01 -.592E+02   -.459E+01 -.419E+01 0.837E+01   -.653E-03 0.453E-02 0.589E-02
   0.259E+02 -.126E+02 -.349E+02   -.278E+02 0.135E+02 0.376E+02   0.192E+01 -.929E+00 -.276E+01   0.971E-03 0.355E-02 0.276E-04
   -.217E+01 -.497E+02 0.118E+02   0.274E+01 0.534E+02 -.131E+02   -.563E+00 -.369E+01 0.134E+01   -.165E-04 -.866E-02 -.191E-02
   0.413E+02 -.685E+02 -.877E+02   -.431E+02 0.711E+02 0.900E+02   0.172E+01 -.262E+01 -.232E+01   0.272E-02 -.976E-02 -.117E-01
   0.518E+02 -.859E+01 -.152E+02   -.555E+02 0.870E+01 0.160E+02   0.370E+01 -.881E-01 -.873E+00   0.252E-02 -.546E-02 -.910E-03
   0.268E+02 0.703E+02 0.856E+02   -.288E+02 -.723E+02 -.897E+02   0.196E+01 0.192E+01 0.405E+01   0.239E-02 0.831E-02 0.705E-02
   0.217E+01 0.497E+02 -.118E+02   -.274E+01 -.534E+02 0.131E+02   0.563E+00 0.369E+01 -.134E+01   0.165E-04 0.866E-02 0.191E-02
   -.505E+02 -.362E+02 0.614E+02   0.534E+02 0.366E+02 -.632E+02   -.281E+01 -.476E+00 0.178E+01   -.522E-02 -.246E-02 0.899E-02
   -.268E+02 -.703E+02 -.856E+02   0.288E+02 0.723E+02 0.897E+02   -.196E+01 -.192E+01 -.405E+01   -.239E-02 -.831E-02 -.705E-02
   0.505E+02 0.362E+02 -.614E+02   -.534E+02 -.366E+02 0.632E+02   0.281E+01 0.476E+00 -.178E+01   0.522E-02 0.246E-02 -.899E-02
   0.467E+02 0.736E+01 0.758E+02   -.488E+02 -.877E+01 -.788E+02   0.207E+01 0.140E+01 0.304E+01   0.429E-02 -.285E-02 0.801E-02
   -.467E+02 -.736E+01 -.758E+02   0.488E+02 0.877E+01 0.788E+02   -.207E+01 -.140E+01 -.304E+01   -.429E-02 0.285E-02 -.801E-02
   -.518E+02 0.859E+01 0.152E+02   0.555E+02 -.870E+01 -.160E+02   -.370E+01 0.881E-01 0.873E+00   -.252E-02 0.546E-02 0.910E-03
   -.413E+02 0.685E+02 0.877E+02   0.431E+02 -.711E+02 -.900E+02   -.172E+01 0.262E+01 0.232E+01   -.272E-02 0.976E-02 0.117E-01
   -.259E+02 0.126E+02 0.349E+02   0.278E+02 -.135E+02 -.376E+02   -.192E+01 0.929E+00 0.276E+01   -.971E-03 -.355E-02 -.276E-04
 -----------------------------------------------------------------------------------------------
   -.726E-10 0.452E-11 0.288E-11   -.711E-14 0.746E-13 -.355E-13   0.422E-14 0.178E-14 0.355E-14   0.337E-12 -.227E-11 0.147E-11
 
 
 POSITION                                       TOTAL-FORCE (eV/Angst)
 -----------------------------------------------------------------------------------
     -1.67826      2.89621     -1.44166        -0.004790      0.001777      0.005520
     -2.04507      5.95627     -6.61994         0.009744     -0.005996     -0.011304
     -4.04957      1.46484     -4.61940        -0.009744      0.005996      0.011304
     -4.41638      4.52490     -9.79768         0.004790     -0.001777     -0.005520
      1.35857      8.00146     -3.75110        -0.003073     -0.041889     -0.017133
     -0.82707      2.67993     -8.88612        -0.013536     -0.037131     -0.016594
     -5.16693      1.15793     -0.82698         0.006253     -0.008218      0.042539
     -3.99997      0.66278     -8.39204        -0.006770     -0.035552      0.002142
     -0.92771      6.26318    -10.41236        -0.006253      0.008218     -0.042539
     -7.45321     -0.58036     -7.48824         0.003073      0.041889      0.017133
     -5.26757      4.74118     -2.35322         0.013536      0.037131      0.016594
     -2.09467      6.75833     -2.84730         0.006770      0.035552     -0.002142
     -4.27467      7.48035     -1.81636        -0.007860      0.001463      0.006378
     -4.93661      1.60306    -10.54133         0.007565      0.007679      0.003644
     -3.03036      3.00730     -7.73814        -0.000344      0.025175      0.014381
     -2.27334     -0.68816     -5.72055        -0.001384      0.017980     -0.002160
      0.71534      5.59362     -4.02412        -0.013542     -0.006502      0.000341
     -1.15803      5.81805     -0.69801        -0.007565     -0.007679     -0.003644
     -3.13143      0.48302     -2.00148         0.021333     -0.007507     -0.013626
     -6.80999      1.82749     -7.21523         0.013542      0.006502     -0.000341
     -2.96322      6.93809     -9.23787        -0.021333      0.007507      0.013626
     -6.18315      2.39714     -2.85469        -0.012737     -0.005196     -0.003926
      0.08851      5.02397     -8.38465         0.012737      0.005196      0.003926
     -3.82130      8.10927     -5.51879         0.001384     -0.017980      0.002160
     -3.06429      4.41381     -3.50120         0.000344     -0.025175     -0.014381
     -1.81997     -0.05924     -9.42298         0.007860     -0.001463     -0.006378
 -----------------------------------------------------------------------------------
    total drift:                               -0.000000      0.000000      0.000000


--------------------------------------------------------------------------------------------------------



  FREE ENERGIE OF THE ION-ELECTRON SYSTEM (eV)
  ---------------------------------------------------
  free  energy   TOTEN  =      -109.29238952 eV

  energy  without entropy=     -109.29238952  energy(sigma->0) =     -109.29238952
 
 d Force = 0.5458592E-04[ 0.603E-04, 0.489E-04]  d Energy = 0.3478726E-04 0.198E-04
 d Force = 0.7579515E-01[ 0.758E-01, 0.758E-01]  d Ewald  = 0.4705713E+00-0.395E+00


--------------------------------------------------------------------------------------------------------


    POTLOK:  cpu time    0.1699: real time    0.1715


--------------------------------------------------------------------------------------------------------




--------------------------------------------------------------------------------------------------------


  
 reached required accuracy - stopping structural energy minimisation
     LOOP+:  cpu time    2.9436: real time    3.1888
    4ORBIT:  cpu time    0.0000: real time    0.0000
 


 total charge     
 
# of ion       s       p       d       tot
------------------------------------------
    1        0.046   0.033   0.000   0.079
    2        0.038   0.025   0.000   0.063
    3        0.038   0.025   0.000   0.063
    4        0.046   0.033   0.000   0.079
    5        1.272   0.953   0.069   2.294
    6        1.271   0.958   0.070   2.300
    7        1.285   0.936   0.067   2.287
    8        1.286   0.924   0.068   2.277
    9        1.285   0.936   0.067   2.287
   10        1.272   0.953   0.069   2.294
   11        1.271   0.958   0.070   2.300
   12        1.286   0.924   0.068   2.277
   13        1.358   2.335   0.000   3.693
   14        1.352   2.351   0.000   3.703
   15        1.351   2.350   0.000   3.701
   16        1.352   2.350   0.000   3.702
   17        1.364   2.321   0.000   3.685
   18        1.352   2.351   0.000   3.703
   19        1.351   2.357   0.000   3.708
   20        1.364   2.321   0.000   3.685
   21        1.351   2.357   0.000   3.708
   22        1.352   2.348   0.000   3.700
   23        1.352   2.348   0.000   3.700
   24        1.352   2.350   0.000   3.702
   25        1.351   2.350   0.000   3.701
   26        1.358   2.335   0.000   3.693
--------------------------------------------------
tot         29.354  40.482   0.549  70.385
 

 total amount of memory used by VASP MPI-rank0    40995. kBytes
=======================================================================

   base      :      30000. kBytes
   nonlr-proj:       1625. kBytes
   fftplans  :        837. kBytes
   grid      :       3421. kBytes
   one-center:        210. kBytes
   wavefun   :       4902. kBytes
 
  
  
 General timing and accounting informations for this job:
 ========================================================
  
                  Total CPU time used (sec):       53.190
                            User time (sec):       52.047
                          System time (sec):        1.143
                         Elapsed time (sec):       56.464
  
                   Maximum memory used (kb):       79596.
                   Average memory used (kb):           0.
  
                          Minor page faults:        42405
                          Major page faults:            0
                 Voluntary context switches:          817
