PROCAR new format
# of k-points:    6         # of bands:   84         # of ions:   26

 k-point     1 :   -0.00000000 0.25000000 0.25000000     weight = 0.16666667

band     1 # energy  -10.24295932 # occ.  2.00000000
 
ion      s      p      d    tot
    1  0.000  0.000  0.000  0.000
    2  0.000  0.000  0.000  0.000
    3  0.000  0.000  0.000  0.000
    4  0.000  0.000  0.000  0.000
    5  0.029  0.002  0.000  0.030
    6  0.017  0.001  0.000  0.018
    7  0.011  0.000  0.000  0.011
    8  0.021  0.001  0.000  0.022
    9  0.011  0.000  0.000  0.011
   10  0.029  0.002  0.000  0.030
   11  0.017  0.001  0.000  0.018
   12  0.021  0.001  0.000  0.022
   13  0.047  0.001  0.000  0.047
   14  0.026  0.001  0.000  0.026
   15  0.022  0.001  0.000  0.023
   16  0.039  0.001  0.000  0.041
   17  0.051  0.001  0.000  0.053
   18  0.026  0.001  0.000  0.026
   19  0.016  0.000  0.000  0.016
   20  0.051  0.001  0.000  0.053
   21  0.016  0.000  0.000  0.016
   22  0.011  0.000  0.000  0.011
   23  0.011  0.000  0.000  0.011
   24  0.039  0.001  0.000  0.041
   25  0.022  0.001  0.000  0.023
   26  0.047  0.001  0.000  0.047
tot    0.578  0.018  0.000  0.596
 
band     2 # energy  -10.13162665 # occ.  2.00000000
 
ion      s      p      d    tot
    1  0.000  0.000  0.000  0.000
    2  0.000  0.000  0.000  0.000
    3  0.000  0.000  0.000  0.000
    4  0.000  0.000  0.000  0.000
    5  0.021  0.002  0.000  0.023
    6  0.026  0.001  0.000  0.027
    7  0.006  0.001  0.000  0.007
    8  0.021  0.001  0.000  0.022
    9  0.006  0.001  0.000  0.007
   10  0.021  0.002  0.000  0.023
   11  0.026  0.001  0.000  0.027
   12  0.021  0.001  0.000  0.022
   13  0.044  0.001  0.000  0.045
   14  0.031  0.000  0.000  0.031
   15  0.034  0.001  0.000  0.035
   16  0.026  0.001  0.000  0.026
   17  0.060  0.001  0.000  0.061
   18  0.031  0.000  0.000  0.031
   19  0.006  0.000  0.000  0.007
   20  0.060  0.001  0.000  0.061
   21  0.006  0.000  0.000  0.007
   22  0.016  0.000  0.000  0.017
   23  0.016  0.000  0.000  0.017
   24  0.026  0.001  0.000  0.026
   25  0.034  0.001  0.000  0.035
   26  0.044  0.001  0.000  0.045
tot    0.582  0.020  0.000  0.602
 
band     3 # energy   -9.58874084 # occ.  2.00000000
 
ion      s      p      d    tot
    1  0.000  0.000  0.000  0.000
    2  0.000  0.000  0.000  0.000
    3  0.000  0.000  0.000  0.000
    4  0.000  0.000  0.000  0.000
    5  0.003  0.001  0.000  0.004
    6  0.014  0.002  0.000  0.015
    7  0.034  0.002  0.000  0.037
    8  0.011  0.002  0.000  0.012
    9  0.034  0.002  0.000  0.037
   10  0.003  0.001  0.000  0.004
   11  0.014  0.002  0.000  0.015
   12  0.011  0.002  0.000  0.012
   13  0.016  0.000  0.000  0.017
   14  0.070  0.001  0.000  0.071
   15  0.011  0.000  0.000  0.011
   16  0.005  0.000  0.000  0.005
   17  0.033  0.001  0.000  0.034
   18  0.070  0.001  0.000  0.071
   19  0.049  0.001  0.000  0.050
   20  0.033  0.001  0.000  0.034
   21  0.049  0.001  0.000  0.050
   22  0.053  0.001  0.000  0.054
   23  0.053  0.001  0.000  0.054
   24  0.005  0.000  0.000  0.005
   25  0.011  0.000  0.000  0.011
   26  0.016  0.000  0.000  0.017
tot    0.597  0.024  0.000  0.621
 
band     4 # energy   -9.38242903 # occ.  2.00000000
 
ion      s      p      d    tot
    1  0.000  0.000  0.000  0.000
    2  0.000  0.000  0.000  0.000
    3  0.000  0.000  0.000  0.000
    4  0.000  0.000  0.000  0.000
    5  0.024  0.004  0.000  0.029
    6  0.019  0.001  0.000  0.020
    7  0.004  0.001  0.000  0.005
    8  0.011  0.002  0.000  0.013
    9  0.004  0.001  0.000  0.005
   10  0.024  0.004  0.000  0.029
   11  0.019  0.001  0.000  0.020
   12  0.011  0.002  0.000  0.013
   13  0.021  0.001  0.000  0.022
   14  0.006  0.001  0.000  0.007
   15  0.062  0.001  0.000  0.063
   16  0.109  0.002  0.000  0.111
   17  0.000  0.001  0.000  0.001
   18  0.006  0.001  0.000  0.007
   19  0.006  0.000  0.000  0.006
   20  0.000  0.001  0.000  0.001
   21  0.006  0.000  0.000  0.006
   22  0.038  0.001  0.000  0.038
   23  0.038  0.001  0.000  0.038
   24  0.109  0.002  0.000  0.111
   25  0.062  0.001  0.000  0.063
   26  0.021  0.001  0.000  0.022
tot    0.601  0.028  0.001  0.630
 
band     5 # energy   -9.20603914 # occ.  2.00000000
 
ion      s      p      d    tot
    1  0.000  0.000  0.000  0.000
    2  0.000  0.000  0.000  0.000
    3  0.000  0.000  0.000  0.000
    4  0.000  0.000  0.000  0.000
    5  0.011  0.001  0.000  0.012
    6  0.001  0.003  0.000  0.004
    7  0.034  0.003  0.000  0.037
    8  0.002  0.002  0.000  0.004
    9  0.034  0.003  0.000  0.037
   10  0.011  0.001  0.000  0.012
   11  0.001  0.003  0.000  0.004
   12  0.002  0.002  0.000  0.004
   13  0.034  0.001  0.000  0.035
   14  0.054  0.001  0.000  0.055
   15  0.010  0.000  0.000  0.010
   16  0.007  0.000  0.000  0.007
   17  0.040  0.001  0.000  0.041
   18  0.054  0.001  0.000  0.055
   19  0.052  0.001  0.000  0.054
   20  0.040  0.001  0.000  0.041
   21  0.052  0.001  0.000  0.054
   22  0.059  0.001  0.000  0.060
   23  0.059  0.001  0.000  0.060
   24  0.007  0.000  0.000  0.007
   25  0.010  0.000  0.000  0.010
   26  0.034  0.001  0.000  0.035
tot    0.608  0.027  0.001  0.636
 
band     6 # energy   -9.06963215 # occ.  2.00000000
 
ion      s      p      d    tot
    1  0.000  0.000  0.000  0.000
    2  0.000  0.000  0.000  0.000
    3  0.000  0.000  0.000  0.000
    4  0.000  0.000  0.000  0.000
    5  0.002  0.002  0.000  0.005
    6  0.015  0.004  0.000  0.018
    7  0.000  0.002  0.000  0.002
    8  0.018  0.003  0.000  0.021
    9  0.000  0.002  0.000  0.002
   10  0.002  0.002  0.000  0.005
   11  0.015  0.004  0.000  0.018
   12  0.018  0.003  0.000  0.021
   13  0.056  0.001  0.000  0.056
   14  0.056  0.001  0.000  0.057
   15  0.003  0.000  0.000  0.003
   16  0.002  0.000  0.000  0.002
   17  0.106  0.001  0.000  0.107
   18  0.056  0.001  0.000  0.057
   19  0.008  0.000  0.000  0.009
   20  0.106  0.001  0.000  0.107
   21  0.008  0.000  0.000  0.009
   22  0.044  0.001  0.000  0.045
   23  0.044  0.001  0.000  0.045
   24  0.002  0.000  0.000  0.002
   25  0.003  0.000  0.000  0.003
   26  0.056  0.001  0.000  0.056
tot    0.621  0.029  0.001  0.651
 
band     7 # energy   -8.72132679 # occ.  2.00000000
 
ion      s      p      d    tot
    1  0.000  0.000  0.000  0.000
    2  0.000  0.000  0.000  0.000
    3  0.000  0.000  0.000  0.000
    4  0.000  0.000  0.000  0.000
    5  0.001  0.003  0.000  0.004
    6  0.003  0.003  0.000  0.005
    7  0.005  0.002  0.000  0.007
    8  0.003  0.004  0.000  0.007
    9  0.005  0.002  0.000  0.007
   10  0.001  0.003  0.000  0.004
   11  0.003  0.003  0.000  0.005
   12  0.003  0.004  0.000  0.007
   13  0.138  0.001  0.000  0.139
   14  0.033  0.000  0.000  0.033
   15  0.000  0.000  0.000  0.000
   16  0.020  0.000  0.000  0.021
   17  0.078  0.001  0.000  0.079
   18  0.033  0.000  0.000  0.033
   19  0.027  0.000  0.000  0.028
   20  0.078  0.001  0.000  0.079
   21  0.027  0.000  0.000  0.028
   22  0.007  0.000  0.000  0.007
   23  0.007  0.000  0.000  0.007
   24  0.020  0.000  0.000  0.021
   25  0.000  0.000  0.000  0.000
   26  0.138  0.001  0.000  0.139
tot    0.633  0.027  0.002  0.662
 
band     8 # energy   -8.67789382 # occ.  2.00000000
 
ion      s      p      d    tot
    1  0.000  0.000  0.000  0.000
    2  0.000  0.000  0.000  0.000
    3  0.000  0.000  0.000  0.000
    4  0.000  0.000  0.000  0.000
    5  0.010  0.001  0.000  0.011
    6  0.005  0.003  0.000  0.008
    7  0.007  0.002  0.000  0.010
    8  0.005  0.003  0.000  0.008
    9  0.007  0.002  0.000  0.010
   10  0.010  0.001  0.000  0.011
   11  0.005  0.003  0.000  0.008
   12  0.005  0.003  0.000  0.008
   13  0.016  0.000  0.000  0.017
   14  0.046  0.000  0.000  0.047
   15  0.122  0.001  0.000  0.123
   16  0.010  0.000  0.000  0.010
   17  0.026  0.001  0.000  0.026
   18  0.046  0.000  0.000  0.047
   19  0.062  0.001  0.000  0.063
   20  0.026  0.001  0.000  0.026
   21  0.062  0.001  0.000  0.063
   22  0.007  0.000  0.000  0.007
   23  0.007  0.000  0.000  0.007
   24  0.010  0.000  0.000  0.010
   25  0.122  0.001  0.000  0.123
   26  0.016  0.000  0.000  0.017
tot    0.630  0.026  0.002  0.658
 
band     9 # energy   -8.55100431 # occ.  2.00000000
 
ion      s      p      d    tot
    1  0.000  0.000  0.000  0.000
    2  0.000  0.000  0.000  0.000
    3  0.000  0.000  0.000  0.000
    4  0.000  0.000  0.000  0.000
    5  0.001  0.003  0.000  0.004
    6  0.003  0.002  0.000  0.005
    7  0.001  0.002  0.000  0.003
    8  0.001  0.003  0.000  0.005
    9  0.001  0.002  0.000  0.003
   10  0.001  0.003  0.000  0.004
   11  0.003  0.002  0.000  0.005
   12  0.001  0.003  0.000  0.005
   13  0.027  0.000  0.000  0.027
   14  0.087  0.001  0.000  0.088
   15  0.020  0.000  0.000  0.021
   16  0.035  0.000  0.000  0.035
   17  0.065  0.001  0.000  0.066
   18  0.087  0.001  0.000  0.088
   19  0.000  0.000  0.000  0.000
   20  0.065  0.001  0.000  0.066
   21  0.000  0.000  0.000  0.000
   22  0.080  0.000  0.000  0.080
   23  0.080  0.000  0.000  0.080
   24  0.035  0.000  0.000  0.035
   25  0.020  0.000  0.000  0.021
   26  0.027  0.000  0.000  0.027
tot    0.640  0.025  0.003  0.668
 
band    10 # energy   -8.47745195 # occ.  2.00000000
 
ion      s      p      d    tot
    1  0.000  0.000  0.000  0.000
    2  0.000  0.000  0.000  0.000
    3  0.000  0.000  0.000  0.000
    4  0.000  0.000  0.000  0.000
    5  0.001  0.003  0.000  0.004
    6  0.001  0.002  0.000  0.003
    7  0.002  0.003  0.000  0.005
    8  0.002  0.002  0.000  0.005
    9  0.002  0.003  0.000  0.005
   10  0.001  0.003  0.000  0.004
   11  0.001  0.002  0.000  0.003
   12  0.002  0.002  0.000  0.005
   13  0.040  0.000  0.000  0.040
   14  0.095  0.000  0.000  0.096
   15  0.010  0.000  0.000  0.010
   16  0.049  0.000  0.000  0.049
   17  0.013  0.000  0.000  0.013
   18  0.095  0.000  0.000  0.096
   19  0.049  0.000  0.000  0.049
   20  0.013  0.000  0.000  0.013
   21  0.049  0.000  0.000  0.049
   22  0.060  0.000  0.000  0.060
   23  0.060  0.000  0.000  0.060
   24  0.049  0.000  0.000  0.049
   25  0.010  0.000  0.000  0.010
   26  0.040  0.000  0.000  0.040
tot    0.645  0.023  0.002  0.670
 
band    11 # energy   -8.42171127 # occ.  2.00000000
 
ion      s      p      d    tot
    1  0.000  0.000  0.000  0.000
    2  0.000  0.000  0.000  0.000
    3  0.000  0.000  0.000  0.000
    4  0.000  0.000  0.000  0.000
    5  0.000  0.003  0.000  0.004
    6  0.000  0.005  0.001  0.005
    7  0.001  0.001  0.000  0.002
    8  0.000  0.002  0.000  0.003
    9  0.001  0.001  0.000  0.002
   10  0.000  0.003  0.000  0.004
   11  0.000  0.005  0.001  0.005
   12  0.000  0.002  0.000  0.003
   13  0.039  0.000  0.000  0.039
   14  0.003  0.000  0.000  0.003
   15  0.153  0.001  0.000  0.153
   16  0.037  0.000  0.000  0.037
   17  0.062  0.001  0.000  0.062
   18  0.003  0.000  0.000  0.003
   19  0.015  0.000  0.000  0.015
   20  0.062  0.001  0.000  0.062
   21  0.015  0.000  0.000  0.015
   22  0.014  0.000  0.000  0.014
   23  0.014  0.000  0.000  0.014
   24  0.037  0.000  0.000  0.037
   25  0.153  0.001  0.000  0.153
   26  0.039  0.000  0.000  0.039
tot    0.647  0.025  0.003  0.674
 
band    12 # energy   -8.39008592 # occ.  2.00000000
 
ion      s      p      d    tot
    1  0.000  0.000  0.000  0.000
    2  0.000  0.000  0.000  0.000
    3  0.000  0.000  0.000  0.000
    4  0.000  0.000  0.000  0.000
    5  0.002  0.003  0.000  0.005
    6  0.000  0.002  0.000  0.003
    7  0.000  0.004  0.000  0.004
    8  0.000  0.001  0.000  0.002
    9  0.000  0.004  0.000  0.004
   10  0.002  0.003  0.000  0.005
   11  0.000  0.002  0.000  0.003
   12  0.000  0.001  0.000  0.002
   13  0.003  0.000  0.000  0.003
   14  0.046  0.000  0.000  0.046
   15  0.050  0.000  0.000  0.051
   16  0.082  0.001  0.000  0.083
   17  0.010  0.000  0.000  0.010
   18  0.046  0.000  0.000  0.046
   19  0.060  0.000  0.000  0.060
   20  0.010  0.000  0.000  0.010
   21  0.060  0.000  0.000  0.060
   22  0.069  0.000  0.000  0.069
   23  0.069  0.000  0.000  0.069
   24  0.082  0.001  0.000  0.083
   25  0.050  0.000  0.000  0.051
   26  0.003  0.000  0.000  0.003
tot    0.646  0.024  0.003  0.673
 
band    13 # energy   -8.27767141 # occ.  2.00000000
 
ion      s      p      d    tot
    1  0.000  0.000  0.000  0.000
    2  0.000  0.000  0.000  0.000
    3  0.000  0.000  0.000  0.000
    4  0.000  0.000  0.000  0.000
    5  0.001  0.002  0.000  0.003
    6  0.000  0.001  0.000  0.002
    7  0.001  0.003  0.000  0.004
    8  0.000  0.001  0.000  0.002
    9  0.001  0.003  0.000  0.004
   10  0.001  0.002  0.000  0.003
   11  0.000  0.001  0.000  0.002
   12  0.000  0.001  0.000  0.002
   13  0.055  0.000  0.000  0.055
   14  0.014  0.000  0.000  0.014
   15  0.057  0.000  0.000  0.057
   16  0.073  0.000  0.000  0.074
   17  0.002  0.000  0.000  0.002
   18  0.014  0.000  0.000  0.014
   19  0.071  0.000  0.000  0.072
   20  0.002  0.000  0.000  0.002
   21  0.071  0.000  0.000  0.072
   22  0.055  0.000  0.000  0.055
   23  0.055  0.000  0.000  0.055
   24  0.073  0.000  0.000  0.074
   25  0.057  0.000  0.000  0.057
   26  0.055  0.000  0.000  0.055
tot    0.659  0.018  0.003  0.680
 
band    14 # energy   -8.20297934 # occ.  2.00000000
 
ion      s      p      d    tot
    1  0.000  0.000  0.000  0.000
    2  0.000  0.000  0.000  0.000
    3  0.000  0.000  0.000  0.000
    4  0.000  0.000  0.000  0.000
    5  0.000  0.002  0.001  0.003
    6  0.000  0.001  0.000  0.002
    7  0.001  0.003  0.001  0.005
    8  0.000  0.001  0.000  0.001
    9  0.001  0.003  0.001  0.005
   10  0.000  0.002  0.001  0.003
   11  0.000  0.001  0.000  0.002
   12  0.000  0.001  0.000  0.001
   13  0.044  0.000  0.000  0.044
   14  0.003  0.000  0.000  0.003
   15  0.010  0.000  0.000  0.010
   16  0.072  0.000  0.000  0.072
   17  0.008  0.000  0.000  0.008
   18  0.003  0.000  0.000  0.003
   19  0.139  0.001  0.000  0.140
   20  0.008  0.000  0.000  0.008
   21  0.139  0.001  0.000  0.140
   22  0.053  0.000  0.000  0.054
   23  0.053  0.000  0.000  0.054
   24  0.072  0.000  0.000  0.072
   25  0.010  0.000  0.000  0.010
   26  0.044  0.000  0.000  0.044
tot    0.664  0.017  0.003  0.684
 
band    15 # energy   -5.65475790 # occ.  2.00000000
 
ion      s      p      d    tot
    1  0.000  0.000  0.000  0.000
    2  0.000  0.000  0.000  0.000
    3  0.000  0.000  0.000  0.000
    4  0.000  0.000  0.000  0.000
    5  0.051  0.001  0.000  0.052
    6  0.084  0.000  0.000  0.085
    7  0.031  0.000  0.000  0.032
    8  0.069  0.000  0.000  0.069
    9  0.031  0.000  0.000  0.032
   10  0.051  0.001  0.000  0.052
   11  0.084  0.000  0.000  0.085
   12  0.069  0.000  0.000  0.069
   13  0.007  0.003  0.000  0.009
   14  0.004  0.005  0.000  0.009
   15  0.002  0.006  0.000  0.008
   16  0.002  0.005  0.000  0.007
   17  0.002  0.009  0.000  0.011
   18  0.004  0.005  0.000  0.009
   19  0.001  0.003  0.000  0.004
   20  0.002  0.009  0.000  0.011
   21  0.001  0.003  0.000  0.004
   22  0.014  0.004  0.000  0.018
   23  0.014  0.004  0.000  0.018
   24  0.002  0.005  0.000  0.007
   25  0.002  0.006  0.000  0.008
   26  0.007  0.003  0.000  0.009
tot    0.533  0.074  0.001  0.607
 
band    16 # energy   -5.41291514 # occ.  2.00000000
 
ion      s      p      d    tot
    1  0.000  0.000  0.000  0.000
    2  0.000  0.000  0.000  0.000
    3  0.000  0.000  0.000  0.000
    4  0.000  0.000  0.000  0.000
    5  0.019  0.001  0.000  0.020
    6  0.076  0.001  0.000  0.077
    7  0.043  0.001  0.000  0.044
    8  0.096  0.000  0.000  0.096
    9  0.043  0.001  0.000  0.044
   10  0.019  0.001  0.000  0.020
   11  0.076  0.001  0.000  0.077
   12  0.096  0.000  0.000  0.096
   13  0.004  0.006  0.000  0.010
   14  0.006  0.006  0.000  0.012
   15  0.005  0.007  0.000  0.013
   16  0.002  0.002  0.000  0.003
   17  0.006  0.007  0.000  0.012
   18  0.006  0.006  0.000  0.012
   19  0.014  0.002  0.000  0.016
   20  0.006  0.007  0.000  0.012
   21  0.014  0.002  0.000  0.016
   22  0.001  0.006  0.000  0.006
   23  0.001  0.006  0.000  0.006
   24  0.002  0.002  0.000  0.003
   25  0.005  0.007  0.000  0.013
   26  0.004  0.006  0.000  0.010
tot    0.546  0.076  0.001  0.622
 
band    17 # energy   -5.26765222 # occ.  2.00000000
 
ion      s      p      d    tot
    1  0.000  0.000  0.000  0.000
    2  0.000  0.000  0.000  0.000
    3  0.000  0.000  0.000  0.000
    4  0.000  0.000  0.000  0.000
    5  0.084  0.000  0.000  0.084
    6  0.008  0.002  0.000  0.009
    7  0.043  0.000  0.000  0.044
    8  0.090  0.001  0.000  0.091
    9  0.043  0.000  0.000  0.044
   10  0.084  0.000  0.000  0.084
   11  0.008  0.002  0.000  0.009
   12  0.090  0.001  0.000  0.091
   13  0.002  0.009  0.000  0.011
   14  0.002  0.009  0.000  0.011
   15  0.006  0.004  0.000  0.010
   16  0.003  0.004  0.000  0.008
   17  0.014  0.004  0.000  0.018
   18  0.002  0.009  0.000  0.011
   19  0.009  0.003  0.000  0.013
   20  0.014  0.004  0.000  0.018
   21  0.009  0.003  0.000  0.013
   22  0.010  0.002  0.000  0.011
   23  0.010  0.002  0.000  0.011
   24  0.003  0.004  0.000  0.008
   25  0.006  0.004  0.000  0.010
   26  0.002  0.009  0.000  0.011
tot    0.544  0.076  0.001  0.621
 
band    18 # energy   -4.88177714 # occ.  2.00000000
 
ion      s      p      d    tot
    1  0.000  0.000  0.000  0.000
    2  0.000  0.000  0.000  0.000
    3  0.000  0.000  0.000  0.000
    4  0.000  0.000  0.000  0.000
    5  0.074  0.001  0.000  0.075
    6  0.068  0.001  0.000  0.068
    7  0.040  0.000  0.000  0.041
    8  0.025  0.001  0.000  0.026
    9  0.040  0.000  0.000  0.041
   10  0.074  0.001  0.000  0.075
   11  0.068  0.001  0.000  0.068
   12  0.025  0.001  0.000  0.026
   13  0.002  0.005  0.000  0.008
   14  0.006  0.004  0.000  0.009
   15  0.025  0.003  0.000  0.028
   16  0.024  0.008  0.000  0.031
   17  0.006  0.008  0.000  0.014
   18  0.006  0.004  0.000  0.009
   19  0.005  0.002  0.000  0.007
   20  0.006  0.008  0.000  0.014
   21  0.005  0.002  0.000  0.007
   22  0.008  0.006  0.000  0.013
   23  0.008  0.006  0.000  0.013
   24  0.024  0.008  0.000  0.031
   25  0.025  0.003  0.000  0.028
   26  0.002  0.005  0.000  0.008
tot    0.565  0.075  0.001  0.641
 
band    19 # energy   -4.80420949 # occ.  2.00000000
 
ion      s      p      d    tot
    1  0.000  0.000  0.000  0.000
    2  0.000  0.000  0.000  0.000
    3  0.000  0.000  0.000  0.000
    4  0.000  0.000  0.000  0.000
    5  0.107  0.000  0.000  0.108
    6  0.012  0.001  0.000  0.013
    7  0.086  0.000  0.000  0.087
    8  0.003  0.000  0.000  0.004
    9  0.086  0.000  0.000  0.087
   10  0.107  0.000  0.000  0.108
   11  0.012  0.001  0.000  0.013
   12  0.003  0.000  0.000  0.004
   13  0.002  0.004  0.000  0.006
   14  0.006  0.003  0.000  0.009
   15  0.004  0.001  0.000  0.004
   16  0.027  0.009  0.000  0.036
   17  0.018  0.005  0.000  0.023
   18  0.006  0.003  0.000  0.009
   19  0.014  0.007  0.000  0.021
   20  0.018  0.005  0.000  0.023
   21  0.014  0.007  0.000  0.021
   22  0.007  0.004  0.000  0.010
   23  0.007  0.004  0.000  0.010
   24  0.027  0.009  0.000  0.036
   25  0.004  0.001  0.000  0.004
   26  0.002  0.004  0.000  0.006
tot    0.572  0.069  0.001  0.641
 
band    20 # energy   -4.44515569 # occ.  2.00000000
 
ion      s      p      d    tot
    1  0.000  0.000  0.000  0.000
    2  0.000  0.000  0.000  0.000
    3  0.000  0.000  0.000  0.000
    4  0.000  0.000  0.000  0.000
    5  0.001  0.001  0.000  0.002
    6  0.057  0.001  0.000  0.057
    7  0.102  0.001  0.000  0.103
    8  0.045  0.001  0.000  0.046
    9  0.102  0.001  0.000  0.103
   10  0.001  0.001  0.000  0.002
   11  0.057  0.001  0.000  0.057
   12  0.045  0.001  0.000  0.046
   13  0.002  0.005  0.000  0.007
   14  0.029  0.003  0.000  0.032
   15  0.009  0.005  0.000  0.015
   16  0.000  0.001  0.000  0.001
   17  0.006  0.004  0.000  0.011
   18  0.029  0.003  0.000  0.032
   19  0.015  0.009  0.000  0.024
   20  0.006  0.004  0.000  0.011
   21  0.015  0.009  0.000  0.024
   22  0.025  0.005  0.000  0.030
   23  0.025  0.005  0.000  0.030
   24  0.000  0.001  0.000  0.001
   25  0.009  0.005  0.000  0.015
   26  0.002  0.005  0.000  0.007
tot    0.584  0.070  0.001  0.654
 
band    21 # energy   -3.98265643 # occ.  2.00000000
 
ion      s      p      d    tot
    1  0.000  0.000  0.000  0.000
    2  0.000  0.000  0.000  0.000
    3  0.000  0.000  0.000  0.000
    4  0.000  0.000  0.000  0.000
    5  0.063  0.000  0.000  0.064
    6  0.071  0.001  0.000  0.072
    7  0.006  0.001  0.000  0.007
    8  0.043  0.001  0.000  0.045
    9  0.006  0.001  0.000  0.007
   10  0.063  0.000  0.000  0.064
   11  0.071  0.001  0.000  0.072
   12  0.043  0.001  0.000  0.045
   13  0.024  0.004  0.000  0.028
   14  0.002  0.008  0.000  0.010
   15  0.022  0.005  0.000  0.027
   16  0.021  0.008  0.000  0.029
   17  0.032  0.005  0.000  0.037
   18  0.002  0.008  0.000  0.010
   19  0.004  0.001  0.000  0.005
   20  0.032  0.005  0.000  0.037
   21  0.004  0.001  0.000  0.005
   22  0.008  0.004  0.000  0.012
   23  0.008  0.004  0.000  0.012
   24  0.021  0.008  0.000  0.029
   25  0.022  0.005  0.000  0.027
   26  0.024  0.004  0.000  0.028
tot    0.593  0.078  0.001  0.671
 
band    22 # energy   -3.59924290 # occ.  2.00000000
 
ion      s      p      d    tot
    1  0.000  0.000  0.000  0.001
    2  0.000  0.000  0.000  0.000
    3  0.000  0.000  0.000  0.000
    4  0.000  0.000  0.000  0.001
    5  0.016  0.000  0.000  0.017
    6  0.045  0.001  0.000  0.045
    7  0.071  0.000  0.000  0.072
    8  0.061  0.000  0.000  0.062
    9  0.071  0.000  0.000  0.072
   10  0.016  0.000  0.000  0.017
   11  0.045  0.001  0.000  0.045
   12  0.061  0.000  0.000  0.062
   13  0.026  0.003  0.000  0.028
   14  0.023  0.005  0.000  0.029
   15  0.014  0.005  0.000  0.019
   16  0.005  0.003  0.000  0.008
   17  0.013  0.003  0.000  0.016
   18  0.023  0.005  0.000  0.029
   19  0.026  0.005  0.000  0.031
   20  0.013  0.003  0.000  0.016
   21  0.026  0.005  0.000  0.031
   22  0.012  0.006  0.000  0.018
   23  0.012  0.006  0.000  0.018
   24  0.005  0.003  0.000  0.008
   25  0.014  0.005  0.000  0.019
   26  0.026  0.003  0.000  0.028
tot    0.627  0.065  0.000  0.692
 
band    23 # energy   -1.37021585 # occ.  2.00000000
 
ion      s      p      d    tot
    1  0.000  0.000  0.000  0.000
    2  0.000  0.000  0.000  0.000
    3  0.000  0.000  0.000  0.000
    4  0.000  0.000  0.000  0.000
    5  0.000  0.022  0.000  0.023
    6  0.000  0.012  0.000  0.013
    7  0.000  0.015  0.000  0.016
    8  0.000  0.022  0.000  0.022
    9  0.000  0.015  0.000  0.016
   10  0.000  0.022  0.000  0.023
   11  0.000  0.012  0.000  0.013
   12  0.000  0.022  0.000  0.022
   13  0.003  0.036  0.000  0.038
   14  0.000  0.017  0.000  0.017
   15  0.001  0.010  0.000  0.011
   16  0.000  0.025  0.000  0.026
   17  0.000  0.017  0.000  0.017
   18  0.000  0.017  0.000  0.017
   19  0.000  0.017  0.000  0.017
   20  0.000  0.017  0.000  0.017
   21  0.000  0.017  0.000  0.017
   22  0.001  0.008  0.000  0.009
   23  0.001  0.008  0.000  0.009
   24  0.000  0.025  0.000  0.026
   25  0.001  0.010  0.000  0.011
   26  0.003  0.036  0.000  0.038
tot    0.013  0.402  0.002  0.417
 
band    24 # energy   -1.31525162 # occ.  2.00000000
 
ion      s      p      d    tot
    1  0.000  0.000  0.000  0.000
    2  0.000  0.000  0.000  0.001
    3  0.000  0.000  0.000  0.001
    4  0.000  0.000  0.000  0.000
    5  0.002  0.037  0.000  0.039
    6  0.000  0.009  0.000  0.009
    7  0.001  0.009  0.000  0.010
    8  0.001  0.017  0.000  0.019
    9  0.001  0.009  0.000  0.010
   10  0.002  0.037  0.000  0.039
   11  0.000  0.009  0.000  0.009
   12  0.001  0.017  0.000  0.019
   13  0.001  0.038  0.000  0.039
   14  0.000  0.012  0.000  0.012
   15  0.000  0.005  0.000  0.006
   16  0.001  0.042  0.000  0.043
   17  0.003  0.014  0.000  0.017
   18  0.000  0.012  0.000  0.012
   19  0.001  0.010  0.000  0.011
   20  0.003  0.014  0.000  0.017
   21  0.001  0.010  0.000  0.011
   22  0.001  0.006  0.000  0.006
   23  0.001  0.006  0.000  0.006
   24  0.001  0.042  0.000  0.043
   25  0.000  0.005  0.000  0.006
   26  0.001  0.038  0.000  0.039
tot    0.024  0.397  0.002  0.423
 
band    25 # energy   -1.16694783 # occ.  2.00000000
 
ion      s      p      d    tot
    1  0.000  0.000  0.000  0.001
    2  0.000  0.000  0.000  0.000
    3  0.000  0.000  0.000  0.000
    4  0.000  0.000  0.000  0.001
    5  0.000  0.004  0.000  0.004
    6  0.000  0.020  0.000  0.020
    7  0.000  0.021  0.000  0.021
    8  0.000  0.024  0.000  0.025
    9  0.000  0.021  0.000  0.021
   10  0.000  0.004  0.000  0.004
   11  0.000  0.020  0.000  0.020
   12  0.000  0.024  0.000  0.025
   13  0.001  0.041  0.000  0.042
   14  0.001  0.028  0.000  0.029
   15  0.001  0.023  0.000  0.023
   16  0.000  0.004  0.000  0.004
   17  0.001  0.006  0.000  0.007
   18  0.001  0.028  0.000  0.029
   19  0.001  0.020  0.000  0.021
   20  0.001  0.006  0.000  0.007
   21  0.001  0.020  0.000  0.021
   22  0.001  0.015  0.000  0.015
   23  0.001  0.015  0.000  0.015
   24  0.000  0.004  0.000  0.004
   25  0.001  0.023  0.000  0.023
   26  0.001  0.041  0.000  0.042
tot    0.013  0.409  0.003  0.425
 
band    26 # energy   -1.02105463 # occ.  2.00000000
 
ion      s      p      d    tot
    1  0.000  0.000  0.000  0.000
    2  0.000  0.000  0.000  0.000
    3  0.000  0.000  0.000  0.000
    4  0.000  0.000  0.000  0.000
    5  0.001  0.027  0.001  0.028
    6  0.001  0.022  0.000  0.023
    7  0.000  0.006  0.000  0.006
    8  0.001  0.017  0.001  0.018
    9  0.000  0.006  0.000  0.006
   10  0.001  0.027  0.001  0.028
   11  0.001  0.022  0.000  0.023
   12  0.001  0.017  0.001  0.018
   13  0.002  0.028  0.000  0.030
   14  0.000  0.021  0.000  0.022
   15  0.001  0.010  0.000  0.012
   16  0.000  0.028  0.000  0.028
   17  0.001  0.036  0.000  0.037
   18  0.000  0.021  0.000  0.022
   19  0.001  0.004  0.000  0.005
   20  0.001  0.036  0.000  0.037
   21  0.001  0.004  0.000  0.005
   22  0.000  0.011  0.000  0.012
   23  0.000  0.011  0.000  0.012
   24  0.000  0.028  0.000  0.028
   25  0.001  0.010  0.000  0.012
   26  0.002  0.028  0.000  0.030
tot    0.015  0.422  0.004  0.440
 
band    27 # energy   -0.87893021 # occ.  2.00000000
 
ion      s      p      d    tot
    1  0.001  0.000  0.000  0.001
    2  0.000  0.000  0.000  0.000
    3  0.000  0.000  0.000  0.000
    4  0.001  0.000  0.000  0.001
    5  0.002  0.009  0.000  0.011
    6  0.000  0.032  0.000  0.032
    7  0.000  0.020  0.000  0.020
    8  0.001  0.007  0.001  0.009
    9  0.000  0.020  0.000  0.020
   10  0.002  0.009  0.000  0.011
   11  0.000  0.032  0.000  0.032
   12  0.001  0.007  0.001  0.009
   13  0.001  0.036  0.000  0.037
   14  0.002  0.022  0.000  0.023
   15  0.001  0.017  0.000  0.019
   16  0.000  0.003  0.000  0.003
   17  0.001  0.018  0.000  0.018
   18  0.002  0.022  0.000  0.023
   19  0.000  0.006  0.000  0.007
   20  0.001  0.018  0.000  0.018
   21  0.000  0.006  0.000  0.007
   22  0.001  0.037  0.000  0.038
   23  0.001  0.037  0.000  0.038
   24  0.000  0.003  0.000  0.003
   25  0.001  0.017  0.000  0.019
   26  0.001  0.036  0.000  0.037
tot    0.020  0.414  0.003  0.437
 
band    28 # energy   -0.75307804 # occ.  2.00000000
 
ion      s      p      d    tot
    1  0.000  0.000  0.000  0.000
    2  0.000  0.000  0.000  0.000
    3  0.000  0.000  0.000  0.000
    4  0.000  0.000  0.000  0.000
    5  0.002  0.007  0.000  0.009
    6  0.001  0.027  0.000  0.028
    7  0.000  0.016  0.000  0.017
    8  0.002  0.020  0.001  0.023
    9  0.000  0.016  0.000  0.017
   10  0.002  0.007  0.000  0.009
   11  0.001  0.027  0.000  0.028
   12  0.002  0.020  0.001  0.023
   13  0.001  0.007  0.000  0.008
   14  0.000  0.037  0.000  0.037
   15  0.000  0.016  0.000  0.016
   16  0.001  0.011  0.000  0.012
   17  0.000  0.024  0.000  0.025
   18  0.000  0.037  0.000  0.037
   19  0.002  0.014  0.000  0.016
   20  0.000  0.024  0.000  0.025
   21  0.002  0.014  0.000  0.016
   22  0.003  0.021  0.000  0.024
   23  0.003  0.021  0.000  0.024
   24  0.001  0.011  0.000  0.012
   25  0.000  0.016  0.000  0.016
   26  0.001  0.007  0.000  0.008
tot    0.027  0.403  0.003  0.433
 
band    29 # energy   -0.50673113 # occ.  2.00000000
 
ion      s      p      d    tot
    1  0.000  0.000  0.000  0.000
    2  0.000  0.000  0.000  0.000
    3  0.000  0.000  0.000  0.000
    4  0.000  0.000  0.000  0.000
    5  0.001  0.008  0.000  0.009
    6  0.001  0.023  0.001  0.024
    7  0.000  0.002  0.001  0.003
    8  0.000  0.033  0.000  0.034
    9  0.000  0.002  0.001  0.003
   10  0.001  0.008  0.000  0.009
   11  0.001  0.023  0.001  0.024
   12  0.000  0.033  0.000  0.034
   13  0.001  0.028  0.000  0.029
   14  0.001  0.015  0.000  0.015
   15  0.001  0.045  0.000  0.046
   16  0.000  0.012  0.000  0.012
   17  0.001  0.018  0.000  0.019
   18  0.001  0.015  0.000  0.015
   19  0.001  0.015  0.000  0.016
   20  0.001  0.018  0.000  0.019
   21  0.001  0.015  0.000  0.016
   22  0.002  0.013  0.000  0.015
   23  0.002  0.013  0.000  0.015
   24  0.000  0.012  0.000  0.012
   25  0.001  0.045  0.000  0.046
   26  0.001  0.028  0.000  0.029
tot    0.019  0.427  0.004  0.450
 
band    30 # energy   -0.37033868 # occ.  2.00000000
 
ion      s      p      d    tot
    1  0.001  0.000  0.000  0.001
    2  0.001  0.000  0.000  0.001
    3  0.001  0.000  0.000  0.001
    4  0.001  0.000  0.000  0.001
    5  0.001  0.031  0.001  0.032
    6  0.002  0.007  0.001  0.010
    7  0.001  0.020  0.000  0.021
    8  0.001  0.010  0.001  0.011
    9  0.001  0.020  0.000  0.021
   10  0.001  0.031  0.001  0.032
   11  0.002  0.007  0.001  0.010
   12  0.001  0.010  0.001  0.011
   13  0.000  0.020  0.000  0.020
   14  0.001  0.026  0.000  0.027
   15  0.000  0.005  0.000  0.005
   16  0.002  0.036  0.000  0.038