<?xml version="1.0" encoding="ISO-8859-1"?>
<modeling>
 <generator>
  <i name="program" type="string">vasp </i>
  <i name="version" type="string">5.4.4.18Apr17-6-g9f103f2a35  </i>
  <i name="subversion" type="string">(build Oct 27 2022 13:04:57) complex            parallel </i>
  <i name="platform" type="string">LinuxIFC </i>
  <i name="date" type="string">2024 06 29 </i>
  <i name="time" type="string">19:12:45 </i>
 </generator>
 <incar>
  <i type="string" name="SYSTEM"> CIS</i>
  <i type="int" name="ISTART">     0</i>
  <i type="string" name="PREC">medium</i>
  <i type="int" name="ICHARG">     2</i>
  <i type="int" name="IBRION">     2</i>
  <i name="EDIFF">      0.00010000</i>
  <i name="EDIFFG">     -0.05000000</i>
  <i type="int" name="NSW">    99</i>
  <i type="int" name="ISIF">     3</i>
  <i name="ENCUT">    300.00000000</i>
  <i name="POTIM">      0.10000000</i>
  <i type="string" name="LREAL"> Auto</i>
  <i type="int" name="ISMEAR">     0</i>
  <i name="SIGMA">      0.05000000</i>
  <i type="int" name="LMAXMIX">     4</i>
  <i type="logical" name="LWAVE"> F  </i>
  <i type="logical" name="LCHARG"> F  </i>
  <i type="int" name="LORBIT">    10</i>
  <i type="logical" name="LASPH"> T  </i>
  <v type="int" name="KPOINT_BSE">    -1     0     0     0</v>
  <i type="logical" name="LASPH"> T  </i>
 </incar>
 <structure name="primitive_cell" >
  <crystal>
   <varray name="basis" >
    <v>      -7.16689876       0.08401529      -0.32485989 </v>
    <v>       1.94036900       9.03505279      -0.13869663 </v>
    <v>      -0.87119528      -1.69256157     -10.77311894 </v>
   </varray>
   <i name="volume">    699.55377129 </i>
   <varray name="rec_basis" >
    <v>      -0.13947527       0.03005438       0.00655718 </v>
    <v>       0.00207983       0.10996558      -0.01744485 </v>
    <v>       0.00417905      -0.00232201      -0.09279677 </v>
   </varray>
  </crystal>
  <varray name="positions" >
   <v>       0.31176962       0.34031863       0.12012074 </v>
   <v>       0.43844752       0.08198874       0.17137842 </v>
   <v>      -0.46259249      -0.45938105       0.30154879 </v>
   <v>      -0.08427777       0.30100269       0.23358856 </v>
   <v>      -0.33209410       0.35009449      -0.04634952 </v>
   <v>       0.33209410      -0.35009449       0.04634952 </v>
   <v>       0.19020209       0.15410685      -0.13323526 </v>
   <v>      -0.24960487       0.13131519       0.05227710 </v>
   <v>       0.13778534       0.44805708      -0.18523449 </v>
   <v>      -0.13778534      -0.44805708       0.18523449 </v>
   <v>      -0.47736427       0.21094146      -0.23955091 </v>
   <v>       0.47736427      -0.21094146       0.23955091 </v>
   <v>      -0.42160166       0.23343339       0.40845586 </v>
   <v>       0.04220022      -0.31299064       0.36339589 </v>
   <v>       0.24960487      -0.13131519      -0.05227710 </v>
   <v>      -0.31176962      -0.34031863      -0.12012074 </v>
   <v>       0.02671036      -0.05155525       0.33510056 </v>
   <v>       0.46259249       0.45938105      -0.30154879 </v>
   <v>      -0.43844752      -0.08198874      -0.17137842 </v>
   <v>      -0.19020209      -0.15410685       0.13323526 </v>
   <v>       0.25904243       0.01912198      -0.47728899 </v>
   <v>      -0.02671036       0.05155525      -0.33510056 </v>
   <v>      -0.04220022       0.31299064      -0.36339589 </v>
   <v>       0.08427777      -0.30100269      -0.23358856 </v>
   <v>       0.42160166      -0.23343339      -0.40845586 </v>
   <v>      -0.25904243      -0.01912198       0.47728899 </v>
  </varray>
 </structure>
 <varray name="primitive_index" >
  <v type="int" >        1 </v>
  <v type="int" >       19 </v>
  <v type="int" >       25 </v>
  <v type="int" >       22 </v>
  <v type="int" >       14 </v>
  <v type="int" >       18 </v>
  <v type="int" >       26 </v>
  <v type="int" >        7 </v>
  <v type="int" >        6 </v>
  <v type="int" >       11 </v>
  <v type="int" >        8 </v>
  <v type="int" >       12 </v>
  <v type="int" >        3 </v>
  <v type="int" >       17 </v>
  <v type="int" >        9 </v>
  <v type="int" >        4 </v>
  <v type="int" >        5 </v>
  <v type="int" >       15 </v>
  <v type="int" >       21 </v>
  <v type="int" >       13 </v>
  <v type="int" >       16 </v>
  <v type="int" >       10 </v>
  <v type="int" >       20 </v>
  <v type="int" >       23 </v>
  <v type="int" >        2 </v>
  <v type="int" >       24 </v>
 </varray>
 <kpoints>
  <generation param="Monkhorst-Pack">
   <v type="int" name="divisions">       3        2        2 </v>
   <v name="usershift">      0.00000000       0.00000000       0.00000000 </v>
   <v name="genvec1">      0.33333333       0.00000000       0.00000000 </v>
   <v name="genvec2">     -0.00000000       0.50000000       0.00000000 </v>
   <v name="genvec3">      0.00000000      -0.00000000       0.50000000 </v>
   <v name="shift">      0.00000000       0.50000000       0.50000000 </v>
  </generation>
  <varray name="kpointlist" >
   <v>      -0.00000000       0.25000000       0.25000000 </v>
   <v>       0.33333333       0.25000000       0.25000000 </v>
   <v>      -0.33333333       0.25000000       0.25000000 </v>
   <v>       0.00000000      -0.25000000       0.25000000 </v>
   <v>       0.33333333      -0.25000000       0.25000000 </v>
   <v>      -0.33333333      -0.25000000       0.25000000 </v>
  </varray>
  <varray name="weights" >
   <v>       0.16666667 </v>
   <v>       0.16666667 </v>
   <v>       0.16666667 </v>
   <v>       0.16666667 </v>
   <v>       0.16666667 </v>
   <v>       0.16666667 </v>
  </varray>
 </kpoints>
 <parameters>
  <separator name="general" >
   <i type="string" name="SYSTEM">CIS</i>
   <i type="logical" name="LCOMPAT"> F  </i>
  </separator>
  <separator name="electronic" >
   <i type="string" name="PREC">medium</i>
   <i name="ENMAX">    300.00000000</i>
   <i name="ENAUG">    380.51300000</i>
   <i name="EDIFF">      0.00010000</i>
   <i type="int" name="IALGO">    38</i>
   <i type="int" name="IWAVPR">    11</i>
   <i type="int" name="NBANDS">    84</i>
   <i name="NELECT">    128.00000000</i>
   <i type="int" name="TURBO">     0</i>
   <i type="int" name="IRESTART">     0</i>
   <i type="int" name="NREBOOT">     0</i>
   <i type="int" name="NMIN">     0</i>
   <i name="EREF">      0.00000000</i>
   <separator name="electronic smearing" >
    <i type="int" name="ISMEAR">     0</i>
    <i name="SIGMA">      0.05000000</i>
    <i name="KSPACING">      0.50000000</i>
    <i type="logical" name="KGAMMA"> T  </i>
   </separator>
   <separator name="electronic projectors" >
    <i type="logical" name="LREAL"> T  </i>
    <v name="ROPT">     -0.00200000     -0.00200000     -0.00200000</v>
    <i type="int" name="LMAXPAW">  -100</i>
    <i type="int" name="LMAXMIX">     4</i>
    <i type="logical" name="NLSPLINE"> F  </i>
   </separator>
   <separator name="electronic startup" >
    <i type="int" name="ISTART">     0</i>
    <i type="int" name="ICHARG">     2</i>
    <i type="int" name="INIWAV">     1</i>
   </separator>
   <separator name="electronic spin" >
    <i type="int" name="ISPIN">     1</i>
    <i type="logical" name="LNONCOLLINEAR"> F  </i>
    <v name="MAGMOM">      1.00000000      1.00000000      1.00000000      1.00000000      1.00000000      1.00000000      1.00000000      1.00000000      1.00000000      1.00000000      1.00000000      1.00000000      1.00000000      1.00000000      1.00000000      1.00000000      1.00000000      1.00000000      1.00000000      1.00000000
      1.00000000      1.00000000      1.00000000      1.00000000      1.00000000      1.00000000</v>
    <i name="NUPDOWN">     -1.00000000</i>
    <i type="logical" name="LSORBIT"> F  </i>
    <v name="SAXIS">      0.00000000      0.00000000      1.00000000</v>
    <i type="logical" name="LSPIRAL"> F  </i>
    <v name="QSPIRAL">      0.00000000      0.00000000      0.00000000</v>
    <i type="logical" name="LZEROZ"> F  </i>
   </separator>
   <separator name="electronic exchange-correlation" >
    <i type="logical" name="LASPH"> T  </i>
    <i type="logical" name="LMETAGGA"> F  </i>
   </separator>
   <separator name="electronic convergence" >
    <i type="int" name="NELM">    60</i>
    <i type="int" name="NELMDL">    -5</i>
    <i type="int" name="NELMIN">     2</i>
    <i name="ENINI">    300.00000000</i>
    <separator name="electronic convergence detail" >
     <i type="logical" name="LDIAG"> T  </i>
     <i type="logical" name="LSUBROT"> F  </i>
     <i name="WEIMIN">      0.00100000</i>
     <i name="EBREAK">      0.00000030</i>
     <i name="DEPER">      0.30000000</i>
     <i type="int" name="NRMM">     4</i>
     <i name="TIME">      0.40000000</i>
    </separator>
   </separator>
   <separator name="electronic mixer" >
    <i name="AMIX">      0.40000000</i>
    <i name="BMIX">      1.00000000</i>
    <i name="AMIN">      0.10000000</i>
    <i name="AMIX_MAG">      1.60000000</i>
    <i name="BMIX_MAG">      1.00000000</i>
    <separator name="electronic mixer details" >
     <i type="int" name="IMIX">     4</i>
     <i type="logical" name="MIXFIRST"> F  </i>
     <i type="int" name="MAXMIX">   -45</i>
     <i name="WC">    100.00000000</i>
     <i type="int" name="INIMIX">     1</i>
     <i type="int" name="MIXPRE">     1</i>
     <i type="int" name="MREMOVE">     5</i>
    </separator>
   </separator>
   <separator name="electronic dipolcorrection" >
    <i type="logical" name="LDIPOL"> F  </i>
    <i type="logical" name="LMONO"> F  </i>
    <i type="int" name="IDIPOL">     0</i>
    <i name="EPSILON">      1.00000000</i>
    <v name="DIPOL">   -100.00000000   -100.00000000   -100.00000000</v>
    <i name="EFIELD">      0.00000000</i>
   </separator>
  </separator>
  <separator name="grids" >
   <i type="int" name="NGX">    30</i>
   <i type="int" name="NGY">    40</i>
   <i type="int" name="NGZ">    48</i>
   <i type="int" name="NGXF">    48</i>
   <i type="int" name="NGYF">    60</i>
   <i type="int" name="NGZF">    70</i>
   <i type="logical" name="ADDGRID"> F  </i>
  </separator>
  <separator name="ionic" >
   <i type="int" name="NSW">    99</i>
   <i type="int" name="IBRION">     2</i>
   <i type="int" name="MDALGO">     0</i>
   <i type="int" name="ISIF">     3</i>
   <i name="PSTRESS">      0.00000000</i>
   <i name="EDIFFG">     -0.05000000</i>
   <i type="int" name="NFREE">     1</i>
   <i name="POTIM">      0.10000000</i>
   <i name="SMASS">     -3.00000000</i>
   <i name="SCALEE">      1.00000000</i>
  </separator>
  <separator name="ionic md" >
   <i name="TEBEG">      0.00010000</i>
   <i name="TEEND">      0.00010000</i>
   <i type="int" name="NBLOCK">     1</i>
   <i type="int" name="KBLOCK">    99</i>
   <i type="int" name="NPACO">   256</i>
   <i name="APACO">     16.00000000</i>
  </separator>
  <separator name="symmetry" >
   <i type="int" name="ISYM">     2</i>
   <i name="SYMPREC">      0.00001000</i>
  </separator>
  <separator name="dos" >
   <i type="int" name="LORBIT">    10</i>
   <v name="RWIGS">     -1.00000000     -1.00000000     -1.00000000</v>
   <i type="int" name="NEDOS">   301</i>
   <i name="EMIN">     10.00000000</i>
   <i name="EMAX">    -10.00000000</i>
   <i name="EFERMI">      0.00000000</i>
  </separator>
  <separator name="writing" >
   <i type="int" name="NWRITE">     2</i>
   <i type="logical" name="LWAVE"> F  </i>
   <i type="logical" name="LDOWNSAMPLE"> F  </i>
   <i type="logical" name="LCHARG"> F  </i>
   <i type="logical" name="LPARD"> F  </i>
   <i type="logical" name="LVTOT"> F  </i>
   <i type="logical" name="LVHAR"> F  </i>
   <i type="logical" name="LELF"> F  </i>
   <i type="logical" name="LOPTICS"> F  </i>
   <v name="STM">      0.00000000      0.00000000      0.00000000      0.00000000      0.00000000      0.00000000      0.00000000</v>
  </separator>
  <separator name="performance" >
   <i type="int" name="NPAR">    14</i>
   <i type="int" name="NSIM">     4</i>
   <i type="int" name="NBLK">    -1</i>
   <i type="logical" name="LPLANE"> T  </i>
   <i type="logical" name="LSCALAPACK"> T  </i>
   <i type="logical" name="LSCAAWARE"> F  </i>
   <i type="logical" name="LSCALU"> F  </i>
   <i type="logical" name="LASYNC"> F  </i>
   <i type="logical" name="LORBITALREAL"> F  </i>
  </separator>
  <separator name="miscellaneous" >
   <i type="int" name="IDIOT">     3</i>
   <i type="int" name="ISPECIAL">     0</i>
   <i type="logical" name="LMUSIC"> F  </i>
   <v name="POMASS">     22.99000000    121.75000000     32.06600000</v>
   <v name="DARWINR">      0.00000000      0.00000000      0.00000000</v>
   <v name="DARWINV">      1.00000000      1.00000000      1.00000000</v>
   <i type="logical" name="LCORR"> T  </i>
  </separator>
  <i type="logical" name="GGA_COMPAT"> T  </i>
  <i type="logical" name="LBERRY"> F  </i>
  <i type="int" name="ICORELEVEL">     0</i>
  <i type="logical" name="LDAU"> F  </i>
  <i type="int" name="I_CONSTRAINED_M">     0</i>
  <separator name="electronic exchange-correlation" >
   <i type="string" name="GGA">--</i>
   <i type="int" name="VOSKOWN">     0</i>
   <i type="logical" name="LHFCALC"> F  </i>
   <i type="string" name="PRECFOCK"></i>
   <i type="logical" name="LSYMGRAD"> F  </i>
   <i type="logical" name="LHFONE"> F  </i>
   <i type="logical" name="LRHFCALC"> F  </i>
   <i type="logical" name="LTHOMAS"> F  </i>
   <i type="logical" name="LMODELHF"> F  </i>
   <i name="ENCUT4O">     -1.00000000</i>
   <i type="int" name="EXXOEP">     0</i>
   <i type="int" name="FOURORBIT">     0</i>
   <i name="AEXX">      0.00000000</i>
   <i name="HFALPHA">      0.00000000</i>
   <i name="MCALPHA">      0.00000000</i>
   <i name="ALDAX">      1.00000000</i>
   <i name="AGGAX">      1.00000000</i>
   <i name="ALDAC">      1.00000000</i>
   <i name="AGGAC">      1.00000000</i>
   <i type="int" name="NKREDX">     1</i>
   <i type="int" name="NKREDY">     1</i>
   <i type="int" name="NKREDZ">     1</i>
   <i type="logical" name="SHIFTRED"> F  </i>
   <i type="logical" name="ODDONLY"> F  </i>
   <i type="logical" name="EVENONLY"> F  </i>
   <i type="int" name="LMAXFOCK">     0</i>
   <i type="int" name="NMAXFOCKAE">     0</i>
   <i type="logical" name="LFOCKAEDFT"> F  </i>
   <i name="HFSCREEN">      0.00000000</i>
   <i name="HFSCREENC">      0.00000000</i>
   <i type="int" name="NBANDSGWLOW">     0</i>
  </separator>
  <separator name="vdW DFT" >
   <i type="logical" name="LUSE_VDW"> F  </i>
   <i name="Zab_VDW">     -0.84910000</i>
   <i name="PARAM1">      0.12340000</i>
   <i name="PARAM2">      1.00000000</i>
   <i name="PARAM3">      0.00000000</i>
  </separator>
  <separator name="model GW" >
   <i type="int" name="MODEL_GW">     0</i>
   <i name="MODEL_EPS0">     16.14354857</i>
   <i name="MODEL_ALPHA">      1.00000000</i>
  </separator>
  <separator name="linear response parameters" >
   <i type="logical" name="LEPSILON"> F  </i>
   <i type="logical" name="LRPA"> F  </i>
   <i type="logical" name="LNABLA"> F  </i>
   <i type="logical" name="LVEL"> F  </i>
   <i type="int" name="KINTER">     0</i>
   <i name="CSHIFT">      0.10000000</i>
   <i name="OMEGAMAX">     -1.00000000</i>
   <i name="DEG_THRESHOLD">      0.00200000</i>
   <i name="RTIME">     -0.10000000</i>
   <i name="WPLASMAI">      0.00000000</i>
   <v name="DFIELD">      0.00000000      0.00000000      0.00000000</v>
   <v name="WPLASMA">      0.00000000      0.00000000      0.00000000      0.00000000      0.00000000      0.00000000      0.00000000      0.00000000      0.00000000</v>
  </separator>
  <separator name="orbital magnetization" >
   <i type="logical" name="NUCIND"> F  </i>
   <v name="MAGPOS">      0.00000000      0.00000000      0.00000000</v>
   <i type="logical" name="LNICSALL"> T  </i>
   <i type="logical" name="ORBITALMAG"> F  </i>
   <i type="logical" name="LMAGBLOCH"> F  </i>
   <i type="logical" name="LCHIMAG"> F  </i>
   <i type="logical" name="LGAUGE"> T  </i>
   <i type="int" name="MAGATOM">     0</i>
   <v name="MAGDIPOL">      0.00000000      0.00000000      0.00000000</v>
   <v name="AVECCONST">      0.00000000      0.00000000      0.00000000</v>
  </separator>
  <separator name="response functions" >
   <i type="logical" name="LADDER"> F  </i>
   <i type="logical" name="LRPAFORCE"> F  </i>
   <i type="logical" name="LFXC"> F  </i>
   <i type="logical" name="LHARTREE"> T  </i>
   <i type="int" name="IBSE">     0</i>
   <v type="int" name="KPOINT">    -1     0     0     0</v>
   <i type="logical" name="LTCTE"> F  </i>
   <i type="logical" name="LTETE"> F  </i>
   <i type="logical" name="LTRIPLET"> F  </i>
   <i type="logical" name="LFXCEPS"> F  </i>
   <i type="logical" name="LFXHEG"> F  </i>
   <i type="int" name="NATURALO">     2</i>
   <i type="logical" name="L2ORDER"> F  </i>
   <i type="logical" name="LMP2LT"> F  </i>
   <i type="logical" name="LUSEW"> F  </i>
   <i name="ENCUTGW">     -2.00000000</i>
   <i name="ENCUTGWSOFT">     -2.00000000</i>
   <i name="ENCUTLF">     -1.00000000</i>
   <i type="int" name="LMAXMP2">    -1</i>
   <i name="SCISSOR">      0.00000000</i>
   <i type="int" name="NOMEGA">     0</i>
   <i type="int" name="NOMEGAR">     0</i>
   <i type="int" name="NBANDSGW">    -1</i>
   <i type="int" name="NBANDSO">    -1</i>
   <i type="int" name="NBANDSV">    -1</i>
   <i type="int" name="NELM">     1</i>
   <i type="int" name="NELMHF">     1</i>
   <i type="int" name="DIM">     3</i>
   <i type="int" name="ANTIRES">     0</i>
   <i name="OMEGAMAX">    -30.00000000</i>
   <i name="OMEGAMIN">    -30.00000000</i>
   <i name="OMEGATL">   -200.00000000</i>
   <i type="int" name="OMEGAGRID">   140</i>
   <i name="CSHIFT">     -0.10000000</i>
   <i type="logical" name="SELFENERGY"> F  </i>
   <i type="logical" name="LSPECTRAL"> F  </i>
   <i type="logical" name="LSPECTRALGW"> F  </i>
   <i type="logical" name="LSINGLES"> F  </i>
   <i type="logical" name="LFERMIGW"> F  </i>
   <i type="logical" name="ODDONLYGW"> F  </i>
   <i type="logical" name="EVENONLYGW"> F  </i>
   <i type="int" name="NKREDLFX">     1</i>
   <i type="int" name="NKREDLFY">     1</i>
   <i type="int" name="NKREDLFZ">     1</i>
   <i type="int" name="MAXMEM">  2800</i>
   <i type="int" name="TELESCOPE">     0</i>
   <i type="int" name="TAUPAR">     1</i>
   <i type="int" name="OMEGAPAR">    -1</i>
   <i name="LAMBDA">      1.00000000</i>
  </separator>
  <separator name="External order field" >
   <i name="OFIELD_KAPPA">      0.00000000</i>
   <v name="OFIELD_K">      0.00000000      0.00000000      0.00000000</v>
   <i name="OFIELD_Q6_NEAR">      0.00000000</i>
   <i name="OFIELD_Q6_FAR">      0.00000000</i>
   <i name="OFIELD_A">      0.00000000</i>
  </separator>
 </parameters>
 <atominfo>
  <atoms>      26 </atoms>
  <types>       3 </types>
  <array name="atoms" >
   <dimension dim="1">ion</dimension>
   <field type="string">element</field>
   <field type="int">atomtype</field>
   <set>
    <rc><c>Na</c><c>   1</c></rc>
    <rc><c>Na</c><c>   1</c></rc>
    <rc><c>Na</c><c>   1</c></rc>
    <rc><c>Na</c><c>   1</c></rc>
    <rc><c>Sb</c><c>   2</c></rc>
    <rc><c>Sb</c><c>   2</c></rc>
    <rc><c>Sb</c><c>   2</c></rc>
    <rc><c>Sb</c><c>   2</c></rc>
    <rc><c>Sb</c><c>   2</c></rc>
    <rc><c>Sb</c><c>   2</c></rc>
    <rc><c>Sb</c><c>   2</c></rc>
    <rc><c>Sb</c><c>   2</c></rc>
    <rc><c>S </c><c>   3</c></rc>
    <rc><c>S </c><c>   3</c></rc>
    <rc><c>S </c><c>   3</c></rc>
    <rc><c>S </c><c>   3</c></rc>
    <rc><c>S </c><c>   3</c></rc>
    <rc><c>S </c><c>   3</c></rc>
    <rc><c>S </c><c>   3</c></rc>
    <rc><c>S </c><c>   3</c></rc>
    <rc><c>S </c><c>   3</c></rc>
    <rc><c>S </c><c>   3</c></rc>
    <rc><c>S </c><c>   3</c></rc>
    <rc><c>S </c><c>   3</c></rc>
    <rc><c>S </c><c>   3</c></rc>
    <rc><c>S </c><c>   3</c></rc>
   </set>
  </array>
  <array name="atomtypes" >
   <dimension dim="1">type</dimension>
   <field type="int">atomspertype</field>
   <field type="string">element</field>
   <field>mass</field>
   <field>valence</field>
   <field type="string">pseudopotential</field>
   <set>
    <rc><c>   4</c><c>Na</c><c>     22.99000000</c><c>      1.00000000</c><c>  PAW_PBE Na 08Apr2002                  </c></rc>
    <rc><c>   8</c><c>Sb</c><c>    121.75000000</c><c>      5.00000000</c><c>  PAW_PBE Sb 06Sep2000                  </c></rc>
    <rc><c>  14</c><c>S </c><c>     32.06600000</c><c>      6.00000000</c><c>  PAW_PBE S 06Sep2000                   </c></rc>
   </set>
  </array>
 </atominfo>
 <structure name="initialpos" >
  <crystal>
   <varray name="basis" >
    <v>      -7.16689876       0.08401529      -0.32485989 </v>
    <v>       1.94036900       9.03505279      -0.13869663 </v>
    <v>      -0.87119528      -1.69256157     -10.77311894 </v>
   </varray>
   <i name="volume">    699.55377129 </i>
   <varray name="rec_basis" >
    <v>      -0.13947527       0.03005438       0.00655718 </v>
    <v>       0.00207983       0.10996558      -0.01744485 </v>
    <v>       0.00417905      -0.00232201      -0.09279677 </v>
   </varray>
  </crystal>
  <varray name="positions" >
   <v>       0.31176962       0.34031863       0.12012074 </v>
   <v>       0.42160166       0.76656661       0.59154414 </v>
   <v>       0.57839834       0.23343339       0.40845586 </v>
   <v>       0.68823038       0.65968137       0.87987926 </v>
   <v>       0.02671036       0.94844475       0.33510056 </v>
   <v>       0.13778534       0.44805708       0.81476551 </v>
   <v>       0.75039513       0.13131519       0.05227710 </v>
   <v>       0.52263573       0.21094146       0.76044909 </v>
   <v>       0.24960487       0.86868481       0.94772290 </v>
   <v>       0.97328964       0.05155525       0.66489944 </v>
   <v>       0.86221466       0.55194292       0.18523449 </v>
   <v>       0.47736427       0.78905854       0.23955091 </v>
   <v>       0.80979791       0.84589315       0.13323526 </v>
   <v>       0.66790590       0.35009449       0.95365048 </v>
   <v>       0.46259249       0.45938105       0.69845121 </v>
   <v>       0.25904243       0.01912198       0.52271101 </v>
   <v>       0.04220022       0.68700936       0.36339589 </v>
   <v>       0.33209410       0.64990551       0.04634952 </v>
   <v>       0.43844752       0.08198874       0.17137842 </v>
   <v>       0.95779978       0.31299064       0.63660411 </v>
   <v>       0.56155248       0.91801126       0.82862158 </v>
   <v>       0.91572223       0.30100269       0.23358856 </v>
   <v>       0.08427777       0.69899731       0.76641144 </v>
   <v>       0.74095757       0.98087802       0.47728899 </v>
   <v>       0.53740751       0.54061895       0.30154879 </v>
   <v>       0.19020209       0.15410685       0.86676474 </v>
  </varray>
 </structure>
 <calculation>
  <scstep>
   <time name="dav">    0.80    0.82</time>
   <time name="total">    0.98    1.02</time>
   <energy>
    <i name="alphaZ">     33.59088480 </i>
    <i name="ewald">  -4152.22460328 </i>
    <i name="hartreedc">  -1065.30536717 </i>
    <i name="XCdc">   -344.70344403 </i>
    <i name="pawpsdc">   4513.71819298 </i>
    <i name="pawaedc">  -3887.37164350 </i>
    <i name="eentropy">     -0.00942455 </i>
    <i name="bandstr">    397.70259503 </i>
    <i name="atom">   5095.64428410 </i>
    <i name="e_fr_energy">    591.04147439 </i>
    <i name="e_wo_entrp">    591.05089894 </i>
    <i name="e_0_energy">    591.04618666 </i>
   </energy>
  </scstep>
  <scstep>
   <time name="dav">    0.88    0.89</time>
   <time name="total">    0.88    0.89</time>
   <energy>
    <i name="e_fr_energy">    -41.54880072 </i>
    <i name="e_wo_entrp">    -41.54880072 </i>
    <i name="e_0_energy">    -41.54880072 </i>
   </energy>
  </scstep>
  <scstep>
   <time name="dav">    0.79    0.80</time>
   <time name="total">    0.79    0.80</time>
   <energy>
    <i name="e_fr_energy">   -112.58878367 </i>
    <i name="e_wo_entrp">   -112.58878367 </i>
    <i name="e_0_energy">   -112.58878367 </i>
   </energy>
  </scstep>
  <scstep>
   <time name="dav">    0.90    0.90</time>
   <time name="total">    0.90    0.90</time>
   <energy>
    <i name="e_fr_energy">   -115.30497604 </i>
    <i name="e_wo_entrp">   -115.30497604 </i>
    <i name="e_0_energy">   -115.30497604 </i>
   </energy>
  </scstep>
  <scstep>
   <time name="dav">    0.91    0.92</time>
   <time name="total">    0.94    0.94</time>
   <energy>
    <i name="e_fr_energy">   -115.40888074 </i>
    <i name="e_wo_entrp">   -115.40888074 </i>
    <i name="e_0_energy">   -115.40888074 </i>
   </energy>
  </scstep>
  <scstep>
   <time name="dav">    0.94    0.95</time>
   <time name="total">    1.15    1.16</time>
   <energy>
    <i name="e_fr_energy">   -109.24032049 </i>
    <i name="e_wo_entrp">   -109.24032049 </i>
    <i name="e_0_energy">   -109.24032049 </i>
   </energy>
  </scstep>
  <scstep>
   <time name="dav">    1.02    1.03</time>
   <time name="total">    1.22    1.23</time>
   <energy>
    <i name="e_fr_energy">   -109.29705652 </i>
    <i name="e_wo_entrp">   -109.29705652 </i>
    <i name="e_0_energy">   -109.29705652 </i>
   </energy>
  </scstep>
  <scstep>
   <time name="dav">    0.98    0.99</time>
   <time name="total">    1.18    1.19</time>
   <energy>
    <i name="e_fr_energy">   -109.27984080 </i>
    <i name="e_wo_entrp">   -109.27984080 </i>
    <i name="e_0_energy">   -109.27984080 </i>
   </energy>
  </scstep>
  <scstep>
   <time name="dav">    0.81    0.82</time>
   <time name="total">    1.01    1.01</time>
   <energy>
    <i name="e_fr_energy">   -109.28846913 </i>
    <i name="e_wo_entrp">   -109.28846913 </i>
    <i name="e_0_energy">   -109.28846913 </i>
   </energy>
  </scstep>
  <scstep>
   <time name="dav">    1.03    1.04</time>
   <time name="total">    1.23    1.24</time>
   <energy>
    <i name="e_fr_energy">   -109.28936119 </i>
    <i name="e_wo_entrp">   -109.28936119 </i>
    <i name="e_0_energy">   -109.28936119 </i>
   </energy>
  </scstep>
  <scstep>
   <time name="dav">    0.96    0.97</time>
   <time name="total">    1.17    1.17</time>
   <energy>
    <i name="e_fr_energy">   -109.29073060 </i>
    <i name="e_wo_entrp">   -109.29073060 </i>
    <i name="e_0_energy">   -109.29073060 </i>
   </energy>
  </scstep>
  <scstep>
   <time name="dav">    0.80    0.80</time>
   <time name="total">    1.00    1.01</time>
   <energy>
    <i name="e_fr_energy">   -109.29098820 </i>
    <i name="e_wo_entrp">   -109.29098820 </i>
    <i name="e_0_energy">   -109.29098820 </i>
   </energy>
  </scstep>
  <scstep>
   <time name="dav">    0.86    0.87</time>
   <time name="total">    1.06    1.07</time>
   <energy>
    <i name="e_fr_energy">   -109.29119558 </i>
    <i name="e_wo_entrp">   -109.29119558 </i>
    <i name="e_0_energy">   -109.29119558 </i>
   </energy>
  </scstep>
  <scstep>
   <time name="dav">    0.71    0.71</time>
   <time name="total">    0.88    0.89</time>
   <energy>
    <i name="alphaZ">     33.59088480 </i>
    <i name="ewald">  -4152.22460328 </i>
    <i name="hartreedc">  -1135.97754136 </i>
    <i name="XCdc">   -337.28989674 </i>
    <i name="pawpsdc">  10033.50824165 </i>
    <i name="pawaedc">  -9409.41327018 </i>
    <i name="eentropy">     -0.00000000 </i>
    <i name="bandstr">   -237.12930022 </i>
    <i name="atom">   5095.64428410 </i>
    <i name="e_fr_energy">   -109.29120123 </i>
    <i name="e_wo_entrp">   -109.29120123 </i>
    <i name="e_0_energy">   -109.29120123 </i>
   </energy>
  </scstep>
  <structure>
   <crystal>
    <varray name="basis" >
     <v>      -7.16689876       0.08401529      -0.32485989 </v>
     <v>       1.94036900       9.03505279      -0.13869663 </v>
     <v>      -0.87119528      -1.69256157     -10.77311894 </v>
    </varray>
    <i name="volume">    699.55377129 </i>
    <varray name="rec_basis" >
     <v>      -0.13947527       0.03005438       0.00655718 </v>
     <v>       0.00207983       0.10996558      -0.01744485 </v>
     <v>       0.00417905      -0.00232201      -0.09279677 </v>
    </varray>
   </crystal>
   <varray name="positions" >
    <v>       0.31176962       0.34031863       0.12012074 </v>
    <v>       0.42160166       0.76656661       0.59154414 </v>
    <v>       0.57839834       0.23343339       0.40845586 </v>
    <v>       0.68823038       0.65968137       0.87987926 </v>
    <v>       0.02671036       0.94844475       0.33510056 </v>
    <v>       0.13778534       0.44805708       0.81476551 </v>
    <v>       0.75039513       0.13131519       0.05227710 </v>
    <v>       0.52263573       0.21094146       0.76044909 </v>
    <v>       0.24960487       0.86868481       0.94772290 </v>
    <v>       0.97328964       0.05155525       0.66489944 </v>
    <v>       0.86221466       0.55194292       0.18523449 </v>
    <v>       0.47736427       0.78905854       0.23955091 </v>
    <v>       0.80979791       0.84589315       0.13323526 </v>
    <v>       0.66790590       0.35009449       0.95365048 </v>
    <v>       0.46259249       0.45938105       0.69845121 </v>
    <v>       0.25904243       0.01912198       0.52271101 </v>
    <v>       0.04220022       0.68700936       0.36339589 </v>
    <v>       0.33209410       0.64990551       0.04634952 </v>
    <v>       0.43844752       0.08198874       0.17137842 </v>
    <v>       0.95779978       0.31299064       0.63660411 </v>
    <v>       0.56155248       0.91801126       0.82862158 </v>
    <v>       0.91572223       0.30100269       0.23358856 </v>
    <v>       0.08427777       0.69899731       0.76641144 </v>
    <v>       0.74095757       0.98087802       0.47728899 </v>
    <v>       0.53740751       0.54061895       0.30154879 </v>
    <v>       0.19020209       0.15410685       0.86676474 </v>
   </varray>
  </structure>
  <varray name="forces" >
   <v>      -0.00372954       0.00229686       0.00750517 </v>
   <v>       0.01092875      -0.00661891      -0.01222153 </v>
   <v>      -0.01092875       0.00661891       0.01222153 </v>
   <v>       0.00372954      -0.00229686      -0.00750517 </v>
   <v>      -0.03628709      -0.01589482      -0.01557572 </v>
   <v>      -0.01400620      -0.01231063       0.00538877 </v>
   <v>      -0.01341622       0.01317494       0.01251776 </v>
   <v>      -0.03673260       0.03602821       0.03027298 </v>
   <v>       0.01341622      -0.01317494      -0.01251776 </v>
   <v>       0.03628709       0.01589482       0.01557572 </v>
   <v>       0.01400620       0.01231063      -0.00538877 </v>
   <v>       0.03673260      -0.03602821      -0.03027298 </v>
   <v>      -0.00296771      -0.00241831       0.00576727 </v>
   <v>       0.00929016       0.01404750      -0.00119230 </v>
   <v>       0.00203860       0.02090968       0.01922684 </v>
   <v>       0.00433278       0.02239378      -0.00539941 </v>
   <v>      -0.01016421       0.00228290       0.00137895 </v>
   <v>      -0.00929016      -0.01404750       0.00119230 </v>
   <v>       0.01316600      -0.02272526      -0.01382345 </v>
   <v>       0.01016421      -0.00228290      -0.00137895 </v>
   <v>      -0.01316600       0.02272526       0.01382345 </v>
   <v>      -0.01981273      -0.00848764       0.00621455 </v>
   <v>       0.01981273       0.00848764      -0.00621455 </v>
   <v>      -0.00433278      -0.02239378       0.00539941 </v>
   <v>      -0.00203860      -0.02090968      -0.01922684 </v>
   <v>       0.00296771       0.00241831      -0.00576727 </v>
  </varray>
  <varray name="stress" >
   <v>       1.00759850      -0.08669250       0.10609902 </v>
   <v>      -0.08669193       0.42714572      -0.15146302 </v>
   <v>       0.10609860      -0.15146149       0.85594124 </v>
  </varray>
  <energy>
   <i name="e_fr_energy">   -109.29120123 </i>
   <i name="e_wo_entrp">   -109.29120123 </i>
   <i name="e_0_energy">     -0.00000000 </i>
  </energy>
  <time name="totalsc">   15.50   15.74</time>
 </calculation>
 <calculation>
  <scstep>
   <time name="dav">    0.74    0.76</time>
   <time name="total">    0.95    1.01</time>
   <energy>
    <i name="alphaZ">     33.57842033 </i>
    <i name="ewald">  -4151.87897312 </i>
    <i name="hartreedc">  -1135.73535122 </i>
    <i name="XCdc">   -337.31620463 </i>
    <i name="pawpsdc">  10031.12920939 </i>
    <i name="pawaedc">  -9407.03314478 </i>
    <i name="eentropy">     -0.00000000 </i>
    <i name="bandstr">   -237.67975882 </i>
    <i name="atom">   5095.64428410 </i>
    <i name="e_fr_energy">   -109.29151875 </i>
    <i name="e_wo_entrp">   -109.29151875 </i>
    <i name="e_0_energy">   -109.29151875 </i>
   </energy>
  </scstep>
  <scstep>
   <time name="dav">    0.69    0.72</time>
   <time name="total">    0.86    0.89</time>
   <energy>
    <i name="alphaZ">     33.57842033 </i>
    <i name="ewald">  -4151.87897312 </i>
    <i name="hartreedc">  -1135.92775545 </i>
    <i name="XCdc">   -337.30755555 </i>
    <i name="pawpsdc">  10025.97972324 </i>
    <i name="pawaedc">  -9401.88528916 </i>
    <i name="eentropy">     -0.00000000 </i>
    <i name="bandstr">   -237.49433376 </i>
    <i name="atom">   5095.64428410 </i>
    <i name="e_fr_energy">   -109.29147936 </i>
    <i name="e_wo_entrp">   -109.29147936 </i>
    <i name="e_0_energy">   -109.29147936 </i>
   </energy>
  </scstep>
  <structure>
   <crystal>
    <varray name="basis" >
     <v>      -7.16807561       0.08412975      -0.32503022 </v>
     <v>       1.94055649       9.03565426      -0.13890425 </v>
     <v>      -0.87149894      -1.69240208     -10.77458649 </v>
    </varray>
    <i name="volume">    699.81344895 </i>
    <varray name="rec_basis" >
     <v>      -0.13945219       0.03005051       0.00655941 </v>
     <v>       0.00208133       0.10995757      -0.01743977 </v>
     <v>       0.00417993      -0.00232407      -0.09278403 </v>
    </varray>
   </crystal>
   <varray name="positions" >
    <v>       0.31177578       0.34031973       0.12011382 </v>
    <v>       0.42158426       0.76656186       0.59155568 </v>
    <v>       0.57841574       0.23343814       0.40844432 </v>
    <v>       0.68822422       0.65968027       0.87988618 </v>
    <v>       0.02675359       0.94842978       0.33511340 </v>
    <v>       0.13780096       0.44804283       0.81476040 </v>
    <v>       0.75041779       0.13132679       0.05226505 </v>
    <v>       0.52269752       0.21097385       0.76041970 </v>
    <v>       0.24958221       0.86867321       0.94773495 </v>
    <v>       0.97324641       0.05157022       0.66488660 </v>
    <v>       0.86219904       0.55195717       0.18523960 </v>
    <v>       0.47730248       0.78902615       0.23958030 </v>
    <v>       0.80980156       0.84588956       0.13323003 </v>
    <v>       0.66789740       0.35010978       0.95365161 </v>
    <v>       0.46259703       0.45940004       0.69843361 </v>
    <v>       0.25904275       0.01914673       0.52271552 </v>
    <v>       0.04221465       0.68701134       0.36339420 </v>
    <v>       0.33210260       0.64989022       0.04634839 </v>
    <v>       0.43842234       0.08196722       0.17139184 </v>
    <v>       0.95778535       0.31298866       0.63660580 </v>
    <v>       0.56157766       0.91803278       0.82860816 </v>
    <v>       0.91574683       0.30099224       0.23358239 </v>
    <v>       0.08425317       0.69900776       0.76641761 </v>
    <v>       0.74095725       0.98085327       0.47728448 </v>
    <v>       0.53740297       0.54059996       0.30156639 </v>
    <v>       0.19019844       0.15411044       0.86676997 </v>
   </varray>
  </structure>
  <varray name="forces" >
   <v>      -0.00388880       0.00207600       0.00765902 </v>
   <v>       0.01125927      -0.00672047      -0.01308039 </v>
   <v>      -0.01125927       0.00672047       0.01308039 </v>
   <v>       0.00388880      -0.00207600      -0.00765902 </v>
   <v>      -0.04196494      -0.01969400      -0.02123216 </v>
   <v>       0.01162653      -0.01862488      -0.01742853 </v>
   <v>       0.04423770       0.02324487       0.02459221 </v>
   <v>      -0.02988705       0.07299784       0.00784120 </v>
   <v>      -0.04423770      -0.02324487      -0.02459221 </v>
   <v>       0.04196494       0.01969400       0.02123216 </v>
   <v>      -0.01162653       0.01862488       0.01742853 </v>
   <v>       0.02988705      -0.07299784      -0.00784120 </v>
   <v>       0.00184849      -0.00321376       0.00004392 </v>
   <v>       0.00742880       0.00924039       0.00058258 </v>
   <v>       0.00387318       0.01677429       0.01638564 </v>
   <v>       0.00796983       0.01820780      -0.00530903 </v>
   <v>      -0.00713097       0.00011680       0.00236624 </v>
   <v>      -0.00742880      -0.00924039      -0.00058258 </v>
   <v>       0.00867048      -0.02567423      -0.01067705 </v>
   <v>       0.00713097      -0.00011680      -0.00236624 </v>
   <v>      -0.00867048       0.02567423       0.01067705 </v>
   <v>      -0.01409790      -0.00593133       0.00694575 </v>
   <v>       0.01409790       0.00593133      -0.00694575 </v>
   <v>      -0.00796983      -0.01820780       0.00530903 </v>
   <v>      -0.00387318      -0.01677429      -0.01638564 </v>
   <v>      -0.00184849       0.00321376      -0.00004392 </v>
  </varray>
  <varray name="stress" >
   <v>       0.80110864      -0.04762451       0.13525369 </v>
   <v>      -0.04762330       0.33598664       0.07142253 </v>
   <v>       0.13525251       0.07142379       0.50941875 </v>
  </varray>
  <energy>
   <i name="e_fr_energy">   -109.29147936 </i>
   <i name="e_wo_entrp">   -109.29147936 </i>
   <i name="e_0_energy">     -0.00000000 </i>
  </energy>
  <time name="totalsc">    2.98    3.24</time>
 </calculation>
 <calculation>
  <scstep>
   <time name="dav">    0.89    0.91</time>
   <time name="total">    1.10    1.15</time>
   <energy>
    <i name="alphaZ">     33.54106531 </i>
    <i name="ewald">  -4150.84179376 </i>
    <i name="hartreedc">  -1135.17857576 </i>
    <i name="XCdc">   -337.39026909 </i>
    <i name="pawpsdc">  10023.05958066 </i>
    <i name="pawaedc">  -9398.96416299 </i>
    <i name="eentropy">     -0.00000000 </i>
    <i name="bandstr">   -239.16227310 </i>
    <i name="atom">   5095.64428410 </i>
    <i name="e_fr_energy">   -109.29214463 </i>
    <i name="e_wo_entrp">   -109.29214463 </i>
    <i name="e_0_energy">   -109.29214463 </i>
   </energy>
  </scstep>
  <scstep>
   <time name="dav">    0.98    0.99</time>
   <time name="total">    1.18    1.20</time>
   <energy>
    <i name="e_fr_energy">   -109.29179742 </i>
    <i name="e_wo_entrp">   -109.29179742 </i>
    <i name="e_0_energy">   -109.29179742 </i>
   </energy>
  </scstep>
  <scstep>
   <time name="dav">    0.53    0.54</time>
   <time name="total">    0.71    0.72</time>
   <energy>
    <i name="alphaZ">     33.54106531 </i>
    <i name="ewald">  -4150.84179376 </i>
    <i name="hartreedc">  -1135.99552983 </i>
    <i name="XCdc">   -337.36110937 </i>
    <i name="pawpsdc">  10003.50601840 </i>
    <i name="pawaedc">  -9379.40884828 </i>
    <i name="eentropy">     -0.00000000 </i>
    <i name="bandstr">   -238.37579807 </i>
    <i name="atom">   5095.64428410 </i>
    <i name="e_fr_energy">   -109.29171150 </i>
    <i name="e_wo_entrp">   -109.29171150 </i>
    <i name="e_0_energy">   -109.29171150 </i>
   </energy>
  </scstep>
  <structure>
   <crystal>
    <varray name="basis" >
     <v>      -7.17160616       0.08447313      -0.32554119 </v>
     <v>       1.94111896       9.03745868      -0.13952709 </v>
     <v>      -0.87240993      -1.69192364     -10.77898915 </v>
    </varray>
    <i name="volume">    700.59283830 </i>
    <varray name="rec_basis" >
     <v>      -0.13938301       0.03003888       0.00656607 </v>
     <v>       0.00208584       0.10993355      -0.01742454 </v>
     <v>       0.00418257      -0.00233024      -0.09274583 </v>
    </varray>
   </crystal>
   <varray name="positions" >
    <v>       0.31179426       0.34032302       0.12009306 </v>
    <v>       0.42153206       0.76654763       0.59159027 </v>
    <v>       0.57846794       0.23345237       0.40840973 </v>
    <v>       0.68820574       0.65967698       0.87990694 </v>
    <v>       0.02688328       0.94838487       0.33515191 </v>
    <v>       0.13784781       0.44800009       0.81474506 </v>
    <v>       0.75048578       0.13136160       0.05222892 </v>
    <v>       0.52288288       0.21107103       0.76033153 </v>
    <v>       0.24951422       0.86863840       0.94777108 </v>
    <v>       0.97311672       0.05161513       0.66484809 </v>
    <v>       0.86215219       0.55199991       0.18525494 </v>
    <v>       0.47711712       0.78892897       0.23966847 </v>
    <v>       0.80981253       0.84587877       0.13321435 </v>
    <v>       0.66787189       0.35015565       0.95365499 </v>
    <v>       0.46261064       0.45945700       0.69838081 </v>
    <v>       0.25904371       0.01922099       0.52272904 </v>
    <v>       0.04225793       0.68701730       0.36338911 </v>
    <v>       0.33212811       0.64984435       0.04634501 </v>
    <v>       0.43834681       0.08190267       0.17143209 </v>
    <v>       0.95774207       0.31298270       0.63661089 </v>
    <v>       0.56165319       0.91809733       0.82856791 </v>
    <v>       0.91582060       0.30096090       0.23356387 </v>
    <v>       0.08417940       0.69903910       0.76643613 </v>
    <v>       0.74095629       0.98077901       0.47727096 </v>
    <v>       0.53738936       0.54054300       0.30161919 </v>
    <v>       0.19018747       0.15412123       0.86678565 </v>
   </varray>
  </structure>
  <varray name="forces" >
   <v>      -0.00459028       0.00094622       0.00667763 </v>
   <v>       0.01157823      -0.00548584      -0.01523970 </v>
   <v>      -0.01157823       0.00548584       0.01523970 </v>
   <v>       0.00459028      -0.00094622      -0.00667763 </v>
   <v>       0.00854167      -0.05077885      -0.03966789 </v>
   <v>      -0.00019428      -0.02360792      -0.00573184 </v>
   <v>       0.04588354      -0.01294192      -0.01159419 </v>
   <v>       0.03722401       0.05781089       0.01834322 </v>
   <v>      -0.04588354       0.01294192       0.01159419 </v>
   <v>      -0.00854167       0.05077885       0.03966789 </v>
   <v>       0.00019428       0.02360792       0.00573184 </v>
   <v>      -0.03722401      -0.05781089      -0.01834322 </v>
   <v>       0.01279369      -0.00648867      -0.01170598 </v>
   <v>       0.00635086       0.00216829       0.00589611 </v>
   <v>       0.01011074       0.01021161       0.00886570 </v>
   <v>       0.02062272       0.01538596      -0.00594386 </v>
   <v>      -0.00321448      -0.00103357       0.01029530 </v>
   <v>      -0.00635086      -0.00216829      -0.00589611 </v>
   <v>       0.00061731      -0.02254337       0.00105120 </v>
   <v>       0.00321448       0.00103357      -0.01029530 </v>
   <v>      -0.00061731       0.02254337      -0.00105120 </v>
   <v>      -0.00513155      -0.00296099       0.01615427 </v>
   <v>       0.00513155       0.00296099      -0.01615427 </v>
   <v>      -0.02062272      -0.01538596       0.00594386 </v>
   <v>      -0.01011074      -0.01021161      -0.00886570 </v>
   <v>      -0.01279369       0.00648867       0.01170598 </v>
  </varray>
  <varray name="stress" >
   <v>      -0.35855354       0.25348740      -0.05470331 </v>
   <v>       0.25348849      -0.07730147       0.37690612 </v>
   <v>      -0.05470411       0.37690709      -0.12262546 </v>
  </varray>
  <energy>
   <i name="e_fr_energy">   -109.29171150 </i>
   <i name="e_wo_entrp">   -109.29171150 </i>
   <i name="e_0_energy">     -0.00000000 </i>
  </energy>
  <time name="totalsc">    4.11    4.32</time>
 </calculation>
 <calculation>
  <scstep>
   <time name="dav">    0.93    0.97</time>
   <time name="total">    1.14    1.20</time>
   <energy>
    <i name="alphaZ">     33.53428151 </i>
    <i name="ewald">  -4150.53278672 </i>
    <i name="hartreedc">  -1136.03821577 </i>
    <i name="XCdc">   -337.37472100 </i>
    <i name="pawpsdc">  10002.20585851 </i>
    <i name="pawaedc">  -9378.10244431 </i>
    <i name="eentropy">     -0.00000000 </i>
    <i name="bandstr">   -238.62812088 </i>
    <i name="atom">   5095.64428410 </i>
    <i name="e_fr_energy">   -109.29186457 </i>
    <i name="e_wo_entrp">   -109.29186457 </i>
    <i name="e_0_energy">   -109.29186457 </i>
   </energy>
  </scstep>
  <scstep>
   <time name="dav">    0.69    0.72</time>
   <time name="total">    0.86    0.89</time>
   <energy>
    <i name="alphaZ">     33.53428151 </i>
    <i name="ewald">  -4150.53278672 </i>
    <i name="hartreedc">  -1136.15163439 </i>
    <i name="XCdc">   -337.37128391 </i>
    <i name="pawpsdc">  10002.70902854 </i>
    <i name="pawaedc">  -9378.60439167 </i>
    <i name="eentropy">     -0.00000000 </i>
    <i name="bandstr">   -238.51934775 </i>
    <i name="atom">   5095.64428410 </i>
    <i name="e_fr_energy">   -109.29185028 </i>
    <i name="e_wo_entrp">   -109.29185028 </i>
    <i name="e_0_energy">   -109.29185028 </i>
   </energy>
  </scstep>
  <structure>
   <crystal>
    <varray name="basis" >
     <v>      -7.17213825       0.08430339      -0.32560697 </v>
     <v>       1.94146776       9.03787110      -0.13924726 </v>
     <v>      -0.87257347      -1.69234849     -10.77998274 </v>
    </varray>
    <i name="volume">    700.73456429 </i>
    <varray name="rec_basis" >
     <v>      -0.13937339       0.03004061       0.00656535 </v>
     <v>       0.00208328       0.10992951      -0.01742645 </v>
     <v>       0.00418283      -0.00232735      -0.09273773 </v>
    </varray>
   </crystal>
   <varray name="positions" >
    <v>       0.31180436       0.34032367       0.12008294 </v>
    <v>       0.42150455       0.76654167       0.59161029 </v>
    <v>       0.57849545       0.23345833       0.40838971 </v>
    <v>       0.68819564       0.65967633       0.87991706 </v>
    <v>       0.02689219       0.94833585       0.33519124 </v>
    <v>       0.13785379       0.44797010       0.81474583 </v>
    <v>       0.75044923       0.13136145       0.05223008 </v>
    <v>       0.52290278       0.21114261       0.76029666 </v>
    <v>       0.24955077       0.86863855       0.94776992 </v>
    <v>       0.97310781       0.05166415       0.66480876 </v>
    <v>       0.86214621       0.55202990       0.18525417 </v>
    <v>       0.47709722       0.78885739       0.23970334 </v>
    <v>       0.80979926       0.84587235       0.13321945 </v>
    <v>       0.66785951       0.35016815       0.95365174 </v>
    <v>       0.46260588       0.45947878       0.69836150 </v>
    <v>       0.25902488       0.01925365       0.52273706 </v>
    <v>       0.04227239       0.68701644       0.36338034 </v>
    <v>       0.33214049       0.64983185       0.04634826 </v>
    <v>       0.43832225       0.08186729       0.17144171 </v>
    <v>       0.95772761       0.31298356       0.63661966 </v>
    <v>       0.56167775       0.91813271       0.82855829 </v>
    <v>       0.91584453       0.30094834       0.23354752 </v>
    <v>       0.08415547       0.69905166       0.76645248 </v>
    <v>       0.74097512       0.98074635       0.47726294 </v>
    <v>       0.53739412       0.54052122       0.30163850 </v>
    <v>       0.19020074       0.15412765       0.86678055 </v>
   </varray>
  </structure>
  <varray name="forces" >
   <v>      -0.00483298       0.00011412       0.00648306 </v>
   <v>       0.01195815      -0.00480019      -0.01627984 </v>
   <v>      -0.01195815       0.00480019       0.01627984 </v>
   <v>       0.00483298      -0.00011412      -0.00648306 </v>
   <v>      -0.01847729       0.00056603      -0.02438748 </v>
   <v>      -0.00180322       0.01261192       0.00688292 </v>
   <v>       0.01522983      -0.01070176      -0.03404845 </v>
   <v>       0.05364476       0.04371826       0.00013062 </v>
   <v>      -0.01522983       0.01070176       0.03404845 </v>
   <v>       0.01847729      -0.00056603       0.02438748 </v>
   <v>       0.00180322      -0.01261192      -0.00688292 </v>
   <v>      -0.05364476      -0.04371826      -0.00013062 </v>
   <v>       0.01303968      -0.00608558      -0.01197273 </v>
   <v>       0.00435072      -0.00133241       0.01295749 </v>
   <v>       0.00887637       0.01297026       0.01217297 </v>
   <v>       0.01435702       0.01152527      -0.00337016 </v>
   <v>      -0.00251221      -0.00597087       0.00772495 </v>
   <v>      -0.00435072       0.00133241      -0.01295749 </v>
   <v>      -0.00226326      -0.01464671       0.00252929 </v>
   <v>       0.00251221       0.00597087      -0.00772495 </v>
   <v>       0.00226326       0.01464671      -0.00252929 </v>
   <v>      -0.00017694       0.00086572       0.01398685 </v>
   <v>       0.00017694      -0.00086572      -0.01398685 </v>
   <v>      -0.01435702      -0.01152527       0.00337016 </v>
   <v>      -0.00887637      -0.01297026      -0.01217297 </v>
   <v>      -0.01303968       0.00608558       0.01197273 </v>
  </varray>
  <varray name="stress" >
   <v>      -0.90228857       0.47205684      -0.19214917 </v>
   <v>       0.47205797      -0.31437348       0.30607534 </v>
   <v>      -0.19214974       0.30607579      -0.51837067 </v>
  </varray>
  <energy>
   <i name="e_fr_energy">   -109.29185028 </i>
   <i name="e_wo_entrp">   -109.29185028 </i>
   <i name="e_0_energy">     -0.00000000 </i>
  </energy>
  <time name="totalsc">    3.16    3.37</time>
 </calculation>
 <calculation>
  <scstep>
   <time name="dav">    0.62    0.63</time>
   <time name="total">    0.83    0.86</time>
   <energy>
    <i name="alphaZ">     33.52968890 </i>
    <i name="ewald">  -4150.32349768 </i>
    <i name="hartreedc">  -1136.17944964 </i>
    <i name="XCdc">   -337.37804840 </i>
    <i name="pawpsdc">  10003.24297105 </i>
    <i name="pawaedc">  -9379.13644884 </i>
    <i name="eentropy">     -0.00000000 </i>
    <i name="bandstr">   -238.69135949 </i>
    <i name="atom">   5095.64428410 </i>
    <i name="e_fr_energy">   -109.29186000 </i>
    <i name="e_wo_entrp">   -109.29186000 </i>
    <i name="e_0_energy">   -109.29186000 </i>
   </energy>
  </scstep>
  <scstep>
   <time name="dav">    0.69    0.70</time>
   <time name="total">    0.87    0.88</time>
   <energy>
    <i name="alphaZ">     33.52968890 </i>
    <i name="ewald">  -4150.32349768 </i>
    <i name="hartreedc">  -1136.26233087 </i>
    <i name="XCdc">   -337.37545635 </i>
    <i name="pawpsdc">  10003.73759638 </i>
    <i name="pawaedc">  -9379.63051701 </i>
    <i name="eentropy">     -0.00000000 </i>
    <i name="bandstr">   -238.61162104 </i>
    <i name="atom">   5095.64428410 </i>
    <i name="e_fr_energy">   -109.29185356 </i>
    <i name="e_wo_entrp">   -109.29185356 </i>
    <i name="e_0_energy">   -109.29185356 </i>
   </energy>
  </scstep>
  <structure>
   <crystal>
    <varray name="basis" >
     <v>      -7.17249857       0.08418845      -0.32565152 </v>
     <v>       1.94170395       9.03815038      -0.13905776 </v>
     <v>      -0.87268422      -1.69263618     -10.78065556 </v>
    </varray>
    <i name="volume">    700.83054496 </i>
    <varray name="rec_basis" >
     <v>      -0.13936687       0.03004178       0.00656486 </v>
     <v>       0.00208155       0.10992678      -0.01742775 </v>
     <v>       0.00418301      -0.00232540      -0.09273224 </v>
    </varray>
   </crystal>
   <varray name="positions" >
    <v>       0.31181121       0.34032410       0.12007609 </v>
    <v>       0.42148592       0.76653763       0.59162385 </v>
    <v>       0.57851408       0.23346237       0.40837615 </v>
    <v>       0.68818879       0.65967590       0.87992391 </v>
    <v>       0.02689821       0.94830266       0.33521788 </v>
    <v>       0.13785784       0.44794980       0.81474634 </v>
    <v>       0.75042447       0.13136135       0.05223087 </v>
    <v>       0.52291626       0.21119108       0.76027305 </v>
    <v>       0.24957553       0.86863865       0.94776913 </v>
    <v>       0.97310179       0.05169734       0.66478212 </v>
    <v>       0.86214216       0.55205020       0.18525366 </v>
    <v>       0.47708374       0.78880892       0.23972695 </v>
    <v>       0.80979027       0.84586800       0.13322291 </v>
    <v>       0.66785113       0.35017662       0.95364954 </v>
    <v>       0.46260266       0.45949353       0.69834843 </v>
    <v>       0.25901213       0.01927576       0.52274249 </v>
    <v>       0.04228219       0.68701586       0.36337440 </v>
    <v>       0.33214887       0.64982338       0.04635046 </v>
    <v>       0.43830562       0.08184334       0.17144822 </v>
    <v>       0.95771781       0.31298414       0.63662560 </v>
    <v>       0.56169438       0.91815666       0.82855178 </v>
    <v>       0.91586073       0.30093984       0.23353646 </v>
    <v>       0.08413927       0.69906016       0.76646354 </v>
    <v>       0.74098787       0.98072424       0.47725751 </v>
    <v>       0.53739734       0.54050647       0.30165157 </v>
    <v>       0.19020973       0.15413200       0.86677709 </v>
   </varray>
  </structure>
  <varray name="forces" >
   <v>      -0.00444016      -0.00006756       0.00562087 </v>
   <v>       0.01200497      -0.00472225      -0.01665980 </v>
   <v>      -0.01200497       0.00472225       0.01665980 </v>
   <v>       0.00444016       0.00006756      -0.00562087 </v>
   <v>      -0.04517981       0.01270034       0.02978051 </v>
   <v>       0.00644521       0.10928619       0.04204783 </v>
   <v>       0.02484873       0.03016991      -0.00200705 </v>
   <v>       0.02027144       0.01804661      -0.01090461 </v>
   <v>      -0.02484873      -0.03016991       0.00200705 </v>
   <v>       0.04517981      -0.01270034      -0.02978051 </v>
   <v>      -0.00644521      -0.10928619      -0.04204783 </v>
   <v>      -0.02027144      -0.01804661       0.01090461 </v>
   <v>       0.01407908      -0.00744156      -0.01351049 </v>
   <v>       0.00441530      -0.00091062       0.01356693 </v>
   <v>       0.00938308       0.01314602       0.01220386 </v>
   <v>       0.01723048       0.01890048      -0.00582063 </v>
   <v>      -0.00277828      -0.00791158       0.00768081 </v>
   <v>      -0.00441530       0.00091062      -0.01356693 </v>
   <v>      -0.00291981      -0.01472504       0.00270942 </v>
   <v>       0.00277828       0.00791158      -0.00768081 </v>
   <v>       0.00291981       0.01472504      -0.00270942 </v>
   <v>       0.00053021       0.00230747       0.01519018 </v>
   <v>      -0.00053021      -0.00230747      -0.01519018 </v>
   <v>      -0.01723048      -0.01890048       0.00582063 </v>
   <v>      -0.00938308      -0.01314602      -0.01220386 </v>
   <v>      -0.01407908       0.00744156       0.01351049 </v>
  </varray>
  <varray name="stress" >
   <v>      -0.86553600       0.51139684      -0.24418459 </v>
   <v>       0.51139721      -0.71370087       0.02060360 </v>
   <v>      -0.24418455       0.02060521      -0.54605676 </v>
  </varray>
  <energy>
   <i name="e_fr_energy">   -109.29185356 </i>
   <i name="e_wo_entrp">   -109.29185356 </i>
   <i name="e_0_energy">     -0.00000000 </i>
  </energy>
  <time name="totalsc">    2.87    3.07</time>
 </calculation>
 <calculation>
  <scstep>
   <time name="dav">    0.82    0.84</time>
   <time name="total">    1.03    1.08</time>
   <energy>
    <i name="alphaZ">     33.52915134 </i>
    <i name="ewald">  -4150.26378990 </i>
    <i name="hartreedc">  -1136.32014458 </i>
    <i name="XCdc">   -337.37374944 </i>
    <i name="pawpsdc">  10003.95952790 </i>
    <i name="pawaedc">  -9379.85142566 </i>
    <i name="eentropy">     -0.00000000 </i>
    <i name="bandstr">   -238.61579963 </i>
    <i name="atom">   5095.64428410 </i>
    <i name="e_fr_energy">   -109.29194587 </i>
    <i name="e_wo_entrp">   -109.29194587 </i>
    <i name="e_0_energy">   -109.29194587 </i>
   </energy>
  </scstep>
  <scstep>
   <time name="dav">    0.69    0.71</time>
   <time name="total">    0.86    0.88</time>
   <energy>
    <i name="alphaZ">     33.52915134 </i>
    <i name="ewald">  -4150.26378990 </i>
    <i name="hartreedc">  -1136.34236913 </i>
    <i name="XCdc">   -337.37388426 </i>
    <i name="pawpsdc">  10004.94655745 </i>
    <i name="pawaedc">  -9380.83772073 </i>
    <i name="eentropy">     -0.00000000 </i>
    <i name="bandstr">   -238.59417592 </i>
    <i name="atom">   5095.64428410 </i>
    <i name="e_fr_energy">   -109.29194706 </i>
    <i name="e_wo_entrp">   -109.29194706 </i>
    <i name="e_0_energy">   -109.29194706 </i>
   </energy>
  </scstep>
  <structure>
   <crystal>
    <varray name="basis" >
     <v>      -7.17250667       0.08392061      -0.32559959 </v>
     <v>       1.94203772       9.03813115      -0.13890979 </v>
     <v>      -0.87266015      -1.69285080     -10.78093605 </v>
    </varray>
    <i name="volume">    700.84178116 </i>
    <varray name="rec_basis" >
     <v>      -0.13936764       0.03004702       0.00656302 </v>
     <v>       0.00207741       0.10992809      -0.01742935 </v>
     <v>       0.00418233      -0.00232386      -0.09272996 </v>
    </varray>
   </crystal>
   <varray name="positions" >
    <v>       0.31181869       0.34032415       0.12006891 </v>
    <v>       0.42146514       0.76653372       0.59163953 </v>
    <v>       0.57853486       0.23346628       0.40836047 </v>
    <v>       0.68818131       0.65967585       0.87993109 </v>
    <v>       0.02692206       0.94827719       0.33523187 </v>
    <v>       0.13786850       0.44796385       0.81473547 </v>
    <v>       0.75039683       0.13137060       0.05223213 </v>
    <v>       0.52292103       0.21123749       0.76025630 </v>
    <v>       0.24960317       0.86862940       0.94776787 </v>
    <v>       0.97307794       0.05172281       0.66476813 </v>
    <v>       0.86213150       0.55203615       0.18526453 </v>
    <v>       0.47707897       0.78876251       0.23974370 </v>
    <v>       0.80977656       0.84586287       0.13322942 </v>
    <v>       0.66784263       0.35018276       0.95364432 </v>
    <v>       0.46259770       0.45950924       0.69833448 </v>
    <v>       0.25899639       0.01930023       0.52274857 </v>
    <v>       0.04229089       0.68701261       0.36336753 </v>
    <v>       0.33215737       0.64981724       0.04635568 </v>
    <v>       0.43829174       0.08181883       0.17145301 </v>
    <v>       0.95770911       0.31298739       0.63663247 </v>
    <v>       0.56170826       0.91818117       0.82854699 </v>
    <v>       0.91587448       0.30093274       0.23352338 </v>
    <v>       0.08412552       0.69906726       0.76647662 </v>
    <v>       0.74100361       0.98069977       0.47725143 </v>
    <v>       0.53740230       0.54049076       0.30166552 </v>
    <v>       0.19022344       0.15413713       0.86677058 </v>
   </varray>
  </structure>
  <varray name="forces" >
   <v>      -0.00446848      -0.00051962       0.00576938 </v>
   <v>       0.01212984      -0.00424379      -0.01689308 </v>
   <v>      -0.01212984       0.00424379       0.01689308 </v>
   <v>       0.00446848       0.00051962      -0.00576938 </v>
   <v>       0.02106521       0.03340163       0.03290390 </v>
   <v>       0.00597322       0.11252041       0.04321337 </v>
   <v>       0.01496856      -0.02882258      -0.06173810 </v>
   <v>       0.00768899      -0.02756854      -0.01690527 </v>
   <v>      -0.01496856       0.02882258       0.06173810 </v>
   <v>      -0.02106521      -0.03340163      -0.03290390 </v>
   <v>      -0.00597322      -0.11252041      -0.04321337 </v>
   <v>      -0.00768899       0.02756854       0.01690527 </v>
   <v>       0.01327212      -0.00772329      -0.01312891 </v>
   <v>       0.00373955       0.00030053       0.01243782 </v>
   <v>       0.00798151       0.01327069       0.01218594 </v>
   <v>       0.01491995       0.01811719      -0.00525527 </v>
   <v>      -0.00335172      -0.00951524       0.00590799 </v>
   <v>      -0.00373955      -0.00030053      -0.01243782 </v>
   <v>      -0.00250731      -0.01321835       0.00233614 </v>
   <v>       0.00335172       0.00951524      -0.00590799 </v>
   <v>       0.00250731       0.01321835      -0.00233614 </v>
   <v>       0.00015734       0.00240246       0.01317349 </v>
   <v>      -0.00015734      -0.00240246      -0.01317349 </v>
   <v>      -0.01491995      -0.01811719       0.00525527 </v>
   <v>      -0.00798151      -0.01327069      -0.01218594 </v>
   <v>      -0.01327212       0.00772329       0.01312891 </v>
  </varray>
  <varray name="stress" >
   <v>      -0.91293566       0.41108346      -0.17113311 </v>
   <v>       0.41108479      -0.56803868       0.06989183 </v>
   <v>      -0.17113289       0.06989300      -0.55844774 </v>
  </varray>
  <energy>
   <i name="e_fr_energy">   -109.29194706 </i>
   <i name="e_wo_entrp">   -109.29194706 </i>
   <i name="e_0_energy">     -0.00000000 </i>
  </energy>
  <time name="totalsc">    2.89    3.08</time>
 </calculation>
 <calculation>
  <scstep>
   <time name="dav">    0.68    0.70</time>
   <time name="total">    0.89    0.97</time>
   <energy>
    <i name="alphaZ">     33.52894801 </i>
    <i name="ewald">  -4150.24119390 </i>
    <i name="hartreedc">  -1136.35904482 </i>
    <i name="XCdc">   -337.37349610 </i>
    <i name="pawpsdc">  10005.47457673 </i>
    <i name="pawaedc">  -9381.36529349 </i>
    <i name="eentropy">     -0.00000000 </i>
    <i name="bandstr">   -238.60073331 </i>
    <i name="atom">   5095.64428410 </i>
    <i name="e_fr_energy">   -109.29195277 </i>
    <i name="e_wo_entrp">   -109.29195277 </i>
    <i name="e_0_energy">   -109.29195277 </i>
   </energy>
  </scstep>
  <scstep>
   <time name="dav">    0.63    0.65</time>
   <time name="total">    0.80    0.83</time>
   <energy>
    <i name="alphaZ">     33.52894801 </i>
    <i name="ewald">  -4150.24119390 </i>
    <i name="hartreedc">  -1136.37059272 </i>
    <i name="XCdc">   -337.37346086 </i>
    <i name="pawpsdc">  10006.07364465 </i>
    <i name="pawaedc">  -9381.96407928 </i>
    <i name="eentropy">     -0.00000000 </i>
    <i name="bandstr">   -238.58950407 </i>
    <i name="atom">   5095.64428410 </i>
    <i name="e_fr_energy">   -109.29195406 </i>
    <i name="e_wo_entrp">   -109.29195406 </i>
    <i name="e_0_energy">   -109.29195406 </i>
   </energy>
  </scstep>
  <structure>
   <crystal>
    <varray name="basis" >
     <v>      -7.17250973       0.08381928      -0.32557995 </v>
     <v>       1.94216398       9.03812387      -0.13885381 </v>
     <v>      -0.87265104      -1.69293199     -10.78104216 </v>
    </varray>
    <i name="volume">    700.84603114 </i>
    <varray name="rec_basis" >
     <v>      -0.13936794       0.03004900       0.00656232 </v>
     <v>       0.00207584       0.10992858      -0.01742996 </v>
     <v>       0.00418208      -0.00232328      -0.09272910 </v>
    </varray>
   </crystal>
   <varray name="positions" >
    <v>       0.31182153       0.34032417       0.12006620 </v>
    <v>       0.42145728       0.76653223       0.59164546 </v>
    <v>       0.57854272       0.23346777       0.40835454 </v>
    <v>       0.68817847       0.65967583       0.87993380 </v>
    <v>       0.02693108       0.94826755       0.33523717 </v>
    <v>       0.13787254       0.44796916       0.81473135 </v>
    <v>       0.75038637       0.13137409       0.05223260 </v>
    <v>       0.52292283       0.21125504       0.76024996 </v>
    <v>       0.24961363       0.86862591       0.94776740 </v>
    <v>       0.97306892       0.05173245       0.66476283 </v>
    <v>       0.86212746       0.55203084       0.18526865 </v>
    <v>       0.47707717       0.78874496       0.23975004 </v>
    <v>       0.80977137       0.84586093       0.13323189 </v>
    <v>       0.66783942       0.35018509       0.95364234 </v>
    <v>       0.46259582       0.45951518       0.69832920 </v>
    <v>       0.25899044       0.01930949       0.52275087 </v>
    <v>       0.04229418       0.68701138       0.36336493 </v>
    <v>       0.33216058       0.64981491       0.04635766 </v>
    <v>       0.43828648       0.08180955       0.17145483 </v>
    <v>       0.95770582       0.31298862       0.63663507 </v>
    <v>       0.56171352       0.91819045       0.82854517 </v>
    <v>       0.91587968       0.30093005       0.23351843 </v>
    <v>       0.08412032       0.69906995       0.76648157 </v>
    <v>       0.74100956       0.98069051       0.47724913 </v>
    <v>       0.53740418       0.54048482       0.30167080 </v>
    <v>       0.19022863       0.15413907       0.86676811 </v>
   </varray>
  </structure>
  <varray name="forces" >
   <v>      -0.00446658      -0.00070346       0.00584752 </v>
   <v>       0.01216457      -0.00403152      -0.01692027 </v>
   <v>      -0.01216457       0.00403152       0.01692027 </v>
   <v>       0.00446658       0.00070346      -0.00584752 </v>
   <v>       0.01940228       0.03275670       0.03278528 </v>
   <v>       0.01249879       0.03703018       0.00655030 </v>
   <v>       0.01610215      -0.02894457      -0.06143367 </v>
   <v>       0.00837687      -0.02526906      -0.01575098 </v>
   <v>      -0.01610215       0.02894457       0.06143367 </v>
   <v>      -0.01940228      -0.03275670      -0.03278528 </v>
   <v>      -0.01249879      -0.03703018      -0.00655030 </v>
   <v>      -0.00837687       0.02526906       0.01575098 </v>
   <v>       0.01256866      -0.00731414      -0.01263475 </v>
   <v>       0.00297604       0.00021493       0.01174688 </v>
   <v>       0.00696118       0.01255916       0.01115894 </v>
   <v>       0.01292669       0.01604368      -0.00489565 </v>
   <v>      -0.00327247      -0.01036522       0.00454302 </v>
   <v>      -0.00297604      -0.00021493      -0.01174688 </v>
   <v>      -0.00255240      -0.01093769       0.00225054 </v>
   <v>       0.00327247       0.01036522      -0.00454302 </v>
   <v>       0.00255240       0.01093769      -0.00225054 </v>
   <v>       0.00081846       0.00275903       0.01145156 </v>
   <v>      -0.00081846      -0.00275903      -0.01145156 </v>
   <v>      -0.01292669      -0.01604368       0.00489565 </v>
   <v>      -0.00696118      -0.01255916      -0.01115894 </v>
   <v>      -0.01256866       0.00731414       0.01263475 </v>
  </varray>
  <varray name="stress" >
   <v>      -0.92617047       0.36124569      -0.18620965 </v>
   <v>       0.36124694      -0.63075544       0.08678100 </v>
   <v>      -0.18621073       0.08678144      -0.54183927 </v>
  </varray>
  <energy>
   <i name="e_fr_energy">   -109.29195406 </i>
   <i name="e_wo_entrp">   -109.29195406 </i>
   <i name="e_0_energy">     -0.00000000 </i>
  </energy>
  <time name="totalsc">    2.71    2.97</time>
 </calculation>
 <calculation>
  <scstep>
   <time name="dav">    0.63    0.63</time>
   <time name="total">    0.83    0.92</time>
   <energy>
    <i name="alphaZ">     33.53234607 </i>
    <i name="ewald">  -4150.35691331 </i>
    <i name="hartreedc">  -1136.43531343 </i>
    <i name="XCdc">   -337.36540016 </i>
    <i name="pawpsdc">  10006.70847333 </i>
    <i name="pawaedc">  -9382.59859504 </i>
    <i name="eentropy">     -0.00000000 </i>
    <i name="bandstr">   -238.42092302 </i>
    <i name="atom">   5095.64428410 </i>
    <i name="e_fr_energy">   -109.29204147 </i>
    <i name="e_wo_entrp">   -109.29204147 </i>
    <i name="e_0_energy">   -109.29204147 </i>
   </energy>
  </scstep>
  <scstep>
   <time name="dav">    0.58    0.58</time>
   <time name="total">    0.75    0.75</time>
   <energy>
    <i name="alphaZ">     33.53234607 </i>
    <i name="ewald">  -4150.35691331 </i>
    <i name="hartreedc">  -1136.39057933 </i>
    <i name="XCdc">   -337.36762253 </i>
    <i name="pawpsdc">  10007.49664852 </i>
    <i name="pawaedc">  -9383.38630399 </i>
    <i name="eentropy">     -0.00000000 </i>
    <i name="bandstr">   -238.46389999 </i>
    <i name="atom">   5095.64428410 </i>
    <i name="e_fr_energy">   -109.29204046 </i>
    <i name="e_wo_entrp">   -109.29204046 </i>
    <i name="e_0_energy">   -109.29204046 </i>
   </energy>
  </scstep>
  <structure>
   <crystal>
    <varray name="basis" >
     <v>      -7.17217721       0.08364118      -0.32549578 </v>
     <v>       1.94229479       9.03787211      -0.13880393 </v>
     <v>      -0.87253765      -1.69297761     -10.78079949 </v>
    </varray>
    <i name="volume">    700.77500984 </i>
    <varray name="rec_basis" >
     <v>      -0.13937495       0.03005330       0.00656077 </v>
     <v>       0.00207310       0.10993228      -0.01743115 </v>
     <v>       0.00418134      -0.00232276      -0.09273116 </v>
    </varray>
   </crystal>
   <varray name="positions" >
    <v>       0.31182469       0.34032363       0.12006333 </v>
    <v>       0.42144806       0.76653120       0.59165293 </v>
    <v>       0.57855194       0.23346880       0.40834707 </v>
    <v>       0.68817531       0.65967637       0.87993667 </v>
    <v>       0.02693071       0.94827226       0.33523061 </v>
    <v>       0.13787262       0.44798329       0.81472761 </v>
    <v>       0.75037130       0.13136954       0.05225000 </v>
    <v>       0.52291766       0.21125562       0.76025168 </v>
    <v>       0.24962870       0.86863046       0.94775000 </v>
    <v>       0.97306929       0.05172774       0.66476939 </v>
    <v>       0.86212738       0.55201671       0.18527239 </v>
    <v>       0.47708234       0.78874438       0.23974832 </v>
    <v>       0.80976299       0.84585841       0.13323665 </v>
    <v>       0.66783700       0.35018562       0.95363828 </v>
    <v>       0.46259345       0.45952139       0.69832378 </v>
    <v>       0.25898378       0.01931919       0.52275329 </v>
    <v>       0.04229617       0.68700722       0.36336254 </v>
    <v>       0.33216300       0.64981438       0.04636172 </v>
    <v>       0.43828424       0.08180170       0.17145507 </v>
    <v>       0.95770383       0.31299278       0.63663746 </v>
    <v>       0.56171576       0.91819830       0.82854493 </v>
    <v>       0.91588215       0.30092916       0.23351307 </v>
    <v>       0.08411785       0.69907084       0.76648693 </v>
    <v>       0.74101622       0.98068081       0.47724671 </v>
    <v>       0.53740655       0.54047861       0.30167622 </v>
    <v>       0.19023701       0.15414159       0.86676335 </v>
   </varray>
  </structure>
  <varray name="forces" >
   <v>      -0.00444853      -0.00059795       0.00600429 </v>
   <v>       0.01204153      -0.00409974      -0.01658095 </v>
   <v>      -0.01204153       0.00409974       0.01658095 </v>
   <v>       0.00444853       0.00059795      -0.00600429 </v>
   <v>       0.01870541       0.03372073       0.03446327 </v>
   <v>      -0.00269155      -0.02364079      -0.00609850 </v>
   <v>       0.02997054       0.02933228      -0.00327230 </v>
   <v>       0.00822171      -0.02489364      -0.01455042 </v>
   <v>      -0.02997054      -0.02933228       0.00327230 </v>
   <v>      -0.01870541      -0.03372073      -0.03446327 </v>
   <v>       0.00269155       0.02364079       0.00609850 </v>
   <v>      -0.00822171       0.02489364       0.01455042 </v>
   <v>       0.01069744      -0.00758241      -0.01099188 </v>
   <v>       0.00298284       0.00158671       0.01045098 </v>
   <v>       0.00634561       0.01340766       0.01285493 </v>
   <v>       0.01206962       0.01730488      -0.00443394 </v>
   <v>      -0.00434617      -0.00881619       0.00376523 </v>
   <v>      -0.00298284      -0.00158671      -0.01045098 </v>
   <v>       0.00057140      -0.01247657       0.00014459 </v>
   <v>       0.00434617       0.00881619      -0.00376523 </v>
   <v>      -0.00057140       0.01247657      -0.00014459 </v>
   <v>      -0.00190866       0.00196599       0.00980511 </v>
   <v>       0.00190866      -0.00196599      -0.00980511 </v>
   <v>      -0.01206962      -0.01730488       0.00443394 </v>
   <v>      -0.00634561      -0.01340766      -0.01285493 </v>
   <v>      -0.01069744       0.00758241       0.01099188 </v>
  </varray>
  <varray name="stress" >
   <v>      -0.95362406       0.43279784      -0.15027840 </v>
   <v>       0.43279962      -0.50887178       0.07972711 </v>
   <v>      -0.15027817       0.07972741      -0.60625912 </v>
  </varray>
  <energy>
   <i name="e_fr_energy">   -109.29204046 </i>
   <i name="e_wo_entrp">   -109.29204046 </i>
   <i name="e_0_energy">     -0.00000000 </i>
  </energy>
  <time name="totalsc">    2.71    2.93</time>
 </calculation>
 <calculation>
  <scstep>
   <time name="dav">    0.89    0.91</time>
   <time name="total">    1.10    1.19</time>
   <energy>
    <i name="alphaZ">     33.53761984 </i>
    <i name="ewald">  -4150.53645523 </i>
    <i name="hartreedc">  -1136.44656338 </i>
    <i name="XCdc">   -337.35626396 </i>
    <i name="pawpsdc">  10008.51196427 </i>
    <i name="pawaedc">  -9384.40169569 </i>
    <i name="eentropy">     -0.00000000 </i>
    <i name="bandstr">   -238.24502988 </i>
    <i name="atom">   5095.64428410 </i>
    <i name="e_fr_energy">   -109.29213992 </i>
    <i name="e_wo_entrp">   -109.29213992 </i>
    <i name="e_0_energy">   -109.29213992 </i>
   </energy>
  </scstep>
  <scstep>
   <time name="dav">    0.69    0.71</time>
   <time name="total">    0.86    0.88</time>
   <energy>
    <i name="alphaZ">     33.53761984 </i>
    <i name="ewald">  -4150.53645523 </i>
    <i name="hartreedc">  -1136.36826519 </i>
    <i name="XCdc">   -337.35961511 </i>
    <i name="pawpsdc">  10010.12510091 </i>
    <i name="pawaedc">  -9386.01447995 </i>
    <i name="eentropy">     -0.00000000 </i>
    <i name="bandstr">   -238.32032366 </i>
    <i name="atom">   5095.64428410 </i>
    <i name="e_fr_energy">   -109.29213430 </i>
    <i name="e_wo_entrp">   -109.29213430 </i>
    <i name="e_0_energy">   -109.29213430 </i>
   </energy>
  </scstep>
  <structure>
   <crystal>
    <varray name="basis" >
     <v>      -7.17166123       0.08336482      -0.32536516 </v>
     <v>       1.94249777       9.03748145      -0.13872652 </v>
     <v>      -0.87236170      -1.69304839     -10.78042293 </v>
    </varray>
    <i name="volume">    700.66481334 </i>
    <varray name="rec_basis" >
     <v>      -0.13938582       0.03005998       0.00655836 </v>
     <v>       0.00206885       0.10993802      -0.01743301 </v>
     <v>       0.00418020      -0.00232197      -0.09273434 </v>
    </varray>
   </crystal>
   <varray name="positions" >
    <v>       0.31182959       0.34032278       0.12005887 </v>
    <v>       0.42143376       0.76652961       0.59166453 </v>
    <v>       0.57856624       0.23347039       0.40833547 </v>
    <v>       0.68817041       0.65967722       0.87994113 </v>
    <v>       0.02693012       0.94827957       0.33522043 </v>
    <v>       0.13787276       0.44800522       0.81472181 </v>
    <v>       0.75034791       0.13136248       0.05227700 </v>
    <v>       0.52290963       0.21125651       0.76025437 </v>
    <v>       0.24965209       0.86863752       0.94772300 </v>
    <v>       0.97306988       0.05172043       0.66477957 </v>
    <v>       0.86212724       0.55199478       0.18527819 </v>
    <v>       0.47709037       0.78874349       0.23974563 </v>
    <v>       0.80974997       0.84585450       0.13324405 </v>
    <v>       0.66783324       0.35018644       0.95363197 </v>
    <v>       0.46258976       0.45953103       0.69831536 </v>
    <v>       0.25897344       0.01933423       0.52275705 </v>
    <v>       0.04229927       0.68700075       0.36335885 </v>
    <v>       0.33216676       0.64981356       0.04636803 </v>
    <v>       0.43828076       0.08178953       0.17145545 </v>
    <v>       0.95770073       0.31299925       0.63664115 </v>
    <v>       0.56171924       0.91821047       0.82854455 </v>
    <v>       0.91588598       0.30092776       0.23350474 </v>
    <v>       0.08411402       0.69907224       0.76649526 </v>
    <v>       0.74102656       0.98066577       0.47724295 </v>
    <v>       0.53741024       0.54046897       0.30168464 </v>
    <v>       0.19025003       0.15414550       0.86675595 </v>
   </varray>
  </structure>
  <varray name="forces" >
   <v>      -0.00451543      -0.00042092       0.00616776 </v>
   <v>       0.01201911      -0.00436759      -0.01619466 </v>
   <v>      -0.01201911       0.00436759       0.01619466 </v>
   <v>       0.00451543       0.00042092      -0.00616776 </v>
   <v>       0.04658029       0.00491310       0.04657750 </v>
   <v>      -0.00161881      -0.01959351      -0.00625734 </v>
   <v>       0.03057750       0.02691072      -0.00792031 </v>
   <v>       0.00818169      -0.02452195      -0.01297856 </v>
   <v>      -0.03057750      -0.02691072       0.00792031 </v>
   <v>      -0.04658029      -0.00491310      -0.04657750 </v>
   <v>       0.00161881       0.01959351       0.00625734 </v>
   <v>      -0.00818169       0.02452195       0.01297856 </v>
   <v>       0.00900925      -0.00704597      -0.00944717 </v>
   <v>       0.00274932       0.00272261       0.00924623 </v>
   <v>       0.00511214       0.01463241       0.01380194 </v>
   <v>       0.01022304       0.01751644      -0.00432371 </v>
   <v>      -0.00523222      -0.00882163       0.00240240 </v>
   <v>      -0.00274932      -0.00272261      -0.00924623 </v>
   <v>       0.00328009      -0.01239466      -0.00176841 </v>
   <v>       0.00523222       0.00882163      -0.00240240 </v>
   <v>      -0.00328009       0.01239466       0.00176841 </v>
   <v>      -0.00354090       0.00133579       0.00713218 </v>
   <v>       0.00354090      -0.00133579      -0.00713218 </v>
   <v>      -0.01022304      -0.01751644       0.00432371 </v>
   <v>      -0.00511214      -0.01463241      -0.01380194 </v>
   <v>      -0.00900925       0.00704597       0.00944717 </v>
  </varray>
  <varray name="stress" >
   <v>      -0.82824430       0.30809398      -0.12621177 </v>
   <v>       0.30809459      -0.40853084       0.03445655 </v>
   <v>      -0.12621168       0.03445744      -0.60463172 </v>
  </varray>
  <energy>
   <i name="e_fr_energy">   -109.29213430 </i>
   <i name="e_wo_entrp">   -109.29213430 </i>
   <i name="e_0_energy">     -0.00000000 </i>
  </energy>
  <time name="totalsc">    3.04    3.32</time>
 </calculation>
 <calculation>
  <scstep>
   <time name="dav">    0.88    0.90</time>
   <time name="total">    1.09    1.14</time>
   <energy>
    <i name="alphaZ">     33.54817113 </i>
    <i name="ewald">  -4150.89546357 </i>
    <i name="hartreedc">  -1136.49245549 </i>
    <i name="XCdc">   -337.33619211 </i>
    <i name="pawpsdc">  10011.37963224 </i>
    <i name="pawaedc">  -9387.26961077 </i>
    <i name="eentropy">     -0.00000000 </i>
    <i name="bandstr">   -237.87066502 </i>
    <i name="atom">   5095.64428410 </i>
    <i name="e_fr_energy">   -109.29229949 </i>
    <i name="e_wo_entrp">   -109.29229949 </i>
    <i name="e_0_energy">   -109.29229949 </i>
   </energy>
  </scstep>
  <scstep>
   <time name="dav">    0.69    0.71</time>
   <time name="total">    0.86    0.88</time>
   <energy>
    <i name="alphaZ">     33.54817113 </i>
    <i name="ewald">  -4150.89546357 </i>
    <i name="hartreedc">  -1136.33368970 </i>
    <i name="XCdc">   -337.34281879 </i>
    <i name="pawpsdc">  10015.52553584 </i>
    <i name="pawaedc">  -9391.41507779 </i>
    <i name="eentropy">     -0.00000000 </i>
    <i name="bandstr">   -238.02321459 </i>
    <i name="atom">   5095.64428410 </i>
    <i name="e_fr_energy">   -109.29227335 </i>
    <i name="e_wo_entrp">   -109.29227335 </i>
    <i name="e_0_energy">   -109.29227335 </i>
   </energy>
  </scstep>
  <structure>
   <crystal>
    <varray name="basis" >
     <v>      -7.17062928       0.08281210      -0.32510394 </v>
     <v>       1.94290373       9.03670014      -0.13857172 </v>
     <v>      -0.87200979      -1.69318994     -10.77966981 </v>
    </varray>
    <i name="volume">    700.44444608 </i>
    <varray name="rec_basis" >
[...]
        <r>  0.0003  0.0005  0.0000 </r>
        <r>  0.0020  0.0432  0.0028 </r>
        <r>  0.0022  0.0338  0.0013 </r>
        <r>  0.0006  0.0221  0.0011 </r>
        <r>  0.0019  0.0257  0.0004 </r>
        <r>  0.0006  0.0221  0.0011 </r>
        <r>  0.0020  0.0432  0.0028 </r>
        <r>  0.0022  0.0338  0.0013 </r>
        <r>  0.0019  0.0257  0.0004 </r>
        <r>  0.0004  0.0123  0.0000 </r>
        <r>  0.0018  0.0056  0.0000 </r>
        <r>  0.0014  0.0075  0.0000 </r>
        <r>  0.0002  0.0044  0.0000 </r>
        <r>  0.0052  0.0222  0.0000 </r>
        <r>  0.0018  0.0056  0.0000 </r>
        <r>  0.0002  0.0105  0.0000 </r>
        <r>  0.0052  0.0222  0.0000 </r>
        <r>  0.0002  0.0105  0.0000 </r>
        <r>  0.0072  0.0077  0.0000 </r>
        <r>  0.0072  0.0077  0.0000 </r>
        <r>  0.0002  0.0044  0.0000 </r>
        <r>  0.0014  0.0075  0.0000 </r>
        <r>  0.0004  0.0123  0.0000 </r>
       </set>
       <set comment="band 70">
        <r>  0.0003  0.0008  0.0000 </r>
        <r>  0.0018  0.0001  0.0000 </r>
        <r>  0.0018  0.0001  0.0000 </r>
        <r>  0.0003  0.0008  0.0000 </r>
        <r>  0.0004  0.0077  0.0008 </r>
        <r>  0.0026  0.0289  0.0020 </r>
        <r>  0.0026  0.0331  0.0007 </r>
        <r>  0.0006  0.0468  0.0019 </r>
        <r>  0.0026  0.0331  0.0007 </r>
        <r>  0.0004  0.0077  0.0008 </r>
        <r>  0.0026  0.0289  0.0020 </r>
        <r>  0.0006  0.0468  0.0019 </r>
        <r>  0.0021  0.0047  0.0000 </r>
        <r>  0.0072  0.0191  0.0000 </r>
        <r>  0.0024  0.0138  0.0000 </r>
        <r>  0.0023  0.0087  0.0000 </r>
        <r>  0.0051  0.0182  0.0000 </r>
        <r>  0.0072  0.0191  0.0000 </r>
        <r>  0.0017  0.0039  0.0000 </r>
        <r>  0.0051  0.0182  0.0000 </r>
        <r>  0.0017  0.0039  0.0000 </r>
        <r>  0.0007  0.0098  0.0000 </r>
        <r>  0.0007  0.0098  0.0000 </r>
        <r>  0.0023  0.0087  0.0000 </r>
        <r>  0.0024  0.0138  0.0000 </r>
        <r>  0.0021  0.0047  0.0000 </r>
       </set>
       <set comment="band 71">
        <r>  0.0000  0.0007  0.0000 </r>
        <r>  0.0014  0.0004  0.0000 </r>
        <r>  0.0014  0.0004  0.0000 </r>
        <r>  0.0000  0.0007  0.0000 </r>
        <r>  0.0010  0.0231  0.0004 </r>
        <r>  0.0050  0.0214  0.0006 </r>
        <r>  0.0016  0.0390  0.0015 </r>
        <r>  0.0004  0.0327  0.0008 </r>
        <r>  0.0016  0.0390  0.0015 </r>
        <r>  0.0010  0.0231  0.0004 </r>
        <r>  0.0050  0.0214  0.0006 </r>
        <r>  0.0004  0.0327  0.0008 </r>
        <r>  0.0084  0.0154  0.0000 </r>
        <r>  0.0039  0.0134  0.0000 </r>
        <r>  0.0048  0.0112  0.0000 </r>
        <r>  0.0011  0.0063  0.0000 </r>
        <r>  0.0028  0.0105  0.0000 </r>
        <r>  0.0039  0.0134  0.0000 </r>
        <r>  0.0019  0.0104  0.0000 </r>
        <r>  0.0028  0.0105  0.0000 </r>
        <r>  0.0019  0.0104  0.0000 </r>
        <r>  0.0032  0.0187  0.0000 </r>
        <r>  0.0032  0.0187  0.0000 </r>
        <r>  0.0011  0.0063  0.0000 </r>
        <r>  0.0048  0.0112  0.0000 </r>
        <r>  0.0084  0.0154  0.0000 </r>
       </set>
       <set comment="band 72">
        <r>  0.0014  0.0008  0.0000 </r>
        <r>  0.0000  0.0005  0.0000 </r>
        <r>  0.0000  0.0005  0.0000 </r>
        <r>  0.0014  0.0008  0.0000 </r>
        <r>  0.0083  0.0566  0.0020 </r>
        <r>  0.0013  0.0260  0.0006 </r>
        <r>  0.0003  0.0306  0.0010 </r>
        <r>  0.0006  0.0103  0.0006 </r>
        <r>  0.0003  0.0306  0.0010 </r>
        <r>  0.0083  0.0566  0.0020 </r>
        <r>  0.0013  0.0260  0.0006 </r>
        <r>  0.0006  0.0103  0.0006 </r>
        <r>  0.0002  0.0062  0.0000 </r>
        <r>  0.0006  0.0046  0.0000 </r>
        <r>  0.0009  0.0039  0.0000 </r>
        <r>  0.0038  0.0172  0.0000 </r>
        <r>  0.0014  0.0215  0.0000 </r>
        <r>  0.0006  0.0046  0.0000 </r>
        <r>  0.0005  0.0062  0.0000 </r>
        <r>  0.0014  0.0215  0.0000 </r>
        <r>  0.0005  0.0062  0.0000 </r>
        <r>  0.0049  0.0132  0.0000 </r>
        <r>  0.0049  0.0132  0.0000 </r>
        <r>  0.0038  0.0172  0.0000 </r>
        <r>  0.0009  0.0039  0.0000 </r>
        <r>  0.0002  0.0062  0.0000 </r>
       </set>
       <set comment="band 73">
        <r>  0.0016  0.0006  0.0000 </r>
        <r>  0.0000  0.0002  0.0000 </r>
        <r>  0.0000  0.0002  0.0000 </r>
        <r>  0.0016  0.0006  0.0000 </r>
        <r>  0.0025  0.0476  0.0021 </r>
        <r>  0.0005  0.0126  0.0012 </r>
        <r>  0.0016  0.0424  0.0005 </r>
        <r>  0.0003  0.0261  0.0014 </r>
        <r>  0.0016  0.0424  0.0005 </r>
        <r>  0.0025  0.0476  0.0021 </r>
        <r>  0.0005  0.0126  0.0012 </r>
        <r>  0.0003  0.0261  0.0014 </r>
        <r>  0.0053  0.0074  0.0000 </r>
        <r>  0.0008  0.0201  0.0000 </r>
        <r>  0.0005  0.0080  0.0000 </r>
        <r>  0.0012  0.0145  0.0000 </r>
        <r>  0.0012  0.0251  0.0000 </r>
        <r>  0.0008  0.0201  0.0000 </r>
        <r>  0.0018  0.0042  0.0000 </r>
        <r>  0.0012  0.0251  0.0000 </r>
        <r>  0.0018  0.0042  0.0000 </r>
        <r>  0.0004  0.0061  0.0000 </r>
        <r>  0.0004  0.0061  0.0000 </r>
        <r>  0.0012  0.0145  0.0000 </r>
        <r>  0.0005  0.0080  0.0000 </r>
        <r>  0.0053  0.0074  0.0000 </r>
       </set>
       <set comment="band 74">
        <r>  0.0002  0.0002  0.0000 </r>
        <r>  0.0026  0.0006  0.0000 </r>
        <r>  0.0026  0.0006  0.0000 </r>
        <r>  0.0002  0.0002  0.0000 </r>
        <r>  0.0004  0.0421  0.0008 </r>
        <r>  0.0044  0.0612  0.0022 </r>
        <r>  0.0003  0.0101  0.0002 </r>
        <r>  0.0007  0.0100  0.0010 </r>
        <r>  0.0003  0.0101  0.0002 </r>
        <r>  0.0004  0.0421  0.0008 </r>
        <r>  0.0044  0.0612  0.0022 </r>
        <r>  0.0007  0.0100  0.0010 </r>
        <r>  0.0009  0.0100  0.0000 </r>
        <r>  0.0004  0.0175  0.0000 </r>
        <r>  0.0053  0.0244  0.0000 </r>
        <r>  0.0012  0.0125  0.0000 </r>
        <r>  0.0017  0.0095  0.0000 </r>
        <r>  0.0004  0.0175  0.0000 </r>
        <r>  0.0000  0.0066  0.0000 </r>
        <r>  0.0017  0.0095  0.0000 </r>
        <r>  0.0000  0.0066  0.0000 </r>
        <r>  0.0005  0.0086  0.0000 </r>
        <r>  0.0005  0.0086  0.0000 </r>
        <r>  0.0012  0.0125  0.0000 </r>
        <r>  0.0053  0.0244  0.0000 </r>
        <r>  0.0009  0.0100  0.0000 </r>
       </set>
       <set comment="band 75">
        <r>  0.0000  0.0002  0.0000 </r>
        <r>  0.0003  0.0001  0.0000 </r>
        <r>  0.0003  0.0001  0.0000 </r>
        <r>  0.0000  0.0002  0.0000 </r>
        <r>  0.0078  0.0301  0.0018 </r>
        <r>  0.0045  0.0217  0.0011 </r>
        <r>  0.0009  0.0448  0.0019 </r>
        <r>  0.0001  0.0167  0.0005 </r>
        <r>  0.0009  0.0448  0.0019 </r>
        <r>  0.0077  0.0301  0.0018 </r>
        <r>  0.0045  0.0217  0.0011 </r>
        <r>  0.0001  0.0167  0.0005 </r>
        <r>  0.0021  0.0010  0.0000 </r>
        <r>  0.0005  0.0139  0.0000 </r>
        <r>  0.0004  0.0115  0.0000 </r>
        <r>  0.0001  0.0169  0.0000 </r>
        <r>  0.0031  0.0325  0.0000 </r>
        <r>  0.0005  0.0139  0.0000 </r>
        <r>  0.0020  0.0079  0.0000 </r>
        <r>  0.0031  0.0325  0.0000 </r>
        <r>  0.0020  0.0079  0.0000 </r>
        <r>  0.0002  0.0177  0.0000 </r>
        <r>  0.0002  0.0177  0.0000 </r>
        <r>  0.0001  0.0169  0.0000 </r>
        <r>  0.0004  0.0115  0.0000 </r>
        <r>  0.0021  0.0010  0.0000 </r>
       </set>
       <set comment="band 76">
        <r>  0.0004  0.0007  0.0000 </r>
        <r>  0.0025  0.0006  0.0000 </r>
        <r>  0.0025  0.0006  0.0000 </r>
        <r>  0.0004  0.0007  0.0000 </r>
        <r>  0.0008  0.0110  0.0004 </r>
        <r>  0.0034  0.0406  0.0014 </r>
        <r>  0.0023  0.0441  0.0007 </r>
        <r>  0.0001  0.0387  0.0010 </r>
        <r>  0.0023  0.0441  0.0007 </r>
        <r>  0.0008  0.0110  0.0004 </r>
        <r>  0.0034  0.0406  0.0014 </r>
        <r>  0.0001  0.0387  0.0010 </r>
        <r>  0.0007  0.0014  0.0000 </r>
        <r>  0.0005  0.0076  0.0000 </r>
        <r>  0.0022  0.0160  0.0000 </r>
        <r>  0.0013  0.0058  0.0000 </r>
        <r>  0.0007  0.0164  0.0000 </r>
        <r>  0.0005  0.0076  0.0000 </r>
        <r>  0.0001  0.0112  0.0000 </r>
        <r>  0.0007  0.0164  0.0000 </r>
        <r>  0.0001  0.0112  0.0000 </r>
        <r>  0.0004  0.0319  0.0000 </r>
        <r>  0.0004  0.0319  0.0000 </r>
        <r>  0.0013  0.0058  0.0000 </r>
        <r>  0.0022  0.0160  0.0000 </r>
        <r>  0.0007  0.0014  0.0000 </r>
       </set>
       <set comment="band 77">
        <r>  0.0018  0.0008  0.0000 </r>
        <r>  0.0031  0.0010  0.0000 </r>
        <r>  0.0031  0.0010  0.0000 </r>
        <r>  0.0018  0.0008  0.0000 </r>
        <r>  0.0004  0.0325  0.0008 </r>
        <r>  0.0020  0.0174  0.0010 </r>
        <r>  0.0014  0.0323  0.0025 </r>
        <r>  0.0030  0.0366  0.0009 </r>
        <r>  0.0014  0.0323  0.0025 </r>
        <r>  0.0004  0.0325  0.0008 </r>
        <r>  0.0020  0.0174  0.0010 </r>
        <r>  0.0030  0.0366  0.0009 </r>
        <r>  0.0002  0.0205  0.0000 </r>
        <r>  0.0006  0.0109  0.0000 </r>
        <r>  0.0000  0.0090  0.0000 </r>
        <r>  0.0013  0.0055  0.0000 </r>
        <r>  0.0005  0.0180  0.0000 </r>
        <r>  0.0006  0.0109  0.0000 </r>
        <r>  0.0042  0.0216  0.0000 </r>
        <r>  0.0005  0.0180  0.0000 </r>
        <r>  0.0042  0.0216  0.0000 </r>
        <r>  0.0001  0.0065  0.0000 </r>
        <r>  0.0001  0.0065  0.0000 </r>
        <r>  0.0013  0.0055  0.0000 </r>
        <r>  0.0000  0.0090  0.0000 </r>
        <r>  0.0002  0.0205  0.0000 </r>
       </set>
       <set comment="band 78">
        <r>  0.0009  0.0010  0.0000 </r>
        <r>  0.0033  0.0006  0.0000 </r>
        <r>  0.0033  0.0006  0.0000 </r>
        <r>  0.0009  0.0010  0.0000 </r>
        <r>  0.0004  0.0213  0.0024 </r>
        <r>  0.0028  0.0203  0.0011 </r>
        <r>  0.0007  0.0174  0.0014 </r>
        <r>  0.0001  0.0591  0.0019 </r>
        <r>  0.0007  0.0174  0.0014 </r>
        <r>  0.0004  0.0213  0.0024 </r>
        <r>  0.0028  0.0203  0.0011 </r>
        <r>  0.0001  0.0591  0.0019 </r>
        <r>  0.0003  0.0142  0.0000 </r>
        <r>  0.0008  0.0094  0.0000 </r>
        <r>  0.0042  0.0276  0.0000 </r>
        <r>  0.0005  0.0070  0.0000 </r>
        <r>  0.0018  0.0093  0.0000 </r>
        <r>  0.0008  0.0094  0.0000 </r>
        <r>  0.0046  0.0139  0.0000 </r>
        <r>  0.0018  0.0093  0.0000 </r>
        <r>  0.0046  0.0139  0.0000 </r>
        <r>  0.0000  0.0152  0.0000 </r>
        <r>  0.0000  0.0152  0.0000 </r>
        <r>  0.0005  0.0070  0.0000 </r>
        <r>  0.0042  0.0276  0.0000 </r>
        <r>  0.0003  0.0142  0.0000 </r>
       </set>
       <set comment="band 79">
        <r>  0.0006  0.0004  0.0000 </r>
        <r>  0.0015  0.0010  0.0000 </r>
        <r>  0.0015  0.0010  0.0000 </r>
        <r>  0.0006  0.0004  0.0000 </r>
        <r>  0.0010  0.0181  0.0016 </r>
        <r>  0.0072  0.0532  0.0016 </r>
        <r>  0.0033  0.0287  0.0016 </r>
        <r>  0.0013  0.0145  0.0010 </r>
        <r>  0.0033  0.0287  0.0016 </r>
        <r>  0.0010  0.0181  0.0016 </r>
        <r>  0.0072  0.0532  0.0016 </r>
        <r>  0.0013  0.0145  0.0010 </r>
        <r>  0.0027  0.0039  0.0000 </r>
        <r>  0.0006  0.0055  0.0000 </r>
        <r>  0.0050  0.0226  0.0000 </r>
        <r>  0.0006  0.0118  0.0000 </r>
        <r>  0.0017  0.0161  0.0000 </r>
        <r>  0.0006  0.0055  0.0000 </r>
        <r>  0.0022  0.0184  0.0000 </r>
        <r>  0.0017  0.0161  0.0000 </r>
        <r>  0.0022  0.0184  0.0000 </r>
        <r>  0.0005  0.0064  0.0000 </r>
        <r>  0.0005  0.0064  0.0000 </r>
        <r>  0.0006  0.0118  0.0000 </r>
        <r>  0.0050  0.0226  0.0000 </r>
        <r>  0.0027  0.0039  0.0000 </r>
       </set>
       <set comment="band 80">
        <r>  0.0007  0.0003  0.0000 </r>
        <r>  0.0001  0.0009  0.0000 </r>
        <r>  0.0001  0.0009  0.0000 </r>
        <r>  0.0007  0.0003  0.0000 </r>
        <r>  0.0005  0.0302  0.0004 </r>
        <r>  0.0001  0.0533  0.0024 </r>
        <r>  0.0012  0.0218  0.0013 </r>
        <r>  0.0006  0.0213  0.0018 </r>
        <r>  0.0012  0.0218  0.0013 </r>
        <r>  0.0005  0.0302  0.0004 </r>
        <r>  0.0001  0.0533  0.0024 </r>
        <r>  0.0006  0.0213  0.0018 </r>
        <r>  0.0009  0.0072  0.0000 </r>
        <r>  0.0010  0.0181  0.0000 </r>
        <r>  0.0014  0.0196  0.0000 </r>
        <r>  0.0013  0.0209  0.0000 </r>
        <r>  0.0017  0.0116  0.0000 </r>
        <r>  0.0010  0.0181  0.0000 </r>
        <r>  0.0004  0.0157  0.0000 </r>
        <r>  0.0017  0.0116  0.0000 </r>
        <r>  0.0004  0.0157  0.0000 </r>
        <r>  0.0006  0.0097  0.0000 </r>
        <r>  0.0006  0.0097  0.0000 </r>
        <r>  0.0013  0.0209  0.0000 </r>
        <r>  0.0014  0.0196  0.0000 </r>
        <r>  0.0009  0.0072  0.0000 </r>
       </set>
       <set comment="band 81">
        <r>  0.0031  0.0004  0.0000 </r>
        <r>  0.0001  0.0009  0.0000 </r>
        <r>  0.0001  0.0009  0.0000 </r>
        <r>  0.0031  0.0004  0.0000 </r>
        <r>  0.0012  0.0359  0.0020 </r>
        <r>  0.0027  0.0093  0.0009 </r>
        <r>  0.0021  0.0473  0.0011 </r>
        <r>  0.0006  0.0305  0.0010 </r>
        <r>  0.0021  0.0473  0.0011 </r>
        <r>  0.0012  0.0359  0.0020 </r>
        <r>  0.0027  0.0093  0.0009 </r>
        <r>  0.0006  0.0305  0.0010 </r>
        <r>  0.0003  0.0076  0.0000 </r>
        <r>  0.0002  0.0116  0.0000 </r>
        <r>  0.0007  0.0098  0.0000 </r>
        <r>  0.0004  0.0053  0.0000 </r>
        <r>  0.0020  0.0199  0.0000 </r>
        <r>  0.0002  0.0116  0.0000 </r>
        <r>  0.0012  0.0217  0.0000 </r>
        <r>  0.0020  0.0199  0.0000 </r>
        <r>  0.0012  0.0217  0.0000 </r>
        <r>  0.0045  0.0311  0.0000 </r>
        <r>  0.0045  0.0311  0.0000 </r>
        <r>  0.0004  0.0053  0.0000 </r>
        <r>  0.0007  0.0098  0.0000 </r>
        <r>  0.0003  0.0076  0.0000 </r>
       </set>
       <set comment="band 82">
        <r>  0.0000  0.0003  0.0000 </r>
        <r>  0.0026  0.0009  0.0000 </r>
        <r>  0.0026  0.0009  0.0000 </r>
        <r>  0.0000  0.0003  0.0000 </r>
        <r>  0.0015  0.0305  0.0014 </r>
        <r>  0.0014  0.0317  0.0013 </r>
        <r>  0.0004  0.0148  0.0014 </r>
        <r>  0.0009  0.0350  0.0033 </r>
        <r>  0.0004  0.0148  0.0014 </r>
        <r>  0.0015  0.0305  0.0014 </r>
        <r>  0.0014  0.0317  0.0013 </r>
        <r>  0.0009  0.0350  0.0033 </r>
        <r>  0.0033  0.0208  0.0000 </r>
        <r>  0.0003  0.0192  0.0000 </r>
        <r>  0.0003  0.0077  0.0000 </r>
        <r>  0.0049  0.0225  0.0000 </r>
        <r>  0.0003  0.0167  0.0000 </r>
        <r>  0.0003  0.0192  0.0000 </r>
        <r>  0.0003  0.0082  0.0000 </r>
        <r>  0.0003  0.0167  0.0000 </r>
        <r>  0.0003  0.0082  0.0000 </r>
        <r>  0.0000  0.0131  0.0000 </r>
        <r>  0.0000  0.0131  0.0000 </r>
        <r>  0.0049  0.0225  0.0000 </r>
        <r>  0.0003  0.0077  0.0000 </r>
        <r>  0.0033  0.0208  0.0000 </r>
       </set>
       <set comment="band 83">
        <r>  0.0005  0.0003  0.0000 </r>
        <r>  0.0003  0.0012  0.0000 </r>
        <r>  0.0003  0.0012  0.0000 </r>
        <r>  0.0005  0.0003  0.0000 </r>
        <r>  0.0002  0.0070  0.0006 </r>
        <r>  0.0012  0.0187  0.0008 </r>
        <r>  0.0010  0.0411  0.0015 </r>
        <r>  0.0044  0.0486  0.0041 </r>
        <r>  0.0010  0.0411  0.0015 </r>
        <r>  0.0002  0.0070  0.0006 </r>
        <r>  0.0012  0.0188  0.0008 </r>
        <r>  0.0044  0.0486  0.0041 </r>
        <r>  0.0017  0.0484  0.0000 </r>
        <r>  0.0007  0.0184  0.0000 </r>
        <r>  0.0027  0.0113  0.0000 </r>
        <r>  0.0006  0.0060  0.0000 </r>
        <r>  0.0027  0.0068  0.0000 </r>
        <r>  0.0007  0.0184  0.0000 </r>
        <r>  0.0024  0.0170  0.0000 </r>
        <r>  0.0027  0.0068  0.0000 </r>
        <r>  0.0024  0.0170  0.0000 </r>
        <r>  0.0013  0.0072  0.0000 </r>
        <r>  0.0013  0.0072  0.0000 </r>
        <r>  0.0006  0.0060  0.0000 </r>
        <r>  0.0027  0.0113  0.0000 </r>
        <r>  0.0017  0.0485  0.0000 </r>
       </set>
       <set comment="band 84">
        <r>  0.0018  0.0005  0.0000 </r>
        <r>  0.0007  0.0006  0.0000 </r>
        <r>  0.0007  0.0006  0.0000 </r>
        <r>  0.0018  0.0005  0.0000 </r>
        <r>  0.0006  0.0271  0.0014 </r>
        <r>  0.0012  0.0426  0.0005 </r>
        <r>  0.0005  0.0326  0.0011 </r>
        <r>  0.0023  0.0179  0.0017 </r>
        <r>  0.0005  0.0332  0.0011 </r>
        <r>  0.0007  0.0277  0.0015 </r>
        <r>  0.0011  0.0419  0.0005 </r>
        <r>  0.0023  0.0181  0.0017 </r>
        <r>  0.0009  0.0359  0.0000 </r>
        <r>  0.0007  0.0203  0.0000 </r>
        <r>  0.0006  0.0046  0.0000 </r>
        <r>  0.0013  0.0191  0.0000 </r>
        <r>  0.0001  0.0051  0.0000 </r>
        <r>  0.0007  0.0206  0.0000 </r>
        <r>  0.0004  0.0074  0.0000 </r>
        <r>  0.0001  0.0050  0.0000 </r>
        <r>  0.0004  0.0077  0.0000 </r>
        <r>  0.0008  0.0246  0.0000 </r>
        <r>  0.0009  0.0250  0.0000 </r>
        <r>  0.0012  0.0188  0.0000 </r>
        <r>  0.0006  0.0045  0.0000 </r>
        <r>  0.0009  0.0363  0.0000 </r>
       </set>
      </set>
     </set>
    </set>
   </array>
  </projected>
 </calculation>
 <structure name="finalpos" >
  <crystal>
   <varray name="basis" >
    <v>      -7.16719961       0.08099198      -0.32476588 </v>
    <v>       1.94421923       9.03320599      -0.13823360 </v>
    <v>      -0.87166414      -1.69308867     -10.77634198 </v>
   </varray>
   <i name="volume">    699.58640513 </i>
   <varray name="rec_basis" >
    <v>      -0.13948092       0.03012075       0.00654985 </v>
    <v>       0.00203357       0.10999800      -0.01744645 </v>
    <v>       0.00417744      -0.00231875      -0.09276947 </v>
   </varray>
  </crystal>
  <varray name="positions" >
   <v>       0.31187903       0.34031610       0.12001583 </v>
   <v>       0.42129589       0.76651351       0.59177415 </v>
   <v>       0.57870411       0.23348649       0.40822585 </v>
   <v>       0.68812097       0.65968390       0.87998417 </v>
   <v>       0.02694692       0.94835125       0.33510935 </v>
   <v>       0.13787942       0.44813653       0.81469166 </v>
   <v>       0.75014992       0.13129101       0.05244889 </v>
   <v>       0.52291643       0.21118204       0.76027900 </v>
   <v>       0.24985008       0.86870899       0.94755111 </v>
   <v>       0.97305308       0.05164875       0.66489065 </v>
   <v>       0.86212058       0.55186347       0.18530834 </v>
   <v>       0.47708357       0.78881796       0.23972100 </v>
   <v>       0.80965236       0.84581975       0.13330029 </v>
   <v>       0.66780477       0.35020309       0.95357405 </v>
   <v>       0.46257571       0.45963755       0.69823047 </v>
   <v>       0.25889136       0.01948369       0.52279106 </v>
   <v>       0.04234974       0.68694790       0.36333319 </v>
   <v>       0.33219523       0.64979691       0.04642595 </v>
   <v>       0.43821414       0.08168198       0.17147443 </v>
   <v>       0.95765026       0.31305210       0.63666681 </v>
   <v>       0.56178586       0.91831802       0.82852557 </v>
   <v>       0.91593745       0.30091074       0.23344024 </v>
   <v>       0.08406255       0.69908926       0.76655976 </v>
   <v>       0.74110864       0.98051631       0.47720894 </v>
   <v>       0.53742429       0.54036245       0.30176953 </v>
   <v>       0.19034764       0.15418025       0.86669971 </v>
  </varray>
 </structure>
</modeling>
