/etc/profile: 第 79 行:ulimit: stack size: 无法修改 limit 值: 不允许的操作
/home/customer/.bashrc: 第 12 行:ulimit: stack size: 无法修改 limit 值: 不允许的操作
Intel(R) Parallel Studio XE 2018 Update 3 for Linux*
Copyright (C) 2009-2018 Intel Corporation. All rights reserved.
 running on   14 total cores
 distrk:  each k-point on   14 cores,    1 groups
 distr:  one band on    1 cores,   14 groups
 using from now: INCAR     
 vasp.5.4.4.18Apr17-6-g9f103f2a35 (build Oct 27 2022 13:04:57) complex          
  
 POSCAR found type information on POSCAR  Na Sb S 
 POSCAR found :  3 types and      26 ions
 scaLAPACK will be used

 ----------------------------------------------------------------------------- 
|                                                                             |
|           W    W    AA    RRRRR   N    N  II  N    N   GGGG   !!!           |
|           W    W   A  A   R    R  NN   N  II  NN   N  G    G  !!!           |
|           W    W  A    A  R    R  N N  N  II  N N  N  G       !!!           |
|           W WW W  AAAAAA  RRRRR   N  N N  II  N  N N  G  GGG   !            |
|           WW  WW  A    A  R   R   N   NN  II  N   NN  G    G                |
|           W    W  A    A  R    R  N    N  II  N    N   GGGG   !!!           |
|                                                                             |
|      For optimal performance we recommend to set                            |
|        NCORE= 4 - approx SQRT( number of cores)                             |
|      NCORE specifies how many cores store one orbital (NPAR=cpu/NCORE).     |
|      This setting can  greatly improve the performance of VASP for DFT.     |
|      The default,   NCORE=1            might be grossly inefficient         |
|      on modern multi-core architectures or massively parallel machines.     |
|      Do your own testing !!!!                                               |
|      Unfortunately you need to use the default for GW and RPA calculations. |
|      (for HF NCORE is supported but not extensively tested yet)             |
|                                                                             |
 ----------------------------------------------------------------------------- 

 LDA part: xc-table for Pade appr. of Perdew
 POSCAR, INCAR and KPOINTS ok, starting setup
 FFT: planning ...
 WAVECAR not read
 entering main loop
       N       E                     dE             d eps       ncg     rms          rms(c)
DAV:   1     0.591041474386E+03    0.59104E+03   -0.35058E+04  1008   0.799E+02
DAV:   2    -0.415488007203E+02   -0.63259E+03   -0.61290E+03  1260   0.184E+02
DAV:   3    -0.112588783670E+03   -0.71040E+02   -0.70005E+02  1246   0.671E+01
DAV:   4    -0.115304976036E+03   -0.27162E+01   -0.26977E+01  1372   0.150E+01
DAV:   5    -0.115408880745E+03   -0.10390E+00   -0.10383E+00  1414   0.268E+00    0.210E+01
DAV:   6    -0.109240320491E+03    0.61686E+01   -0.14168E+01  1176   0.942E+00    0.161E+01
DAV:   7    -0.109297056519E+03   -0.56736E-01   -0.38502E+00  1274   0.453E+00    0.693E+00
DAV:   8    -0.109279840802E+03    0.17216E-01   -0.26992E-01  1274   0.164E+00    0.236E+00
DAV:   9    -0.109288469133E+03   -0.86283E-02   -0.62973E-02  1260   0.834E-01    0.580E-01
DAV:  10    -0.109289361194E+03   -0.89206E-03   -0.53276E-03  1330   0.224E-01    0.281E-01
DAV:  11    -0.109290730599E+03   -0.13694E-02   -0.16827E-03  1176   0.135E-01    0.124E-01
DAV:  12    -0.109290988198E+03   -0.25760E-03   -0.27321E-04  1022   0.510E-02    0.519E-02
DAV:  13    -0.109291195580E+03   -0.20738E-03   -0.30413E-04  1022   0.520E-02    0.305E-02
DAV:  14    -0.109291201229E+03   -0.56495E-05   -0.16253E-05   756   0.140E-02
   1 F= -.10929120E+03 E0= -.10929120E+03  d E =-.109291E+03
 curvature:   0.00 expect dE= 0.000E+00 dE for cont linesearch  0.000E+00
 trial: gam= 0.00000 g(F)=  0.190E-03 g(S)=  0.142E-03 ort = 0.000E+00 (trialstep = 0.100E+01)
 search vector abs. value=  0.332E-03
 bond charge predicted
       N       E                     dE             d eps       ncg     rms          rms(c)
DAV:   1    -0.109291518749E+03   -0.32317E-03   -0.21612E-03  1176   0.123E-01    0.619E-02
DAV:   2    -0.109291479361E+03    0.39388E-04   -0.16350E-04   756   0.383E-02
   2 F= -.10929148E+03 E0= -.10929148E+03  d E =-.278131E-03
 ZBRENT: can't locate minimum, use default step
 trial-energy change:   -0.000278  1 .order   -0.000304   -0.000332   -0.000276
 step:   4.0000(harm=  5.9155)  dis= 0.00142  next Energy=  -109.292184 (dE=-0.983E-03)
 bond charge predicted
       N       E                     dE             d eps       ncg     rms          rms(c)
DAV:   1    -0.109292144632E+03   -0.62588E-03   -0.18267E-02  1176   0.356E-01    0.176E-01
DAV:   2    -0.109291797422E+03    0.34721E-03   -0.16064E-03  1232   0.110E-01    0.698E-02
DAV:   3    -0.109291711496E+03    0.85926E-04   -0.20306E-04   756   0.376E-02
   3 F= -.10929171E+03 E0= -.10929171E+03  d E =-.510267E-03
 curvature:  -2.51 expect dE=-0.831E-03 dE for cont linesearch -0.490E-05
 trial: gam= 0.92017 g(F)=  0.291E-03 g(S)=  0.403E-04 ort = 0.255E-04 (trialstep = 0.806E+00)
 search vector abs. value=  0.660E-03
 bond charge predicted
       N       E                     dE             d eps       ncg     rms          rms(c)
DAV:   1    -0.109291864569E+03   -0.67147E-04   -0.17368E-03  1176   0.112E-01    0.328E-02
DAV:   2    -0.109291850283E+03    0.14286E-04   -0.11821E-04   756   0.339E-02
   4 F= -.10929185E+03 E0= -.10929185E+03  d E =-.138787E-03
 trial-energy change:   -0.000139  1 .order   -0.000201   -0.000286   -0.000115
 step:   1.3521(harm=  1.3521)  dis= 0.00119  next Energy=  -109.291951 (dE=-0.240E-03)
 bond charge predicted
       N       E                     dE             d eps       ncg     rms          rms(c)
DAV:   1    -0.109291860002E+03    0.45674E-05   -0.89833E-04  1106   0.788E-02    0.230E-02
DAV:   2    -0.109291853565E+03    0.64369E-05   -0.67765E-05   756   0.267E-02
   5 F= -.10929185E+03 E0= -.10929185E+03  d E =-.142069E-03
 curvature:  -1.26 expect dE=-0.732E-03 dE for cont linesearch -0.388E-05
 trial: gam= 1.60002 g(F)=  0.426E-03 g(S)=  0.156E-03 ort =-0.451E-04 (trialstep = 0.284E+00)
 search vector abs. value=  0.213E-02
 bond charge predicted
       N       E                     dE             d eps       ncg     rms          rms(c)
DAV:   1    -0.109291945872E+03   -0.85870E-04   -0.82090E-04  1106   0.746E-02    0.152E-02
DAV:   2    -0.109291947058E+03   -0.11857E-05   -0.53215E-05   756   0.240E-02
   6 F= -.10929195E+03 E0= -.10929195E+03  d E =-.934929E-04
 trial-energy change:   -0.000093  1 .order   -0.000092   -0.000145   -0.000040
 step:   0.3914(harm=  0.3914)  dis= 0.00062  next Energy=  -109.291953 (dE=-0.998E-04)
 bond charge predicted
       N       E                     dE             d eps       ncg     rms          rms(c)
DAV:   1    -0.109291952768E+03   -0.68959E-05   -0.11176E-04   756   0.303E-02    0.115E-02
DAV:   2    -0.109291954063E+03   -0.12951E-05   -0.25284E-05   756   0.174E-02
   7 F= -.10929195E+03 E0= -.10929195E+03  d E =-.100498E-03
 curvature:  -0.82 expect dE=-0.301E-03 dE for cont linesearch -0.287E-06
 trial: gam= 0.15828 g(F)=  0.234E-03 g(S)=  0.135E-03 ort = 0.273E-04 (trialstep = 0.305E+00)
 search vector abs. value=  0.431E-03
 bond charge predicted
       N       E                     dE             d eps       ncg     rms          rms(c)
DAV:   1    -0.109292041467E+03   -0.88699E-04   -0.26930E-04   910   0.435E-02    0.128E-02
DAV:   2    -0.109292040465E+03    0.10022E-05   -0.28507E-05   756   0.183E-02
   8 F= -.10929204E+03 E0= -.10929204E+03  d E =-.864016E-04
 trial-energy change:   -0.000086  1 .order   -0.000092   -0.000114   -0.000069
 step:   0.7794(harm=  0.7794)  dis= 0.00046  next Energy=  -109.292099 (dE=-0.145E-03)
 bond charge predicted
       N       E                     dE             d eps       ncg     rms          rms(c)
DAV:   1    -0.109292139924E+03   -0.98457E-04   -0.59935E-04  1092   0.643E-02    0.254E-02
DAV:   2    -0.109292134295E+03    0.56291E-05   -0.45835E-05   756   0.217E-02
   9 F= -.10929213E+03 E0= -.10929213E+03  d E =-.180232E-03
 curvature:  -0.45 expect dE=-0.127E-03 dE for cont linesearch -0.461E-04
 ZBRENT: increasing intervall
 opt :   1.7274  next Energy=  -109.292318 (dE=-0.364E-03)
 bond charge predicted
       N       E                     dE             d eps       ncg     rms          rms(c)
DAV:   1    -0.109292299487E+03   -0.15956E-03   -0.22759E-03  1162   0.125E-01    0.572E-02
DAV:   2    -0.109292273352E+03    0.26135E-04   -0.16841E-04   756   0.398E-02
  10 F= -.10929227E+03 E0= -.10929227E+03  d E =-.319289E-03
 curvature:  -1.79 expect dE=-0.577E-03 dE for cont linesearch -0.612E-04
 ZBRENT: increasing intervall
 opt :   3.6234  next Energy=  -109.292335 (dE=-0.381E-03)
 bond charge predicted
       N       E                     dE             d eps       ncg     rms          rms(c)
DAV:   1    -0.109292391044E+03   -0.91557E-04   -0.90209E-03  1134   0.249E-01    0.109E-01
DAV:   2    -0.109292297947E+03    0.93097E-04   -0.77278E-04  1232   0.785E-02
  11 F= -.10929230E+03 E0= -.10929230E+03  d E =-.343884E-03
 curvature:  -1.81 expect dE=-0.601E-03 dE for cont linesearch -0.128E-05
 trial: gam= 0.78441 g(F)=  0.267E-03 g(S)=  0.660E-04 ort = 0.175E-04 (trialstep = 0.667E+00)
 search vector abs. value=  0.625E-03
 bond charge predicted
       N       E                     dE             d eps       ncg     rms          rms(c)
DAV:   1    -0.109292411747E+03   -0.20703E-04   -0.16451E-03  1148   0.104E-01    0.523E-02
DAV:   2    -0.109292354735E+03    0.57012E-04   -0.13450E-04   756   0.346E-02
  12 F= -.10929235E+03 E0= -.10929235E+03  d E =-.567881E-04
 trial-energy change:   -0.000057  1 .order   -0.000170   -0.000231   -0.000109
 step:   1.2667(harm=  1.2667)  dis= 0.00073  next Energy=  -109.292518 (dE=-0.220E-03)
 bond charge predicted
       N       E                     dE             d eps       ncg     rms          rms(c)
DAV:   1    -0.109292413918E+03   -0.21717E-05   -0.12017E-03  1148   0.897E-02    0.350E-02
DAV:   2    -0.109292389522E+03    0.24396E-04   -0.98705E-05   714   0.301E-02
  13 F= -.10929239E+03 E0= -.10929239E+03  d E =-.915753E-04
 curvature:  -1.14 expect dE=-0.258E-03 dE for cont linesearch -0.362E-04
 trial: gam= 0.11206 g(F)=  0.192E-03 g(S)=  0.333E-04 ort = 0.141E-03 (trialstep = 0.787E+00)
 search vector abs. value=  0.265E-03
 reached required accuracy - stopping structural energy minimisation
