/etc/profile: 第 79 行:ulimit: stack size: 无法修改 limit 值: 不允许的操作
/home/customer/.bashrc: 第 12 行:ulimit: stack size: 无法修改 limit 值: 不允许的操作
Intel(R) Parallel Studio XE 2018 Update 3 for Linux*
Copyright (C) 2009-2018 Intel Corporation. All rights reserved.
 running on   14 total cores
 distrk:  each k-point on   14 cores,    1 groups
 distr:  one band on    1 cores,   14 groups
 using from now: INCAR     
 vasp.5.4.4.18Apr17-6-g9f103f2a35 (build Oct 27 2022 13:04:57) complex          
  
 POSCAR found type information on POSCAR  Na Sb S 
 POSCAR found :  3 types and      26 ions
 scaLAPACK will be used

 ----------------------------------------------------------------------------- 
|                                                                             |
|           W    W    AA    RRRRR   N    N  II  N    N   GGGG   !!!           |
|           W    W   A  A   R    R  NN   N  II  NN   N  G    G  !!!           |
|           W    W  A    A  R    R  N N  N  II  N N  N  G       !!!           |
|           W WW W  AAAAAA  RRRRR   N  N N  II  N  N N  G  GGG   !            |
|           WW  WW  A    A  R   R   N   NN  II  N   NN  G    G                |
|           W    W  A    A  R    R  N    N  II  N    N   GGGG   !!!           |
|                                                                             |
|      For optimal performance we recommend to set                            |
|        NCORE= 4 - approx SQRT( number of cores)                             |
|      NCORE specifies how many cores store one orbital (NPAR=cpu/NCORE).     |
|      This setting can  greatly improve the performance of VASP for DFT.     |
|      The default,   NCORE=1            might be grossly inefficient         |
|      on modern multi-core architectures or massively parallel machines.     |
|      Do your own testing !!!!                                               |
|      Unfortunately you need to use the default for GW and RPA calculations. |
|      (for HF NCORE is supported but not extensively tested yet)             |
|                                                                             |
 ----------------------------------------------------------------------------- 

 LDA part: xc-table for Pade appr. of Perdew
 POSCAR, INCAR and KPOINTS ok, starting setup
 FFT: planning ...
 WAVECAR not read
 entering main loop
       N       E                     dE             d eps       ncg     rms          rms(c)
DAV:   1     0.597948739943E+03    0.59795E+03   -0.35017E+04  1008   0.800E+02
DAV:   2    -0.393324285796E+02   -0.63728E+03   -0.61697E+03  1260   0.184E+02
DAV:   3    -0.112335699126E+03   -0.73003E+02   -0.71844E+02  1246   0.676E+01
DAV:   4    -0.115241765800E+03   -0.29061E+01   -0.28879E+01  1428   0.153E+01
DAV:   5    -0.115330688569E+03   -0.88923E-01   -0.88848E-01  1344   0.255E+00    0.211E+01
DAV:   6    -0.109185281253E+03    0.61454E+01   -0.14121E+01  1176   0.939E+00    0.161E+01
DAV:   7    -0.109245339144E+03   -0.60058E-01   -0.38348E+00  1260   0.448E+00    0.686E+00
DAV:   8    -0.109227416221E+03    0.17923E-01   -0.26352E-01  1260   0.162E+00    0.233E+00
DAV:   9    -0.109236602803E+03   -0.91866E-02   -0.62358E-02  1246   0.832E-01    0.585E-01
DAV:  10    -0.109237519774E+03   -0.91697E-03   -0.51968E-03  1386   0.218E-01    0.282E-01
DAV:  11    -0.109238943825E+03   -0.14241E-02   -0.16414E-03  1176   0.133E-01    0.126E-01
DAV:  12    -0.109239246417E+03   -0.30259E-03   -0.31253E-04  1092   0.529E-02    0.500E-02
DAV:  13    -0.109239451190E+03   -0.20477E-03   -0.27941E-04  1008   0.499E-02    0.292E-02
DAV:  14    -0.109239459552E+03   -0.83615E-05   -0.17706E-05   756   0.146E-02
   1 F= -.10923946E+03 E0= -.10923946E+03  d E =-.109239E+03
 curvature:   0.00 expect dE= 0.000E+00 dE for cont linesearch  0.000E+00
 trial: gam= 0.00000 g(F)=  0.381E-02 g(S)=  0.102E-03 ort = 0.000E+00 (trialstep = 0.100E+01)
 search vector abs. value=  0.391E-02
 bond charge predicted
       N       E                     dE             d eps       ncg     rms          rms(c)
DAV:   1    -0.109242737793E+03   -0.32866E-02   -0.11260E-02  1176   0.295E-01    0.811E-02
DAV:   2    -0.109242796067E+03   -0.58273E-04   -0.89849E-04  1260   0.793E-02
   2 F= -.10924280E+03 E0= -.10924280E+03  d E =-.333651E-02
 trial-energy change:   -0.003337  1 .order   -0.003401   -0.003913   -0.002890
 step:   3.8248(harm=  3.8248)  dis= 0.00947  next Energy=  -109.246942 (dE=-0.748E-02)
 bond charge predicted
       N       E                     dE             d eps       ncg     rms          rms(c)
DAV:   1    -0.109248310534E+03   -0.55727E-02   -0.88944E-02  1176   0.829E-01    0.231E-01
DAV:   2    -0.109248722848E+03   -0.41231E-03   -0.68869E-03  1260   0.220E-01    0.847E-02
DAV:   3    -0.109248668157E+03    0.54691E-04   -0.30633E-04  1106   0.559E-02
   3 F= -.10924867E+03 E0= -.10924867E+03  d E =-.920861E-02
 curvature:  -1.91 expect dE=-0.469E-02 dE for cont linesearch -0.785E-03
 ZBRENT: increasing intervall
 opt :   9.4744  next Energy=  -109.246662 (dE=-0.720E-02)
 bond charge predicted
       N       E                     dE             d eps       ncg     rms          rms(c)
DAV:   1    -0.109248089690E+03    0.63316E-03   -0.35797E-01  1064   0.166E+00    0.470E-01
DAV:   2    -0.109249761409E+03   -0.16717E-02   -0.27830E-02  1260   0.440E-01    0.173E-01
DAV:   3    -0.109249561026E+03    0.20038E-03   -0.13453E-03  1358   0.111E-01    0.845E-02
DAV:   4    -0.109249492717E+03    0.68309E-04   -0.23465E-04   882   0.437E-02
   4 F= -.10924949E+03 E0= -.10924949E+03  d E =-.100332E-01
 curvature:   4.89 expect dE= 0.224E-01 dE for cont linesearch  0.190E-03
 trial: gam= 1.27340 g(F)=  0.374E-02 g(S)=  0.849E-03 ort =-0.390E-03 (trialstep = 0.106E+01)
 search vector abs. value=  0.994E-02
 bond charge predicted
       N       E                     dE             d eps       ncg     rms          rms(c)
DAV:   1    -0.109253619730E+03   -0.40587E-02   -0.47786E-02  1148   0.587E-01    0.171E-01
DAV:   2    -0.109253518641E+03    0.10109E-03   -0.35365E-03  1260   0.167E-01    0.834E-02
DAV:   3    -0.109253447278E+03    0.71363E-04   -0.26746E-04   910   0.475E-02
   5 F= -.10925345E+03 E0= -.10925345E+03  d E =-.395456E-02
 ZBRENT: can't locate minimum, use default step
 trial-energy change:   -0.003955  1 .order   -0.004358   -0.004343   -0.004374
 step:   4.2414(harm=  4.2414)  dis= 0.01513  next Energy=  -109.267111 (dE=-0.176E-01)
 bond charge predicted
       N       E                     dE             d eps       ncg     rms          rms(c)
DAV:   1    -0.109260184950E+03   -0.66663E-02   -0.43134E-01  1008   0.176E+00    0.510E-01
DAV:   2    -0.109259223580E+03    0.96137E-03   -0.31472E-02  1260   0.497E-01    0.252E-01
DAV:   3    -0.109258579035E+03    0.64455E-03   -0.25864E-03  1358   0.138E-01    0.135E-01
DAV:   4    -0.109258307768E+03    0.27127E-03   -0.32506E-04   952   0.532E-02    0.599E-02
DAV:   5    -0.109258230560E+03    0.77207E-04   -0.18735E-04   756   0.393E-02
   6 F= -.10925823E+03 E0= -.10925823E+03  d E =-.873784E-02
 curvature:  -7.75 expect dE=-0.235E-01 dE for cont linesearch -0.188E-02
 ZBRENT: interpolating
 opt :   3.3711  next Energy=  -109.258907 (dE=-0.941E-02)
 bond charge predicted
       N       E                     dE             d eps       ncg     rms          rms(c)
DAV:   1    -0.109259106503E+03   -0.79874E-03   -0.33486E-02  1092   0.488E-01    0.143E-01
DAV:   2    -0.109259047550E+03    0.58953E-04   -0.24106E-03  1260   0.139E-01    0.771E-02
DAV:   3    -0.109259001902E+03    0.45648E-04   -0.15912E-04   756   0.381E-02
   7 F= -.10925900E+03 E0= -.10925900E+03  d E =-.950918E-02
 curvature:  -2.79 expect dE=-0.103E-01 dE for cont linesearch -0.120E-03
 trial: gam= 0.32201 g(F)=  0.353E-02 g(S)=  0.162E-03 ort = 0.655E-03 (trialstep = 0.152E+01)
 search vector abs. value=  0.515E-02
 bond charge predicted
       N       E                     dE             d eps       ncg     rms          rms(c)
DAV:   1    -0.109262384145E+03   -0.33366E-02   -0.58076E-02  1050   0.634E-01    0.180E-01
DAV:   2    -0.109262691768E+03   -0.30762E-03   -0.48822E-03  1260   0.197E-01    0.813E-02
DAV:   3    -0.109262675779E+03    0.15989E-04   -0.26947E-04   938   0.522E-02
   8 F= -.10926268E+03 E0= -.10926268E+03  d E =-.367388E-02
 trial-energy change:   -0.003674  1 .order   -0.004482   -0.005949   -0.003015
 step:   3.0866(harm=  3.0866)  dis= 0.00915  next Energy=  -109.265033 (dE=-0.603E-02)
 bond charge predicted
       N       E                     dE             d eps       ncg     rms          rms(c)
DAV:   1    -0.109264676851E+03   -0.19851E-02   -0.59917E-02  1008   0.643E-01    0.179E-01
DAV:   2    -0.109264922189E+03   -0.24534E-03   -0.46628E-03  1260   0.195E-01    0.912E-02
DAV:   3    -0.109264888327E+03    0.33863E-04   -0.28620E-04  1036   0.531E-02
   9 F= -.10926489E+03 E0= -.10926489E+03  d E =-.588643E-02
 curvature:  -2.03 expect dE=-0.274E-02 dE for cont linesearch -0.389E-03
 ZBRENT: increasing intervall
 opt :   6.2148  next Energy=  -109.264905 (dE=-0.590E-02)
 bond charge predicted
       N       E                     dE             d eps       ncg     rms          rms(c)
DAV:   1    -0.109263072388E+03    0.18498E-02   -0.23980E-01  1008   0.129E+00    0.359E-01
DAV:   2    -0.109264143109E+03   -0.10707E-02   -0.19124E-02  1260   0.393E-01    0.177E-01
DAV:   3    -0.109264052981E+03    0.90128E-04   -0.13098E-03  1414   0.106E-01    0.947E-02
DAV:   4    -0.109263972559E+03    0.80422E-04   -0.13583E-04   770   0.363E-02
  10 F= -.10926397E+03 E0= -.10926397E+03  d E =-.497066E-02
 curvature:  -0.09 expect dE=-0.240E-03 dE for cont linesearch -0.532E-04
 ZBRENT: bracketing found
 ZBRENT: interpolating
 opt :   4.2036  next Energy=  -109.265443 (dE=-0.644E-02)
 bond charge predicted
       N       E                     dE             d eps       ncg     rms          rms(c)
DAV:   1    -0.109265206228E+03   -0.11532E-02   -0.10301E-01  1008   0.841E-01    0.225E-01
DAV:   2    -0.109265787465E+03   -0.58124E-03   -0.84267E-03  1260   0.259E-01    0.892E-02
DAV:   3    -0.109265751634E+03    0.35831E-04   -0.45037E-04  1260   0.642E-02
  11 F= -.10926575E+03 E0= -.10926575E+03  d E =-.674973E-02
 curvature:  -0.89 expect dE=-0.108E-02 dE for cont linesearch -0.110E-04
 ZBRENT: interpolating
 opt :   4.5368  next Energy=  -109.265799 (dE=-0.680E-02)
 bond charge predicted
       N       E                     dE             d eps       ncg     rms          rms(c)
DAV:   1    -0.109265771956E+03    0.15509E-04   -0.29135E-03  1064   0.143E-01    0.619E-02
DAV:   2    -0.109265789290E+03   -0.17334E-04   -0.35091E-04  1050   0.503E-02
  12 F= -.10926579E+03 E0= -.10926579E+03  d E =-.678739E-02
 curvature:  -3.82 expect dE=-0.513E-02 dE for cont linesearch -0.407E-04
 trial: gam= 0.40297 g(F)=  0.988E-03 g(S)=  0.354E-03 ort =-0.234E-03 (trialstep = 0.213E+01)
 search vector abs. value=  0.199E-02
 bond charge predicted
       N       E                     dE             d eps       ncg     rms          rms(c)
DAV:   1    -0.109267524946E+03   -0.17530E-02   -0.55221E-02  1008   0.607E-01    0.184E-01
DAV:   2    -0.109267638051E+03   -0.11310E-03   -0.42579E-03  1302   0.186E-01    0.786E-02
DAV:   3    -0.109267579076E+03    0.58975E-04   -0.20096E-04   840   0.466E-02
  13 F= -.10926758E+03 E0= -.10926758E+03  d E =-.178979E-02
 trial-energy change:   -0.001790  1 .order   -0.001930   -0.002651   -0.001209
 step:   3.9073(harm=  3.9073)  dis= 0.00535  next Energy=  -109.268226 (dE=-0.244E-02)
 bond charge predicted
       N       E                     dE             d eps       ncg     rms          rms(c)
DAV:   1    -0.109267972230E+03   -0.33418E-03   -0.37136E-02  1008   0.498E-01    0.148E-01
DAV:   2    -0.109267982236E+03   -0.10007E-04   -0.27421E-03  1302   0.150E-01    0.687E-02
DAV:   3    -0.109267929503E+03    0.52734E-04   -0.14776E-04   798   0.393E-02
  14 F= -.10926793E+03 E0= -.10926793E+03  d E =-.214021E-02
 curvature:  -3.12 expect dE=-0.436E-02 dE for cont linesearch -0.287E-04
 trial: gam= 0.82072 g(F)=  0.125E-02 g(S)=  0.149E-03 ort = 0.135E-03 (trialstep = 0.167E+01)
 search vector abs. value=  0.296E-02
 bond charge predicted
       N       E                     dE             d eps       ncg     rms          rms(c)
DAV:   1    -0.109269849972E+03   -0.18677E-02   -0.53807E-02  1022   0.593E-01    0.177E-01
DAV:   2    -0.109269775018E+03    0.74954E-04   -0.38542E-03  1302   0.177E-01    0.783E-02
DAV:   3    -0.109269679983E+03    0.95035E-04   -0.18037E-04   826   0.439E-02
  15 F= -.10926968E+03 E0= -.10926968E+03  d E =-.175048E-02
 trial-energy change:   -0.001750  1 .order   -0.002127   -0.002518   -0.001736
 step:   5.3626(harm=  5.3626)  dis= 0.00581  next Energy=  -109.271981 (dE=-0.405E-02)
 bond charge predicted
       N       E                     dE             d eps       ncg     rms          rms(c)
DAV:   1    -0.109271720299E+03   -0.19453E-02   -0.26824E-01  1008   0.133E+00    0.397E-01
DAV:   2    -0.109271517691E+03    0.20261E-03   -0.19368E-02  1274   0.395E-01    0.172E-01
DAV:   3    -0.109271097913E+03    0.41978E-03   -0.10359E-03  1344   0.950E-02    0.115E-01
DAV:   4    -0.109270896375E+03    0.20154E-03   -0.29780E-04   924   0.502E-02    0.551E-02
DAV:   5    -0.109270872527E+03    0.23848E-04   -0.15369E-04   756   0.362E-02
  16 F= -.10927087E+03 E0= -.10927087E+03  d E =-.294302E-02
 curvature:  -5.26 expect dE=-0.950E-02 dE for cont linesearch -0.231E-04
 trial: gam= 1.10918 g(F)=  0.142E-02 g(S)=  0.388E-03 ort =-0.114E-03 (trialstep = 0.137E+01)
 search vector abs. value=  0.520E-02
 bond charge predicted
       N       E                     dE             d eps       ncg     rms          rms(c)
DAV:   1    -0.109271935490E+03   -0.10391E-02   -0.58938E-02  1022   0.622E-01    0.171E-01
DAV:   2    -0.109272254965E+03   -0.31947E-03   -0.47617E-03  1260   0.193E-01    0.617E-02
DAV:   3    -0.109272218794E+03    0.36171E-04   -0.11733E-04   784   0.394E-02
  17 F= -.10927222E+03 E0= -.10927222E+03  d E =-.134627E-02
 trial-energy change:   -0.001346  1 .order   -0.001525   -0.002305   -0.000745
 step:   2.0258(harm=  2.0258)  dis= 0.00330  next Energy=  -109.272575 (dE=-0.170E-02)
 bond charge predicted
       N       E                     dE             d eps       ncg     rms          rms(c)
DAV:   1    -0.109272465555E+03   -0.21059E-03   -0.12449E-02  1092   0.285E-01    0.744E-02
DAV:   2    -0.109272516283E+03   -0.50728E-04   -0.93678E-04  1316   0.859E-02
  18 F= -.10927252E+03 E0= -.10927252E+03  d E =-.164376E-02
 curvature:  -3.13 expect dE=-0.367E-02 dE for cont linesearch -0.136E-03
 ZBRENT: increasing intervall
 opt :   3.3359  next Energy=  -109.273048 (dE=-0.218E-02)
 bond charge predicted
       N       E                     dE             d eps       ncg     rms          rms(c)
DAV:   1    -0.109272559100E+03   -0.93545E-04   -0.53880E-02  1022   0.591E-01    0.155E-01
DAV:   2    -0.109272808537E+03   -0.24944E-03   -0.41498E-03  1260   0.183E-01    0.703E-02
DAV:   3    -0.109272764801E+03    0.43736E-04   -0.10339E-04   798   0.364E-02
  19 F= -.10927276E+03 E0= -.10927276E+03  d E =-.189227E-02
 curvature: -12.26 expect dE=-0.188E-01 dE for cont linesearch -0.702E-05
 trial: gam= 0.44063 g(F)=  0.111E-02 g(S)=  0.424E-03 ort = 0.546E-04 (trialstep = 0.176E+01)
 search vector abs. value=  0.259E-02
 bond charge predicted
       N       E                     dE             d eps       ncg     rms          rms(c)
DAV:   1    -0.109274697956E+03   -0.18894E-02   -0.49092E-02  1064   0.580E-01    0.178E-01
DAV:   2    -0.109274729021E+03   -0.31065E-04   -0.37177E-03  1260   0.175E-01    0.760E-02
DAV:   3    -0.109274657585E+03    0.71436E-04   -0.18718E-04   784   0.447E-02
  20 F= -.10927466E+03 E0= -.10927466E+03  d E =-.189278E-02
 trial-energy change:   -0.001893  1 .order   -0.001782   -0.002744   -0.000820
 step:   2.5151(harm=  2.5151)  dis= 0.00332  next Energy=  -109.274721 (dE=-0.196E-02)
 bond charge predicted
       N       E                     dE             d eps       ncg     rms          rms(c)
DAV:   1    -0.109274833322E+03   -0.10430E-03   -0.82262E-03  1162   0.237E-01    0.735E-02
DAV:   2    -0.109274809628E+03    0.23694E-04   -0.59983E-04  1260   0.713E-02
  21 F= -.10927481E+03 E0= -.10927481E+03  d E =-.204483E-02
 curvature:  -2.09 expect dE=-0.230E-02 dE for cont linesearch -0.762E-04
 ZBRENT: increasing intervall
 opt :   4.0177  next Energy=  -109.275034 (dE=-0.227E-02)
 bond charge predicted
       N       E                     dE             d eps       ncg     rms          rms(c)
DAV:   1    -0.109274959875E+03   -0.12655E-03   -0.36725E-02  1092   0.500E-01    0.157E-01
DAV:   2    -0.109274923233E+03    0.36642E-04   -0.28008E-03  1260   0.154E-01    0.737E-02
DAV:   3    -0.109274849051E+03    0.74182E-04   -0.13979E-04   742   0.390E-02
  22 F= -.10927485E+03 E0= -.10927485E+03  d E =-.208425E-02
 curvature:  -6.16 expect dE=-0.565E-02 dE for cont linesearch -0.701E-05
 trial: gam= 0.49728 g(F)=  0.729E-03 g(S)=  0.188E-03 ort = 0.543E-04 (trialstep = 0.221E+01)
 search vector abs. value=  0.161E-02
 bond charge predicted
       N       E                     dE             d eps       ncg     rms          rms(c)
DAV:   1    -0.109276017950E+03   -0.10947E-02   -0.49868E-02  1036   0.584E-01    0.176E-01
DAV:   2    -0.109276028311E+03   -0.10361E-04   -0.34700E-03  1274   0.170E-01    0.721E-02
DAV:   3    -0.109275930111E+03    0.98200E-04   -0.14996E-04   784   0.431E-02
  23 F= -.10927593E+03 E0= -.10927593E+03  d E =-.108106E-02
 trial-energy change:   -0.001081  1 .order   -0.001416   -0.002089   -0.000742
 step:   3.4348(harm=  3.4348)  dis= 0.00356  next Energy=  -109.276469 (dE=-0.162E-02)
 bond charge predicted
       N       E                     dE             d eps       ncg     rms          rms(c)
DAV:   1    -0.109276012853E+03    0.15458E-04   -0.14197E-02  1148   0.311E-01    0.950E-02
DAV:   2    -0.109275998391E+03    0.14461E-04   -0.95779E-04  1316   0.888E-02
  24 F= -.10927600E+03 E0= -.10927600E+03  d E =-.114934E-02
 curvature:  -2.93 expect dE=-0.274E-02 dE for cont linesearch -0.377E-06
 trial: gam= 0.76061 g(F)=  0.828E-03 g(S)=  0.107E-03 ort = 0.144E-04 (trialstep = 0.210E+01)
 search vector abs. value=  0.189E-02
 bond charge predicted
       N       E                     dE             d eps       ncg     rms          rms(c)
DAV:   1    -0.109277053332E+03   -0.10405E-02   -0.43675E-02  1036   0.540E-01    0.149E-01
DAV:   2    -0.109277135613E+03   -0.82281E-04   -0.32887E-03  1274   0.162E-01    0.655E-02
DAV:   3    -0.109277068409E+03    0.67204E-04   -0.10526E-04   812   0.375E-02
  25 F= -.10927707E+03 E0= -.10927707E+03  d E =-.107002E-02
 trial-energy change:   -0.001070  1 .order   -0.001477   -0.001984   -0.000970
 step:   4.0999(harm=  4.0999)  dis= 0.00401  next Energy=  -109.277939 (dE=-0.194E-02)
 bond charge predicted
       N       E                     dE             d eps       ncg     rms          rms(c)
DAV:   1    -0.109277415921E+03   -0.28031E-03   -0.37789E-02  1050   0.504E-01    0.137E-01
DAV:   2    -0.109277519618E+03   -0.10370E-03   -0.28131E-03  1288   0.147E-01    0.511E-02
DAV:   3    -0.109277474755E+03    0.44862E-04   -0.82498E-05   770   0.330E-02
  26 F= -.10927747E+03 E0= -.10927747E+03  d E =-.147636E-02
 curvature:  -4.09 expect dE=-0.279E-02 dE for cont linesearch -0.311E-04
 trial: gam= 0.39970 g(F)=  0.506E-03 g(S)=  0.175E-03 ort = 0.120E-03 (trialstep = 0.250E+01)
 search vector abs. value=  0.108E-02
 bond charge predicted
       N       E                     dE             d eps       ncg     rms          rms(c)
DAV:   1    -0.109278312900E+03   -0.79328E-03   -0.37860E-02  1022   0.510E-01    0.172E-01
DAV:   2    -0.109278287068E+03    0.25832E-04   -0.31735E-03  1260   0.156E-01    0.684E-02
DAV:   3    -0.109278223424E+03    0.63644E-04   -0.14247E-04   784   0.385E-02
  27 F= -.10927822E+03 E0= -.10927822E+03  d E =-.748669E-03
 trial-energy change:   -0.000749  1 .order   -0.000929   -0.001820   -0.000038
 step:   2.5505(harm=  2.5505)  dis= 0.00214  next Energy=  -109.278404 (dE=-0.930E-03)
 bond charge predicted
       N       E                     dE             d eps       ncg     rms          rms(c)
DAV:   1    -0.109278195234E+03    0.91834E-04   -0.80690E-05   756   0.273E-02    0.176E-02
DAV:   2    -0.109278197450E+03   -0.22157E-05   -0.23051E-05   728   0.157E-02
  28 F= -.10927820E+03 E0= -.10927820E+03  d E =-.722694E-03
 curvature:  -1.89 expect dE=-0.912E-03 dE for cont linesearch -0.626E-05
 trial: gam= 0.79530 g(F)=  0.376E-03 g(S)=  0.107E-03 ort =-0.598E-04 (trialstep = 0.251E+01)
 search vector abs. value=  0.107E-02
 bond charge predicted
       N       E                     dE             d eps       ncg     rms          rms(c)
DAV:   1    -0.109278745046E+03   -0.54981E-03   -0.48714E-02  1022   0.566E-01    0.168E-01
DAV:   2    -0.109279021498E+03   -0.27645E-03   -0.39009E-03  1316   0.174E-01    0.550E-02
DAV:   3    -0.109278984124E+03    0.37374E-04   -0.87430E-05   756   0.347E-02
  29 F= -.10927898E+03 E0= -.10927898E+03  d E =-.786674E-03
 trial-energy change:   -0.000787  1 .order   -0.000851   -0.001093   -0.000609
 step:   5.6620(harm=  5.6620)  dis= 0.00434  next Energy=  -109.279431 (dE=-0.123E-02)
 bond charge predicted
       N       E                     dE             d eps       ncg     rms          rms(c)
DAV:   1    -0.109278397491E+03    0.62401E-03   -0.73787E-02  1022   0.695E-01    0.202E-01
DAV:   2    -0.109278783623E+03   -0.38613E-03   -0.57355E-03  1316   0.211E-01    0.663E-02
DAV:   3    -0.109278727182E+03    0.56441E-04   -0.13378E-04   812   0.422E-02
  30 F= -.10927873E+03 E0= -.10927873E+03  d E =-.529733E-03
 curvature:  -6.95 expect dE=-0.654E-02 dE for cont linesearch -0.418E-03
 ZBRENT: interpolating
 opt :   4.0498  next Energy=  -109.279171 (dE=-0.974E-03)
 bond charge predicted
       N       E                     dE             d eps       ncg     rms          rms(c)
DAV:   1    -0.109278904866E+03   -0.12124E-03   -0.22425E-02  1008   0.385E-01    0.118E-01
DAV:   2    -0.109279060830E+03   -0.15596E-03   -0.19228E-03  1274   0.124E-01    0.421E-02
DAV:   3    -0.109279045634E+03    0.15196E-04   -0.43583E-05   742   0.250E-02
  31 F= -.10927905E+03 E0= -.10927905E+03  d E =-.848184E-03
 curvature:  -3.11 expect dE=-0.265E-02 dE for cont linesearch -0.654E-04
 ZBRENT: interpolating
 opt :   3.4608  next Energy=  -109.279090 (dE=-0.892E-03)
 bond charge predicted
       N       E                     dE             d eps       ncg     rms          rms(c)
DAV:   1    -0.109279075244E+03   -0.14415E-04   -0.23103E-03  1008   0.123E-01    0.326E-02
DAV:   2    -0.109279082166E+03   -0.69213E-05   -0.13583E-04   630   0.365E-02
  32 F= -.10927908E+03 E0= -.10927908E+03  d E =-.884716E-03
 curvature:  -2.10 expect dE=-0.153E-02 dE for cont linesearch -0.471E-07
 trial: gam= 0.86568 g(F)=  0.653E-03 g(S)=  0.745E-04 ort =-0.490E-05 (trialstep = 0.190E+01)
 search vector abs. value=  0.152E-02
 bond charge predicted
       N       E                     dE             d eps       ncg     rms          rms(c)
DAV:   1    -0.109279402188E+03   -0.32694E-03   -0.38063E-02  1008   0.502E-01    0.140E-01
DAV:   2    -0.109279624752E+03   -0.22256E-03   -0.30402E-03  1274   0.155E-01    0.523E-02
DAV:   3    -0.109279608527E+03    0.16225E-04   -0.83374E-05   770   0.322E-02
  33 F= -.10927961E+03 E0= -.10927961E+03  d E =-.526362E-03
 trial-energy change:   -0.000526  1 .order   -0.000606   -0.001374    0.000161
 step:   1.6986(harm=  1.6986)  dis= 0.00162  next Energy=  -109.279697 (dE=-0.615E-03)
 bond charge predicted
       N       E                     dE             d eps       ncg     rms          rms(c)
DAV:   1    -0.109279612581E+03    0.12171E-04   -0.60171E-04  1036   0.645E-02    0.268E-02
DAV:   2    -0.109279617068E+03   -0.44869E-05   -0.59174E-05   630   0.239E-02
  34 F= -.10927962E+03 E0= -.10927962E+03  d E =-.534902E-03
 curvature:  -1.79 expect dE=-0.123E-02 dE for cont linesearch -0.696E-05
 trial: gam= 0.90836 g(F)=  0.582E-03 g(S)=  0.109E-03 ort =-0.770E-04 (trialstep = 0.157E+01)
 search vector abs. value=  0.181E-02
 bond charge predicted
       N       E                     dE             d eps       ncg     rms          rms(c)
DAV:   1    -0.109279883125E+03   -0.27054E-03   -0.34838E-02  1022   0.473E-01    0.131E-01
DAV:   2    -0.109280095060E+03   -0.21194E-03   -0.27388E-03  1330   0.144E-01    0.444E-02
DAV:   3    -0.109280076079E+03    0.18980E-04   -0.55334E-05   756   0.278E-02
  35 F= -.10928008E+03 E0= -.10928008E+03  d E =-.459012E-03
 trial-energy change:   -0.000459  1 .order   -0.000539   -0.000972   -0.000106
 step:   1.7561(harm=  1.7561)  dis= 0.00185  next Energy=  -109.280162 (dE=-0.545E-03)
 bond charge predicted
       N       E                     dE             d eps       ncg     rms          rms(c)
DAV:   1    -0.109280062475E+03    0.32585E-04   -0.37845E-04  1092   0.504E-02    0.137E-02
DAV:   2    -0.109280062377E+03    0.98647E-07   -0.21341E-05   714   0.159E-02
  36 F= -.10928006E+03 E0= -.10928006E+03  d E =-.445309E-03
 curvature:  -2.55 expect dE=-0.206E-02 dE for cont linesearch -0.702E-05
 trial: gam= 0.78734 g(F)=  0.715E-03 g(S)=  0.906E-04 ort =-0.704E-04 (trialstep = 0.160E+01)
 search vector abs. value=  0.181E-02
 bond charge predicted
       N       E                     dE             d eps       ncg     rms          rms(c)
DAV:   1    -0.109280271535E+03   -0.20906E-03   -0.34234E-02  1008   0.467E-01    0.136E-01
DAV:   2    -0.109280432679E+03   -0.16114E-03   -0.26974E-03  1274   0.145E-01    0.571E-02
DAV:   3    -0.109280410018E+03    0.22661E-04   -0.74002E-05   756   0.308E-02
  37 F= -.10928041E+03 E0= -.10928041E+03  d E =-.347641E-03
 trial-energy change:   -0.000348  1 .order   -0.000331   -0.001198    0.000536
 step:   1.1026(harm=  1.1026)  dis= 0.00121  next Energy=  -109.280476 (dE=-0.414E-03)
 bond charge predicted
       N       E                     dE             d eps       ncg     rms          rms(c)
DAV:   1    -0.109280485670E+03   -0.52990E-04   -0.37678E-03  1008   0.156E-01    0.531E-02
DAV:   2    -0.109280509491E+03   -0.23821E-04   -0.29866E-04   798   0.515E-02
  38 F= -.10928051E+03 E0= -.10928051E+03  d E =-.447114E-03
 curvature:  -1.33 expect dE=-0.101E-02 dE for cont linesearch -0.182E-05
 trial: gam= 0.74506 g(F)=  0.661E-03 g(S)=  0.971E-04 ort =-0.498E-04 (trialstep = 0.150E+01)
 search vector abs. value=  0.169E-02
 bond charge predicted
       N       E                     dE             d eps       ncg     rms          rms(c)
DAV:   1    -0.109280751809E+03   -0.26614E-03   -0.27152E-02  1008   0.423E-01    0.122E-01
DAV:   2    -0.109280903716E+03   -0.15191E-03   -0.23166E-03  1344   0.133E-01    0.490E-02
DAV:   3    -0.109280888461E+03    0.15255E-04   -0.72842E-05   728   0.290E-02
  39 F= -.10928089E+03 E0= -.10928089E+03  d E =-.378971E-03
 trial-energy change:   -0.000379  1 .order   -0.000466   -0.001079    0.000147
 step:   1.3184(harm=  1.3184)  dis= 0.00135  next Energy=  -109.280985 (dE=-0.475E-03)
 bond charge predicted
       N       E                     dE             d eps       ncg     rms          rms(c)
DAV:   1    -0.109280888262E+03    0.15455E-04   -0.53382E-04   952   0.599E-02    0.249E-02
DAV:   2    -0.109280891448E+03   -0.31867E-05   -0.48768E-05   546   0.216E-02
  40 F= -.10928089E+03 E0= -.10928089E+03  d E =-.381958E-03
 curvature:  -1.55 expect dE=-0.490E-03 dE for cont linesearch -0.791E-06
 trial: gam= 0.53009 g(F)=  0.288E-03 g(S)=  0.290E-04 ort =-0.294E-04 (trialstep = 0.146E+01)
 search vector abs. value=  0.761E-03
 bond charge predicted
       N       E                     dE             d eps       ncg     rms          rms(c)
DAV:   1    -0.109281095848E+03   -0.20759E-03   -0.12155E-02  1008   0.281E-01    0.726E-02
DAV:   2    -0.109281170355E+03   -0.74507E-04   -0.94376E-04  1246   0.854E-02
  41 F= -.10928117E+03 E0= -.10928117E+03  d E =-.278907E-03
 trial-energy change:   -0.000279  1 .order   -0.000324   -0.000440   -0.000208
 step:   2.7665(harm=  2.7665)  dis= 0.00201  next Energy=  -109.281308 (dE=-0.416E-03)
 bond charge predicted
       N       E                     dE             d eps       ncg     rms          rms(c)
DAV:   1    -0.109281253356E+03   -0.15751E-03   -0.99019E-03  1022   0.250E-01    0.561E-02
DAV:   2    -0.109281305016E+03   -0.51659E-04   -0.69510E-04  1246   0.759E-02
  42 F= -.10928131E+03 E0= -.10928131E+03  d E =-.413567E-03
 curvature:  -3.49 expect dE=-0.110E-02 dE for cont linesearch -0.806E-06
 trial: gam= 1.12684 g(F)=  0.284E-03 g(S)=  0.308E-04 ort =-0.132E-04 (trialstep = 0.105E+01)
 search vector abs. value=  0.125E-02
 bond charge predicted
       N       E                     dE             d eps       ncg     rms          rms(c)
DAV:   1    -0.109281301541E+03   -0.48184E-04   -0.10134E-02  1036   0.253E-01    0.556E-02
DAV:   2    -0.109281344887E+03   -0.43346E-04   -0.68894E-04  1232   0.761E-02
  43 F= -.10928134E+03 E0= -.10928134E+03  d E =-.398711E-04
 trial-energy change:   -0.000040  1 .order   -0.000068   -0.000314    0.000179
 step:   0.6673(harm=  0.6673)  dis= 0.00068  next Energy=  -109.281405 (dE=-0.100E-03)
 bond charge predicted
       N       E                     dE             d eps       ncg     rms          rms(c)
DAV:   1    -0.109281356011E+03   -0.54470E-04   -0.13065E-03  1036   0.945E-02    0.494E-02
DAV:   2    -0.109281360337E+03   -0.43261E-05   -0.12058E-04   630   0.317E-02
  44 F= -.10928136E+03 E0= -.10928136E+03  d E =-.553215E-04
 curvature:  -1.39 expect dE=-0.504E-03 dE for cont linesearch -0.310E-06
 trial: gam= 1.21645 g(F)=  0.347E-03 g(S)=  0.158E-04 ort =-0.167E-04 (trialstep = 0.559E+00)
 search vector abs. value=  0.217E-02
 bond charge predicted
       N       E                     dE             d eps       ncg     rms          rms(c)
DAV:   1    -0.109281474276E+03   -0.11826E-03   -0.52487E-03  1022   0.185E-01    0.461E-02
DAV:   2    -0.109281500752E+03   -0.26476E-04   -0.39487E-04  1106   0.567E-02
  45 F= -.10928150E+03 E0= -.10928150E+03  d E =-.140415E-03
 trial-energy change:   -0.000140  1 .order   -0.000141   -0.000191   -0.000091
 step:   1.0663(harm=  1.0663)  dis= 0.00154  next Energy=  -109.281543 (dE=-0.183E-03)
 bond charge predicted
       N       E                     dE             d eps       ncg     rms          rms(c)
DAV:   1    -0.109281547448E+03   -0.73172E-04   -0.46606E-03  1050   0.169E-01    0.418E-02
DAV:   2    -0.109281564390E+03   -0.16943E-04   -0.28026E-04   882   0.519E-02
  46 F= -.10928156E+03 E0= -.10928156E+03  d E =-.204053E-03
 curvature:  -3.38 expect dE=-0.130E-02 dE for cont linesearch -0.721E-06
 trial: gam= 0.77999 g(F)=  0.361E-03 g(S)=  0.223E-04 ort = 0.215E-04 (trialstep = 0.661E+00)
 search vector abs. value=  0.174E-02
 bond charge predicted
       N       E                     dE             d eps       ncg     rms          rms(c)
DAV:   1    -0.109281682126E+03   -0.13468E-03   -0.54656E-03  1036   0.184E-01    0.417E-02
DAV:   2    -0.109281702017E+03   -0.19891E-04   -0.35737E-04  1064   0.577E-02
  47 F= -.10928170E+03 E0= -.10928170E+03  d E =-.137627E-03
 trial-energy change:   -0.000138  1 .order   -0.000142   -0.000264   -0.000019
 step:   0.7118(harm=  0.7118)  dis= 0.00088  next Energy=  -109.281707 (dE=-0.142E-03)
 bond charge predicted
       N       E                     dE             d eps       ncg     rms          rms(c)
DAV:   1    -0.109281702595E+03   -0.20469E-04   -0.59009E-05   714   0.240E-02    0.224E-02
DAV:   2    -0.109281700614E+03    0.19812E-05   -0.14861E-05   588   0.141E-02
  48 F= -.10928170E+03 E0= -.10928170E+03  d E =-.136224E-03
 curvature:  -1.55 expect dE=-0.406E-03 dE for cont linesearch -0.843E-06
 trial: gam= 0.84581 g(F)=  0.234E-03 g(S)=  0.289E-04 ort = 0.308E-04 (trialstep = 0.671E+00)
 search vector abs. value=  0.156E-02
 bond charge predicted
       N       E                     dE             d eps       ncg     rms          rms(c)
DAV:   1    -0.109281837782E+03   -0.13519E-03   -0.43825E-03  1050   0.168E-01    0.416E-02
DAV:   2    -0.109281854758E+03   -0.16975E-04   -0.27799E-04   924   0.505E-02
  49 F= -.10928185E+03 E0= -.10928185E+03  d E =-.154144E-03
 trial-energy change:   -0.000154  1 .order   -0.000130   -0.000194   -0.000066
 step:   1.0193(harm=  1.0193)  dis= 0.00113  next Energy=  -109.281848 (dE=-0.147E-03)
 bond charge predicted
       N       E                     dE             d eps       ncg     rms          rms(c)
DAV:   1    -0.109281893469E+03   -0.55686E-04   -0.13181E-03  1050   0.900E-02    0.190E-02
DAV:   2    -0.109281895546E+03   -0.20770E-05   -0.75705E-05   630   0.295E-02
  50 F= -.10928190E+03 E0= -.10928190E+03  d E =-.194931E-03
 curvature:  -2.75 expect dE=-0.118E-02 dE for cont linesearch -0.264E-05
 trial: gam= 1.27399 g(F)=  0.374E-03 g(S)=  0.538E-04 ort = 0.387E-04 (trialstep = 0.378E+00)
 search vector abs. value=  0.306E-02
 bond charge predicted
       N       E                     dE             d eps       ncg     rms          rms(c)
DAV:   1    -0.109281970982E+03   -0.77513E-04   -0.26396E-03  1064   0.129E-01    0.235E-02
DAV:   2    -0.109281979036E+03   -0.80535E-05   -0.15275E-04   756   0.407E-02
  51 F= -.10928198E+03 E0= -.10928198E+03  d E =-.834899E-04
 trial-energy change:   -0.000083  1 .order   -0.000114   -0.000180   -0.000048
 step:   0.5148(harm=  0.5148)  dis= 0.00075  next Energy=  -109.282018 (dE=-0.123E-03)
 bond charge predicted
       N       E                     dE             d eps       ncg     rms          rms(c)
DAV:   1    -0.109282001613E+03   -0.30631E-04   -0.40655E-04  1050   0.502E-02    0.101E-02
DAV:   2    -0.109282001638E+03   -0.24719E-07   -0.29375E-05   588   0.190E-02
  52 F= -.10928200E+03 E0= -.10928200E+03  d E =-.106092E-03
 curvature:  -1.65 expect dE=-0.634E-03 dE for cont linesearch -0.515E-05
 ZBRENT: increasing intervall
 opt :   0.7890  next Energy=  -109.282020 (dE=-0.125E-03)
 bond charge predicted
       N       E                     dE             d eps       ncg     rms          rms(c)
DAV:   1    -0.109282006020E+03   -0.44065E-05   -0.13752E-03   994   0.940E-02    0.146E-02
DAV:   2    -0.109282010007E+03   -0.39876E-05   -0.82570E-05   546   0.298E-02
  53 F= -.10928201E+03 E0= -.10928201E+03  d E =-.114462E-03
 curvature:  -5.99 expect dE=-0.368E-02 dE for cont linesearch -0.554E-05
 trial: gam= 1.52756 g(F)=  0.582E-03 g(S)=  0.320E-04 ort =-0.532E-04 (trialstep = 0.185E+00)
 search vector abs. value=  0.758E-02
 bond charge predicted
       N       E                     dE             d eps       ncg     rms          rms(c)
DAV:   1    -0.109282102232E+03   -0.96212E-04   -0.16270E-03  1008   0.101E-01    0.171E-02
DAV:   2    -0.109282107425E+03   -0.51933E-05   -0.95884E-05   672   0.317E-02
  54 F= -.10928211E+03 E0= -.10928211E+03  d E =-.974178E-04
 trial-energy change:   -0.000097  1 .order   -0.000083   -0.000099   -0.000068
 step:   0.5915(harm=  0.5915)  dis= 0.00136  next Energy=  -109.282168 (dE=-0.158E-03)
 bond charge predicted
       N       E                     dE             d eps       ncg     rms          rms(c)
DAV:   1    -0.109282242813E+03   -0.14058E-03   -0.75511E-03  1022   0.219E-01    0.437E-02
DAV:   2    -0.109282281329E+03   -0.38516E-04   -0.53702E-04  1232   0.667E-02
  55 F= -.10928228E+03 E0= -.10928228E+03  d E =-.271321E-03
 curvature:  -4.21 expect dE=-0.271E-02 dE for cont linesearch -0.238E-05
 trial: gam= 0.28156 g(F)=  0.602E-03 g(S)=  0.429E-04 ort = 0.655E-04 (trialstep = 0.267E+00)
 search vector abs. value=  0.128E-02
 bond charge predicted
       N       E                     dE             d eps       ncg     rms          rms(c)
DAV:   1    -0.109282402884E+03   -0.16007E-03   -0.45097E-04  1050   0.555E-02    0.199E-02
DAV:   2    -0.109282401434E+03    0.14507E-05   -0.25996E-05   658   0.176E-02
  56 F= -.10928240E+03 E0= -.10928240E+03  d E =-.120105E-03
 trial-energy change:   -0.000120  1 .order   -0.000141   -0.000177   -0.000105
 step:   0.6551(harm=  0.6551)  dis= 0.00065  next Energy=  -109.282498 (dE=-0.217E-03)
 bond charge predicted
       N       E                     dE             d eps       ncg     rms          rms(c)
DAV:   1    -0.109282456249E+03   -0.53365E-04   -0.83764E-04   994   0.761E-02    0.149E-02
DAV:   2    -0.109282460107E+03   -0.38578E-05   -0.55031E-05   672   0.233E-02
  57 F= -.10928246E+03 E0= -.10928246E+03  d E =-.178778E-03
 curvature:  -0.63 expect dE=-0.157E-03 dE for cont linesearch -0.106E-05
 trial: gam= 0.25209 g(F)=  0.223E-03 g(S)=  0.246E-04 ort = 0.463E-04 (trialstep = 0.344E+00)
 search vector abs. value=  0.352E-03
 bond charge predicted
       N       E                     dE             d eps       ncg     rms          rms(c)
DAV:   1    -0.109282550385E+03   -0.94137E-04   -0.18393E-04   700   0.383E-02    0.111E-02
DAV:   2    -0.109282553190E+03   -0.28043E-05   -0.34627E-05   630   0.197E-02
  58 F= -.10928255E+03 E0= -.10928255E+03  d E =-.930830E-04
 ZBRENT: can't locate minimum, use default step
 trial-energy change:   -0.000093  1 .order   -0.000090   -0.000089   -0.000090
 step:   1.3772(harm=  1.3772)  dis= 0.00104  next Energy=  -109.282824 (dE=-0.364E-03)
 bond charge predicted
       N       E                     dE             d eps       ncg     rms          rms(c)
DAV:   1    -0.109282640300E+03   -0.89914E-04   -0.18194E-03  1022   0.113E-01    0.322E-02
DAV:   2    -0.109282646297E+03   -0.59971E-05   -0.11530E-04   756   0.343E-02
  59 F= -.10928265E+03 E0= -.10928265E+03  d E =-.186190E-03
 curvature:  -1.41 expect dE=-0.282E-03 dE for cont linesearch -0.183E-06
 trial: gam= 0.80260 g(F)=  0.162E-03 g(S)=  0.373E-04 ort =-0.675E-05 (trialstep = 0.467E+00)
 search vector abs. value=  0.415E-03
 bond charge predicted
       N       E                     dE             d eps       ncg     rms          rms(c)
DAV:   1    -0.109282729866E+03   -0.89567E-04   -0.54838E-04  1008   0.607E-02    0.178E-02
DAV:   2    -0.109282728127E+03    0.17389E-05   -0.41631E-05   588   0.215E-02
  60 F= -.10928273E+03 E0= -.10928273E+03  d E =-.818308E-04
 ZBRENT: can't locate minimum, use default step
 trial-energy change:   -0.000082  1 .order   -0.000081   -0.000091   -0.000072
 step:   1.8674(harm=  2.2909)  dis= 0.00111  next Energy=  -109.282869 (dE=-0.222E-03)
 bond charge predicted
       N       E                     dE             d eps       ncg     rms          rms(c)
DAV:   1    -0.109282767396E+03   -0.37530E-04   -0.46065E-03  1050   0.178E-01    0.584E-02
DAV:   2    -0.109282759586E+03    0.78106E-05   -0.38243E-04  1120   0.574E-02
  61 F= -.10928276E+03 E0= -.10928276E+03  d E =-.113289E-03
 curvature:  -2.32 expect dE=-0.655E-03 dE for cont linesearch -0.901E-07
 trial: gam= 1.30862 g(F)=  0.218E-03 g(S)=  0.640E-04 ort =-0.402E-05 (trialstep = 0.316E+00)
 search vector abs. value=  0.983E-03
 bond charge predicted
       N       E                     dE             d eps       ncg     rms          rms(c)
DAV:   1    -0.109282836399E+03   -0.69003E-04   -0.62906E-04  1050   0.639E-02    0.233E-02
DAV:   2    -0.109282830205E+03    0.61937E-05   -0.42494E-05   672   0.217E-02
  62 F= -.10928283E+03 E0= -.10928283E+03  d E =-.706194E-04
 ZBRENT: can't locate minimum, use default step
 trial-energy change:   -0.000071  1 .order   -0.000081   -0.000087   -0.000074
 step:   1.2623(harm=  2.0450)  dis= 0.00090  next Energy=  -109.283043 (dE=-0.283E-03)
 bond charge predicted
       N       E                     dE             d eps       ncg     rms          rms(c)
DAV:   1    -0.109282910519E+03   -0.74120E-04   -0.54687E-03  1022   0.191E-01    0.580E-02
DAV:   2    -0.109282911010E+03   -0.49117E-06   -0.43200E-04  1260   0.599E-02
  63 F= -.10928291E+03 E0= -.10928291E+03  d E =-.151424E-03
 curvature:  -2.88 expect dE=-0.125E-02 dE for cont linesearch -0.785E-05
 trial: gam= 1.39860 g(F)=  0.372E-03 g(S)=  0.605E-04 ort =-0.517E-04 (trialstep = 0.225E+00)
 search vector abs. value=  0.221E-02
 bond charge predicted
       N       E                     dE             d eps       ncg     rms          rms(c)
DAV:   1    -0.109282983188E+03   -0.72669E-04   -0.73047E-04  1064   0.692E-02    0.237E-02
DAV:   2    -0.109282972325E+03    0.10862E-04   -0.44995E-05   714   0.222E-02
  64 F= -.10928297E+03 E0= -.10928297E+03  d E =-.613156E-04
 ZBRENT: can't locate minimum, use default step
 trial-energy change:   -0.000061  1 .order   -0.000079   -0.000081   -0.000077
 step:   0.8982(harm=  4.7710)  dis= 0.00095  next Energy=  -109.283770 (dE=-0.859E-03)
 bond charge predicted
       N       E                     dE             d eps       ncg     rms          rms(c)
DAV:   1    -0.109283170314E+03   -0.18713E-03   -0.65489E-03  1022   0.207E-01    0.609E-02
DAV:   2    -0.109283162563E+03    0.77507E-05   -0.47858E-04  1190   0.628E-02
  65 F= -.10928316E+03 E0= -.10928316E+03  d E =-.251554E-03
 curvature:  -4.02 expect dE=-0.226E-02 dE for cont linesearch -0.209E-03
 ZBRENT: increasing intervall
 opt :   2.2455  next Energy=  -109.283614 (dE=-0.703E-03)
 bond charge predicted
       N       E                     dE             d eps       ncg     rms          rms(c)
DAV:   1    -0.109283226175E+03   -0.55861E-04   -0.26729E-02  1022   0.420E-01    0.125E-01
DAV:   2    -0.109283165079E+03    0.61096E-04   -0.19572E-03  1344   0.127E-01    0.624E-02
DAV:   3    -0.109283109224E+03    0.55856E-04   -0.96363E-05   742   0.319E-02
  66 F= -.10928311E+03 E0= -.10928311E+03  d E =-.198214E-03
 curvature:  -8.68 expect dE=-0.770E-02 dE for cont linesearch -0.585E-04
 ZBRENT: bracketing found
 ZBRENT: interpolating
 opt :   1.8889  next Energy=  -109.283131 (dE=-0.220E-03)
 bond charge predicted
       N       E                     dE             d eps       ncg     rms          rms(c)
DAV:   1    -0.109283152589E+03    0.12490E-04   -0.24100E-03  1064   0.127E-01    0.433E-02
DAV:   2    -0.109283160795E+03   -0.82056E-05   -0.16662E-04   756   0.413E-02
  67 F= -.10928316E+03 E0= -.10928316E+03  d E =-.249785E-03
 curvature:  -3.23 expect dE=-0.252E-02 dE for cont linesearch -0.321E-04
 ZBRENT: bisectioning
 opt :   1.3935  next Energy=  -109.283243 (dE=-0.332E-03)
 bond charge predicted
       N       E                     dE             d eps       ncg     rms          rms(c)
DAV:   1    -0.109283220221E+03   -0.67631E-04   -0.37082E-03  1022   0.154E-01    0.469E-02
DAV:   2    -0.109283213035E+03    0.71858E-05   -0.23547E-04   742   0.479E-02
  68 F= -.10928321E+03 E0= -.10928321E+03  d E =-.302025E-03
 curvature:  -8.29 expect dE=-0.561E-02 dE for cont linesearch -0.431E-05
 trial: gam= 0.94778 g(F)=  0.495E-03 g(S)=  0.181E-03 ort =-0.339E-04 (trialstep = 0.390E+00)
 search vector abs. value=  0.260E-02
 bond charge predicted
       N       E                     dE             d eps       ncg     rms          rms(c)
DAV:   1    -0.109283394112E+03   -0.17389E-03   -0.23403E-03  1022   0.128E-01    0.411E-02
DAV:   2    -0.109283402627E+03   -0.85151E-05   -0.16395E-04   630   0.393E-02
  69 F= -.10928340E+03 E0= -.10928340E+03  d E =-.189592E-03
 trial-energy change:   -0.000190  1 .order   -0.000208   -0.000251   -0.000165
 step:   1.1322(harm=  1.1322)  dis= 0.00192  next Energy=  -109.283578 (dE=-0.365E-03)
 bond charge predicted
       N       E                     dE             d eps       ncg     rms          rms(c)
DAV:   1    -0.109283595099E+03   -0.20099E-03   -0.88386E-03  1008   0.239E-01    0.625E-02
DAV:   2    -0.109283636355E+03   -0.41256E-04   -0.65259E-04  1176   0.745E-02
  70 F= -.10928364E+03 E0= -.10928364E+03  d E =-.423320E-03
 curvature:  -2.28 expect dE=-0.756E-03 dE for cont linesearch -0.386E-04
 ZBRENT: increasing intervall
 opt :   2.6164  next Energy=  -109.283632 (dE=-0.419E-03)
 bond charge predicted
       N       E                     dE             d eps       ncg     rms          rms(c)
DAV:   1    -0.109283739377E+03   -0.14428E-03   -0.34177E-02  1008   0.474E-01    0.115E-01
DAV:   2    -0.109283872067E+03   -0.13269E-03   -0.24317E-03  1344   0.142E-01    0.578E-02
DAV:   3    -0.109283840074E+03    0.31993E-04   -0.66784E-05   756   0.293E-02
  71 F= -.10928384E+03 E0= -.10928384E+03  d E =-.627039E-03
 curvature:   0.26 expect dE= 0.161E-03 dE for cont linesearch  0.105E-05
 trial: gam= 0.88833 g(F)=  0.561E-03 g(S)=  0.572E-04 ort =-0.102E-03 (trialstep = 0.835E+00)
 search vector abs. value=  0.249E-02
 bond charge predicted
       N       E                     dE             d eps       ncg     rms          rms(c)
DAV:   1    -0.109284085688E+03   -0.21362E-03   -0.99846E-03  1008   0.255E-01    0.559E-02
DAV:   2    -0.109284113218E+03   -0.27530E-04   -0.64433E-04  1218   0.728E-02
  72 F= -.10928411E+03 E0= -.10928411E+03  d E =-.273144E-03
 trial-energy change:   -0.000273  1 .order   -0.000341   -0.000441   -0.000242
 step:   1.8549(harm=  1.8549)  dis= 0.00287  next Energy=  -109.284329 (dE=-0.489E-03)
 bond charge predicted
       N       E                     dE             d eps       ncg     rms          rms(c)
DAV:   1    -0.109284371730E+03   -0.28604E-03   -0.16084E-02  1008   0.322E-01    0.718E-02
DAV:   2    -0.109284411144E+03   -0.39413E-04   -0.10443E-03  1260   0.941E-02    0.448E-02
DAV:   3    -0.109284394952E+03    0.16192E-04   -0.30891E-05   672   0.199E-02
  73 F= -.10928439E+03 E0= -.10928439E+03  d E =-.554878E-03
 curvature:  -4.37 expect dE=-0.209E-02 dE for cont linesearch -0.104E-03
 ZBRENT: increasing intervall
 opt :   3.8939  next Energy=  -109.284793 (dE=-0.953E-03)
 bond charge predicted
       N       E                     dE             d eps       ncg     rms          rms(c)
DAV:   1    -0.109284499384E+03   -0.88240E-04   -0.62334E-02  1008   0.636E-01    0.146E-01
DAV:   2    -0.109284731432E+03   -0.23205E-03   -0.41586E-03  1274   0.184E-01    0.690E-02
DAV:   3    -0.109284690990E+03    0.40442E-04   -0.10752E-04   756   0.375E-02
  74 F= -.10928469E+03 E0= -.10928469E+03  d E =-.850916E-03
 curvature: -16.83 expect dE=-0.186E-01 dE for cont linesearch -0.218E-04
 trial: gam= 1.82995 g(F)=  0.104E-02 g(S)=  0.620E-04 ort =-0.568E-04 (trialstep = 0.390E+00)
 search vector abs. value=  0.922E-02
 bond charge predicted
       N       E                     dE             d eps       ncg     rms          rms(c)
DAV:   1    -0.109284982891E+03   -0.25146E-03   -0.76435E-03  1022   0.222E-01    0.441E-02
DAV:   2    -0.109285003480E+03   -0.20589E-04   -0.47638E-04  1176   0.623E-02
  75 F= -.10928500E+03 E0= -.10928500E+03  d E =-.312490E-03
 trial-energy change:   -0.000312  1 .order   -0.000321   -0.000390   -0.000253
 step:   1.1075(harm=  1.1075)  dis= 0.00307  next Energy=  -109.285245 (dE=-0.554E-03)
 bond charge predicted
       N       E                     dE             d eps       ncg     rms          rms(c)
DAV:   1    -0.109285332143E+03   -0.34925E-03   -0.28475E-02  1008   0.428E-01    0.873E-02
DAV:   2    -0.109285433789E+03   -0.10165E-03   -0.18478E-03  1274   0.123E-01    0.541E-02
DAV:   3    -0.109285412928E+03    0.20861E-04   -0.40038E-05   714   0.233E-02
  76 F= -.10928541E+03 E0= -.10928541E+03  d E =-.721938E-03
 curvature:  -5.11 expect dE=-0.662E-02 dE for cont linesearch -0.402E-03
 ZBRENT: increasing intervall
 opt :   2.5423  next Energy=  -109.286927 (dE=-0.224E-02)
 bond charge predicted
       N       E                     dE             d eps       ncg     rms          rms(c)
DAV:   1    -0.109284656883E+03    0.77691E-03   -0.11024E-01  1008   0.845E-01    0.179E-01
DAV:   2    -0.109285119377E+03   -0.46249E-03   -0.72798E-03  1274   0.240E-01    0.869E-02
DAV:   3    -0.109285061410E+03    0.57967E-04   -0.15359E-04   784   0.457E-02
  77 F= -.10928506E+03 E0= -.10928506E+03  d E =-.370420E-03
 curvature: -19.27 expect dE=-0.292E-01 dE for cont linesearch -0.593E-03
 ZBRENT: bracketing found
 ZBRENT: interpolating
 opt :   1.9899  next Energy=  -109.285209 (dE=-0.518E-03)
 bond charge predicted
       N       E                     dE             d eps       ncg     rms          rms(c)
DAV:   1    -0.109285316944E+03   -0.19757E-03   -0.18585E-02  1008   0.349E-01    0.866E-02
DAV:   2    -0.109285428655E+03   -0.11171E-03   -0.13852E-03  1232   0.105E-01    0.317E-02
DAV:   3    -0.109285421379E+03    0.72761E-05   -0.28355E-05   672   0.201E-02
  78 F= -.10928542E+03 E0= -.10928542E+03  d E =-.730389E-03
 curvature:  -4.78 expect dE=-0.759E-02 dE for cont linesearch -0.959E-04
 ZBRENT: bisectioning
 opt :   1.5487  next Energy=  -109.285593 (dE=-0.902E-03)
 bond charge predicted
       N       E                     dE             d eps       ncg     rms          rms(c)
DAV:   1    -0.109285499800E+03   -0.71145E-04   -0.10283E-02  1008   0.258E-01    0.530E-02
DAV:   2    -0.109285539189E+03   -0.39389E-04   -0.65157E-04  1190   0.724E-02
  79 F= -.10928554E+03 E0= -.10928554E+03  d E =-.848199E-03
 curvature:  -8.56 expect dE=-0.118E-01 dE for cont linesearch -0.162E-04
 trial: gam= 0.84921 g(F)=  0.105E-02 g(S)=  0.328E-03 ort = 0.132E-03 (trialstep = 0.622E+00)
 search vector abs. value=  0.825E-02
 bond charge predicted
       N       E                     dE             d eps       ncg     rms          rms(c)
DAV:   1    -0.109285890114E+03   -0.39031E-03   -0.18389E-02  1008   0.346E-01    0.841E-02
DAV:   2    -0.109285999135E+03   -0.10902E-03   -0.13283E-03  1218   0.101E-01    0.243E-02
DAV:   3    -0.109285996114E+03    0.30210E-05   -0.27126E-05   588   0.195E-02
  80 F= -.10928600E+03 E0= -.10928600E+03  d E =-.456925E-03
 trial-energy change:   -0.000457  1 .order   -0.000532   -0.000925   -0.000139
 step:   0.7316(harm=  0.7316)  dis= 0.00240  next Energy=  -109.286083 (dE=-0.544E-03)
 bond charge predicted
       N       E                     dE             d eps       ncg     rms          rms(c)
DAV:   1    -0.109286016804E+03   -0.17669E-04   -0.51891E-04   980   0.585E-02    0.992E-03
DAV:   2    -0.109286018351E+03   -0.15468E-05   -0.25862E-05   588   0.169E-02
  81 F= -.10928602E+03 E0= -.10928602E+03  d E =-.479162E-03
 curvature:  -2.03 expect dE=-0.175E-02 dE for cont linesearch -0.156E-04
 ZBRENT: increasing intervall
 opt :   0.9509  next Energy=  -109.286080 (dE=-0.541E-03)
 bond charge predicted
       N       E                     dE             d eps       ncg     rms          rms(c)
DAV:   1    -0.109286089355E+03   -0.72551E-04   -0.23499E-03  1008   0.122E-01    0.238E-02
DAV:   2    -0.109286099457E+03   -0.10102E-04   -0.13316E-04   700   0.365E-02
  82 F= -.10928610E+03 E0= -.10928610E+03  d E =-.560268E-03
 curvature:  -8.01 expect dE=-0.686E-02 dE for cont linesearch -0.173E-03
 ZBRENT: increasing intervall
 opt :   1.3897  next Energy=  -109.286360 (dE=-0.820E-03)
 bond charge predicted
       N       E                     dE             d eps       ncg     rms          rms(c)
DAV:   1    -0.109286167201E+03   -0.77846E-04   -0.93790E-03  1008   0.243E-01    0.472E-02
DAV:   2    -0.109286217077E+03   -0.49877E-04   -0.62112E-04  1190   0.714E-02
  83 F= -.10928622E+03 E0= -.10928622E+03  d E =-.677889E-03
 curvature: -12.03 expect dE=-0.929E-02 dE for cont linesearch -0.375E-04
 ZBRENT: increasing intervall
 opt :   2.2672  next Energy=  -109.286128 (dE=-0.589E-03)
 bond charge predicted
       N       E                     dE             d eps       ncg     rms          rms(c)
DAV:   1    -0.109286122068E+03    0.45133E-04   -0.37209E-02  1008   0.488E-01    0.897E-02
DAV:   2    -0.109286311087E+03   -0.18902E-03   -0.24020E-03  1260   0.140E-01    0.592E-02
DAV:   3    -0.109286297663E+03    0.13424E-04   -0.52917E-05   728   0.264E-02
  84 F= -.10928630E+03 E0= -.10928630E+03  d E =-.758474E-03
 curvature:  28.55 expect dE= 0.215E-01 dE for cont linesearch  0.310E-04
 trial: gam= 0.32167 g(F)=  0.592E-03 g(S)=  0.161E-03 ort = 0.946E-04 (trialstep = 0.951E+00)
 search vector abs. value=  0.167E-02
 bond charge predicted
       N       E                     dE             d eps       ncg     rms          rms(c)
DAV:   1    -0.109286984524E+03   -0.67344E-03   -0.98970E-03  1008   0.254E-01    0.619E-02
DAV:   2    -0.109287025261E+03   -0.40737E-04   -0.66862E-04  1274   0.745E-02
  85 F= -.10928703E+03 E0= -.10928703E+03  d E =-.727598E-03
 ZBRENT: can't locate minimum, use default step
 trial-energy change:   -0.000728  1 .order   -0.000720   -0.000745   -0.000696
 step:   3.8038(harm= 14.4551)  dis= 0.00428  next Energy=  -109.291957 (dE=-0.566E-02)
 bond charge predicted
       N       E                     dE             d eps       ncg     rms          rms(c)
DAV:   1    -0.109287925859E+03   -0.94133E-03   -0.94635E-02  1008   0.783E-01    0.205E-01
DAV:   2    -0.109288340073E+03   -0.41421E-03   -0.66638E-03  1274   0.233E-01    0.995E-02
DAV:   3    -0.109288276634E+03    0.63439E-04   -0.19498E-04   854   0.489E-02
  86 F= -.10928828E+03 E0= -.10928828E+03  d E =-.197897E-02
 curvature:  -5.82 expect dE=-0.486E-02 dE for cont linesearch -0.318E-03
 ZBRENT: increasing intervall
 opt :   9.5094  next Energy=  -109.287549 (dE=-0.125E-02)
 bond charge predicted
       N       E                     dE             d eps       ncg     rms          rms(c)
DAV:   1    -0.109286280923E+03    0.20591E-02   -0.36979E-01  1008   0.155E+00    0.417E-01
DAV:   2    -0.109287945928E+03   -0.16650E-02   -0.26177E-02  1274   0.459E-01    0.180E-01
DAV:   3    -0.109287744982E+03    0.20095E-03   -0.96083E-04  1442   0.959E-02    0.123E-01
DAV:   4    -0.109287614501E+03    0.13048E-03   -0.17716E-04   756   0.414E-02    0.659E-02
DAV:   5    -0.109287592231E+03    0.22271E-04   -0.22361E-04   812   0.434E-02
  87 F= -.10928759E+03 E0= -.10928759E+03  d E =-.129457E-02
 curvature:  13.30 expect dE= 0.288E-01 dE for cont linesearch  0.160E-02
 ZBRENT: bracketing found
 ZBRENT: interpolating
 opt :   6.1014  next Energy=  -109.288624 (dE=-0.233E-02)
 bond charge predicted
       N       E                     dE             d eps       ncg     rms          rms(c)
DAV:   1    -0.109287889434E+03   -0.27493E-03   -0.13533E-01  1008   0.937E-01    0.244E-01
DAV:   2    -0.109288548684E+03   -0.65925E-03   -0.97216E-03  1260   0.281E-01    0.115E-01
DAV:   3    -0.109288468776E+03    0.79908E-04   -0.28127E-04  1008   0.567E-02
  88 F= -.10928847E+03 E0= -.10928847E+03  d E =-.217111E-02
 curvature:  -2.88 expect dE=-0.281E-02 dE for cont linesearch -0.331E-04
 trial: gam= 1.20989 g(F)=  0.790E-03 g(S)=  0.184E-03 ort =-0.138E-03 (trialstep = 0.107E+01)
 search vector abs. value=  0.308E-02
 bond charge predicted
       N       E                     dE             d eps       ncg     rms          rms(c)
DAV:   1    -0.109289071847E+03   -0.52316E-03   -0.29468E-02  1008   0.433E-01    0.133E-01
DAV:   2    -0.109289249816E+03   -0.17797E-03   -0.23753E-03  1288   0.135E-01    0.356E-02
DAV:   3    -0.109289233711E+03    0.16105E-04   -0.57564E-05   756   0.281E-02
  89 F= -.10928923E+03 E0= -.10928923E+03  d E =-.764935E-03
 ZBRENT: can't locate minimum, use default step
 trial-energy change:   -0.000765  1 .order   -0.000788   -0.000865   -0.000711
 step:   4.2902(harm=  6.0160)  dis= 0.00712  next Energy=  -109.290894 (dE=-0.243E-02)
 bond charge predicted
       N       E                     dE             d eps       ncg     rms          rms(c)
DAV:   1    -0.109289127538E+03    0.12228E-03   -0.24668E-01  1008   0.125E+00    0.333E-01
DAV:   2    -0.109290218181E+03   -0.10906E-02   -0.17143E-02  1260   0.369E-01    0.130E-01
DAV:   3    -0.109290047920E+03    0.17026E-03   -0.56205E-04  1302   0.766E-02    0.886E-02
DAV:   4    -0.109289949098E+03    0.98822E-04   -0.14407E-04   756   0.366E-02
  90 F= -.10928995E+03 E0= -.10928995E+03  d E =-.148032E-02
 curvature: -10.09 expect dE=-0.127E-01 dE for cont linesearch -0.230E-04
 trial: gam= 0.71098 g(F)=  0.964E-03 g(S)=  0.298E-03 ort = 0.837E-04 (trialstep = 0.172E+01)
 search vector abs. value=  0.294E-02
 bond charge predicted
       N       E                     dE             d eps       ncg     rms          rms(c)
DAV:   1    -0.109291329524E+03   -0.12816E-02   -0.64226E-02  1008   0.643E-01    0.210E-01
DAV:   2    -0.109291261962E+03    0.67562E-04   -0.45196E-03  1246   0.190E-01    0.893E-02
DAV:   3    -0.109291167923E+03    0.94039E-04   -0.22676E-04   840   0.478E-02
  91 F= -.10929117E+03 E0= -.10929117E+03  d E =-.121883E-02
 trial-energy change:   -0.001219  1 .order   -0.001320   -0.002268   -0.000373
 step:   2.0540(harm=  2.0540)  dis= 0.00282  next Energy=  -109.291306 (dE=-0.136E-02)
 bond charge predicted
       N       E                     dE             d eps       ncg     rms          rms(c)
DAV:   1    -0.109291127457E+03    0.13450E-03   -0.20996E-03  1176   0.116E-01    0.389E-02
DAV:   2    -0.109291109709E+03    0.17748E-04   -0.12364E-04   756   0.359E-02
  92 F= -.10929111E+03 E0= -.10929111E+03  d E =-.116061E-02
 curvature:  -2.28 expect dE=-0.209E-02 dE for cont linesearch -0.162E-04
 trial: gam= 0.48166 g(F)=  0.854E-03 g(S)=  0.605E-04 ort =-0.144E-03 (trialstep = 0.178E+01)
 search vector abs. value=  0.146E-02
 bond charge predicted
       N       E                     dE             d eps       ncg     rms          rms(c)
DAV:   1    -0.109292236197E+03   -0.11087E-02   -0.33601E-02  1036   0.467E-01    0.141E-01
DAV:   2    -0.109292357079E+03   -0.12088E-03   -0.27175E-03  1302   0.149E-01    0.650E-02
DAV:   3    -0.109292326975E+03    0.30104E-04   -0.10219E-04   756   0.347E-02
  93 F= -.10929233E+03 E0= -.10929233E+03  d E =-.121727E-02
 trial-energy change:   -0.001217  1 .order   -0.001088   -0.001507   -0.000668
 step:   3.2047(harm=  3.2047)  dis= 0.00321  next Energy=  -109.292464 (dE=-0.135E-02)
 bond charge predicted
       N       E                     dE             d eps       ncg     rms          rms(c)
DAV:   1    -0.109292443654E+03   -0.86575E-04   -0.20193E-02  1078   0.363E-01    0.109E-01
DAV:   2    -0.109292489533E+03   -0.45879E-04   -0.15644E-03  1302   0.113E-01    0.541E-02
DAV:   3    -0.109292468632E+03    0.20901E-04   -0.66781E-05   756   0.277E-02
  94 F= -.10929247E+03 E0= -.10929247E+03  d E =-.135892E-02
 curvature:  -2.76 expect dE=-0.312E-02 dE for cont linesearch -0.266E-05
 trial: gam= 0.97886 g(F)=  0.739E-03 g(S)=  0.389E-03 ort = 0.375E-04 (trialstep = 0.116E+01)
 search vector abs. value=  0.260E-02
 bond charge predicted
       N       E                     dE             d eps       ncg     rms          rms(c)
DAV:   1    -0.109293354912E+03   -0.86538E-03   -0.25324E-02  1036   0.403E-01    0.131E-01
DAV:   2    -0.109293342874E+03    0.12037E-04   -0.19003E-03  1274   0.125E-01    0.533E-02
DAV:   3    -0.109293305712E+03    0.37162E-04   -0.10475E-04   756   0.332E-02
  95 F= -.10929331E+03 E0= -.10929331E+03  d E =-.837080E-03
 trial-energy change:   -0.000837  1 .order   -0.000892   -0.001351   -0.000433
 step:   1.7069(harm=  1.7069)  dis= 0.00194  next Energy=  -109.293463 (dE=-0.994E-03)
 bond charge predicted
       N       E                     dE             d eps       ncg     rms          rms(c)
DAV:   1    -0.109293404290E+03   -0.61416E-04   -0.52764E-03  1078   0.185E-01    0.568E-02
DAV:   2    -0.109293386860E+03    0.17431E-04   -0.38905E-04  1162   0.574E-02
  96 F= -.10929339E+03 E0= -.10929339E+03  d E =-.918228E-03
 curvature:  -1.90 expect dE=-0.136E-02 dE for cont linesearch -0.111E-04
 trial: gam= 0.36502 g(F)=  0.482E-03 g(S)=  0.230E-03 ort = 0.123E-03 (trialstep = 0.127E+01)
 search vector abs. value=  0.115E-02
 bond charge predicted
       N       E                     dE             d eps       ncg     rms          rms(c)
DAV:   1    -0.109294223791E+03   -0.81950E-03   -0.13308E-02  1106   0.294E-01    0.123E-01
DAV:   2    -0.109294021440E+03    0.20235E-03   -0.10983E-03  1246   0.921E-02    0.560E-02
DAV:   3    -0.109293970057E+03    0.51383E-04   -0.11259E-04   728   0.296E-02
  97 F= -.10929397E+03 E0= -.10929397E+03  d E =-.583197E-03
 trial-energy change:   -0.000583  1 .order   -0.000744   -0.000961   -0.000527
 step:   2.8125(harm=  2.8125)  dis= 0.00166  next Energy=  -109.294452 (dE=-0.106E-02)
 bond charge predicted
       N       E                     dE             d eps       ncg     rms          rms(c)
DAV:   1    -0.109294470130E+03   -0.44869E-03   -0.18835E-02  1078   0.352E-01    0.143E-01
DAV:   2    -0.109294214885E+03    0.25525E-03   -0.15313E-03  1232   0.108E-01    0.608E-02
DAV:   3    -0.109294152222E+03    0.62663E-04   -0.14930E-04   756   0.339E-02
  98 F= -.10929415E+03 E0= -.10929415E+03  d E =-.765363E-03
 curvature:  -2.13 expect dE=-0.118E-02 dE for cont linesearch -0.409E-05
 trial: gam= 0.59977 g(F)=  0.503E-03 g(S)=  0.504E-04 ort = 0.469E-04 (trialstep = 0.158E+01)
 search vector abs. value=  0.102E-02
 bond charge predicted
       N       E                     dE             d eps       ncg     rms          rms(c)
DAV:   1    -0.109294651461E+03   -0.43658E-03   -0.13276E-02  1036   0.297E-01    0.775E-02
DAV:   2    -0.109294681825E+03   -0.30364E-04   -0.10167E-03  1260   0.884E-02    0.370E-02
DAV:   3    -0.109294669898E+03    0.11927E-04   -0.31316E-05   756   0.194E-02
  99 F= -.10929467E+03 E0= -.10929467E+03  d E =-.517676E-03
 trial-energy change:   -0.000518  1 .order   -0.000554   -0.000918   -0.000189
 step:   1.9885(harm=  1.9885)  dis= 0.00247  next Energy=  -109.294730 (dE=-0.578E-03)
