/etc/profile: 第 79 行:ulimit: stack size: 无法修改 limit 值: 不允许的操作
/home/customer/.bashrc: 第 12 行:ulimit: stack size: 无法修改 limit 值: 不允许的操作
Intel(R) Parallel Studio XE 2018 Update 3 for Linux*
Copyright (C) 2009-2018 Intel Corporation. All rights reserved.
 running on   14 total cores
 distrk:  each k-point on   14 cores,    1 groups
 distr:  one band on    1 cores,   14 groups
 using from now: INCAR     
 vasp.5.4.4.18Apr17-6-g9f103f2a35 (build Oct 27 2022 13:04:57) complex          
  
 POSCAR found type information on POSCAR  Na Sb S 
 POSCAR found :  3 types and      26 ions
 scaLAPACK will be used

 ----------------------------------------------------------------------------- 
|                                                                             |
|           W    W    AA    RRRRR   N    N  II  N    N   GGGG   !!!           |
|           W    W   A  A   R    R  NN   N  II  NN   N  G    G  !!!           |
|           W    W  A    A  R    R  N N  N  II  N N  N  G       !!!           |
|           W WW W  AAAAAA  RRRRR   N  N N  II  N  N N  G  GGG   !            |
|           WW  WW  A    A  R   R   N   NN  II  N   NN  G    G                |
|           W    W  A    A  R    R  N    N  II  N    N   GGGG   !!!           |
|                                                                             |
|      For optimal performance we recommend to set                            |
|        NCORE= 4 - approx SQRT( number of cores)                             |
|      NCORE specifies how many cores store one orbital (NPAR=cpu/NCORE).     |
|      This setting can  greatly improve the performance of VASP for DFT.     |
|      The default,   NCORE=1            might be grossly inefficient         |
|      on modern multi-core architectures or massively parallel machines.     |
|      Do your own testing !!!!                                               |
|      Unfortunately you need to use the default for GW and RPA calculations. |
|      (for HF NCORE is supported but not extensively tested yet)             |
|                                                                             |
 ----------------------------------------------------------------------------- 

 LDA part: xc-table for Pade appr. of Perdew
 POSCAR, INCAR and KPOINTS ok, starting setup
 FFT: planning ...
 WAVECAR not read
 entering main loop
       N       E                     dE             d eps       ncg     rms          rms(c)
DAV:   1     0.612825623690E+03    0.61283E+03   -0.34218E+04  1008   0.783E+02
DAV:   2    -0.302023656474E+02   -0.64303E+03   -0.62261E+03  1260   0.180E+02
DAV:   3    -0.110794394512E+03   -0.80592E+02   -0.79528E+02  1246   0.695E+01
DAV:   4    -0.114055987344E+03   -0.32616E+01   -0.32461E+01  1512   0.160E+01
DAV:   5    -0.114131875651E+03   -0.75888E-01   -0.75829E-01  1302   0.236E+00    0.216E+01
DAV:   6    -0.107894750139E+03    0.62371E+01   -0.15148E+01  1176   0.911E+00    0.164E+01
DAV:   7    -0.107808275440E+03    0.86475E-01   -0.37754E+00  1330   0.423E+00    0.651E+00
DAV:   8    -0.107763324226E+03    0.44951E-01   -0.26324E-01  1442   0.157E+00    0.218E+00
DAV:   9    -0.107769570985E+03   -0.62468E-02   -0.71398E-02  1218   0.818E-01    0.579E-01
DAV:  10    -0.107771789721E+03   -0.22187E-02   -0.45206E-03  1428   0.193E-01    0.286E-01
DAV:  11    -0.107775290580E+03   -0.35009E-02   -0.52952E-03  1162   0.206E-01    0.171E-01
DAV:  12    -0.107775721008E+03   -0.43043E-03   -0.52219E-04  1190   0.626E-02    0.842E-02
DAV:  13    -0.107776072011E+03   -0.35100E-03   -0.43089E-04   994   0.552E-02    0.434E-02
DAV:  14    -0.107776142397E+03   -0.70386E-04   -0.98594E-05   924   0.281E-02
   1 F= -.10777614E+03 E0= -.10777614E+03  d E =-.107776E+03
 curvature:   0.00 expect dE= 0.000E+00 dE for cont linesearch  0.000E+00
 trial: gam= 0.00000 g(F)=  0.419E-01 g(S)=  0.102E-01 ort = 0.000E+00 (trialstep = 0.100E+01)
 search vector abs. value=  0.521E-01
 bond charge predicted
       N       E                     dE             d eps       ncg     rms          rms(c)
DAV:   1    -0.107829203406E+03   -0.53131E-01   -0.49362E-01  1092   0.170E+00    0.558E-01
DAV:   2    -0.107828216236E+03    0.98717E-03   -0.34490E-02  1232   0.519E-01    0.235E-01
DAV:   3    -0.107827382370E+03    0.83387E-03   -0.18107E-03  1260   0.120E-01    0.153E-01
DAV:   4    -0.107827003678E+03    0.37869E-03   -0.72388E-04  1274   0.687E-02    0.786E-02
DAV:   5    -0.107826961370E+03    0.42308E-04   -0.17104E-04   770   0.356E-02
   2 F= -.10782696E+03 E0= -.10782696E+03  d E =-.508190E-01
 ZBRENT: can't locate minimum, use default step
 trial-energy change:   -0.050819  1 .order   -0.051270   -0.052111   -0.050429
 step:   4.0000(harm= 30.9751)  dis= 0.01993  next Energy=  -108.583222 (dE=-0.807E+00)
 bond charge predicted
       N       E                     dE             d eps       ncg     rms          rms(c)
DAV:   1    -0.107987656550E+03   -0.16065E+00   -0.44106E+00  1008   0.510E+00    0.165E+00
DAV:   2    -0.107978972726E+03    0.86838E-02   -0.31097E-01  1232   0.155E+00    0.662E-01
DAV:   3    -0.107971386535E+03    0.75862E-02   -0.16241E-02  1274   0.358E-01    0.433E-01
DAV:   4    -0.107968101591E+03    0.32849E-02   -0.62397E-03  1274   0.201E-01    0.238E-01
DAV:   5    -0.107967692236E+03    0.40935E-03   -0.16924E-03  1414   0.103E-01    0.112E-01
DAV:   6    -0.107967654238E+03    0.37999E-04   -0.13500E-04   756   0.336E-02
   3 F= -.10796765E+03 E0= -.10796765E+03  d E =-.191512E+00
 curvature:  -2.94 expect dE=-0.127E+00 dE for cont linesearch -0.108E+00
 ZBRENT: increasing intervall
 opt :  10.0000  next Energy=  -108.189000 (dE=-0.413E+00)
 bond charge predicted
       N       E                     dE             d eps       ncg     rms          rms(c)
DAV:   1    -0.108269862546E+03   -0.30217E+00   -0.17752E+01  1008   0.102E+01    0.325E+00
DAV:   2    -0.108234576615E+03    0.35286E-01   -0.12688E+00  1246   0.313E+00    0.131E+00
DAV:   3    -0.108203964336E+03    0.30612E-01   -0.67057E-02  1274   0.730E-01    0.865E-01
DAV:   4    -0.108191538343E+03    0.12426E-01   -0.23455E-02  1274   0.393E-01    0.503E-01
DAV:   5    -0.108189679262E+03    0.18591E-02   -0.62369E-03  1372   0.200E-01    0.221E-01
DAV:   6    -0.108189472488E+03    0.20677E-03   -0.78776E-04  1302   0.707E-02    0.131E-01
DAV:   7    -0.108189491644E+03   -0.19156E-04   -0.95909E-05   798   0.343E-02
   4 F= -.10818949E+03 E0= -.10818949E+03  d E =-.413349E+00
 curvature:  -6.05 expect dE=-0.279E+00 dE for cont linesearch -0.103E+00
 ZBRENT: increasing intervall
 opt :  22.0000  next Energy=  -108.380379 (dE=-0.604E+00)
 bond charge predicted
       N       E                     dE             d eps       ncg     rms          rms(c)
DAV:   1    -0.108758624332E+03   -0.56915E+00   -0.71470E+01  1008   0.205E+01    0.686E+00
DAV:   2    -0.108606894202E+03    0.15173E+00   -0.52723E+00  1232   0.633E+00    0.260E+00
DAV:   3    -0.108483288131E+03    0.12361E+00   -0.28892E-01  1260   0.153E+00    0.182E+00
DAV:   4    -0.108439464951E+03    0.43823E-01   -0.82455E-02  1288   0.750E-01    0.121E+00
DAV:   5    -0.108430450657E+03    0.90143E-02   -0.20659E-02  1344   0.369E-01    0.463E-01
DAV:   6    -0.108428757303E+03    0.16934E-02   -0.51762E-03  1274   0.180E-01    0.190E-01
DAV:   7    -0.108428826500E+03   -0.69198E-04   -0.72735E-04  1344   0.801E-02
   5 F= -.10842883E+03 E0= -.10842883E+03  d E =-.652684E+00
 curvature: -11.21 expect dE=-0.123E+01 dE for cont linesearch -0.187E-01
 trial: gam= 1.92430 g(F)=  0.408E-01 g(S)=  0.688E-01 ort = 0.931E-02 (trialstep = 0.801E+00)
 search vector abs. value=  0.338E+00
 bond charge predicted
       N       E                     dE             d eps       ncg     rms          rms(c)
DAV:   1    -0.108574107966E+03   -0.14535E+00   -0.20902E+00  1050   0.354E+00    0.140E+00
DAV:   2    -0.108533793440E+03    0.40315E-01   -0.16123E-01  1162   0.110E+00    0.631E-01
DAV:   3    -0.108525293280E+03    0.85002E-02   -0.26572E-02  1232   0.396E-01    0.340E-01
DAV:   4    -0.108523515116E+03    0.17782E-02   -0.29121E-03  1344   0.156E-01    0.179E-01
DAV:   5    -0.108523151124E+03    0.36399E-03   -0.89136E-04  1288   0.759E-02    0.102E-01
DAV:   6    -0.108523127734E+03    0.23390E-04   -0.10829E-04   756   0.297E-02
   6 F= -.10852313E+03 E0= -.10852313E+03  d E =-.943012E-01
 ZBRENT: can't locate minimum, use default step
 trial-energy change:   -0.094301  1 .order   -0.095715   -0.102110   -0.089320
 step:   3.2030(harm=  6.3928)  dis= 0.03424  next Energy=  -108.836423 (dE=-0.408E+00)
 bond charge predicted
       N       E                     dE             d eps       ncg     rms          rms(c)
DAV:   1    -0.109193175921E+03   -0.67002E+00   -0.19121E+01  1008   0.108E+01    0.448E+00
DAV:   2    -0.108825449926E+03    0.36773E+00   -0.14954E+00  1162   0.335E+00    0.199E+00
DAV:   3    -0.108747398924E+03    0.78051E-01   -0.24987E-01  1232   0.122E+00    0.103E+00
DAV:   4    -0.108732289509E+03    0.15109E-01   -0.24354E-02  1344   0.458E-01    0.602E-01
DAV:   5    -0.108728653419E+03    0.36361E-02   -0.68437E-03  1288   0.213E-01    0.328E-01
DAV:   6    -0.108728047348E+03    0.60607E-03   -0.16859E-03  1302   0.100E-01    0.186E-01
DAV:   7    -0.108727986510E+03    0.60838E-04   -0.26216E-04   882   0.559E-02
   7 F= -.10872799E+03 E0= -.10872799E+03  d E =-.299160E+00
 curvature:  -5.72 expect dE=-0.168E+00 dE for cont linesearch -0.695E-01
 ZBRENT: increasing intervall
 opt :   8.0075  next Energy=  -108.808194 (dE=-0.379E+00)
 bond charge predicted
       N       E                     dE             d eps       ncg     rms          rms(c)
DAV:   1    -0.110590797607E+03   -0.18628E+01   -0.78917E+01  1022   0.221E+01    0.102E+01
DAV:   2    -0.109096497849E+03    0.14943E+01   -0.63330E+00  1176   0.690E+00    0.431E+00
DAV:   3    -0.108774948624E+03    0.32155E+00   -0.10778E+00  1246   0.255E+00    0.217E+00
DAV:   4    -0.108722089627E+03    0.52859E-01   -0.88645E-02  1358   0.898E-01    0.147E+00
DAV:   5    -0.108706110540E+03    0.15979E-01   -0.23146E-02  1260   0.397E-01    0.760E-01
DAV:   6    -0.108700919312E+03    0.51912E-02   -0.11925E-02  1260   0.262E-01    0.302E-01
DAV:   7    -0.108700827879E+03    0.91432E-04   -0.14541E-03  1526   0.116E-01    0.784E-02
DAV:   8    -0.108700864552E+03   -0.36673E-04   -0.23722E-04   756   0.454E-02
   8 F= -.10870086E+03 E0= -.10870086E+03  d E =-.272038E+00
 curvature:  -6.60 expect dE=-0.950E+00 dE for cont linesearch -0.802E-01
 ZBRENT: bracketing found
 ZBRENT: interpolating
 opt :   5.6052  next Energy=  -108.805001 (dE=-0.376E+00)
 bond charge predicted
       N       E                     dE             d eps       ncg     rms          rms(c)
DAV:   1    -0.109262580893E+03   -0.56175E+00   -0.19320E+01  1022   0.108E+01    0.402E+00
DAV:   2    -0.108899909739E+03    0.36267E+00   -0.14353E+00  1176   0.338E+00    0.202E+00
DAV:   3    -0.108819518239E+03    0.80392E-01   -0.23912E-01  1232   0.120E+00    0.116E+00
DAV:   4    -0.108799685498E+03    0.19833E-01   -0.27851E-02  1288   0.493E-01    0.515E-01
DAV:   5    -0.108795666978E+03    0.40185E-02   -0.11538E-02  1260   0.267E-01    0.289E-01
DAV:   6    -0.108795678214E+03   -0.11236E-04   -0.93058E-04  1274   0.892E-02
   9 F= -.10879568E+03 E0= -.10879568E+03  d E =-.366852E+00
 curvature:  -6.34 expect dE=-0.331E+00 dE for cont linesearch -0.304E-02
 ZBRENT: interpolating
 opt :   5.2069  next Energy=  -108.798216 (dE=-0.369E+00)
 bond charge predicted
       N       E                     dE             d eps       ncg     rms          rms(c)
DAV:   1    -0.108809476619E+03   -0.13810E-01   -0.51615E-01  1078   0.178E+00    0.661E-01
DAV:   2    -0.108799195187E+03    0.10281E-01   -0.39933E-02  1176   0.557E-01    0.340E-01
DAV:   3    -0.108796799963E+03    0.23952E-02   -0.66975E-03  1232   0.199E-01    0.197E-01
DAV:   4    -0.108796221044E+03    0.57892E-03   -0.80837E-04  1260   0.826E-02    0.970E-02
DAV:   5    -0.108796086440E+03    0.13460E-03   -0.26676E-04   910   0.430E-02    0.424E-02
DAV:   6    -0.108796076170E+03    0.10270E-04   -0.52127E-05   756   0.217E-02
  10 F= -.10879608E+03 E0= -.10879608E+03  d E =-.367250E+00
 curvature:  -5.29 expect dE=-0.226E+00 dE for cont linesearch -0.597E-03
 trial: gam= 0.48496 g(F)=  0.302E-01 g(S)=  0.125E-01 ort = 0.618E-02 (trialstep = 0.168E+01)
 search vector abs. value=  0.128E+00
 bond charge predicted
       N       E                     dE             d eps       ncg     rms          rms(c)
DAV:   1    -0.108863510487E+03   -0.67424E-01   -0.28715E+00  1008   0.418E+00    0.120E+00
DAV:   2    -0.108863116442E+03    0.39404E-03   -0.20314E-01  1232   0.130E+00    0.521E-01
DAV:   3    -0.108859455280E+03    0.36612E-02   -0.12204E-02  1274   0.326E-01    0.309E-01
DAV:   4    -0.108857868038E+03    0.15872E-02   -0.26479E-03  1260   0.144E-01    0.177E-01
DAV:   5    -0.108857472125E+03    0.39591E-03   -0.11955E-03  1274   0.934E-02    0.957E-02
DAV:   6    -0.108857459684E+03    0.12441E-04   -0.12821E-04   756   0.346E-02
  11 F= -.10885746E+03 E0= -.10885746E+03  d E =-.613835E-01
 trial-energy change:   -0.061384  1 .order   -0.063239   -0.076816   -0.049661
 step:   4.7580(harm=  4.7580)  dis= 0.03738  next Energy=  -108.904725 (dE=-0.109E+00)
 bond charge predicted
       N       E                     dE             d eps       ncg     rms          rms(c)
DAV:   1    -0.108945539093E+03   -0.88067E-01   -0.95943E+00  1008   0.764E+00    0.218E+00
DAV:   2    -0.108944052661E+03    0.14864E-02   -0.68276E-01  1232   0.239E+00    0.951E-01
DAV:   3    -0.108931792941E+03    0.12260E-01   -0.40643E-02  1274   0.596E-01    0.572E-01
DAV:   4    -0.108926595151E+03    0.51978E-02   -0.85373E-03  1274   0.259E-01    0.338E-01
DAV:   5    -0.108925160962E+03    0.14342E-02   -0.40646E-03  1260   0.172E-01    0.181E-01
DAV:   6    -0.108925131787E+03    0.29175E-04   -0.56061E-04  1218   0.645E-02
  12 F= -.10892513E+03 E0= -.10892513E+03  d E =-.129056E+00
 curvature:  -6.68 expect dE=-0.113E+00 dE for cont linesearch -0.134E-01
 ZBRENT: increasing intervall
 opt :  10.9099  next Energy=  -108.940995 (dE=-0.145E+00)
 bond charge predicted
       N       E                     dE             d eps       ncg     rms          rms(c)
DAV:   1    -0.109009920890E+03   -0.84760E-01   -0.38519E+01  1008   0.153E+01    0.455E+00
DAV:   2    -0.108999663386E+03    0.10258E-01   -0.27864E+00  1232   0.481E+00    0.196E+00
DAV:   3    -0.108951275013E+03    0.48388E-01   -0.16817E-01  1288   0.121E+00    0.121E+00
DAV:   4    -0.108931701369E+03    0.19574E-01   -0.31542E-02  1274   0.503E-01    0.755E-01
DAV:   5    -0.108925215189E+03    0.64862E-02   -0.16528E-02  1260   0.345E-01    0.384E-01
DAV:   6    -0.108925034456E+03    0.18073E-03   -0.24294E-03  1414   0.137E-01    0.272E-01
DAV:   7    -0.108925039990E+03   -0.55346E-05   -0.61673E-04  1176   0.690E-02
  13 F= -.10892504E+03 E0= -.10892504E+03  d E =-.128964E+00
 curvature:  -7.90 expect dE=-0.216E+00 dE for cont linesearch -0.872E-02
 ZBRENT: bracketing found
 ZBRENT: interpolating
 opt :   8.2904  next Energy=  -108.940631 (dE=-0.145E+00)
 bond charge predicted
       N       E                     dE             d eps       ncg     rms          rms(c)
DAV:   1    -0.108960362756E+03   -0.35328E-01   -0.69364E+00  1008   0.652E+00    0.206E+00
DAV:   2    -0.108960250481E+03    0.11228E-03   -0.48856E-01  1232   0.203E+00    0.853E-01
DAV:   3    -0.108951599631E+03    0.86508E-02   -0.31463E-02  1288   0.522E-01    0.532E-01
DAV:   4    -0.108947322278E+03    0.42774E-02   -0.62746E-03  1260   0.226E-01    0.292E-01
DAV:   5    -0.108946217300E+03    0.11050E-02   -0.32823E-03  1274   0.152E-01    0.132E-01
DAV:   6    -0.108946173594E+03    0.43707E-04   -0.43242E-04  1176   0.580E-02
  14 F= -.10894617E+03 E0= -.10894617E+03  d E =-.150097E+00
 curvature: -14.11 expect dE=-0.270E+00 dE for cont linesearch -0.131E-02
 trial: gam= 0.32657 g(F)=  0.106E-01 g(S)=  0.858E-02 ort =-0.345E-02 (trialstep = 0.300E+01)
 search vector abs. value=  0.306E-01
 bond charge predicted
       N       E                     dE             d eps       ncg     rms          rms(c)
DAV:   1    -0.108991506690E+03   -0.45289E-01   -0.22064E+00  1008   0.383E+00    0.116E+00
DAV:   2    -0.108994726121E+03   -0.32194E-02   -0.16057E-01  1260   0.117E+00    0.559E-01
DAV:   3    -0.108991805384E+03    0.29207E-02   -0.91856E-03  1442   0.287E-01    0.369E-01
DAV:   4    -0.108989891636E+03    0.19137E-02   -0.23657E-03  1246   0.140E-01    0.155E-01
DAV:   5    -0.108989536156E+03    0.35548E-03   -0.11213E-03  1260   0.930E-02    0.594E-02
DAV:   6    -0.108989526250E+03    0.99061E-05   -0.12281E-04   756   0.350E-02
  15 F= -.10898953E+03 E0= -.10898953E+03  d E =-.433527E-01
 trial-energy change:   -0.043353  1 .order   -0.042165   -0.054172   -0.030158
 step:   5.4549(harm=  6.7759)  dis= 0.02221  next Energy=  -109.002477 (dE=-0.563E-01)
 bond charge predicted
       N       E                     dE             d eps       ncg     rms          rms(c)
DAV:   1    -0.109008208268E+03   -0.18672E-01   -0.14755E+00  1036   0.313E+00    0.963E-01
DAV:   2    -0.109010475181E+03   -0.22669E-02   -0.10812E-01  1260   0.959E-01    0.442E-01
DAV:   3    -0.109008505758E+03    0.19694E-02   -0.59906E-03  1414   0.233E-01    0.293E-01
DAV:   4    -0.109007251363E+03    0.12544E-02   -0.15757E-03  1246   0.114E-01    0.125E-01
DAV:   5    -0.109007029329E+03    0.22203E-03   -0.73140E-04  1190   0.752E-02    0.471E-02
DAV:   6    -0.109007024547E+03    0.47824E-05   -0.78411E-05   756   0.282E-02
  16 F= -.10900702E+03 E0= -.10900702E+03  d E =-.608510E-01
 curvature:  -5.04 expect dE=-0.641E-01 dE for cont linesearch -0.326E-02
 ZBRENT: increasing intervall
 opt :  10.3573  next Energy=  -109.001398 (dE=-0.552E-01)
 bond charge predicted
       N       E                     dE             d eps       ncg     rms          rms(c)
DAV:   1    -0.109006199551E+03    0.82978E-03   -0.58792E+00  1008   0.623E+00    0.188E+00
DAV:   2    -0.109015070122E+03   -0.88706E-02   -0.42862E-01  1260   0.191E+00    0.913E-01
DAV:   3    -0.109007377088E+03    0.76930E-02   -0.23809E-02  1442   0.463E-01    0.620E-01
DAV:   4    -0.109002277688E+03    0.50994E-02   -0.62945E-03  1260   0.227E-01    0.264E-01
DAV:   5    -0.109001331804E+03    0.94588E-03   -0.31940E-03  1274   0.157E-01    0.100E-01
DAV:   6    -0.109001329808E+03    0.19963E-05   -0.42726E-04  1078   0.592E-02
  17 F= -.10900133E+03 E0= -.10900133E+03  d E =-.551562E-01
 curvature:   8.71 expect dE= 0.288E+00 dE for cont linesearch  0.141E-01
 ZBRENT: bracketing found
 ZBRENT: interpolating
 opt :   7.3531  next Energy=  -109.011245 (dE=-0.651E-01)
 bond charge predicted
       N       E                     dE             d eps       ncg     rms          rms(c)
DAV:   1    -0.109014172661E+03   -0.12841E-01   -0.22153E+00  1022   0.382E+00    0.119E+00
DAV:   2    -0.109017059447E+03   -0.28868E-02   -0.15810E-01  1246   0.117E+00    0.540E-01
DAV:   3    -0.109014117851E+03    0.29416E-02   -0.91199E-03  1442   0.286E-01    0.344E-01
DAV:   4    -0.109012292492E+03    0.18254E-02   -0.24449E-03  1232   0.142E-01    0.148E-01
DAV:   5    -0.109012016066E+03    0.27643E-03   -0.10376E-03  1246   0.896E-02    0.562E-02
DAV:   6    -0.109012012780E+03    0.32859E-05   -0.10629E-04   756   0.328E-02
  18 F= -.10901201E+03 E0= -.10901201E+03  d E =-.658392E-01
 curvature:  -2.61 expect dE=-0.520E-01 dE for cont linesearch -0.250E-04
 trial: gam= 0.96323 g(F)=  0.154E-01 g(S)=  0.454E-02 ort = 0.542E-03 (trialstep = 0.240E+01)
 search vector abs. value=  0.494E-01
 bond charge predicted
       N       E                     dE             d eps       ncg     rms          rms(c)
DAV:   1    -0.109047357845E+03   -0.35342E-01   -0.15019E+00  1008   0.319E+00    0.834E-01
DAV:   2    -0.109051133772E+03   -0.37759E-02   -0.11032E-01  1288   0.967E-01    0.412E-01
DAV:   3    -0.109050099557E+03    0.10342E-02   -0.63067E-03  1344   0.235E-01    0.267E-01
DAV:   4    -0.109049409054E+03    0.69050E-03   -0.89848E-04  1302   0.886E-02    0.153E-01
DAV:   5    -0.109049169124E+03    0.23993E-03   -0.71702E-04  1190   0.742E-02    0.654E-02
DAV:   6    -0.109049175078E+03   -0.59533E-05   -0.11149E-04   756   0.323E-02
  19 F= -.10904918E+03 E0= -.10904918E+03  d E =-.371623E-01
 trial-energy change:   -0.037162  1 .order   -0.037795   -0.049113   -0.026477
 step:   5.2075(harm=  5.2075)  dis= 0.02518  next Energy=  -109.065292 (dE=-0.533E-01)
 bond charge predicted
       N       E                     dE             d eps       ncg     rms          rms(c)
DAV:   1    -0.109063399486E+03   -0.14230E-01   -0.20633E+00  1008   0.374E+00    0.100E+00
DAV:   2    -0.109068655428E+03   -0.52559E-02   -0.15260E-01  1274   0.113E+00    0.471E-01
DAV:   3    -0.109067209522E+03    0.14459E-02   -0.86007E-03  1344   0.276E-01    0.306E-01
DAV:   4    -0.109066271925E+03    0.93760E-03   -0.12346E-03  1316   0.104E-01    0.179E-01
DAV:   5    -0.109065955342E+03    0.31658E-03   -0.95385E-04  1204   0.854E-02    0.725E-02
DAV:   6    -0.109065963129E+03   -0.77863E-05   -0.14536E-04   756   0.371E-02
  20 F= -.10906596E+03 E0= -.10906596E+03  d E =-.539503E-01
 curvature:  -6.28 expect dE=-0.719E-01 dE for cont linesearch -0.155E-02
 ZBRENT: extrapolating
 opt :   6.5075  next Energy=  -109.068233 (dE=-0.562E-01)
 bond charge predicted
       N       E                     dE             d eps       ncg     rms          rms(c)
DAV:   1    -0.109066722256E+03   -0.76691E-03   -0.44334E-01  1036   0.174E+00    0.466E-01
DAV:   2    -0.109067852747E+03   -0.11305E-02   -0.32870E-02  1274   0.526E-01    0.216E-01
DAV:   3    -0.109067542709E+03    0.31004E-03   -0.18386E-03  1372   0.128E-01    0.141E-01
DAV:   4    -0.109067342588E+03    0.20012E-03   -0.22474E-04   812   0.479E-02    0.813E-02
DAV:   5    -0.109067284360E+03    0.58228E-04   -0.37726E-04   994   0.527E-02
  21 F= -.10906728E+03 E0= -.10906728E+03  d E =-.552716E-01
 curvature:  -9.19 expect dE=-0.134E+00 dE for cont linesearch -0.652E-03
 trial: gam= 0.63805 g(F)=  0.805E-02 g(S)=  0.657E-02 ort =-0.187E-02 (trialstep = 0.322E+01)
 search vector abs. value=  0.323E-01
 bond charge predicted
       N       E                     dE             d eps       ncg     rms          rms(c)
DAV:   1    -0.109094412105E+03   -0.27070E-01   -0.20790E+00  1008   0.375E+00    0.106E+00
DAV:   2    -0.109105102592E+03   -0.10690E-01   -0.16453E-01  1302   0.115E+00    0.431E-01
DAV:   3    -0.109103749458E+03    0.13531E-02   -0.53081E-03  1484   0.233E-01    0.312E-01
DAV:   4    -0.109102867366E+03    0.88209E-03   -0.14053E-03  1274   0.105E-01    0.162E-01
DAV:   5    -0.109102663888E+03    0.20348E-03   -0.70835E-04  1176   0.767E-02    0.711E-02
DAV:   6    -0.109102672636E+03   -0.87482E-05   -0.11307E-04   756   0.324E-02
  22 F= -.10910267E+03 E0= -.10910267E+03  d E =-.353883E-01
 trial-energy change:   -0.035388  1 .order   -0.035533   -0.043255   -0.027810
 step:   9.0222(harm=  9.0222)  dis= 0.04204  next Energy=  -109.127853 (dE=-0.606E-01)
 bond charge predicted
       N       E                     dE             d eps       ncg     rms          rms(c)
DAV:   1    -0.109096440137E+03    0.62238E-02   -0.67340E+00  1022   0.674E+00    0.197E+00
DAV:   2    -0.109131417985E+03   -0.34978E-01   -0.53491E-01  1302   0.207E+00    0.785E-01
DAV:   3    -0.109127020067E+03    0.43979E-02   -0.17217E-02  1456   0.419E-01    0.573E-01
DAV:   4    -0.109124175337E+03    0.28447E-02   -0.46338E-03  1288   0.191E-01    0.298E-01
DAV:   5    -0.109123533228E+03    0.64211E-03   -0.22946E-03  1232   0.138E-01    0.127E-01
DAV:   6    -0.109123573013E+03   -0.39785E-04   -0.45597E-04  1148   0.577E-02
  23 F= -.10912357E+03 E0= -.10912357E+03  d E =-.562887E-01
 curvature: -10.86 expect dE=-0.154E+00 dE for cont linesearch -0.179E-02
 trial: gam= 1.04701 g(F)=  0.128E-01 g(S)=  0.140E-02 ort =-0.231E-02 (trialstep = 0.316E+01)
 search vector abs. value=  0.448E-01
 bond charge predicted
       N       E                     dE             d eps       ncg     rms          rms(c)
DAV:   1    -0.109137860553E+03   -0.14327E-01   -0.28694E+00  1036   0.427E+00    0.106E+00
DAV:   2    -0.109154605513E+03   -0.16745E-01   -0.21132E-01  1288   0.130E+00    0.425E-01
DAV:   3    -0.109153617161E+03    0.98835E-03   -0.52337E-03  1400   0.241E-01    0.326E-01
DAV:   4    -0.109152790429E+03    0.82673E-03   -0.19957E-03  1246   0.126E-01    0.153E-01
DAV:   5    -0.109152794945E+03   -0.45154E-05   -0.67085E-04  1204   0.688E-02
  24 F= -.10915279E+03 E0= -.10915279E+03  d E =-.292219E-01
 trial-energy change:   -0.029222  1 .order   -0.029736   -0.037243   -0.022229
 step:   7.8432(harm=  7.8432)  dis= 0.04850  next Energy=  -109.169765 (dE=-0.462E-01)
 bond charge predicted
       N       E                     dE             d eps       ncg     rms          rms(c)
DAV:   1    -0.109138765732E+03    0.14025E-01   -0.62572E+00  1008   0.630E+00    0.158E+00
DAV:   2    -0.109175091981E+03   -0.36326E-01   -0.45990E-01  1288   0.192E+00    0.652E-01
DAV:   3    -0.109172951006E+03    0.21410E-02   -0.11473E-02  1414   0.356E-01    0.500E-01
DAV:   4    -0.109171142719E+03    0.18083E-02   -0.42866E-03  1218   0.185E-01    0.234E-01
DAV:   5    -0.109171143804E+03   -0.10852E-05   -0.15042E-03  1316   0.103E-01    0.873E-02
DAV:   6    -0.109171152176E+03   -0.83719E-05   -0.66411E-05   756   0.270E-02
  25 F= -.10917115E+03 E0= -.10917115E+03  d E =-.475792E-01
 curvature: -14.92 expect dE=-0.139E+00 dE for cont linesearch -0.234E-03
 trial: gam= 0.23934 g(F)=  0.756E-02 g(S)=  0.175E-02 ort = 0.838E-03 (trialstep = 0.410E+01)
 search vector abs. value=  0.123E-01
 bond charge predicted
       N       E                     dE             d eps       ncg     rms          rms(c)
DAV:   1    -0.109194778389E+03   -0.23635E-01   -0.13642E+00  1022   0.303E+00    0.105E+00
DAV:   2    -0.109199061762E+03   -0.42834E-02   -0.12279E-01  1260   0.989E-01    0.389E-01
DAV:   3    -0.109197672189E+03    0.13896E-02   -0.53190E-03  1288   0.221E-01    0.244E-01
DAV:   4    -0.109196938562E+03    0.73363E-03   -0.13849E-03  1260   0.103E-01    0.100E-01
DAV:   5    -0.109196871518E+03    0.67044E-04   -0.32125E-04   910   0.530E-02
  26 F= -.10919687E+03 E0= -.10919687E+03  d E =-.257193E-01
 trial-energy change:   -0.025719  1 .order   -0.026200   -0.038965   -0.013434
 step:   6.7466(harm=  6.2545)  dis= 0.01502  next Energy=  -109.201083 (dE=-0.299E-01)
 bond charge predicted
       N       E                     dE             d eps       ncg     rms          rms(c)
DAV:   1    -0.109200296629E+03   -0.33581E-02   -0.56015E-01  1064   0.195E+00    0.694E-01
DAV:   2    -0.109201935237E+03   -0.16386E-02   -0.50567E-02  1274   0.634E-01    0.252E-01
DAV:   3    -0.109201344811E+03    0.59043E-03   -0.22399E-03  1260   0.142E-01    0.152E-01
DAV:   4    -0.109201055872E+03    0.28894E-03   -0.55387E-04  1260   0.654E-02    0.635E-02
DAV:   5    -0.109201030538E+03    0.25334E-04   -0.12488E-04   728   0.343E-02
  27 F= -.10920103E+03 E0= -.10920103E+03  d E =-.298784E-01
 curvature:  -3.83 expect dE=-0.242E-01 dE for cont linesearch -0.173E-05
 trial: gam= 0.75518 g(F)=  0.315E-02 g(S)=  0.318E-02 ort =-0.744E-04 (trialstep = 0.430E+01)
 search vector abs. value=  0.132E-01
 bond charge predicted
       N       E                     dE             d eps       ncg     rms          rms(c)
DAV:   1    -0.109216689004E+03   -0.15633E-01   -0.13897E+00  1008   0.306E+00    0.778E-01
DAV:   2    -0.109220961320E+03   -0.42723E-02   -0.10870E-01  1330   0.948E-01    0.388E-01
DAV:   3    -0.109219805497E+03    0.11558E-02   -0.54750E-03  1498   0.224E-01    0.261E-01
DAV:   4    -0.109219048839E+03    0.75666E-03   -0.81023E-04  1204   0.831E-02    0.142E-01
DAV:   5    -0.109218749271E+03    0.29957E-03   -0.75845E-04  1232   0.787E-02    0.607E-02
DAV:   6    -0.109218756445E+03   -0.71741E-05   -0.13397E-04   756   0.349E-02
  28 F= -.10921876E+03 E0= -.10921876E+03  d E =-.177259E-01
 trial-energy change:   -0.017726  1 .order   -0.018621   -0.026958   -0.010284
 step:   6.9493(harm=  6.9493)  dis= 0.01736  next Energy=  -109.222823 (dE=-0.218E-01)
 bond charge predicted
       N       E                     dE             d eps       ncg     rms          rms(c)
DAV:   1    -0.109220520872E+03   -0.17716E-02   -0.53156E-01  1008   0.189E+00    0.488E-01
DAV:   2    -0.109222203489E+03   -0.16826E-02   -0.41874E-02  1330   0.587E-01    0.229E-01
DAV:   3    -0.109221762791E+03    0.44070E-03   -0.21161E-03  1470   0.140E-01    0.154E-01
DAV:   4    -0.109221482498E+03    0.28029E-03   -0.26161E-04   854   0.506E-02    0.869E-02
DAV:   5    -0.109221371335E+03    0.11116E-03   -0.37339E-04  1008   0.544E-02    0.319E-02
DAV:   6    -0.109221375256E+03   -0.39216E-05   -0.71779E-05   756   0.270E-02
  29 F= -.10922138E+03 E0= -.10922138E+03  d E =-.203447E-01
 curvature:  -7.32 expect dE=-0.359E-01 dE for cont linesearch -0.120E-03
 trial: gam= 0.46556 g(F)=  0.419E-02 g(S)=  0.711E-03 ort = 0.465E-03 (trialstep = 0.483E+01)
 search vector abs. value=  0.820E-02
 bond charge predicted
       N       E                     dE             d eps       ncg     rms          rms(c)
DAV:   1    -0.109236874453E+03   -0.15503E-01   -0.10081E+00  1078   0.270E+00    0.868E-01
DAV:   2    -0.109238072209E+03   -0.11978E-02   -0.82670E-02  1274   0.819E-01    0.318E-01
DAV:   3    -0.109236252344E+03    0.18199E-02   -0.39148E-03  1400   0.199E-01    0.214E-01
DAV:   4    -0.109235348911E+03    0.90343E-03   -0.17114E-03  1246   0.119E-01    0.855E-02
DAV:   5    -0.109235265170E+03    0.83742E-04   -0.34363E-04   854   0.593E-02
  30 F= -.10923527E+03 E0= -.10923527E+03  d E =-.138899E-01
 trial-energy change:   -0.013890  1 .order   -0.014905   -0.024721   -0.005089
 step:   7.1402(harm=  6.0800)  dis= 0.01431  next Energy=  -109.236372 (dE=-0.150E-01)
 bond charge predicted
       N       E                     dE             d eps       ncg     rms          rms(c)
DAV:   1    -0.109236710092E+03   -0.13612E-02   -0.22818E-01  1176   0.129E+00    0.438E-01
DAV:   2    -0.109236956246E+03   -0.24615E-03   -0.18882E-02  1274   0.389E-01    0.144E-01
DAV:   3    -0.109236528539E+03    0.42771E-03   -0.91287E-04  1316   0.965E-02    0.936E-02
DAV:   4    -0.109236340274E+03    0.18826E-03   -0.35804E-04   980   0.564E-02    0.417E-02
DAV:   5    -0.109236327476E+03    0.12798E-04   -0.95776E-05   756   0.315E-02
  31 F= -.10923633E+03 E0= -.10923633E+03  d E =-.149522E-01
 curvature:  -1.38 expect dE=-0.466E-02 dE for cont linesearch -0.659E-05
 trial: gam= 0.79157 g(F)=  0.205E-02 g(S)=  0.133E-02 ort =-0.198E-03 (trialstep = 0.528E+01)
 search vector abs. value=  0.821E-02
 bond charge predicted
       N       E                     dE             d eps       ncg     rms          rms(c)
DAV:   1    -0.109243165345E+03   -0.68251E-02   -0.12040E+00  1008   0.280E+00    0.650E-01
DAV:   2    -0.109251364918E+03   -0.81996E-02   -0.95706E-02  1358   0.892E-01    0.283E-01
DAV:   3    -0.109251026375E+03    0.33854E-03   -0.22788E-03  1400   0.155E-01    0.195E-01
DAV:   4    -0.109250822201E+03    0.20417E-03   -0.50152E-04  1176   0.612E-02    0.117E-01
DAV:   5    -0.109250763935E+03    0.58266E-04   -0.17657E-04   756   0.413E-02
  32 F= -.10925076E+03 E0= -.10925076E+03  d E =-.144365E-01
 trial-energy change:   -0.014436  1 .order   -0.013013   -0.017064   -0.008963
 step:   7.6076(harm= 11.1324)  dis= 0.01723  next Energy=  -109.252855 (dE=-0.165E-01)
 bond charge predicted
       N       E                     dE             d eps       ncg     rms          rms(c)
DAV:   1    -0.109252363140E+03   -0.15409E-02   -0.22696E-01  1064   0.122E+00    0.291E-01
DAV:   2    -0.109253856028E+03   -0.14929E-02   -0.17986E-02  1358   0.385E-01    0.119E-01
DAV:   3    -0.109253799384E+03    0.56644E-04   -0.42854E-04  1162   0.684E-02
  33 F= -.10925380E+03 E0= -.10925380E+03  d E =-.174719E-01
 curvature:  -9.01 expect dE=-0.282E-01 dE for cont linesearch -0.117E-02
 ZBRENT: increasing intervall
 opt :  12.2535  next Energy=  -109.255526 (dE=-0.192E-01)
 bond charge predicted
       N       E                     dE             d eps       ncg     rms          rms(c)
DAV:   1    -0.109249533201E+03    0.43228E-02   -0.92208E-01  1008   0.245E+00    0.544E-01
DAV:   2    -0.109255604361E+03   -0.60712E-02   -0.71187E-02  1316   0.775E-01    0.265E-01
DAV:   3    -0.109255357028E+03    0.24733E-03   -0.18642E-03  1414   0.141E-01    0.180E-01
DAV:   4    -0.109255170140E+03    0.18689E-03   -0.39827E-04  1064   0.560E-02    0.110E-01
DAV:   5    -0.109255123495E+03    0.46646E-04   -0.22303E-04   812   0.438E-02
  34 F= -.10925512E+03 E0= -.10925512E+03  d E =-.187960E-01
 curvature: -13.26 expect dE=-0.640E-01 dE for cont linesearch -0.271E-05
 trial: gam= 1.16113 g(F)=  0.415E-02 g(S)=  0.675E-03 ort =-0.410E-04 (trialstep = 0.347E+01)
 search vector abs. value=  0.158E-01
 bond charge predicted
       N       E                     dE             d eps       ncg     rms          rms(c)
DAV:   1    -0.109259103107E+03   -0.39330E-02   -0.10509E+00  1008   0.264E+00    0.714E-01
DAV:   2    -0.109264773037E+03   -0.56699E-02   -0.84461E-02  1358   0.840E-01    0.316E-01
DAV:   3    -0.109264163235E+03    0.60980E-03   -0.21913E-03  1302   0.147E-01    0.225E-01
DAV:   4    -0.109263754334E+03    0.40890E-03   -0.83518E-04  1190   0.807E-02    0.948E-02
DAV:   5    -0.109263722176E+03    0.32158E-04   -0.21640E-04   840   0.434E-02
  35 F= -.10926372E+03 E0= -.10926372E+03  d E =-.859868E-02
 trial-energy change:   -0.008599  1 .order   -0.010243   -0.016580   -0.003906
 step:   4.5404(harm=  4.5404)  dis= 0.01344  next Energy=  -109.265969 (dE=-0.108E-01)
 bond charge predicted
       N       E                     dE             d eps       ncg     rms          rms(c)
DAV:   1    -0.109263768230E+03   -0.13896E-04   -0.98882E-02  1092   0.812E-01    0.240E-01
DAV:   2    -0.109264294313E+03   -0.52608E-03   -0.81047E-03  1344   0.259E-01    0.868E-02
DAV:   3    -0.109264231518E+03    0.62795E-04   -0.17762E-04   854   0.461E-02
  36 F= -.10926423E+03 E0= -.10926423E+03  d E =-.910802E-02
 curvature:  -7.51 expect dE=-0.208E-01 dE for cont linesearch -0.587E-06
 trial: gam= 0.40745 g(F)=  0.161E-02 g(S)=  0.116E-02 ort = 0.351E-04 (trialstep = 0.368E+01)
 search vector abs. value=  0.542E-02
 bond charge predicted
       N       E                     dE             d eps       ncg     rms          rms(c)
DAV:   1    -0.109272349758E+03   -0.80554E-02   -0.40138E-01  1008   0.165E+00    0.538E-01
DAV:   2    -0.109271923792E+03    0.42597E-03   -0.31241E-02  1302   0.511E-01    0.218E-01
DAV:   3    -0.109271212806E+03    0.71099E-03   -0.18469E-03  1316   0.124E-01    0.130E-01
DAV:   4    -0.109270945562E+03    0.26724E-03   -0.45597E-04  1134   0.590E-02    0.580E-02
DAV:   5    -0.109270906700E+03    0.38862E-04   -0.11585E-04   756   0.338E-02
  37 F= -.10927091E+03 E0= -.10927091E+03  d E =-.667518E-02
 trial-energy change:   -0.006675  1 .order   -0.006965   -0.010257   -0.003674
 step:   5.7410(harm=  5.7410)  dis= 0.00974  next Energy=  -109.272222 (dE=-0.799E-02)
 bond charge predicted
       N       E                     dE             d eps       ncg     rms          rms(c)
DAV:   1    -0.109271766438E+03   -0.82088E-03   -0.12445E-01  1064   0.921E-01    0.301E-01
DAV:   2    -0.109271663951E+03    0.10249E-03   -0.98681E-03  1302   0.286E-01    0.115E-01
DAV:   3    -0.109271443286E+03    0.22067E-03   -0.56602E-04  1274   0.692E-02    0.691E-02
DAV:   4    -0.109271363811E+03    0.79475E-04   -0.12131E-04   756   0.326E-02
  38 F= -.10927136E+03 E0= -.10927136E+03  d E =-.713229E-02
 curvature:  -5.59 expect dE=-0.115E-01 dE for cont linesearch -0.315E-04
 trial: gam= 0.74283 g(F)=  0.180E-02 g(S)=  0.258E-03 ort =-0.175E-03 (trialstep = 0.410E+01)
 search vector abs. value=  0.479E-02
 bond charge predicted
       N       E                     dE             d eps       ncg     rms          rms(c)
DAV:   1    -0.109277511877E+03   -0.60686E-02   -0.42732E-01  1022   0.169E+00    0.468E-01
DAV:   2    -0.109276897618E+03    0.61426E-03   -0.30901E-02  1316   0.506E-01    0.209E-01
DAV:   3    -0.109276161502E+03    0.73612E-03   -0.18055E-03  1316   0.125E-01    0.133E-01
DAV:   4    -0.109275875982E+03    0.28552E-03   -0.48476E-04  1134   0.623E-02    0.592E-02
DAV:   5    -0.109275851896E+03    0.24086E-04   -0.10650E-04   756   0.315E-02
  39 F= -.10927585E+03 E0= -.10927585E+03  d E =-.448809E-02
 trial-energy change:   -0.004488  1 .order   -0.005261   -0.007881   -0.002642
 step:   6.1613(harm=  6.1613)  dis= 0.01109  next Energy=  -109.277291 (dE=-0.593E-02)
 bond charge predicted
       N       E                     dE             d eps       ncg     rms          rms(c)
DAV:   1    -0.109277032553E+03   -0.11566E-02   -0.10887E-01  1050   0.856E-01    0.236E-01
DAV:   2    -0.109276885931E+03    0.14662E-03   -0.79192E-03  1316   0.256E-01    0.103E-01
DAV:   3    -0.109276697698E+03    0.18823E-03   -0.44714E-04  1218   0.627E-02    0.658E-02
DAV:   4    -0.109276627076E+03    0.70622E-04   -0.12000E-04   756   0.329E-02
  40 F= -.10927663E+03 E0= -.10927663E+03  d E =-.526326E-02
 curvature:  -7.66 expect dE=-0.131E-01 dE for cont linesearch -0.736E-04
 trial: gam= 0.42214 g(F)=  0.103E-02 g(S)=  0.677E-03 ort = 0.214E-03 (trialstep = 0.451E+01)
 search vector abs. value=  0.274E-02
 bond charge predicted
       N       E                     dE             d eps       ncg     rms          rms(c)
DAV:   1    -0.109281137441E+03   -0.44397E-02   -0.31988E-01  1036   0.147E+00    0.492E-01
DAV:   2    -0.109280922182E+03    0.21526E-03   -0.27116E-02  1274   0.469E-01    0.239E-01
DAV:   3    -0.109280503403E+03    0.41878E-03   -0.15148E-03  1274   0.111E-01    0.148E-01
DAV:   4    -0.109280280760E+03    0.22264E-03   -0.34246E-04   980   0.531E-02    0.462E-02
DAV:   5    -0.109280250821E+03    0.29940E-04   -0.93416E-05   756   0.293E-02
  41 F= -.10928025E+03 E0= -.10928025E+03  d E =-.362374E-02
 trial-energy change:   -0.003624  1 .order   -0.003556   -0.008095    0.000982
 step:   4.0210(harm=  4.0210)  dis= 0.00486  next Energy=  -109.280237 (dE=-0.361E-02)
 bond charge predicted
       N       E                     dE             d eps       ncg     rms          rms(c)
DAV:   1    -0.109280370037E+03   -0.89277E-04   -0.40723E-03  1120   0.164E-01    0.567E-02
DAV:   2    -0.109280364018E+03    0.60195E-05   -0.28706E-04   840   0.532E-02
  42 F= -.10928036E+03 E0= -.10928036E+03  d E =-.373694E-02
 curvature:  -3.07 expect dE=-0.527E-02 dE for cont linesearch -0.165E-04
 trial: gam= 0.97530 g(F)=  0.164E-02 g(S)=  0.756E-04 ort =-0.121E-03 (trialstep = 0.296E+01)
 search vector abs. value=  0.409E-02
 bond charge predicted
       N       E                     dE             d eps       ncg     rms          rms(c)
DAV:   1    -0.109282120581E+03   -0.17505E-02   -0.23917E-01  1036   0.125E+00    0.400E-01
DAV:   2    -0.109282942775E+03   -0.82219E-03   -0.19679E-02  1302   0.400E-01    0.160E-01
DAV:   3    -0.109282732017E+03    0.21076E-03   -0.78124E-04  1246   0.845E-02    0.105E-01
DAV:   4    -0.109282604438E+03    0.12758E-03   -0.19063E-04   756   0.420E-02    0.421E-02
DAV:   5    -0.109282586861E+03    0.17577E-04   -0.10781E-04   756   0.310E-02
  43 F= -.10928259E+03 E0= -.10928259E+03  d E =-.222284E-02
 trial-energy change:   -0.002223  1 .order   -0.002439   -0.004731   -0.000148
 step:   3.0514(harm=  3.0514)  dis= 0.00497  next Energy=  -109.282806 (dE=-0.244E-02)
 bond charge predicted
       N       E                     dE             d eps       ncg     rms          rms(c)
DAV:   1    -0.109282585359E+03    0.19079E-04   -0.22076E-04   868   0.436E-02    0.207E-02
DAV:   2    -0.109282584389E+03    0.96959E-06   -0.35704E-05   728   0.192E-02
  44 F= -.10928258E+03 E0= -.10928258E+03  d E =-.222037E-02
 curvature:  -3.90 expect dE=-0.865E-02 dE for cont linesearch -0.439E-05
 trial: gam= 0.88636 g(F)=  0.191E-02 g(S)=  0.315E-03 ort =-0.679E-04 (trialstep = 0.229E+01)
 search vector abs. value=  0.531E-02
 bond charge predicted
       N       E                     dE             d eps       ncg     rms          rms(c)
DAV:   1    -0.109285026224E+03   -0.24409E-02   -0.14482E-01  1008   0.986E-01    0.249E-01
DAV:   2    -0.109285837031E+03   -0.81081E-03   -0.11974E-02  1344   0.309E-01    0.980E-02
DAV:   3    -0.109285741519E+03    0.95512E-04   -0.33366E-04  1106   0.611E-02
  45 F= -.10928574E+03 E0= -.10928574E+03  d E =-.315713E-02
 trial-energy change:   -0.003157  1 .order   -0.003415   -0.004946   -0.001883
 step:   3.6960(harm=  3.6960)  dis= 0.00728  next Energy=  -109.286577 (dE=-0.399E-02)
 bond charge predicted
       N       E                     dE             d eps       ncg     rms          rms(c)
DAV:   1    -0.109286197779E+03   -0.36075E-03   -0.52021E-02  1064   0.592E-01    0.142E-01
DAV:   2    -0.109286400259E+03   -0.20248E-03   -0.39994E-03  1344   0.181E-01    0.729E-02
DAV:   3    -0.109286349906E+03    0.50353E-04   -0.11484E-04   798   0.376E-02
  46 F= -.10928635E+03 E0= -.10928635E+03  d E =-.376552E-02
 curvature:  -4.54 expect dE=-0.540E-02 dE for cont linesearch -0.189E-04
 trial: gam= 0.42728 g(F)=  0.109E-02 g(S)=  0.957E-04 ort = 0.149E-03 (trialstep = 0.257E+01)
 search vector abs. value=  0.229E-02
 bond charge predicted
       N       E                     dE             d eps       ncg     rms          rms(c)
DAV:   1    -0.109287950134E+03   -0.15499E-02   -0.66193E-02  1022   0.683E-01    0.200E-01
DAV:   2    -0.109288238701E+03   -0.28857E-03   -0.56067E-03  1330   0.208E-01    0.767E-02
DAV:   3    -0.109288173563E+03    0.65139E-04   -0.17333E-04   812   0.471E-02
  47 F= -.10928817E+03 E0= -.10928817E+03  d E =-.182366E-02
 trial-energy change:   -0.001824  1 .order   -0.002022   -0.003222   -0.000822
 step:   3.4517(harm=  3.4517)  dis= 0.00455  next Energy=  -109.288513 (dE=-0.216E-02)
 bond charge predicted
       N       E                     dE             d eps       ncg     rms          rms(c)
DAV:   1    -0.109288263001E+03   -0.24300E-04   -0.73873E-03  1176   0.228E-01    0.687E-02
DAV:   2    -0.109288275226E+03   -0.12225E-04   -0.58250E-04  1274   0.678E-02
  48 F= -.10928828E+03 E0= -.10928828E+03  d E =-.192532E-02
 curvature:  -3.15 expect dE=-0.274E-02 dE for cont linesearch -0.968E-05
 trial: gam= 0.88547 g(F)=  0.795E-03 g(S)=  0.762E-04 ort = 0.838E-04 (trialstep = 0.223E+01)
 search vector abs. value=  0.281E-02
 bond charge predicted
       N       E                     dE             d eps       ncg     rms          rms(c)
DAV:   1    -0.109289830198E+03   -0.15672E-02   -0.63868E-02  1022   0.658E-01    0.166E-01
DAV:   2    -0.109290066556E+03   -0.23636E-03   -0.50401E-03  1330   0.201E-01    0.790E-02
DAV:   3    -0.109290004728E+03    0.61828E-04   -0.17175E-04   812   0.460E-02
  49 F= -.10929000E+03 E0= -.10929000E+03  d E =-.172950E-02
 trial-energy change:   -0.001730  1 .order   -0.001684   -0.002112   -0.001256
 step:   5.5075(harm=  5.5075)  dis= 0.00833  next Energy=  -109.290880 (dE=-0.260E-02)
 bond charge predicted
       N       E                     dE             d eps       ncg     rms          rms(c)
DAV:   1    -0.109290512603E+03   -0.44605E-03   -0.13499E-01  1008   0.957E-01    0.237E-01
DAV:   2    -0.109290992208E+03   -0.47961E-03   -0.10581E-02  1330   0.290E-01    0.114E-01
DAV:   3    -0.109290874979E+03    0.11723E-03   -0.44804E-04  1232   0.671E-02    0.760E-02
DAV:   4    -0.109290815356E+03    0.59623E-04   -0.93690E-05   756   0.298E-02
  50 F= -.10929082E+03 E0= -.10929082E+03  d E =-.254013E-02
 curvature:  -8.19 expect dE=-0.683E-02 dE for cont linesearch -0.242E-03
 ZBRENT: increasing intervall
 opt :  12.0569  next Energy=  -109.290911 (dE=-0.264E-02)
 bond charge predicted
       N       E                     dE             d eps       ncg     rms          rms(c)
DAV:   1    -0.109287853054E+03    0.30219E-02   -0.54533E-01  1008   0.193E+00    0.493E-01
DAV:   2    -0.109290121920E+03   -0.22689E-02   -0.43782E-02  1330   0.588E-01    0.220E-01
DAV:   3    -0.109289717122E+03    0.40480E-03   -0.18122E-03  1330   0.135E-01    0.140E-01
DAV:   4    -0.109289521274E+03    0.19585E-03   -0.37789E-04  1064   0.560E-02    0.738E-02
DAV:   5    -0.109289445841E+03    0.75433E-04   -0.15444E-04   770   0.403E-02
  51 F= -.10928945E+03 E0= -.10928945E+03  d E =-.117061E-02
 curvature:  -3.25 expect dE=-0.752E-02 dE for cont linesearch -0.449E-03
 ZBRENT: bracketing found
 ZBRENT: interpolating
 opt :   7.5783  next Energy=  -109.291114 (dE=-0.284E-02)
 bond charge predicted
       N       E                     dE             d eps       ncg     rms          rms(c)
DAV:   1    -0.109290146756E+03   -0.62548E-03   -0.26131E-01  1008   0.133E+00    0.322E-01
DAV:   2    -0.109291305339E+03   -0.11586E-02   -0.21077E-02  1330   0.411E-01    0.154E-01
DAV:   3    -0.109291103851E+03    0.20149E-03   -0.80460E-04  1288   0.909E-02    0.108E-01
DAV:   4    -0.109290999019E+03    0.10483E-03   -0.15473E-04   756   0.382E-02    0.591E-02
DAV:   5    -0.109290956650E+03    0.42369E-04   -0.15351E-04   770   0.384E-02
  52 F= -.10929096E+03 E0= -.10929096E+03  d E =-.268142E-02
 curvature:  -2.16 expect dE=-0.250E-02 dE for cont linesearch -0.372E-06
 trial: gam= 0.96930 g(F)=  0.938E-03 g(S)=  0.222E-03 ort = 0.220E-04 (trialstep = 0.242E+01)
 search vector abs. value=  0.385E-02
 bond charge predicted
       N       E                     dE             d eps       ncg     rms          rms(c)
DAV:   1    -0.109292257177E+03   -0.12582E-02   -0.10425E-01  1008   0.833E-01    0.204E-01
DAV:   2    -0.109292963725E+03   -0.70655E-03   -0.87599E-03  1344   0.267E-01    0.934E-02
DAV:   3    -0.109292922262E+03    0.41463E-04   -0.23464E-04   924   0.517E-02
  53 F= -.10929292E+03 E0= -.10929292E+03  d E =-.196561E-02
 trial-energy change:   -0.001966  1 .order   -0.001867   -0.002853   -0.000882
 step:   3.4957(harm=  3.4957)  dis= 0.00664  next Energy=  -109.293021 (dE=-0.206E-02)
 bond charge predicted
       N       E                     dE             d eps       ncg     rms          rms(c)
DAV:   1    -0.109293117510E+03   -0.15378E-03   -0.19823E-02  1064   0.365E-01    0.813E-02
DAV:   2    -0.109293220039E+03   -0.10253E-03   -0.14841E-03  1358   0.112E-01    0.530E-02
DAV:   3    -0.109293207553E+03    0.12485E-04   -0.45455E-05   728   0.233E-02
  54 F= -.10929321E+03 E0= -.10929321E+03  d E =-.225090E-02
 curvature:  -5.69 expect dE=-0.698E-02 dE for cont linesearch -0.377E-04
 trial: gam= 0.61850 g(F)=  0.116E-02 g(S)=  0.655E-04 ort = 0.160E-03 (trialstep = 0.263E+01)
 search vector abs. value=  0.290E-02
 bond charge predicted
       N       E                     dE             d eps       ncg     rms          rms(c)
DAV:   1    -0.109294003988E+03   -0.78395E-03   -0.92711E-02  1008   0.797E-01    0.209E-01
DAV:   2    -0.109294587639E+03   -0.58365E-03   -0.80439E-03  1330   0.254E-01    0.839E-02
DAV:   3    -0.109294532436E+03    0.55203E-04   -0.21633E-04   966   0.508E-02
  55 F= -.10929453E+03 E0= -.10929453E+03  d E =-.132488E-02
 trial-energy change:   -0.001325  1 .order   -0.001906   -0.003489   -0.000324
 step:   2.9004(harm=  2.9004)  dis= 0.00459  next Energy=  -109.295131 (dE=-0.192E-02)
 bond charge predicted
       N       E                     dE             d eps       ncg     rms          rms(c)
DAV:   1    -0.109294533541E+03    0.54098E-04   -0.86540E-04  1092   0.783E-02    0.296E-02
DAV:   2    -0.109294525467E+03    0.80739E-05   -0.45906E-05   756   0.240E-02
  56 F= -.10929453E+03 E0= -.10929453E+03  d E =-.131791E-02
 curvature:  -3.17 expect dE=-0.307E-02 dE for cont linesearch -0.970E-05
 trial: gam= 0.60517 g(F)=  0.661E-03 g(S)=  0.307E-03 ort = 0.942E-04 (trialstep = 0.269E+01)
 search vector abs. value=  0.214E-02
 bond charge predicted
       N       E                     dE             d eps       ncg     rms          rms(c)
DAV:   1    -0.109297024520E+03   -0.24910E-02   -0.81772E-02  1008   0.742E-01    0.234E-01
DAV:   2    -0.109296909028E+03    0.11549E-03   -0.64438E-03  1302   0.230E-01    0.103E-01
DAV:   3    -0.109296763489E+03    0.14554E-03   -0.30189E-04  1022   0.537E-02    0.633E-02
DAV:   4    -0.109296704096E+03    0.59393E-04   -0.16426E-04   756   0.371E-02
  57 F= -.10929670E+03 E0= -.10929670E+03  d E =-.217863E-02
 ZBRENT: can't locate minimum, use default step
 trial-energy change:   -0.002179  1 .order   -0.002428   -0.002752   -0.002103
 step:  10.7407(harm= 11.3857)  dis= 0.01451  next Energy=  -109.300361 (dE=-0.584E-02)
 bond charge predicted
       N       E                     dE             d eps       ncg     rms          rms(c)
DAV:   1    -0.109298065065E+03   -0.13016E-02   -0.73563E-01  1008   0.223E+00    0.713E-01
DAV:   2    -0.109297074055E+03    0.99101E-03   -0.58575E-02  1302   0.692E-01    0.301E-01
DAV:   3    -0.109295759822E+03    0.13142E-02   -0.30606E-03  1316   0.163E-01    0.191E-01
DAV:   4    -0.109295227620E+03    0.53220E-03   -0.11060E-03  1288   0.911E-02    0.824E-02
DAV:   5    -0.109295193860E+03    0.33760E-04   -0.14856E-04   756   0.382E-02
  58 F= -.10929519E+03 E0= -.10929519E+03  d E =-.668393E-03
 curvature: -11.83 expect dE=-0.366E-01 dE for cont linesearch -0.427E-02
 ZBRENT: interpolating
 opt :   6.4794  next Energy=  -109.298190 (dE=-0.366E-02)
 bond charge predicted
       N       E                     dE             d eps       ncg     rms          rms(c)
DAV:   1    -0.109298921623E+03   -0.36940E-02   -0.21047E-01  1008   0.119E+00    0.377E-01
DAV:   2    -0.109298687418E+03    0.23421E-03   -0.16643E-02  1302   0.371E-01    0.179E-01
DAV:   3    -0.109298332877E+03    0.35454E-03   -0.85419E-04  1274   0.861E-02    0.116E-01
DAV:   4    -0.109298154852E+03    0.17802E-03   -0.30424E-04   882   0.499E-02    0.396E-02
DAV:   5    -0.109298135745E+03    0.19108E-04   -0.87492E-05   742   0.288E-02
  59 F= -.10929814E+03 E0= -.10929814E+03  d E =-.361028E-02
 curvature:  -4.11 expect dE=-0.450E-02 dE for cont linesearch -0.971E-05
 trial: gam= 1.35284 g(F)=  0.919E-03 g(S)=  0.175E-03 ort =-0.711E-04 (trialstep = 0.153E+01)
 search vector abs. value=  0.482E-02
 bond charge predicted
       N       E                     dE             d eps       ncg     rms          rms(c)
DAV:   1    -0.109299122745E+03   -0.96789E-03   -0.59783E-02  1008   0.624E-01    0.174E-01
DAV:   2    -0.109299302294E+03   -0.17955E-03   -0.45908E-03  1302   0.195E-01    0.846E-02
DAV:   3    -0.109299248295E+03    0.53999E-04   -0.12423E-04   756   0.388E-02
  60 F= -.10929925E+03 E0= -.10929925E+03  d E =-.111255E-02
 trial-energy change:   -0.001113  1 .order   -0.001145   -0.001526   -0.000764
 step:   3.0633(harm=  3.0633)  dis= 0.00654  next Energy=  -109.299663 (dE=-0.153E-02)
 bond charge predicted
       N       E                     dE             d eps       ncg     rms          rms(c)
DAV:   1    -0.109299644234E+03   -0.34194E-03   -0.56214E-02  1008   0.607E-01    0.162E-01
DAV:   2    -0.109299770301E+03   -0.12607E-03   -0.42784E-03  1330   0.187E-01    0.750E-02
DAV:   3    -0.109299713515E+03    0.56787E-04   -0.12641E-04   784   0.381E-02
  61 F= -.10929971E+03 E0= -.10929971E+03  d E =-.157777E-02
 curvature:  -7.41 expect dE=-0.142E-01 dE for cont linesearch -0.222E-03
 trial: gam= 0.69924 g(F)=  0.161E-02 g(S)=  0.304E-03 ort = 0.380E-03 (trialstep = 0.184E+01)
 search vector abs. value=  0.481E-02
 bond charge predicted
       N       E                     dE             d eps       ncg     rms          rms(c)
DAV:   1    -0.109302309243E+03   -0.25389E-02   -0.76876E-02  1008   0.727E-01    0.189E-01
DAV:   2    -0.109302665774E+03   -0.35653E-03   -0.61285E-03  1330   0.224E-01    0.868E-02
DAV:   3    -0.109302606910E+03    0.58864E-04   -0.20854E-04   868   0.494E-02
  62 F= -.10930261E+03 E0= -.10930261E+03  d E =-.289339E-02
 trial-energy change:   -0.002893  1 .order   -0.003019   -0.004010   -0.002028
 step:   3.7161(harm=  3.7161)  dis= 0.00650  next Energy=  -109.303769 (dE=-0.406E-02)
 bond charge predicted
       N       E                     dE             d eps       ncg     rms          rms(c)
DAV:   1    -0.109302819010E+03   -0.15324E-03   -0.80709E-02  1008   0.744E-01    0.193E-01
DAV:   2    -0.109303130019E+03   -0.31101E-03   -0.62510E-03  1330   0.227E-01    0.949E-02
DAV:   3    -0.109303049525E+03    0.80494E-04   -0.22510E-04   896   0.508E-02
  63 F= -.10930305E+03 E0= -.10930305E+03  d E =-.333601E-02
 curvature:  -4.09 expect dE=-0.215E-02 dE for cont linesearch -0.922E-05
 trial: gam= 0.32217 g(F)=  0.334E-03 g(S)=  0.191E-03 ort =-0.104E-03 (trialstep = 0.221E+01)
 search vector abs. value=  0.957E-03
 bond charge predicted
       N       E                     dE             d eps       ncg     rms          rms(c)
DAV:   1    -0.109303721864E+03   -0.59185E-03   -0.26632E-02  1078   0.421E-01    0.125E-01
DAV:   2    -0.109303744106E+03   -0.22242E-04   -0.20153E-03  1288   0.129E-01    0.677E-02
DAV:   3    -0.109303711308E+03    0.32798E-04   -0.79388E-05   742   0.294E-02
  64 F= -.10930371E+03 E0= -.10930371E+03  d E =-.661783E-03
 trial-energy change:   -0.000662  1 .order   -0.000860   -0.001088   -0.000632
 step:   5.2825(harm=  5.2825)  dis= 0.00435  next Energy=  -109.304348 (dE=-0.130E-02)
 bond charge predicted
       N       E                     dE             d eps       ncg     rms          rms(c)
DAV:   1    -0.109303888568E+03   -0.14446E-03   -0.51051E-02  1036   0.582E-01    0.177E-01
DAV:   2    -0.109303970082E+03   -0.81514E-04   -0.40240E-03  1288   0.181E-01    0.819E-02
DAV:   3    -0.109303914194E+03    0.55888E-04   -0.15122E-04   770   0.406E-02
  65 F= -.10930391E+03 E0= -.10930391E+03  d E =-.864669E-03
 curvature:  -5.14 expect dE=-0.567E-02 dE for cont linesearch -0.212E-04
 trial: gam= 1.75277 g(F)=  0.963E-03 g(S)=  0.139E-03 ort = 0.628E-04 (trialstep = 0.635E+00)
 search vector abs. value=  0.426E-02
 bond charge predicted
       N       E                     dE             d eps       ncg     rms          rms(c)
DAV:   1    -0.109304646768E+03   -0.67669E-03   -0.77163E-03  1092   0.227E-01    0.571E-02
DAV:   2    -0.109304657659E+03   -0.10891E-04   -0.56663E-04  1260   0.678E-02
  66 F= -.10930466E+03 E0= -.10930466E+03  d E =-.743465E-03
 ZBRENT: can't locate minimum, use default step
 trial-energy change:   -0.000743  1 .order   -0.000778   -0.000769   -0.000787
 step:   2.5385(harm=  2.5385)  dis= 0.00583  next Energy=  -109.307132 (dE=-0.322E-02)
 bond charge predicted
       N       E                     dE             d eps       ncg     rms          rms(c)
DAV:   1    -0.109305687847E+03   -0.10411E-02   -0.75519E-02  1008   0.711E-01    0.183E-01
DAV:   2    -0.109305889092E+03   -0.20124E-03   -0.57305E-03  1344   0.216E-01    0.922E-02
DAV:   3    -0.109305812302E+03    0.76789E-04   -0.22122E-04   938   0.475E-02
  67 F= -.10930581E+03 E0= -.10930581E+03  d E =-.189811E-02
 curvature:  -6.76 expect dE=-0.881E-02 dE for cont linesearch -0.103E-03
 trial: gam= 0.45739 g(F)=  0.112E-02 g(S)=  0.184E-03 ort = 0.255E-03 (trialstep = 0.102E+01)
 search vector abs. value=  0.243E-02
 bond charge predicted
       N       E                     dE             d eps       ncg     rms          rms(c)
DAV:   1    -0.109306671338E+03   -0.78225E-03   -0.89047E-03  1092   0.260E-01    0.832E-02
DAV:   2    -0.109306658240E+03    0.13098E-04   -0.73157E-04  1260   0.769E-02
  68 F= -.10930666E+03 E0= -.10930666E+03  d E =-.845937E-03
 trial-energy change:   -0.000846  1 .order   -0.000947   -0.001441   -0.000454
 step:   1.4819(harm=  1.4819)  dis= 0.00243  next Energy=  -109.306864 (dE=-0.105E-02)
 bond charge predicted
       N       E                     dE             d eps       ncg     rms          rms(c)
DAV:   1    -0.109306781329E+03   -0.10999E-03   -0.18723E-03  1134   0.119E-01    0.477E-02
DAV:   2    -0.109306767663E+03    0.13666E-04   -0.13628E-04   798   0.364E-02
  69 F= -.10930677E+03 E0= -.10930677E+03  d E =-.955361E-03
 curvature:  -1.27 expect dE=-0.552E-03 dE for cont linesearch -0.470E-06
 trial: gam= 0.20977 g(F)=  0.250E-03 g(S)=  0.186E-03 ort = 0.300E-04 (trialstep = 0.111E+01)
 search vector abs. value=  0.555E-03
 bond charge predicted
       N       E                     dE             d eps       ncg     rms          rms(c)
DAV:   1    -0.109307014417E+03   -0.23309E-03   -0.38298E-03  1106   0.166E-01    0.659E-02
DAV:   2    -0.109306978836E+03    0.35581E-04   -0.25445E-04   980   0.468E-02
  70 F= -.10930698E+03 E0= -.10930698E+03  d E =-.211172E-03
 trial-energy change:   -0.000211  1 .order   -0.000276   -0.000490   -0.000062
 step:   1.2695(harm=  1.2695)  dis= 0.00098  next Energy=  -109.307048 (dE=-0.281E-03)
 bond charge predicted
       N       E                     dE             d eps       ncg     rms          rms(c)
DAV:   1    -0.109306968802E+03    0.45615E-04   -0.75235E-05   728   0.250E-02    0.174E-02
DAV:   2    -0.109306965442E+03    0.33605E-05   -0.21320E-05   686   0.144E-02
  71 F= -.10930697E+03 E0= -.10930697E+03  d E =-.197778E-03
 curvature:  -0.80 expect dE=-0.400E-03 dE for cont linesearch -0.949E-07
 trial: gam= 1.02887 g(F)=  0.449E-03 g(S)=  0.527E-04 ort = 0.813E-05 (trialstep = 0.573E+00)
 search vector abs. value=  0.111E-02
 bond charge predicted
       N       E                     dE             d eps       ncg     rms          rms(c)
DAV:   1    -0.109307193301E+03   -0.22450E-03   -0.20578E-03  1078   0.120E-01    0.400E-02
DAV:   2    -0.109307183832E+03    0.94693E-05   -0.12011E-04   756   0.345E-02
  72 F= -.10930718E+03 E0= -.10930718E+03  d E =-.218390E-03
 trial-energy change:   -0.000218  1 .order   -0.000244   -0.000292   -0.000196
 step:   1.7402(harm=  1.7402)  dis= 0.00136  next Energy=  -109.307409 (dE=-0.444E-03)
 bond charge predicted
       N       E                     dE             d eps       ncg     rms          rms(c)
DAV:   1    -0.109307465288E+03   -0.27199E-03   -0.87410E-03  1064   0.247E-01    0.837E-02
DAV:   2    -0.109307418057E+03    0.47231E-04   -0.61015E-04  1274   0.711E-02
  73 F= -.10930742E+03 E0= -.10930742E+03  d E =-.452615E-03
 curvature:  -1.89 expect dE=-0.532E-03 dE for cont linesearch -0.290E-04
 ZBRENT: increasing intervall
 opt :   4.0753  next Energy=  -109.307228 (dE=-0.263E-03)
 bond charge predicted
       N       E                     dE             d eps       ncg     rms          rms(c)
DAV:   1    -0.109307345924E+03    0.11936E-03   -0.34650E-02  1036   0.495E-01    0.167E-01
DAV:   2    -0.109307112303E+03    0.23362E-03   -0.23675E-03  1260   0.140E-01    0.724E-02
DAV:   3    -0.109306990668E+03    0.12164E-03   -0.18828E-04   770   0.439E-02    0.407E-02
DAV:   4    -0.109306951522E+03    0.39146E-04   -0.12360E-04   756   0.349E-02
  74 F= -.10930695E+03 E0= -.10930695E+03  d E =0.139192E-04
 curvature:  12.35 expect dE= 0.629E-02 dE for cont linesearch  0.118E-02
 ZBRENT: bracketing found
 ZBRENT: interpolating
 opt :   2.4079  next Energy=  -109.307462 (dE=-0.496E-03)
 bond charge predicted
       N       E                     dE             d eps       ncg     rms          rms(c)
DAV:   1    -0.109307491739E+03   -0.50107E-03   -0.18551E-02  1036   0.361E-01    0.119E-01
DAV:   2    -0.109307428141E+03    0.63598E-04   -0.12648E-03  1260   0.103E-01    0.530E-02
DAV:   3    -0.109307383070E+03    0.45071E-04   -0.81215E-05   714   0.291E-02
  75 F= -.10930738E+03 E0= -.10930738E+03  d E =-.417628E-03
 curvature:  -0.45 expect dE=-0.168E-03 dE for cont linesearch -0.145E-04
 ZBRENT: interpolating
 opt :   2.0137  next Energy=  -109.307436 (dE=-0.470E-03)
 bond charge predicted
       N       E                     dE             d eps       ncg     rms          rms(c)
DAV:   1    -0.109307404269E+03    0.23872E-04   -0.81787E-04  1176   0.760E-02    0.276E-02
DAV:   2    -0.109307392615E+03    0.11654E-04   -0.47451E-05   700   0.214E-02
  76 F= -.10930739E+03 E0= -.10930739E+03  d E =-.427174E-03
 curvature:  -0.56 expect dE=-0.162E-03 dE for cont linesearch -0.249E-05
 ZBRENT: interpolating
 opt :   1.9179  next Energy=  -109.307396 (dE=-0.431E-03)
 bond charge predicted
       N       E                     dE             d eps       ncg     rms          rms(c)
DAV:   1    -0.109307392098E+03    0.12171E-04   -0.53947E-05   616   0.208E-02    0.861E-03
DAV:   2    -0.109307391189E+03    0.90964E-06   -0.14194E-05   546   0.122E-02
  77 F= -.10930739E+03 E0= -.10930739E+03  d E =-.425747E-03
 curvature:  -0.75 expect dE=-0.208E-03 dE for cont linesearch -0.981E-06
 trial: gam= 0.56477 g(F)=  0.251E-03 g(S)=  0.249E-04 ort =-0.379E-04 (trialstep = 0.842E+00)
 search vector abs. value=  0.586E-03
 bond charge predicted
       N       E                     dE             d eps       ncg     rms          rms(c)
DAV:   1    -0.109307515686E+03   -0.12359E-03   -0.23375E-03  1050   0.129E-01    0.402E-02
DAV:   2    -0.109307517811E+03   -0.21253E-05   -0.16608E-04   546   0.399E-02
  78 F= -.10930752E+03 E0= -.10930752E+03  d E =-.126622E-03
 trial-energy change:   -0.000127  1 .order   -0.000148   -0.000214   -0.000082
 step:   1.3644(harm=  1.3644)  dis= 0.00081  next Energy=  -109.307565 (dE=-0.173E-03)
 bond charge predicted
       N       E                     dE             d eps       ncg     rms          rms(c)
DAV:   1    -0.109307532459E+03   -0.16774E-04   -0.10124E-03  1050   0.812E-02    0.247E-02
DAV:   2    -0.109307529994E+03    0.24651E-05   -0.68944E-05   630   0.279E-02
  79 F= -.10930753E+03 E0= -.10930753E+03  d E =-.138806E-03
 curvature:  -1.57 expect dE=-0.654E-03 dE for cont linesearch -0.912E-09
 trial: gam= 1.20028 g(F)=  0.404E-03 g(S)=  0.121E-04 ort =-0.583E-06 (trialstep = 0.440E+00)
 search vector abs. value=  0.126E-02
 bond charge predicted
       N       E                     dE             d eps       ncg     rms          rms(c)
DAV:   1    -0.109307672129E+03   -0.13967E-03   -0.13146E-03  1050   0.931E-02    0.221E-02
DAV:   2    -0.109307673057E+03   -0.92796E-06   -0.92217E-05   658   0.324E-02
  80 F= -.10930767E+03 E0= -.10930767E+03  d E =-.143063E-03
 trial-energy change:   -0.000143  1 .order   -0.000143   -0.000183   -0.000104
 step:   1.0174(harm=  1.0174)  dis= 0.00094  next Energy=  -109.307741 (dE=-0.211E-03)
 bond charge predicted
       N       E                     dE             d eps       ncg     rms          rms(c)
DAV:   1    -0.109307678232E+03   -0.61026E-05   -0.23178E-03  1106   0.123E-01    0.317E-02
DAV:   2    -0.109307681103E+03   -0.28712E-05   -0.14924E-04   756   0.402E-02
  81 F= -.10930768E+03 E0= -.10930768E+03  d E =-.151108E-03
 curvature:  -1.54 expect dE=-0.769E-03 dE for cont linesearch -0.220E-04
 ZBRENT: interpolating
 opt :   0.8081  next Energy=  -109.307695 (dE=-0.165E-03)
 bond charge predicted
       N       E                     dE             d eps       ncg     rms          rms(c)
DAV:   1    -0.109307702321E+03   -0.24089E-04   -0.31244E-04   910   0.506E-02    0.168E-02
DAV:   2    -0.109307702881E+03   -0.56000E-06   -0.27501E-05   588   0.170E-02
  82 F= -.10930770E+03 E0= -.10930770E+03  d E =-.172887E-03
 curvature:  -0.98 expect dE=-0.460E-03 dE for cont linesearch -0.354E-05
 trial: gam= 0.87564 g(F)=  0.409E-03 g(S)=  0.596E-04 ort =-0.674E-04 (trialstep = 0.492E+00)
 search vector abs. value=  0.132E-02
 bond charge predicted
       N       E                     dE             d eps       ncg     rms          rms(c)
DAV:   1    -0.109307846405E+03   -0.14408E-03   -0.16742E-03   980   0.106E-01    0.230E-02
DAV:   2    -0.109307853278E+03   -0.68725E-05   -0.11451E-04   546   0.341E-02
  83 F= -.10930785E+03 E0= -.10930785E+03  d E =-.150397E-03
 trial-energy change:   -0.000150  1 .order   -0.000148   -0.000201   -0.000094
 step:   0.9235(harm=  0.9235)  dis= 0.00094  next Energy=  -109.307892 (dE=-0.189E-03)
 bond charge predicted
       N       E                     dE             d eps       ncg     rms          rms(c)
DAV:   1    -0.109307893818E+03   -0.47413E-04   -0.15238E-03  1050   0.972E-02    0.230E-02
DAV:   2    -0.109307900966E+03   -0.71487E-05   -0.99906E-05   588   0.332E-02
  84 F= -.10930790E+03 E0= -.10930790E+03  d E =-.198086E-03
 curvature:  -1.48 expect dE=-0.516E-03 dE for cont linesearch -0.189E-05
 trial: gam= 0.46231 g(F)=  0.280E-03 g(S)=  0.683E-04 ort = 0.409E-04 (trialstep = 0.578E+00)
 search vector abs. value=  0.667E-03
 bond charge predicted
       N       E                     dE             d eps       ncg     rms          rms(c)
DAV:   1    -0.109308015700E+03   -0.12188E-03   -0.12989E-03  1078   0.921E-02    0.202E-02
DAV:   2    -0.109308020307E+03   -0.46074E-05   -0.90910E-05   602   0.319E-02
  85 F= -.10930802E+03 E0= -.10930802E+03  d E =-.119341E-03
 trial-energy change:   -0.000119  1 .order   -0.000131   -0.000212   -0.000050
 step:   0.7579(harm=  0.7579)  dis= 0.00051  next Energy=  -109.308040 (dE=-0.139E-03)
 bond charge predicted
       N       E                     dE             d eps       ncg     rms          rms(c)
DAV:   1    -0.109308032436E+03   -0.16736E-04   -0.12523E-04   546   0.320E-02    0.118E-02
DAV:   2    -0.109308034426E+03   -0.19905E-05   -0.31368E-05   546   0.199E-02
  86 F= -.10930803E+03 E0= -.10930803E+03  d E =-.133460E-03
 curvature:  -0.69 expect dE=-0.199E-03 dE for cont linesearch -0.159E-05
 trial: gam= 0.73457 g(F)=  0.262E-03 g(S)=  0.264E-04 ort = 0.393E-04 (trialstep = 0.580E+00)
 search vector abs. value=  0.706E-03
 bond charge predicted
       N       E                     dE             d eps       ncg     rms          rms(c)
DAV:   1    -0.109308196287E+03   -0.16385E-03   -0.13806E-03   980   0.953E-02    0.259E-02
DAV:   2    -0.109308201194E+03   -0.49062E-05   -0.90420E-05   588   0.308E-02
  87 F= -.10930820E+03 E0= -.10930820E+03  d E =-.166767E-03
 ZBRENT: can't locate minimum, use default step
 trial-energy change:   -0.000167  1 .order   -0.000165   -0.000184   -0.000146
 step:   2.3191(harm=  2.8029)  dis= 0.00210  next Energy=  -109.308480 (dE=-0.445E-03)
 bond charge predicted
       N       E                     dE             d eps       ncg     rms          rms(c)
DAV:   1    -0.109308274042E+03   -0.77755E-04   -0.11662E-02  1036   0.280E-01    0.803E-02
DAV:   2    -0.109308334173E+03   -0.60130E-04   -0.96367E-04  1288   0.881E-02
  88 F= -.10930833E+03 E0= -.10930833E+03  d E =-.299746E-03
 curvature:  -2.97 expect dE=-0.889E-03 dE for cont linesearch -0.554E-04
 ZBRENT: interpolating
 opt :   1.7747  next Energy=  -109.308365 (dE=-0.331E-03)
 bond charge predicted
       N       E                     dE             d eps       ncg     rms          rms(c)
DAV:   1    -0.109308329386E+03   -0.55343E-04   -0.11618E-03  1050   0.924E-02    0.376E-02
DAV:   2    -0.109308335246E+03   -0.58600E-05   -0.11828E-04   630   0.320E-02
  89 F= -.10930834E+03 E0= -.10930834E+03  d E =-.300819E-03
 curvature:  -1.68 expect dE=-0.339E-03 dE for cont linesearch -0.245E-07
 trial: gam= 1.03547 g(F)=  0.188E-03 g(S)=  0.145E-04 ort = 0.321E-05 (trialstep = 0.598E+00)
 search vector abs. value=  0.966E-03
 bond charge predicted
       N       E                     dE             d eps       ncg     rms          rms(c)
DAV:   1    -0.109308415145E+03   -0.85759E-04   -0.18423E-03   980   0.113E-01    0.258E-02
DAV:   2    -0.109308422199E+03   -0.70547E-05   -0.12430E-04   672   0.353E-02
  90 F= -.10930842E+03 E0= -.10930842E+03  d E =-.869536E-04
 trial-energy change:   -0.000087  1 .order   -0.000075   -0.000123   -0.000027
 step:   0.7692(harm=  0.7692)  dis= 0.00068  next Energy=  -109.308414 (dE=-0.791E-04)
 bond charge predicted
       N       E                     dE             d eps       ncg     rms          rms(c)
DAV:   1    -0.109308431519E+03   -0.16375E-04   -0.22681E-04   910   0.387E-02    0.733E-03
DAV:   2    -0.109308433608E+03   -0.20883E-05   -0.31000E-05   616   0.196E-02
  91 F= -.10930843E+03 E0= -.10930843E+03  d E =-.983618E-04
 curvature:  -1.81 expect dE=-0.473E-03 dE for cont linesearch -0.145E-05
 trial: gam= 0.69882 g(F)=  0.189E-03 g(S)=  0.730E-04 ort = 0.279E-04 (trialstep = 0.633E+00)
 search vector abs. value=  0.773E-03
 bond charge predicted
       N       E                     dE             d eps       ncg     rms          rms(c)
DAV:   1    -0.109308550757E+03   -0.11924E-03   -0.16846E-03   994   0.104E-01    0.293E-02
DAV:   2    -0.109308550127E+03    0.63015E-06   -0.10705E-04   588   0.337E-02
  92 F= -.10930855E+03 E0= -.10930855E+03  d E =-.116519E-03
 trial-energy change:   -0.000117  1 .order   -0.000123   -0.000178   -0.000067
 step:   1.0161(harm=  1.0161)  dis= 0.00095  next Energy=  -109.308577 (dE=-0.143E-03)
 bond charge predicted
       N       E                     dE             d eps       ncg     rms          rms(c)
DAV:   1    -0.109308585366E+03   -0.34609E-04   -0.60487E-04  1078   0.617E-02    0.152E-02
DAV:   2    -0.109308584396E+03    0.96935E-06   -0.43524E-05   630   0.221E-02
  93 F= -.10930858E+03 E0= -.10930858E+03  d E =-.150789E-03
 curvature:  -1.39 expect dE=-0.360E-03 dE for cont linesearch -0.187E-04
 ZBRENT: increasing intervall
 opt :   1.7831  next Energy=  -109.308659 (dE=-0.226E-03)
 bond charge predicted
       N       E                     dE             d eps       ncg     rms          rms(c)
DAV:   1    -0.109308602703E+03   -0.17338E-04   -0.23277E-03  1036   0.123E-01    0.337E-02
DAV:   2    -0.109308600193E+03    0.25104E-05   -0.15803E-04   714   0.407E-02
  94 F= -.10930860E+03 E0= -.10930860E+03  d E =-.166585E-03
 curvature:  -5.57 expect dE=-0.193E-02 dE for cont linesearch -0.171E-04
 ZBRENT: bracketing found
 ZBRENT: interpolating
 opt :   1.5352  next Energy=  -109.308606 (dE=-0.173E-03)
 bond charge predicted
       N       E                     dE             d eps       ncg     rms          rms(c)
DAV:   1    -0.109308603801E+03   -0.10973E-05   -0.29405E-04   882   0.484E-02    0.189E-02
DAV:   2    -0.109308605065E+03   -0.12642E-05   -0.23926E-05   546   0.160E-02
  95 F= -.10930861E+03 E0= -.10930861E+03  d E =-.171457E-03
 curvature:  -1.97 expect dE=-0.550E-03 dE for cont linesearch -0.259E-06
 trial: gam= 1.10945 g(F)=  0.240E-03 g(S)=  0.389E-04 ort = 0.101E-04 (trialstep = 0.502E+00)
 search vector abs. value=  0.125E-02
 bond charge predicted
       N       E                     dE             d eps       ncg     rms          rms(c)
DAV:   1    -0.109308665028E+03   -0.61227E-04   -0.16259E-03   952   0.104E-01    0.257E-02
DAV:   2    -0.109308668225E+03   -0.31975E-05   -0.10947E-04   546   0.332E-02
  96 F= -.10930867E+03 E0= -.10930867E+03  d E =-.631604E-04
 trial-energy change:   -0.000063  1 .order   -0.000055   -0.000146    0.000036
 step:   0.4011(harm=  0.4011)  dis= 0.00043  next Energy=  -109.308663 (dE=-0.583E-04)
 bond charge predicted
       N       E                     dE             d eps       ncg     rms          rms(c)
DAV:   1    -0.109308673009E+03   -0.79816E-05   -0.77210E-05   546   0.282E-02    0.523E-03
DAV:   2    -0.109308673683E+03   -0.67350E-06   -0.14473E-05   546   0.123E-02
  97 F= -.10930867E+03 E0= -.10930867E+03  d E =-.686181E-04
 curvature:  -0.86 expect dE=-0.319E-03 dE for cont linesearch -0.227E-05
 trial: gam= 0.66689 g(F)=  0.281E-03 g(S)=  0.878E-04 ort = 0.573E-04 (trialstep = 0.481E+00)
 search vector abs. value=  0.100E-02
 bond charge predicted
       N       E                     dE             d eps       ncg     rms          rms(c)
DAV:   1    -0.109308777978E+03   -0.10497E-03   -0.11828E-03   994   0.888E-02    0.200E-02
DAV:   2    -0.109308781912E+03   -0.39340E-05   -0.80662E-05   588   0.278E-02
  98 F= -.10930878E+03 E0= -.10930878E+03  d E =-.108230E-03
 trial-energy change:   -0.000108  1 .order   -0.000135   -0.000196   -0.000074
 step:   0.7757(harm=  0.7757)  dis= 0.00069  next Energy=  -109.308832 (dE=-0.158E-03)
 bond charge predicted
       N       E                     dE             d eps       ncg     rms          rms(c)
DAV:   1    -0.109308824441E+03   -0.46462E-04   -0.52937E-04  1078   0.573E-02    0.135E-02
DAV:   2    -0.109308825367E+03   -0.92659E-06   -0.35420E-05   574   0.201E-02
  99 F= -.10930883E+03 E0= -.10930883E+03  d E =-.151684E-03
 curvature:  -0.96 expect dE=-0.277E-03 dE for cont linesearch -0.875E-05
 ZBRENT: increasing intervall
 opt :   1.3643  next Energy=  -109.308847 (dE=-0.174E-03)
