CIS                                     
           1
    -7.166899    0.084015   -0.324860
     1.940369    9.035053   -0.138697
    -0.871195   -1.692562  -10.773119
   Na   Sb   S 
   4   8  14
Direct configuration=     1
   0.31176962  0.34031863  0.12012074
   0.42160166  0.76656661  0.59154414
   0.57839834  0.23343339  0.40845586
   0.68823038  0.65968137  0.87987926
   0.02671036  0.94844475  0.33510056
   0.13778534  0.44805708  0.81476551
   0.75039513  0.13131519  0.05227710
   0.52263573  0.21094146  0.76044909
   0.24960487  0.86868481  0.94772290
   0.97328964  0.05155525  0.66489944
   0.86221466  0.55194292  0.18523449
   0.47736427  0.78905854  0.23955091
   0.80979791  0.84589315  0.13323526
   0.66790590  0.35009449  0.95365048
   0.46259249  0.45938105  0.69845121
   0.25904243  0.01912198  0.52271101
   0.04220022  0.68700936  0.36339589
   0.33209410  0.64990551  0.04634952
   0.43844752  0.08198874  0.17137842
   0.95779978  0.31299064  0.63660411
   0.56155248  0.91801126  0.82862158
   0.91572223  0.30100269  0.23358856
   0.08427777  0.69899731  0.76641144
   0.74095757  0.98087802  0.47728899
   0.53740751  0.54061895  0.30154879
   0.19020209  0.15410685  0.86676474
CIS                                     
           1
    -7.168076    0.084130   -0.325030
     1.940556    9.035654   -0.138904
    -0.871499   -1.692402  -10.774586
   Na   Sb   S 
   4   8  14
Direct configuration=     2
   0.31177578  0.34031973  0.12011382
   0.42158426  0.76656186  0.59155568
   0.57841574  0.23343814  0.40844432
   0.68822422  0.65968027  0.87988618
   0.02675359  0.94842978  0.33511340
   0.13780096  0.44804283  0.81476040
   0.75041779  0.13132679  0.05226505
   0.52269752  0.21097385  0.76041970
   0.24958221  0.86867321  0.94773495
   0.97324641  0.05157022  0.66488660
   0.86219904  0.55195717  0.18523960
   0.47730248  0.78902615  0.23958030
   0.80980156  0.84588956  0.13323003
   0.66789740  0.35010978  0.95365161
   0.46259703  0.45940004  0.69843361
   0.25904275  0.01914673  0.52271552
   0.04221465  0.68701134  0.36339420
   0.33210260  0.64989022  0.04634839
   0.43842234  0.08196722  0.17139184
   0.95778535  0.31298866  0.63660580
   0.56157766  0.91803278  0.82860816
   0.91574683  0.30099224  0.23358239
   0.08425317  0.69900776  0.76641761
   0.74095725  0.98085327  0.47728448
   0.53740297  0.54059996  0.30156639
   0.19019844  0.15411044  0.86676997
CIS                                     
           1
    -7.171606    0.084473   -0.325541
     1.941119    9.037459   -0.139527
    -0.872410   -1.691924  -10.778989
   Na   Sb   S 
   4   8  14
Direct configuration=     3
   0.31179426  0.34032302  0.12009306
   0.42153206  0.76654763  0.59159027
   0.57846794  0.23345237  0.40840973
   0.68820574  0.65967698  0.87990694
   0.02688328  0.94838487  0.33515191
   0.13784781  0.44800009  0.81474506
   0.75048578  0.13136160  0.05222892
   0.52288288  0.21107103  0.76033153
   0.24951422  0.86863840  0.94777108
   0.97311672  0.05161513  0.66484809
   0.86215219  0.55199991  0.18525494
   0.47711712  0.78892897  0.23966847
   0.80981253  0.84587877  0.13321435
   0.66787189  0.35015565  0.95365499
   0.46261064  0.45945700  0.69838081
   0.25904371  0.01922099  0.52272904
   0.04225793  0.68701730  0.36338911
   0.33212811  0.64984435  0.04634501
   0.43834681  0.08190267  0.17143209
   0.95774207  0.31298270  0.63661089
   0.56165319  0.91809733  0.82856791
   0.91582060  0.30096090  0.23356387
   0.08417940  0.69903910  0.76643613
   0.74095629  0.98077901  0.47727096
   0.53738936  0.54054300  0.30161919
   0.19018747  0.15412123  0.86678565
CIS                                     
           1
    -7.172138    0.084303   -0.325607
     1.941468    9.037871   -0.139247
    -0.872573   -1.692348  -10.779983
   Na   Sb   S 
   4   8  14
Direct configuration=     4
   0.31180436  0.34032367  0.12008294
   0.42150455  0.76654167  0.59161029
   0.57849545  0.23345833  0.40838971
   0.68819564  0.65967633  0.87991706
   0.02689219  0.94833585  0.33519124
   0.13785379  0.44797010  0.81474583
   0.75044923  0.13136145  0.05223008
   0.52290278  0.21114261  0.76029666
   0.24955077  0.86863855  0.94776992
   0.97310781  0.05166415  0.66480876
   0.86214621  0.55202990  0.18525417
   0.47709722  0.78885739  0.23970334
   0.80979926  0.84587235  0.13321945
   0.66785951  0.35016815  0.95365174
   0.46260588  0.45947878  0.69836150
   0.25902488  0.01925365  0.52273706
   0.04227239  0.68701644  0.36338034
   0.33214049  0.64983185  0.04634826
   0.43832225  0.08186729  0.17144171
   0.95772761  0.31298356  0.63661966
   0.56167775  0.91813271  0.82855829
   0.91584453  0.30094834  0.23354752
   0.08415547  0.69905166  0.76645248
   0.74097512  0.98074635  0.47726294
   0.53739412  0.54052122  0.30163850
   0.19020074  0.15412765  0.86678055
CIS                                     
           1
    -7.172499    0.084188   -0.325652
     1.941704    9.038150   -0.139058
    -0.872684   -1.692636  -10.780656
   Na   Sb   S 
   4   8  14
Direct configuration=     5
   0.31181121  0.34032410  0.12007609
   0.42148592  0.76653763  0.59162385
   0.57851408  0.23346237  0.40837615
   0.68818879  0.65967590  0.87992391
   0.02689821  0.94830266  0.33521788
   0.13785784  0.44794980  0.81474634
   0.75042447  0.13136135  0.05223087
   0.52291626  0.21119108  0.76027305
   0.24957553  0.86863865  0.94776913
   0.97310179  0.05169734  0.66478212
   0.86214216  0.55205020  0.18525366
   0.47708374  0.78880892  0.23972695
   0.80979027  0.84586800  0.13322291
   0.66785113  0.35017662  0.95364954
   0.46260266  0.45949353  0.69834843
   0.25901213  0.01927576  0.52274249
   0.04228219  0.68701586  0.36337440
   0.33214887  0.64982338  0.04635046
   0.43830562  0.08184334  0.17144822
   0.95771781  0.31298414  0.63662560
   0.56169438  0.91815666  0.82855178
   0.91586073  0.30093984  0.23353646
   0.08413927  0.69906016  0.76646354
   0.74098787  0.98072424  0.47725751
   0.53739734  0.54050647  0.30165157
   0.19020973  0.15413200  0.86677709
CIS                                     
           1
    -7.172507    0.083921   -0.325600
     1.942038    9.038131   -0.138910
    -0.872660   -1.692851  -10.780936
   Na   Sb   S 
   4   8  14
Direct configuration=     6
   0.31181869  0.34032415  0.12006891
   0.42146514  0.76653372  0.59163953
   0.57853486  0.23346628  0.40836047
   0.68818131  0.65967585  0.87993109
   0.02692206  0.94827719  0.33523187
   0.13786850  0.44796385  0.81473547
   0.75039683  0.13137060  0.05223213
   0.52292103  0.21123749  0.76025630
   0.24960317  0.86862940  0.94776787
   0.97307794  0.05172281  0.66476813
   0.86213150  0.55203615  0.18526453
   0.47707897  0.78876251  0.23974370
   0.80977656  0.84586287  0.13322942
   0.66784263  0.35018276  0.95364432
   0.46259770  0.45950924  0.69833448
   0.25899639  0.01930023  0.52274857
   0.04229089  0.68701261  0.36336753
   0.33215737  0.64981724  0.04635568
   0.43829174  0.08181883  0.17145301
   0.95770911  0.31298739  0.63663247
   0.56170826  0.91818117  0.82854699
   0.91587448  0.30093274  0.23352338
   0.08412552  0.69906726  0.76647662
   0.74100361  0.98069977  0.47725143
   0.53740230  0.54049076  0.30166552
   0.19022344  0.15413713  0.86677058
CIS                                     
           1
    -7.172510    0.083819   -0.325580
     1.942164    9.038124   -0.138854
    -0.872651   -1.692932  -10.781042
   Na   Sb   S 
   4   8  14
Direct configuration=     7
   0.31182153  0.34032417  0.12006620
   0.42145728  0.76653223  0.59164546
   0.57854272  0.23346777  0.40835454
   0.68817847  0.65967583  0.87993380
   0.02693108  0.94826755  0.33523717
   0.13787254  0.44796916  0.81473135
   0.75038637  0.13137409  0.05223260
   0.52292283  0.21125504  0.76024996
   0.24961363  0.86862591  0.94776740
   0.97306892  0.05173245  0.66476283
   0.86212746  0.55203084  0.18526865
   0.47707717  0.78874496  0.23975004
   0.80977137  0.84586093  0.13323189
   0.66783942  0.35018509  0.95364234
   0.46259582  0.45951518  0.69832920
   0.25899044  0.01930949  0.52275087
   0.04229418  0.68701138  0.36336493
   0.33216058  0.64981491  0.04635766
   0.43828648  0.08180955  0.17145483
   0.95770582  0.31298862  0.63663507
   0.56171352  0.91819045  0.82854517
   0.91587968  0.30093005  0.23351843
   0.08412032  0.69906995  0.76648157
   0.74100956  0.98069051  0.47724913
   0.53740418  0.54048482  0.30167080
   0.19022863  0.15413907  0.86676811
CIS                                     
           1
    -7.172177    0.083641   -0.325496
     1.942295    9.037872   -0.138804
    -0.872538   -1.692978  -10.780799
   Na   Sb   S 
   4   8  14
Direct configuration=     8
   0.31182469  0.34032363  0.12006333
   0.42144806  0.76653120  0.59165293
   0.57855194  0.23346880  0.40834707
   0.68817531  0.65967637  0.87993667
   0.02693071  0.94827226  0.33523061
   0.13787262  0.44798329  0.81472761
   0.75037130  0.13136954  0.05225000
   0.52291766  0.21125562  0.76025168
   0.24962870  0.86863046  0.94775000
   0.97306929  0.05172774  0.66476939
   0.86212738  0.55201671  0.18527239
   0.47708234  0.78874438  0.23974832
   0.80976299  0.84585841  0.13323665
   0.66783700  0.35018562  0.95363828
   0.46259345  0.45952139  0.69832378
   0.25898378  0.01931919  0.52275329
   0.04229617  0.68700722  0.36336254
   0.33216300  0.64981438  0.04636172
   0.43828424  0.08180170  0.17145507
   0.95770383  0.31299278  0.63663746
   0.56171576  0.91819830  0.82854493
   0.91588215  0.30092916  0.23351307
   0.08411785  0.69907084  0.76648693
   0.74101622  0.98068081  0.47724671
   0.53740655  0.54047861  0.30167622
   0.19023701  0.15414159  0.86676335
CIS                                     
           1
    -7.171661    0.083365   -0.325365
     1.942498    9.037481   -0.138727
    -0.872362   -1.693048  -10.780423
   Na   Sb   S 
   4   8  14
Direct configuration=     9
   0.31182959  0.34032278  0.12005887
   0.42143376  0.76652961  0.59166453
   0.57856624  0.23347039  0.40833547
   0.68817041  0.65967722  0.87994113
   0.02693012  0.94827957  0.33522043
   0.13787276  0.44800522  0.81472181
   0.75034791  0.13136248  0.05227700
   0.52290963  0.21125651  0.76025437
   0.24965209  0.86863752  0.94772300
   0.97306988  0.05172043  0.66477957
   0.86212724  0.55199478  0.18527819
   0.47709037  0.78874349  0.23974563
   0.80974997  0.84585450  0.13324405
   0.66783324  0.35018644  0.95363197
   0.46258976  0.45953103  0.69831536
   0.25897344  0.01933423  0.52275705
   0.04229927  0.68700075  0.36335885
   0.33216676  0.64981356  0.04636803
   0.43828076  0.08178953  0.17145545
   0.95770073  0.31299925  0.63664115
   0.56171924  0.91821047  0.82854455
   0.91588598  0.30092776  0.23350474
   0.08411402  0.69907224  0.76649526
   0.74102656  0.98066577  0.47724295
   0.53741024  0.54046897  0.30168464
   0.19025003  0.15414550  0.86675595
CIS                                     
           1
    -7.170629    0.082812   -0.325104
     1.942904    9.036700   -0.138572
    -0.872010   -1.693190  -10.779670
   Na   Sb   S 
   4   8  14
Direct configuration=    10
   0.31183940  0.34032108  0.12004996
   0.42140515  0.76652641  0.59168771
   0.57859485  0.23347359  0.40831229
   0.68816060  0.65967892  0.87995004
   0.02692896  0.94829419  0.33520006
   0.13787303  0.44804907  0.81471020
   0.75030113  0.13134836  0.05233101
   0.52289358  0.21125829  0.76025973
   0.24969887  0.86865164  0.94766899
   0.97307104  0.05170581  0.66479994
   0.86212697  0.55195093  0.18528980
   0.47710642  0.78874171  0.23974027
   0.80972393  0.84584668  0.13325885
   0.66782572  0.35018809  0.95361936
   0.46258239  0.45955031  0.69829852
   0.25895276  0.01936432  0.52276456
   0.04230546  0.68698783  0.36335146
   0.33217428  0.64981191  0.04638064
   0.43827381  0.08176517  0.17145621
   0.95769454  0.31301217  0.63664854
   0.56172619  0.91823483  0.82854379
   0.91589365  0.30092497  0.23348809
   0.08410635  0.69907503  0.76651191
   0.74104724  0.98063568  0.47723544
   0.53741761  0.54044969  0.30170148
   0.19027607  0.15415332  0.86674115
CIS                                     
           1
    -7.168565    0.081707   -0.324581
     1.943716    9.035138   -0.138262
    -0.871306   -1.693473  -10.778164
   Na   Sb   S 
   4   8  14
Direct configuration=    11
   0.31185901  0.34031768  0.12003214
   0.42134792  0.76652002  0.59173409
   0.57865208  0.23347998  0.40826591
   0.68814099  0.65968232  0.87996786
   0.02692664  0.94832343  0.33515932
   0.13787359  0.44813678  0.81468698
   0.75020757  0.13132011  0.05243901
   0.52286148  0.21126186  0.76027046
   0.24979243  0.86867989  0.94756099
   0.97307336  0.05167657  0.66484068
   0.86212641  0.55186322  0.18531302
   0.47713852  0.78873814  0.23972954
   0.80967184  0.84583105  0.13328844
   0.66781068  0.35019138  0.95359413
   0.46256764  0.45958887  0.69826484
   0.25891141  0.01942450  0.52277960
   0.04231784  0.68696198  0.36333667
   0.33218932  0.64980862  0.04640587
   0.43825989  0.08171644  0.17145772
   0.95768216  0.31303802  0.63666333
   0.56174011  0.91828356  0.82854228
   0.91590898  0.30091939  0.23345479
   0.08409102  0.69908061  0.76654521
   0.74108859  0.98057550  0.47722040
   0.53743236  0.54041113  0.30173516
   0.19032816  0.15416895  0.86671156
CIS                                     
           1
    -7.167846    0.081330   -0.324679
     1.943981    9.034120   -0.138247
    -0.871495   -1.693271  -10.777204
   Na   Sb   S 
   4   8  14
Direct configuration=    12
   0.31186956  0.34031685  0.12002355
   0.42132051  0.76651659  0.59175519
   0.57867949  0.23348341  0.40824481
   0.68813044  0.65968315  0.87997645
   0.02693732  0.94833808  0.33513300
   0.13787666  0.44813665  0.81468944
   0.75017720  0.13130478  0.05244422
   0.52289042  0.21121981  0.76027496
   0.24982280  0.86869522  0.94755578
   0.97306268  0.05166192  0.66486700
   0.86212334  0.55186335  0.18531056
   0.47710958  0.78878019  0.23972504
   0.80966158  0.84582510  0.13329468
   0.66780756  0.35019755  0.95358355
   0.46257189  0.45961451  0.69824674
   0.25890085  0.01945568  0.52278563
   0.04233465  0.68695456  0.36333484
   0.33219244  0.64980245  0.04641645
   0.43823579  0.08169829  0.17146652
   0.95766535  0.31304544  0.63666516
   0.56176421  0.91830171  0.82853348
   0.91592397  0.30091483  0.23344712
   0.08407603  0.69908517  0.76655288
   0.74109915  0.98054432  0.47721437
   0.53742811  0.54038549  0.30175326
   0.19033842  0.15417490  0.86670532
CIS                                     
           1
    -7.167200    0.080992   -0.324766
     1.944219    9.033206   -0.138234
    -0.871664   -1.693089  -10.776342
   Na   Sb   S 
   4   8  14
Direct configuration=    13
   0.31187903  0.34031610  0.12001583
   0.42129589  0.76651351  0.59177415
   0.57870411  0.23348649  0.40822585
   0.68812097  0.65968390  0.87998417
   0.02694692  0.94835125  0.33510935
   0.13787942  0.44813653  0.81469166
   0.75014992  0.13129101  0.05244889
   0.52291643  0.21118204  0.76027900
   0.24985008  0.86870899  0.94755111
   0.97305308  0.05164875  0.66489065
   0.86212058  0.55186347  0.18530834
   0.47708357  0.78881796  0.23972100
   0.80965236  0.84581975  0.13330029
   0.66780477  0.35020309  0.95357405
   0.46257571  0.45963755  0.69823047
   0.25889136  0.01948369  0.52279106
   0.04234974  0.68694790  0.36333319
   0.33219523  0.64979691  0.04642595
   0.43821414  0.08168198  0.17147443
   0.95765026  0.31305210  0.63666681
   0.56178586  0.91831802  0.82852557
   0.91593745  0.30091074  0.23344024
   0.08406255  0.69908926  0.76655976
   0.74110864  0.98051631  0.47720894
   0.53742429  0.54036245  0.30176953
   0.19034764  0.15418025  0.86669971
