  16  16   1   0
  0.2092769E+02  0.7687791E-09  0.9063459E-09  0.6871343E-09  0.1000000E-15
  1.000000000000000E-004
  CAR 
 CIS                                     
      9.28723070    -10.56720687  301      4.97866586      1.00000000
    -10.567  0.0000E+00  0.0000E+00
    -10.501  0.0000E+00  0.0000E+00
    -10.435  0.0000E+00  0.0000E+00
    -10.369  0.0000E+00  0.0000E+00
    -10.302  0.0000E+00  0.0000E+00
    -10.236  0.0000E+00  0.0000E+00
    -10.170  0.0000E+00  0.0000E+00
    -10.104  0.0000E+00  0.0000E+00
    -10.038  0.0000E+00  0.0000E+00
     -9.972  0.0000E+00  0.0000E+00
     -9.905  0.5642E-13  0.3734E-14
     -9.839  0.4553E-08  0.3013E-09
     -9.773  0.1279E-04  0.8465E-06
     -9.707  0.1578E-02  0.1052E-03
     -9.641  0.1493E-01  0.1093E-02
     -9.574  0.2482E-01  0.2736E-02
     -9.508  0.6258E-01  0.6878E-02
     -9.442  0.8955E-01  0.1280E-01
     -9.376  0.6771E-01  0.1729E-01
     -9.310  0.3999E-01  0.1993E-01
     -9.244  0.4049E-02  0.2020E-01
     -9.177  0.2434E-04  0.2020E-01
     -9.111  0.4156E-04  0.2020E-01
     -9.045  0.6998E-02  0.2067E-01
     -8.979  0.6974E-01  0.2528E-01
     -8.913  0.8612E-01  0.3098E-01
     -8.846  0.1038E+00  0.3785E-01
     -8.780  0.8365E-01  0.4339E-01
     -8.714  0.1235E+00  0.5156E-01
     -8.648  0.1134E+00  0.5907E-01
     -8.582  0.1197E+00  0.6699E-01
     -8.516  0.1449E+00  0.7658E-01
     -8.449  0.1707E+00  0.8788E-01
     -8.383  0.1645E+00  0.9877E-01
     -8.317  0.4830E-01  0.1020E+00
     -8.251  0.1294E+00  0.1105E+00
     -8.185  0.1415E+00  0.1199E+00
     -8.118  0.1963E-01  0.1212E+00
     -8.052  0.2726E-03  0.1212E+00
     -7.986  0.2647E-06  0.1212E+00
     -7.920  0.1198E-10  0.1212E+00
     -7.854  0.1883E-16  0.1212E+00
     -7.788  0.0000E+00  0.1212E+00
     -7.721  0.0000E+00  0.1212E+00
     -7.655  0.0000E+00  0.1212E+00
     -7.589  0.0000E+00  0.1212E+00
     -7.523  0.0000E+00  0.1212E+00
     -7.457  0.0000E+00  0.1212E+00
     -7.390  0.0000E+00  0.1212E+00
     -7.324  0.0000E+00  0.1212E+00
     -7.258  0.0000E+00  0.1212E+00
     -7.192  0.0000E+00  0.1212E+00
     -7.126  0.0000E+00  0.1212E+00
     -7.060  0.0000E+00  0.1212E+00
     -6.993  0.0000E+00  0.1212E+00
     -6.927  0.0000E+00  0.1212E+00
     -6.861  0.0000E+00  0.1212E+00
     -6.795  0.0000E+00  0.1212E+00
     -6.729  0.0000E+00  0.1212E+00
     -6.663  0.0000E+00  0.1212E+00
     -6.596  0.0000E+00  0.1212E+00
     -6.530  0.0000E+00  0.1212E+00
     -6.464  0.0000E+00  0.1212E+00
     -6.398  0.0000E+00  0.1212E+00
     -6.332  0.0000E+00  0.1212E+00
     -6.265  0.0000E+00  0.1212E+00
     -6.199  0.0000E+00  0.1212E+00
     -6.133  0.0000E+00  0.1212E+00
     -6.067  0.0000E+00  0.1212E+00
     -6.001  0.0000E+00  0.1212E+00
     -5.935  0.0000E+00  0.1212E+00
     -5.868  0.0000E+00  0.1212E+00
     -5.802  0.0000E+00  0.1212E+00
     -5.736  0.0000E+00  0.1212E+00
     -5.670  0.0000E+00  0.1212E+00
     -5.604  0.0000E+00  0.1212E+00
     -5.537  0.0000E+00  0.1212E+00
     -5.471  0.0000E+00  0.1212E+00
     -5.405  0.0000E+00  0.1212E+00
     -5.339  0.0000E+00  0.1212E+00
     -5.273  0.0000E+00  0.1212E+00
     -5.207  0.0000E+00  0.1212E+00
     -5.140  0.0000E+00  0.1212E+00
     -5.074  0.0000E+00  0.1212E+00
     -5.008  0.0000E+00  0.1212E+00
     -4.942  0.0000E+00  0.1212E+00
     -4.876  0.0000E+00  0.1212E+00
     -4.809  0.0000E+00  0.1212E+00
     -4.743  0.0000E+00  0.1212E+00
     -4.677  0.0000E+00  0.1212E+00
     -4.611  0.0000E+00  0.1212E+00
     -4.545  0.0000E+00  0.1212E+00
     -4.479  0.0000E+00  0.1212E+00
     -4.412  0.0000E+00  0.1212E+00
     -4.346  0.0000E+00  0.1212E+00
     -4.280  0.0000E+00  0.1212E+00
     -4.214  0.0000E+00  0.1212E+00
     -4.148  0.0000E+00  0.1212E+00
     -4.081  0.0000E+00  0.1212E+00
     -4.015  0.0000E+00  0.1212E+00
     -3.949  0.0000E+00  0.1212E+00
     -3.883  0.0000E+00  0.1212E+00
     -3.817  0.0000E+00  0.1212E+00
     -3.751  0.0000E+00  0.1212E+00
     -3.684  0.0000E+00  0.1212E+00
     -3.618  0.0000E+00  0.1212E+00
     -3.552  0.0000E+00  0.1212E+00
     -3.486  0.0000E+00  0.1212E+00
     -3.420  0.0000E+00  0.1212E+00
     -3.353  0.0000E+00  0.1212E+00
     -3.287  0.0000E+00  0.1212E+00
     -3.221  0.3491E-13  0.1212E+00
     -3.155  0.3180E-08  0.1212E+00
     -3.089  0.9819E-05  0.1212E+00
     -3.023  0.1165E-02  0.1213E+00
     -2.956  0.7269E-02  0.1218E+00
     -2.890  0.1127E-01  0.1225E+00
     -2.824  0.4202E-01  0.1253E+00
     -2.758  0.7228E-01  0.1301E+00
     -2.692  0.5133E-01  0.1335E+00
     -2.625  0.6311E-01  0.1377E+00
     -2.559  0.4701E-01  0.1408E+00
     -2.493  0.9764E-02  0.1414E+00
     -2.427  0.9700E-02  0.1421E+00
     -2.361  0.4246E-01  0.1449E+00
     -2.295  0.5437E-01  0.1485E+00
     -2.228  0.7336E-01  0.1533E+00
     -2.162  0.4508E-01  0.1563E+00
     -2.096  0.6340E-01  0.1605E+00
     -2.030  0.6909E-01  0.1651E+00
     -1.964  0.6385E-01  0.1693E+00
     -1.897  0.5917E-01  0.1732E+00
     -1.831  0.7068E-01  0.1779E+00
     -1.765  0.6780E-01  0.1824E+00
     -1.699  0.4837E-01  0.1856E+00
     -1.633  0.5720E-01  0.1894E+00
     -1.567  0.5377E-01  0.1929E+00
     -1.500  0.5051E-01  0.1963E+00
     -1.434  0.6346E-01  0.2005E+00
     -1.368  0.3616E-01  0.2029E+00
     -1.302  0.5105E-01  0.2062E+00
     -1.236  0.1196E+00  0.2141E+00
     -1.169  0.6720E-01  0.2186E+00
     -1.103  0.4724E-01  0.2217E+00
     -1.037  0.3062E-01  0.2238E+00
     -0.971  0.5542E-01  0.2274E+00
     -0.905  0.5970E-01  0.2314E+00
     -0.839  0.8523E-01  0.2370E+00
     -0.772  0.5419E-01  0.2406E+00
     -0.706  0.1834E-01  0.2418E+00
     -0.640  0.5002E-01  0.2451E+00
     -0.574  0.6810E-01  0.2496E+00
     -0.508  0.9894E-01  0.2562E+00
     -0.441  0.8695E-01  0.2619E+00
     -0.375  0.5032E-01  0.2653E+00
     -0.309  0.6461E-01  0.2695E+00
     -0.243  0.1024E+00  0.2763E+00
     -0.177  0.1058E+00  0.2833E+00
     -0.111  0.8285E-01  0.2888E+00
     -0.044  0.8784E-01  0.2946E+00
      0.022  0.5686E-01  0.2984E+00
      0.088  0.6412E-01  0.3026E+00
      0.154  0.8287E-01  0.3081E+00
      0.220  0.6156E-01  0.3122E+00
      0.287  0.1049E+00  0.3191E+00
      0.353  0.7866E-01  0.3243E+00
      0.419  0.9449E-01  0.3306E+00
      0.485  0.1109E+00  0.3379E+00
      0.551  0.8758E-01  0.3437E+00
      0.617  0.6201E-01  0.3478E+00
      0.684  0.1019E+00  0.3546E+00
      0.750  0.9665E-01  0.3610E+00
      0.816  0.1262E+00  0.3693E+00
      0.882  0.1626E+00  0.3801E+00
      0.948  0.1369E+00  0.3891E+00
      1.015  0.8516E-01  0.3948E+00
      1.081  0.7111E-01  0.3995E+00
      1.147  0.9812E-01  0.4060E+00
      1.213  0.1315E+00  0.4147E+00
      1.279  0.1148E+00  0.4223E+00
      1.345  0.7296E-01  0.4271E+00
      1.412  0.7910E-01  0.4323E+00
      1.478  0.5306E-01  0.4358E+00
      1.544  0.8327E-01  0.4413E+00
      1.610  0.1120E+00  0.4488E+00
      1.676  0.8559E-01  0.4544E+00
      1.743  0.9139E-01  0.4605E+00
      1.809  0.9241E-01  0.4666E+00
      1.875  0.1046E+00  0.4735E+00
      1.941  0.9699E-01  0.4799E+00
      2.007  0.6553E-01  0.4843E+00
      2.073  0.7760E-01  0.4894E+00
      2.140  0.9119E-01  0.4954E+00
      2.206  0.5407E-01  0.4990E+00
      2.272  0.7757E-01  0.5041E+00
      2.338  0.8634E-01  0.5099E+00
      2.404  0.5627E-01  0.5136E+00
      2.471  0.2660E-01  0.5153E+00
      2.537  0.1618E-01  0.5164E+00
      2.603  0.4575E-01  0.5194E+00
      2.669  0.7749E-01  0.5246E+00
      2.735  0.8784E-01  0.5304E+00
      2.801  0.8777E-01  0.5362E+00
      2.868  0.9428E-01  0.5424E+00
      2.934  0.7849E-01  0.5476E+00
      3.000  0.6861E-01  0.5522E+00
      3.066  0.1134E+00  0.5597E+00
      3.132  0.1026E+00  0.5665E+00
      3.199  0.4431E-01  0.5694E+00
      3.265  0.5653E-01  0.5731E+00
      3.331  0.6902E-01  0.5777E+00
      3.397  0.4485E-01  0.5807E+00
      3.463  0.4863E-01  0.5839E+00
      3.529  0.3845E-01  0.5864E+00
      3.596  0.7361E-01  0.5913E+00
      3.662  0.4611E-01  0.5944E+00
      3.728  0.5521E-01  0.5980E+00
      3.794  0.2972E-01  0.6000E+00
      3.860  0.4650E-02  0.6003E+00
      3.927  0.3661E-01  0.6027E+00
      3.993  0.4747E-01  0.6058E+00
      4.059  0.4038E-01  0.6085E+00
      4.125  0.6287E-01  0.6127E+00
      4.191  0.8046E-01  0.6180E+00
      4.257  0.6520E-01  0.6223E+00
      4.324  0.1957E-01  0.6236E+00
      4.390  0.3294E-01  0.6258E+00
      4.456  0.6481E-01  0.6301E+00
      4.522  0.4473E-01  0.6330E+00
      4.588  0.6471E-01  0.6373E+00
      4.655  0.6735E-01  0.6418E+00
      4.721  0.2711E-01  0.6436E+00
      4.787  0.2619E-01  0.6453E+00
      4.853  0.1670E-01  0.6464E+00
      4.919  0.6847E-03  0.6465E+00
      4.985  0.1222E-05  0.6465E+00
      5.052  0.5549E-05  0.6465E+00
      5.118  0.1595E-02  0.6466E+00
      5.184  0.2224E-01  0.6480E+00
      5.250  0.3199E-01  0.6502E+00
      5.316  0.4354E-01  0.6530E+00
      5.383  0.3565E-01  0.6554E+00
      5.449  0.5206E-01  0.6588E+00
      5.515  0.1606E-01  0.6599E+00
      5.581  0.1239E-02  0.6600E+00
      5.647  0.1412E-01  0.6609E+00
      5.713  0.2595E-01  0.6626E+00
      5.780  0.1976E-01  0.6640E+00
      5.846  0.1927E-01  0.6652E+00
      5.912  0.1869E-01  0.6665E+00
      5.978  0.3772E-01  0.6690E+00
      6.044  0.5111E-01  0.6723E+00
      6.111  0.6735E-01  0.6768E+00
      6.177  0.5698E-01  0.6806E+00
      6.243  0.3517E-01  0.6829E+00
      6.309  0.7762E-01  0.6880E+00
      6.375  0.3828E-01  0.6906E+00
      6.441  0.5464E-01  0.6942E+00
      6.508  0.6608E-01  0.6986E+00
      6.574  0.4645E-01  0.7016E+00
      6.640  0.5067E-01  0.7050E+00
      6.706  0.5263E-01  0.7085E+00
      6.772  0.3941E-01  0.7111E+00
      6.839  0.6817E-01  0.7156E+00
      6.905  0.7369E-01  0.7205E+00
      6.971  0.9809E-01  0.7270E+00
      7.037  0.6566E-01  0.7313E+00
      7.103  0.9159E-01  0.7374E+00
      7.169  0.1193E+00  0.7453E+00
      7.236  0.5617E-01  0.7490E+00
      7.302  0.4465E-01  0.7519E+00
      7.368  0.6544E-01  0.7563E+00
      7.434  0.7060E-01  0.7609E+00
      7.500  0.7899E-01  0.7662E+00
      7.567  0.5716E-01  0.7699E+00
      7.633  0.1019E+00  0.7767E+00
      7.699  0.9157E-01  0.7828E+00
      7.765  0.9189E-01  0.7888E+00
      7.831  0.7996E-01  0.7941E+00
      7.897  0.8797E-01  0.7999E+00
      7.964  0.5416E-01  0.8035E+00
      8.030  0.7798E-01  0.8087E+00
      8.096  0.1042E+00  0.8156E+00
      8.162  0.1498E+00  0.8255E+00
      8.228  0.1162E+00  0.8332E+00
      8.295  0.7721E-01  0.8383E+00
      8.361  0.9070E-01  0.8443E+00
      8.427  0.5690E-01  0.8481E+00
      8.493  0.6200E-02  0.8485E+00
      8.559  0.4759E-04  0.8485E+00
      8.625  0.1574E-07  0.8485E+00
      8.692  0.1838E-12  0.8485E+00
      8.758  0.0000E+00  0.8485E+00
      8.824  0.0000E+00  0.8485E+00
      8.890  0.0000E+00  0.8485E+00
      8.956  0.0000E+00  0.8485E+00
      9.023  0.0000E+00  0.8485E+00
      9.089  0.0000E+00  0.8485E+00
      9.155  0.0000E+00  0.8485E+00
      9.221  0.0000E+00  0.8485E+00
      9.287  0.0000E+00  0.8485E+00
      9.28723070    -10.56720687  301      4.97866586      1.00000000
    -10.567  0.0000E+00  0.0000E+00  0.0000E+00
    -10.501  0.0000E+00  0.0000E+00  0.0000E+00
    -10.435  0.0000E+00  0.0000E+00  0.0000E+00
    -10.369  0.0000E+00  0.0000E+00  0.0000E+00
    -10.302  0.0000E+00  0.0000E+00  0.0000E+00
    -10.236  0.0000E+00  0.0000E+00  0.0000E+00
    -10.170  0.0000E+00  0.0000E+00  0.0000E+00
    -10.104  0.0000E+00  0.0000E+00  0.0000E+00
    -10.038  0.0000E+00  0.0000E+00  0.0000E+00
     -9.972  0.0000E+00  0.0000E+00  0.0000E+00
     -9.905  0.1185E-13  0.1133E-14  0.0000E+00
     -9.839  0.9564E-09  0.9154E-10  0.0000E+00
     -9.773  0.2685E-05  0.2592E-06  0.0000E+00
     -9.707  0.3305E-03  0.3328E-04  0.0000E+00
     -9.641  0.3099E-02  0.3499E-03  0.0000E+00
     -9.574  0.4211E-02  0.9266E-03  0.0000E+00
     -9.508  0.7051E-02  0.3827E-02  0.0000E+00
     -9.442  0.1119E-01  0.5409E-02  0.0000E+00
     -9.376  0.5698E-02  0.4678E-02  0.0000E+00
     -9.310  0.5499E-03  0.3797E-02  0.0000E+00
     -9.244  0.1229E-04  0.4029E-03  0.0000E+00
     -9.177  0.5728E-07  0.2434E-05  0.0000E+00
     -9.111  0.6006E-05  0.2673E-05  0.0000E+00
     -9.045  0.1082E-02  0.4349E-03  0.0000E+00
     -8.979  0.1126E-01  0.4319E-02  0.0000E+00
     -8.913  0.1102E-01  0.7496E-02  0.0000E+00
     -8.846  0.8556E-02  0.1276E-01  0.0000E+00
     -8.780  0.8806E-02  0.1205E-01  0.0000E+00
     -8.714  0.1227E-01  0.1980E-01  0.0000E+00
     -8.648  0.9221E-02  0.1800E-01  0.0000E+00
     -8.582  0.5464E-02  0.1925E-01  0.0000E+00
     -8.516  0.4193E-02  0.2080E-01  0.0000E+00
     -8.449  0.7934E-02  0.2014E-01  0.0000E+00
     -8.383  0.1126E-01  0.1556E-01  0.0000E+00
     -8.317  0.2667E-02  0.4418E-02  0.0000E+00
     -8.251  0.2744E-02  0.1206E-01  0.0000E+00
     -8.185  0.2562E-02  0.1380E-01  0.0000E+00
     -8.118  0.3639E-03  0.1946E-02  0.0000E+00
     -8.052  0.5805E-05  0.2602E-04  0.0000E+00
     -7.986  0.5947E-08  0.2419E-07  0.0000E+00
     -7.920  0.2672E-12  0.1073E-11  0.0000E+00
     -7.854  0.4090E-18  0.1671E-17  0.0000E+00
     -7.788  0.0000E+00  0.0000E+00  0.0000E+00
     -7.721  0.0000E+00  0.0000E+00  0.0000E+00
     -7.655  0.0000E+00  0.0000E+00  0.0000E+00
     -7.589  0.0000E+00  0.0000E+00  0.0000E+00
     -7.523  0.0000E+00  0.0000E+00  0.0000E+00
     -7.457  0.0000E+00  0.0000E+00  0.0000E+00
     -7.390  0.0000E+00  0.0000E+00  0.0000E+00
     -7.324  0.0000E+00  0.0000E+00  0.0000E+00
     -7.258  0.0000E+00  0.0000E+00  0.0000E+00
     -7.192  0.0000E+00  0.0000E+00  0.0000E+00
     -7.126  0.0000E+00  0.0000E+00  0.0000E+00
     -7.060  0.0000E+00  0.0000E+00  0.0000E+00
     -6.993  0.0000E+00  0.0000E+00  0.0000E+00
     -6.927  0.0000E+00  0.0000E+00  0.0000E+00
     -6.861  0.0000E+00  0.0000E+00  0.0000E+00
     -6.795  0.0000E+00  0.0000E+00  0.0000E+00
     -6.729  0.0000E+00  0.0000E+00  0.0000E+00
     -6.663  0.0000E+00  0.0000E+00  0.0000E+00
     -6.596  0.0000E+00  0.0000E+00  0.0000E+00
     -6.530  0.0000E+00  0.0000E+00  0.0000E+00
     -6.464  0.0000E+00  0.0000E+00  0.0000E+00
     -6.398  0.0000E+00  0.0000E+00  0.0000E+00
     -6.332  0.0000E+00  0.0000E+00  0.0000E+00
     -6.265  0.0000E+00  0.0000E+00  0.0000E+00
     -6.199  0.0000E+00  0.0000E+00  0.0000E+00
     -6.133  0.0000E+00  0.0000E+00  0.0000E+00
     -6.067  0.0000E+00  0.0000E+00  0.0000E+00
     -6.001  0.0000E+00  0.0000E+00  0.0000E+00
     -5.935  0.0000E+00  0.0000E+00  0.0000E+00
     -5.868  0.0000E+00  0.0000E+00  0.0000E+00
     -5.802  0.0000E+00  0.0000E+00  0.0000E+00
     -5.736  0.0000E+00  0.0000E+00  0.0000E+00
     -5.670  0.0000E+00  0.0000E+00  0.0000E+00
     -5.604  0.0000E+00  0.0000E+00  0.0000E+00
     -5.537  0.0000E+00  0.0000E+00  0.0000E+00
     -5.471  0.0000E+00  0.0000E+00  0.0000E+00
     -5.405  0.0000E+00  0.0000E+00  0.0000E+00
     -5.339  0.0000E+00  0.0000E+00  0.0000E+00
     -5.273  0.0000E+00  0.0000E+00  0.0000E+00
     -5.207  0.0000E+00  0.0000E+00  0.0000E+00
     -5.140  0.0000E+00  0.0000E+00  0.0000E+00
     -5.074  0.0000E+00  0.0000E+00  0.0000E+00
     -5.008  0.0000E+00  0.0000E+00  0.0000E+00
     -4.942  0.0000E+00  0.0000E+00  0.0000E+00
     -4.876  0.0000E+00  0.0000E+00  0.0000E+00
     -4.809  0.0000E+00  0.0000E+00  0.0000E+00
     -4.743  0.0000E+00  0.0000E+00  0.0000E+00
     -4.677  0.0000E+00  0.0000E+00  0.0000E+00
     -4.611  0.0000E+00  0.0000E+00  0.0000E+00
     -4.545  0.0000E+00  0.0000E+00  0.0000E+00
     -4.479  0.0000E+00  0.0000E+00  0.0000E+00
     -4.412  0.0000E+00  0.0000E+00  0.0000E+00
     -4.346  0.0000E+00  0.0000E+00  0.0000E+00
     -4.280  0.0000E+00  0.0000E+00  0.0000E+00
     -4.214  0.0000E+00  0.0000E+00  0.0000E+00
     -4.148  0.0000E+00  0.0000E+00  0.0000E+00
     -4.081  0.0000E+00  0.0000E+00  0.0000E+00
     -4.015  0.0000E+00  0.0000E+00  0.0000E+00
     -3.949  0.0000E+00  0.0000E+00  0.0000E+00
     -3.883  0.0000E+00  0.0000E+00  0.0000E+00
     -3.817  0.0000E+00  0.0000E+00  0.0000E+00
     -3.751  0.0000E+00  0.0000E+00  0.0000E+00
     -3.684  0.0000E+00  0.0000E+00  0.0000E+00
     -3.618  0.0000E+00  0.0000E+00  0.0000E+00
     -3.552  0.0000E+00  0.0000E+00  0.0000E+00
     -3.486  0.0000E+00  0.0000E+00  0.0000E+00
     -3.420  0.0000E+00  0.0000E+00  0.0000E+00
     -3.353  0.0000E+00  0.0000E+00  0.0000E+00
     -3.287  0.0000E+00  0.0000E+00  0.0000E+00
     -3.221  0.2575E-15  0.3439E-14  0.0000E+00
     -3.155  0.2345E-10  0.3133E-09  0.0000E+00
     -3.089  0.7242E-07  0.9675E-06  0.0000E+00
     -3.023  0.8591E-05  0.1147E-03  0.0000E+00
     -2.956  0.5509E-04  0.7098E-03  0.0000E+00
     -2.890  0.1404E-03  0.7956E-03  0.0000E+00
     -2.824  0.4713E-03  0.1906E-02  0.0000E+00
     -2.758  0.7721E-03  0.2477E-02  0.0000E+00
     -2.692  0.1049E-02  0.2665E-02  0.0000E+00
     -2.625  0.1265E-02  0.3670E-02  0.0000E+00
     -2.559  0.7984E-03  0.2109E-02  0.0000E+00
     -2.493  0.1474E-03  0.3038E-03  0.0000E+00
     -2.427  0.4127E-04  0.4739E-03  0.0000E+00
     -2.361  0.2564E-03  0.2086E-02  0.0000E+00
     -2.295  0.1200E-02  0.2135E-02  0.0000E+00
     -2.228  0.1882E-02  0.2940E-02  0.0000E+00
     -2.162  0.7343E-03  0.1938E-02  0.0000E+00
     -2.096  0.1683E-02  0.3021E-02  0.0000E+00
     -2.030  0.2467E-02  0.3365E-02  0.0000E+00
     -1.964  0.2860E-02  0.3985E-02  0.0000E+00
     -1.897  0.3265E-02  0.4926E-02  0.0000E+00
     -1.831  0.3154E-02  0.3438E-02  0.0000E+00
     -1.765  0.2351E-02  0.3375E-02  0.0000E+00
     -1.699  0.1451E-02  0.3959E-02  0.0000E+00
     -1.633  0.1620E-02  0.6079E-02  0.0000E+00
     -1.567  0.1940E-02  0.5339E-02  0.0000E+00
     -1.500  0.2000E-02  0.3542E-02  0.0000E+00
     -1.434  0.1528E-02  0.4183E-02  0.0000E+00
     -1.368  0.3782E-03  0.1945E-02  0.0000E+00
     -1.302  0.1301E-02  0.5919E-02  0.0000E+00
     -1.236  0.5215E-02  0.1624E-01  0.0000E+00
     -1.169  0.4031E-02  0.8621E-02  0.0000E+00
     -1.103  0.8381E-02  0.6681E-02  0.0000E+00
     -1.037  0.5606E-02  0.5386E-02  0.0000E+00
     -0.971  0.7691E-02  0.9884E-02  0.0000E+00
     -0.905  0.4725E-02  0.9608E-02  0.0000E+00
     -0.839  0.4619E-02  0.1530E-01  0.0000E+00
     -0.772  0.3105E-02  0.1056E-01  0.0000E+00
     -0.706  0.1137E-02  0.2985E-02  0.0000E+00
     -0.640  0.5664E-02  0.1067E-01  0.0000E+00
     -0.574  0.1002E-01  0.1962E-01  0.0000E+00
     -0.508  0.1645E-01  0.2477E-01  0.0000E+00
     -0.441  0.1901E-01  0.1871E-01  0.0000E+00
     -0.375  0.7282E-02  0.1233E-01  0.0000E+00
     -0.309  0.1045E-01  0.1712E-01  0.0000E+00
     -0.243  0.4002E-01  0.2885E-01  0.0000E+00
     -0.177  0.3702E-01  0.2759E-01  0.0000E+00
     -0.111  0.2144E-01  0.1891E-01  0.0000E+00
     -0.044  0.2499E-01  0.2275E-01  0.0000E+00
      0.022  0.2495E-01  0.1509E-01  0.0000E+00
      0.088  0.2736E-01  0.1831E-01  0.0000E+00
      0.154  0.2320E-01  0.2089E-01  0.0000E+00
      0.220  0.2430E-01  0.1180E-01  0.0000E+00
      0.287  0.5150E-01  0.2753E-01  0.0000E+00
      0.353  0.3705E-01  0.2190E-01  0.0000E+00
      0.419  0.2260E-01  0.2400E-01  0.0000E+00
      0.485  0.3064E-01  0.2630E-01  0.0000E+00
      0.551  0.2930E-01  0.2134E-01  0.0000E+00
      0.617  0.2201E-01  0.1463E-01  0.0000E+00
      0.684  0.4070E-01  0.2906E-01  0.0000E+00
      0.750  0.2667E-01  0.3039E-01  0.0000E+00
      0.816  0.3756E-01  0.4143E-01  0.0000E+00
      0.882  0.3019E-01  0.5442E-01  0.0000E+00
      0.948  0.2950E-01  0.3772E-01  0.0000E+00
      1.015  0.2407E-01  0.2233E-01  0.0000E+00
      1.081  0.2115E-01  0.2967E-01  0.0000E+00
      1.147  0.4182E-01  0.2936E-01  0.0000E+00
      1.213  0.4755E-01  0.5907E-01  0.0000E+00
      1.279  0.3461E-01  0.5487E-01  0.0000E+00
      1.345  0.2249E-01  0.2743E-01  0.0000E+00
      1.412  0.1823E-01  0.3979E-01  0.0000E+00
      1.478  0.1128E-01  0.4056E-01  0.0000E+00
      1.544  0.1656E-01  0.6577E-01  0.0000E+00
      1.610  0.1871E-01  0.8362E-01  0.0000E+00
      1.676  0.2040E-01  0.6977E-01  0.0000E+00
      1.743  0.2694E-01  0.8064E-01  0.0000E+00
      1.809  0.2778E-01  0.8179E-01  0.0000E+00
      1.875  0.2144E-01  0.7658E-01  0.0000E+00
      1.941  0.1415E-01  0.4202E-01  0.0000E+00
      2.007  0.4411E-02  0.1933E-01  0.0000E+00
      2.073  0.6961E-02  0.4027E-01  0.0000E+00
      2.140  0.8683E-02  0.7629E-01  0.0000E+00
      2.206  0.1070E-01  0.3775E-01  0.0000E+00
      2.272  0.1415E-01  0.5247E-01  0.0000E+00
      2.338  0.1475E-01  0.6900E-01  0.0000E+00
      2.404  0.5624E-02  0.4833E-01  0.0000E+00
      2.471  0.8275E-03  0.2096E-01  0.0000E+00
      2.537  0.1463E-02  0.5708E-02  0.0000E+00
      2.603  0.3967E-02  0.1683E-01  0.0000E+00
      2.669  0.3163E-02  0.4109E-01  0.0000E+00
      2.735  0.3509E-02  0.4517E-01  0.0000E+00
      2.801  0.3537E-02  0.5814E-01  0.0000E+00
      2.868  0.5028E-02  0.7373E-01  0.0000E+00
      2.934  0.5239E-02  0.3339E-01  0.0000E+00
      3.000  0.3304E-02  0.1410E-01  0.0000E+00
      3.066  0.4212E-02  0.3816E-01  0.0000E+00
      3.132  0.6455E-02  0.3153E-01  0.0000E+00
      3.199  0.5745E-02  0.9800E-02  0.0000E+00
      3.265  0.2703E-02  0.9536E-02  0.0000E+00
      3.331  0.2200E-02  0.1009E-01  0.0000E+00
      3.397  0.1847E-02  0.4696E-02  0.0000E+00
      3.463  0.1772E-02  0.6871E-02  0.0000E+00
      3.529  0.1428E-02  0.5695E-02  0.0000E+00
      3.596  0.3373E-02  0.1039E-01  0.0000E+00
      3.662  0.1755E-02  0.7441E-02  0.0000E+00
      3.728  0.2701E-02  0.8802E-02  0.0000E+00
      3.794  0.2022E-02  0.4591E-02  0.0000E+00
      3.860  0.3940E-03  0.5974E-03  0.0000E+00
      3.927  0.2915E-02  0.4563E-02  0.0000E+00
      3.993  0.4545E-02  0.4978E-02  0.0000E+00
      4.059  0.4639E-02  0.3517E-02  0.0000E+00
      4.125  0.3476E-02  0.7075E-02  0.0000E+00
      4.191  0.4446E-02  0.8141E-02  0.0000E+00
      4.257  0.4149E-02  0.6472E-02  0.0000E+00
      4.324  0.8945E-03  0.1732E-02  0.0000E+00
      4.390  0.7353E-03  0.1869E-02  0.0000E+00
      4.456  0.1818E-02  0.4335E-02  0.0000E+00
      4.522  0.1950E-02  0.3982E-02  0.0000E+00
      4.588  0.2705E-02  0.6348E-02  0.0000E+00
      4.655  0.2012E-02  0.6373E-02  0.0000E+00
      4.721  0.8042E-03  0.2280E-02  0.0000E+00
      4.787  0.4571E-03  0.1957E-02  0.0000E+00
      4.853  0.2846E-03  0.1250E-02  0.0000E+00
      4.919  0.1180E-04  0.5149E-04  0.0000E+00
      4.985  0.2132E-07  0.9246E-07  0.0000E+00
      5.052  0.7777E-07  0.9161E-06  0.0000E+00
      5.118  0.2809E-04  0.2499E-03  0.0000E+00
      5.184  0.4743E-03  0.3290E-02  0.0000E+00
      5.250  0.8451E-03  0.3971E-02  0.0000E+00
      5.316  0.1070E-02  0.3633E-02  0.0000E+00
      5.383  0.9367E-03  0.3683E-02  0.0000E+00
      5.449  0.1570E-02  0.5888E-02  0.0000E+00
      5.515  0.4129E-03  0.1551E-02  0.0000E+00
      5.581  0.1823E-04  0.5412E-04  0.0000E+00
      5.647  0.2837E-03  0.6629E-03  0.0000E+00
      5.713  0.9242E-03  0.2230E-02  0.0000E+00
      5.780  0.4623E-03  0.1473E-02  0.0000E+00
      5.846  0.9565E-03  0.1364E-02  0.0000E+00
      5.912  0.1597E-02  0.1685E-02  0.0000E+00
      5.978  0.3111E-02  0.3393E-02  0.0000E+00
      6.044  0.2310E-02  0.5212E-02  0.0000E+00
      6.111  0.3512E-02  0.7592E-02  0.0000E+00
      6.177  0.4043E-02  0.9168E-02  0.0000E+00
      6.243  0.4324E-02  0.6790E-02  0.0000E+00
      6.309  0.6681E-02  0.1358E-01  0.0000E+00
      6.375  0.3070E-02  0.8786E-02  0.0000E+00
      6.441  0.4699E-02  0.1646E-01  0.0000E+00
      6.508  0.4732E-02  0.2012E-01  0.0000E+00
      6.574  0.5982E-02  0.1361E-01  0.0000E+00
      6.640  0.8641E-02  0.1840E-01  0.0000E+00
      6.706  0.3665E-02  0.1927E-01  0.0000E+00
      6.772  0.2018E-02  0.9677E-02  0.0000E+00
      6.839  0.4673E-02  0.9689E-02  0.0000E+00
      6.905  0.7541E-02  0.1649E-01  0.0000E+00
      6.971  0.1530E-01  0.2231E-01  0.0000E+00
      7.037  0.6861E-02  0.1276E-01  0.0000E+00
      7.103  0.4644E-02  0.2103E-01  0.0000E+00
      7.169  0.5367E-02  0.2941E-01  0.0000E+00
      7.236  0.2209E-02  0.9184E-02  0.0000E+00
      7.302  0.4790E-02  0.1575E-01  0.0000E+00
      7.368  0.5459E-02  0.2278E-01  0.0000E+00
      7.434  0.6306E-02  0.2286E-01  0.0000E+00
      7.500  0.1007E-01  0.3695E-01  0.0000E+00
      7.567  0.8395E-02  0.2244E-01  0.0000E+00
      7.633  0.1597E-01  0.2664E-01  0.0000E+00
      7.699  0.1756E-01  0.2416E-01  0.0000E+00
      7.765  0.2013E-01  0.3219E-01  0.0000E+00
      7.831  0.1310E-01  0.4204E-01  0.0000E+00
      7.897  0.1539E-01  0.4164E-01  0.0000E+00
      7.964  0.1032E-01  0.1598E-01  0.0000E+00
      8.030  0.1326E-01  0.2247E-01  0.0000E+00
      8.096  0.1461E-01  0.3634E-01  0.0000E+00
      8.162  0.2550E-01  0.7423E-01  0.0000E+00
      8.228  0.1711E-01  0.5946E-01  0.0000E+00
      8.295  0.1372E-01  0.3649E-01  0.0000E+00
      8.361  0.1689E-01  0.4420E-01  0.0000E+00
      8.427  0.8176E-02  0.2880E-01  0.0000E+00
      8.493  0.7333E-03  0.2837E-02  0.0000E+00
      8.559  0.5356E-05  0.2062E-04  0.0000E+00
      8.625  0.1796E-08  0.6807E-08  0.0000E+00
      8.692  0.2160E-13  0.8072E-13  0.0000E+00
      8.758  0.0000E+00  0.0000E+00  0.0000E+00
      8.824  0.0000E+00  0.0000E+00  0.0000E+00
      8.890  0.0000E+00  0.0000E+00  0.0000E+00
      8.956  0.0000E+00  0.0000E+00  0.0000E+00
      9.023  0.0000E+00  0.0000E+00  0.0000E+00
      9.089  0.0000E+00  0.0000E+00  0.0000E+00
      9.155  0.0000E+00  0.0000E+00  0.0000E+00
      9.221  0.0000E+00  0.0000E+00  0.0000E+00
      9.287  0.0000E+00  0.0000E+00  0.0000E+00
      9.28723070    -10.56720687  301      4.97866586      1.00000000
    -10.567  0.0000E+00  0.0000E+00  0.0000E+00
    -10.501  0.0000E+00  0.0000E+00  0.0000E+00
    -10.435  0.0000E+00  0.0000E+00  0.0000E+00
    -10.369  0.0000E+00  0.0000E+00  0.0000E+00
    -10.302  0.0000E+00  0.0000E+00  0.0000E+00
    -10.236  0.0000E+00  0.0000E+00  0.0000E+00
    -10.170  0.0000E+00  0.0000E+00  0.0000E+00
    -10.104  0.0000E+00  0.0000E+00  0.0000E+00
    -10.038  0.0000E+00  0.0000E+00  0.0000E+00
     -9.972  0.0000E+00  0.0000E+00  0.0000E+00
     -9.905  0.1180E-13  0.2113E-14  0.0000E+00
     -9.839  0.9507E-09  0.1708E-09  0.0000E+00
     -9.773  0.2647E-05  0.4838E-06  0.0000E+00
     -9.707  0.3122E-03  0.6234E-04  0.0000E+00
     -9.641  0.2619E-02  0.6524E-03  0.0000E+00
     -9.574  0.4040E-02  0.1179E-02  0.0000E+00
     -9.508  0.9554E-02  0.2820E-02  0.0000E+00
     -9.442  0.1123E-01  0.3415E-02  0.0000E+00
     -9.376  0.7084E-02  0.2382E-02  0.0000E+00
     -9.310  0.3534E-02  0.1290E-02  0.0000E+00
     -9.244  0.3187E-03  0.1319E-03  0.0000E+00
     -9.177  0.1761E-05  0.8119E-06  0.0000E+00
     -9.111  0.2327E-04  0.6042E-05  0.0000E+00
     -9.045  0.3766E-02  0.1004E-02  0.0000E+00
     -8.979  0.3594E-01  0.9899E-02  0.0000E+00
     -8.913  0.4280E-01  0.1182E-01  0.0000E+00
     -8.846  0.4269E-01  0.1236E-01  0.0000E+00
     -8.780  0.2131E-01  0.8315E-02  0.0000E+00
     -8.714  0.2565E-01  0.1154E-01  0.0000E+00
     -8.648  0.3216E-01  0.1260E-01  0.0000E+00
     -8.582  0.2171E-01  0.1666E-01  0.0000E+00
     -8.516  0.1950E-01  0.2436E-01  0.0000E+00
     -8.449  0.1561E-01  0.2879E-01  0.0000E+00
     -8.383  0.9070E-02  0.3375E-01  0.0000E+00
     -8.317  0.2527E-02  0.7584E-02  0.0000E+00
     -8.251  0.5429E-02  0.3889E-02  0.0000E+00
     -8.185  0.5070E-02  0.3772E-02  0.0000E+00
     -8.118  0.5199E-03  0.4448E-03  0.0000E+00
     -8.052  0.5777E-05  0.4887E-05  0.0000E+00
     -7.986  0.5406E-08  0.3869E-08  0.0000E+00
     -7.920  0.2474E-12  0.1573E-12  0.0000E+00
     -7.854  0.3937E-18  0.2298E-18  0.0000E+00
     -7.788  0.0000E+00  0.0000E+00  0.0000E+00
     -7.721  0.0000E+00  0.0000E+00  0.0000E+00
     -7.655  0.0000E+00  0.0000E+00  0.0000E+00
     -7.589  0.0000E+00  0.0000E+00  0.0000E+00
     -7.523  0.0000E+00  0.0000E+00  0.0000E+00
     -7.457  0.0000E+00  0.0000E+00  0.0000E+00
     -7.390  0.0000E+00  0.0000E+00  0.0000E+00
     -7.324  0.0000E+00  0.0000E+00  0.0000E+00
     -7.258  0.0000E+00  0.0000E+00  0.0000E+00
     -7.192  0.0000E+00  0.0000E+00  0.0000E+00
     -7.126  0.0000E+00  0.0000E+00  0.0000E+00
     -7.060  0.0000E+00  0.0000E+00  0.0000E+00
     -6.993  0.0000E+00  0.0000E+00  0.0000E+00
     -6.927  0.0000E+00  0.0000E+00  0.0000E+00
     -6.861  0.0000E+00  0.0000E+00  0.0000E+00
     -6.795  0.0000E+00  0.0000E+00  0.0000E+00
     -6.729  0.0000E+00  0.0000E+00  0.0000E+00
     -6.663  0.0000E+00  0.0000E+00  0.0000E+00
     -6.596  0.0000E+00  0.0000E+00  0.0000E+00
     -6.530  0.0000E+00  0.0000E+00  0.0000E+00
     -6.464  0.0000E+00  0.0000E+00  0.0000E+00
     -6.398  0.0000E+00  0.0000E+00  0.0000E+00
     -6.332  0.0000E+00  0.0000E+00  0.0000E+00
     -6.265  0.0000E+00  0.0000E+00  0.0000E+00
     -6.199  0.0000E+00  0.0000E+00  0.0000E+00
     -6.133  0.0000E+00  0.0000E+00  0.0000E+00
     -6.067  0.0000E+00  0.0000E+00  0.0000E+00
     -6.001  0.0000E+00  0.0000E+00  0.0000E+00
     -5.935  0.0000E+00  0.0000E+00  0.0000E+00
     -5.868  0.0000E+00  0.0000E+00  0.0000E+00
     -5.802  0.0000E+00  0.0000E+00  0.0000E+00
     -5.736  0.0000E+00  0.0000E+00  0.0000E+00
     -5.670  0.0000E+00  0.0000E+00  0.0000E+00
     -5.604  0.0000E+00  0.0000E+00  0.0000E+00
     -5.537  0.0000E+00  0.0000E+00  0.0000E+00
     -5.471  0.0000E+00  0.0000E+00  0.0000E+00
     -5.405  0.0000E+00  0.0000E+00  0.0000E+00
     -5.339  0.0000E+00  0.0000E+00  0.0000E+00
     -5.273  0.0000E+00  0.0000E+00  0.0000E+00
     -5.207  0.0000E+00  0.0000E+00  0.0000E+00
     -5.140  0.0000E+00  0.0000E+00  0.0000E+00
     -5.074  0.0000E+00  0.0000E+00  0.0000E+00
     -5.008  0.0000E+00  0.0000E+00  0.0000E+00
     -4.942  0.0000E+00  0.0000E+00  0.0000E+00
     -4.876  0.0000E+00  0.0000E+00  0.0000E+00
     -4.809  0.0000E+00  0.0000E+00  0.0000E+00
     -4.743  0.0000E+00  0.0000E+00  0.0000E+00
     -4.677  0.0000E+00  0.0000E+00  0.0000E+00