 vasp.5.4.4.18Apr17-6-g9f103f2a35 (build Oct 27 2022 13:04:57) complex          
  
 executed on             LinuxIFC date 2024.07.04  11:03:50
 running on   14 total cores
 distrk:  each k-point on   14 cores,    1 groups
 distr:  one band on NCORES_PER_BAND=   1 cores,   14 groups


--------------------------------------------------------------------------------------------------------


 INCAR:
 POTCAR:    PAW_PBE Li 17Jan2003                  
 POTCAR:    PAW_PBE Al 04Jan2001                  
 POTCAR:    PAW_PBE S 06Sep2000                   

 ----------------------------------------------------------------------------- 
|                                                                             |
|           W    W    AA    RRRRR   N    N  II  N    N   GGGG   !!!           |
|           W    W   A  A   R    R  NN   N  II  NN   N  G    G  !!!           |
|           W    W  A    A  R    R  N N  N  II  N N  N  G       !!!           |
|           W WW W  AAAAAA  RRRRR   N  N N  II  N  N N  G  GGG   !            |
|           WW  WW  A    A  R   R   N   NN  II  N   NN  G    G                |
|           W    W  A    A  R    R  N    N  II  N    N   GGGG   !!!           |
|                                                                             |
|      For optimal performance we recommend to set                            |
|        NCORE= 4 - approx SQRT( number of cores)                             |
|      NCORE specifies how many cores store one orbital (NPAR=cpu/NCORE).     |
|      This setting can  greatly improve the performance of VASP for DFT.     |
|      The default,   NCORE=1            might be grossly inefficient         |
|      on modern multi-core architectures or massively parallel machines.     |
|      Do your own testing !!!!                                               |
|      Unfortunately you need to use the default for GW and RPA calculations. |
|      (for HF NCORE is supported but not extensively tested yet)             |
|                                                                             |
 ----------------------------------------------------------------------------- 

 POTCAR:    PAW_PBE Li 17Jan2003                  
   VRHFIN =Li: s1p0                                                             
   LEXCH  = PE                                                                  
   EATOM  =     5.3001 eV,    0.3895 Ry                                         
                                                                                
   TITEL  = PAW_PBE Li 17Jan2003                                                
   LULTRA =        F    use ultrasoft PP ?                                      
   IUNSCR =        1    unscreen: 0-lin 1-nonlin 2-no                           
   RPACOR =    1.500    partial core radius                                     
   POMASS =    7.010; ZVAL   =    1.000    mass and valenz                      
   RCORE  =    2.050    outmost cutoff radius                                   
   RWIGS  =    2.600; RWIGS  =    1.376    wigner-seitz radius (au A)           
   ENMAX  =  140.000; ENMIN  =  100.000 eV                                      
   ICORE  =        2    local potential                                         
   LCOR   =        T    correct aug charges                                     
   LPAW   =        T    paw PP                                                  
   EAUG   =  331.638                                                            
   DEXC   =    0.000                                                            
   RMAX   =    2.098    core radius for proj-oper                               
   RAUG   =    1.300    factor for augmentation sphere                          
   RDEP   =    2.094    radius for radial grids                                 
   RDEPT  =    1.810    core radius for aug-charge                              
                                                                                
   Atomic configuration                                                         
    4 entries                                                                   
     n  l   j            E        occ.                                          
     1  0  0.50       -51.8549   2.0000                                         
     2  0  0.50        -2.8742   1.0000                                         
     2  1  0.50        -1.3606   0.0000                                         
     3  2  1.50        -1.3606   0.0000                                         
   Description                                                                  
     l       E           TYP  RCUT    TYP  RCUT                                 
     0     -2.8742052     23  2.050                                             
     0     27.2116520     23  2.050                                             
     1     -1.3605826     23  2.050                                             
     2     -1.3605826     23  2.050                                             
  local pseudopotential read in
  partial core-charges read in
  partial kinetic energy density read in
  atomic valenz-charges read in
  non local Contribution for L=           0  read in
    real space projection operators read in
  non local Contribution for L=           0  read in
    real space projection operators read in
  non local Contribution for L=           1  read in
    real space projection operators read in
    PAW grid and wavefunctions read in
 
   number of l-projection  operators is LMAX  =           3
   number of lm-projection operators is LMMAX =           5
 
 POTCAR:    PAW_PBE Al 04Jan2001                  
   VRHFIN =Al: s2p1                                                             
   LEXCH  = PE                                                                  
   EATOM  =    53.5387 eV,    3.9350 Ry                                         
                                                                                
   TITEL  = PAW_PBE Al 04Jan2001                                                
   LULTRA =        F    use ultrasoft PP ?                                      
   IUNSCR =        1    unscreen: 0-lin 1-nonlin 2-no                           
   RPACOR =    1.500    partial core radius                                     
   POMASS =   26.981; ZVAL   =    3.000    mass and valenz                      
   RCORE  =    1.900    outmost cutoff radius                                   
   RWIGS  =    2.650; RWIGS  =    1.402    wigner-seitz radius (au A)           
   ENMAX  =  240.300; ENMIN  =  180.225 eV                                      
   ICORE  =        2    local potential                                         
   LCOR   =        T    correct aug charges                                     
   LPAW   =        T    paw PP                                                  
   EAUG   =  291.052                                                            
   DEXC   =    0.000                                                            
   RMAX   =    1.939    core radius for proj-oper                               
   RAUG   =    1.300    factor for augmentation sphere                          
   RDEP   =    1.966    radius for radial grids                                 
   RDEPT  =    1.856    core radius for aug-charge                              
                                                                                
   Atomic configuration                                                         
    6 entries                                                                   
     n  l   j            E        occ.                                          
     1  0  0.50     -1511.1048   2.0000                                         
     2  0  0.50      -108.1629   2.0000                                         
     2  1  1.50       -69.6402   6.0000                                         
     3  0  0.50        -7.7528   2.0000                                         
     3  1  1.50        -2.7121   1.0000                                         
     3  2  2.50        -2.7212   0.0000                                         
   Description                                                                  
     l       E           TYP  RCUT    TYP  RCUT                                 
     0     -7.7528455     23  1.900                                             
     0     -3.3096929     23  1.900                                             
     1     -2.7120682     23  1.900                                             
     1     13.6058260     23  1.900                                             
     2     -2.7211652      7  1.900                                             
  local pseudopotential read in
  partial core-charges read in
  partial kinetic energy density read in
  atomic valenz-charges read in
  non local Contribution for L=           0  read in
    real space projection operators read in
  non local Contribution for L=           0  read in
    real space projection operators read in
  non local Contribution for L=           1  read in
    real space projection operators read in
  non local Contribution for L=           1  read in
    real space projection operators read in
    PAW grid and wavefunctions read in
 
   number of l-projection  operators is LMAX  =           4
   number of lm-projection operators is LMMAX =           8
 
 POTCAR:    PAW_PBE S 06Sep2000                   
   VRHFIN =S : s2p4                                                             
   LEXCH  = PE                                                                  
   EATOM  =   276.8230 eV,   20.3459 Ry                                         
                                                                                
   TITEL  = PAW_PBE S 06Sep2000                                                 
   LULTRA =        F    use ultrasoft PP ?                                      
   IUNSCR =        1    unscreen: 0-lin 1-nonlin 2-no                           
   RPACOR =    1.500    partial core radius                                     
   POMASS =   32.066; ZVAL   =    6.000    mass and valenz                      
   RCORE  =    1.900    outmost cutoff radius                                   
   RWIGS  =    2.200; RWIGS  =    1.164    wigner-seitz radius (au A)           
   ENMAX  =  258.689; ENMIN  =  194.016 eV                                      
   ICORE  =        2    local potential                                         
   LCOR   =        T    correct aug charges                                     
   LPAW   =        T    paw PP                                                  
   EAUG   =  335.092                                                            
   DEXC   =    0.000                                                            
   RMAX   =    1.942    core radius for proj-oper                               
   RAUG   =    1.300    factor for augmentation sphere                          
   RDEP   =    1.954    radius for radial grids                                 
   RDEPT  =    1.744    core radius for aug-charge                              
                                                                                
   Atomic configuration                                                         
    6 entries                                                                   
     n  l   j            E        occ.                                          
     1  0  0.50     -2405.8406   2.0000                                         
     2  0  0.50      -211.7007   2.0000                                         
     2  1  1.50      -156.4958   6.0000                                         
     3  0  0.50       -17.2562   2.0000                                         
     3  1  0.50        -7.0085   4.0000                                         
     3  2  1.50        -6.8029   0.0000                                         
   Description                                                                  
     l       E           TYP  RCUT    TYP  RCUT                                 
     0    -17.2561641     23  1.900                                             
     0    -15.8743224     23  1.900                                             
     1     -7.0085400     23  1.900                                             
     1     -2.7779785     23  1.900                                             
     2     -6.8029130     23  1.900                                             
  local pseudopotential read in
  partial core-charges read in
  partial kinetic energy density read in
  atomic valenz-charges read in
  non local Contribution for L=           0  read in
    real space projection operators read in
  non local Contribution for L=           0  read in
    real space projection operators read in
  non local Contribution for L=           1  read in
    real space projection operators read in
  non local Contribution for L=           1  read in
    real space projection operators read in
    PAW grid and wavefunctions read in
 
   number of l-projection  operators is LMAX  =           4
   number of lm-projection operators is LMMAX =           8
 
 Optimization of the real space projectors (new method)

 maximal supplied QI-value         = 18.33
 optimisation between [QCUT,QGAM] = [  8.80, 17.60] = [ 21.68, 86.71] Ry 
 Optimized for a Real-space Cutoff    1.15 Angstroem

   l    n(q)    QCUT    max X(q) W(low)/X(q) W(high)/X(q)  e(spline) 
   0      6     8.799    33.825    0.11E-02    0.11E-02    0.82E-07
   0      6     8.799     8.944    0.75E-03    0.85E-03    0.59E-07
   1      5     8.799     4.214    0.92E-03    0.27E-03    0.41E-07
 Optimization of the real space projectors (new method)

 maximal supplied QI-value         = 19.84
 optimisation between [QCUT,QGAM] = [  8.73, 17.66] = [ 21.34, 87.33] Ry 
 Optimized for a Real-space Cutoff    1.12 Angstroem

   l    n(q)    QCUT    max X(q) W(low)/X(q) W(high)/X(q)  e(spline) 
   0      6     8.731   176.870    0.15E-02    0.11E-03    0.68E-07
   0      6     8.731   105.762    0.15E-02    0.11E-03    0.66E-07
   1      5     8.731    55.370    0.19E-02    0.30E-02    0.57E-07
   1      5     8.731    20.208    0.17E-02    0.27E-02    0.55E-07
 Optimization of the real space projectors (new method)

 maximal supplied QI-value         = 19.84
 optimisation between [QCUT,QGAM] = [  8.73, 17.66] = [ 21.34, 87.33] Ry 
 Optimized for a Real-space Cutoff    1.22 Angstroem

   l    n(q)    QCUT    max X(q) W(low)/X(q) W(high)/X(q)  e(spline) 
   0      6     8.731   187.594    0.15E-02    0.56E-03    0.90E-07
   0      6     8.731   164.243    0.15E-02    0.56E-03    0.89E-07
   1      6     8.731    67.533    0.37E-03    0.20E-02    0.11E-06
   1      6     8.731    50.729    0.36E-03    0.19E-02    0.10E-06
  PAW_PBE Li 17Jan2003                  :
 energy of atom  1       EATOM=   -5.3001
 kinetic energy error for atom=    0.0000 (will be added to EATOM!!)
  PAW_PBE Al 04Jan2001                  :
 energy of atom  2       EATOM=  -53.5387
 kinetic energy error for atom=    0.0011 (will be added to EATOM!!)
  PAW_PBE S 06Sep2000                   :
 energy of atom  3       EATOM= -276.8230
 kinetic energy error for atom=    0.0077 (will be added to EATOM!!)
 
 
 POSCAR: Li9 Al1 S6                              
  positions in direct lattice
  velocities in cartesian coordinates
 exchange correlation table for  LEXCH =        8
   RHO(1)=    0.500       N(1)  =     2000
   RHO(2)=  100.500       N(2)  =     4000
 


--------------------------------------------------------------------------------------------------------


 ion  position               nearest neighbor table
   1  0.468  0.420  0.528-  12 2.37  14 2.40  13 2.42  15 2.45
   2  0.589  0.994  0.410-  11 2.36  13 2.37   6 2.60   9 2.63
   3  0.958  0.498  0.051-  15 2.34  12 2.35   8 2.66   6 2.76   5 2.91
   4  0.978  0.879  0.640-  15 2.35  13 2.38   7 2.67   9 2.76   6 2.96
   5  0.010  0.451  0.461-  15 2.33  11 2.40  16 2.43  14 2.43   3 2.91   6 3.14  10 3.25
   6  0.974  0.780  0.099-   2 2.60   7 2.71   9 2.71   3 2.76   4 2.96   5 3.14
   7  0.220  0.859  0.181-  12 2.40   8 2.59   4 2.67   6 2.71   9 2.84
   8  0.225  0.155  0.969-  13 2.42  16 2.50   7 2.59   3 2.66   9 3.21
   9  0.298  0.867  0.724-  14 2.47   2 2.63  16 2.66   6 2.71   4 2.76   7 2.84   8 3.21
  10  0.618  0.403  0.970-  14 2.24  12 2.25  11 2.28  16 2.28   5 3.25
  11  0.405  0.257  0.214-  10 2.28   2 2.36   5 2.40
  12  0.565  0.587  0.171-  10 2.25   3 2.35   1 2.37   7 2.40
  13  0.607  0.108  0.658-   2 2.37   4 2.38   8 2.42   1 2.42
  14  0.592  0.553  0.643-  10 2.24   1 2.40   5 2.43   9 2.47
  15  0.045  0.589  0.660-   5 2.33   3 2.34   4 2.35   1 2.45
  16  0.003  0.213  0.764-  10 2.28   5 2.43   8 2.50   9 2.66
 
  Warning from LATTYP: Got some problem with cell dimensions!
  Tried to take original basis but could not verify dimensions!
  LATTYP: Found a triclinic cell.
 ALAT       =     7.6877905621
 B/A-ratio  =     1.6762418619
 C/A-ratio  =     0.8937994886
 COS(alpha) =     0.0302189410
 COS(beta)  =     0.5383714699
 COS(gamma) =     0.7000533434
  
  Lattice vectors:
  
 A1 = (   7.6598116092,   0.6357450806,  -0.1588648197)
 A2 = (   8.3302541780,   6.9971296458,  -6.9073444931)
 A3 = (   3.7050512872,   1.4911709643,   5.5914544166)


Analysis of symmetry for initial positions (statically):
=====================================================================
 Subroutine PRICEL returns:
 Original cell was already a primitive cell.
 

 Routine SETGRP: Setting up the symmetry group for a 
 triclinic supercell.


 Subroutine GETGRP returns: Found  1 space group operations
 (whereof  1 operations were pure point group operations)
 out of a pool of  2 trial point group operations.


The static configuration has the point symmetry C_1 .


Analysis of symmetry for dynamics (positions and initial velocities):
=====================================================================
 Subroutine PRICEL returns:
 Original cell was already a primitive cell.
 

 Routine SETGRP: Setting up the symmetry group for a 
 triclinic supercell.


 Subroutine GETGRP returns: Found  1 space group operations
 (whereof  1 operations were pure point group operations)
 out of a pool of  2 trial point group operations.


The dynamic configuration has the point symmetry C_1 .


 Subroutine INISYM returns: Found  1 space group operations
 (whereof  1 operations are pure point group operations),
 and found     1 'primitive' translations

 
 
 KPOINTS: pymatgen with grid density = 807 / numbe

Automatic generation of k-mesh.
Space group operators:
 irot       det(A)        alpha          n_x          n_y          n_z        tau_x        tau_y        tau_z
    1     1.000000     0.000000     1.000000     0.000000     0.000000     0.000000     0.000000     0.000000
 
 Subroutine IBZKPT returns following result:
 ===========================================
 
 Found     14 irreducible k-points:
 
 Following reciprocal coordinates:
            Coordinates               Weight
  0.000000  0.000000  0.000000      1.000000
  0.333333 -0.000000  0.000000      2.000000
  0.000000  0.333333  0.000000      2.000000
  0.333333  0.333333  0.000000      2.000000
 -0.333333  0.333333  0.000000      2.000000
  0.000000  0.000000  0.333333      2.000000
  0.333333  0.000000  0.333333      2.000000
 -0.333333  0.000000  0.333333      2.000000
  0.000000  0.333333  0.333333      2.000000
  0.333333  0.333333  0.333333      2.000000
 -0.333333  0.333333  0.333333      2.000000
  0.000000 -0.333333  0.333333      2.000000
  0.333333 -0.333333  0.333333      2.000000
 -0.333333 -0.333333  0.333333      2.000000
 
 Following cartesian coordinates:
            Coordinates               Weight
  0.000000  0.000000  0.000000      1.000000
  0.045427 -0.028623 -0.022468      2.000000
 -0.003775  0.043222 -0.009026      2.000000
  0.041652  0.014600 -0.031493      2.000000
 -0.049201  0.071845  0.013442      2.000000
  0.000510  0.008131  0.057109      2.000000
  0.045936 -0.020492  0.034641      2.000000
 -0.044917  0.036753  0.079577      2.000000
 -0.003265  0.051353  0.048083      2.000000
  0.042162  0.022730  0.025615      2.000000
 -0.048692  0.079976  0.070551      2.000000
  0.004284 -0.035092  0.066134      2.000000
  0.049711 -0.063714  0.043667      2.000000
 -0.041143 -0.006469  0.088602      2.000000
 


--------------------------------------------------------------------------------------------------------




 Dimension of arrays:
   k-points           NKPTS =     14   k-points in BZ     NKDIM =     14   number of bands    NBANDS=     42
   number of dos      NEDOS =    301   number of ions     NIONS =     16
   non local maximal  LDIM  =      4   non local SUM 2l+1 LMDIM =      8
   total plane-waves  NPLWV =  43200
   max r-space proj   IRMAX =   1035   max aug-charges    IRDMAX=   1781
   dimension x,y,z NGX =    36 NGY =   40 NGZ =   30
   dimension x,y,z NGXF=    48 NGYF=   54 NGZF=   42
   support grid    NGXF=    48 NGYF=   54 NGZF=   42
   ions per type =               1   9   6
   NGX,Y,Z   is equivalent  to a cutoff of   7.78,  7.34,  7.26 a.u.
   NGXF,Y,Z  is equivalent  to a cutoff of  10.38,  9.90, 10.16 a.u.

 SYSTEM =  CIS                                     
 POSCAR =  Li9 Al1 S6                              

 Startparameter for this run:
   NWRITE =      2    write-flag & timer
   PREC   = medium    normal or accurate (medium, high low for compatibility)
   ISTART =      0    job   : 0-new  1-cont  2-samecut
   ICHARG =      2    charge: 1-file 2-atom 10-const
   ISPIN  =      1    spin polarized calculation?
   LNONCOLLINEAR =      F non collinear calculations
   LSORBIT =      F    spin-orbit coupling
   INIWAV =      1    electr: 0-lowe 1-rand  2-diag
   LASPH  =      T    aspherical Exc in radial PAW
   METAGGA=      F    non-selfconsistent MetaGGA calc.

 Electronic Relaxation 1
   ENCUT  =  300.0 eV  22.05 Ry    4.70 a.u.  10.86 12.80  9.70*2*pi/ulx,y,z
   ENINI  =  300.0     initial cutoff
   ENAUG  =  335.1 eV  augmentation charge cutoff
   NELM   =     60;   NELMIN=  2; NELMDL= -5     # of ELM steps 
   EDIFF  = 0.1E-03   stopping-criterion for ELM
   LREAL  =      T    real-space projection
   NLSPLINE    = F    spline interpolate recip. space projectors
   LCOMPAT=      F    compatible to vasp.4.4
   GGA_COMPAT  = T    GGA compatible to vasp.4.4-vasp.4.6
   LMAXPAW     = -100 max onsite density
   LMAXMIX     =    4 max onsite mixed and CHGCAR
   VOSKOWN=      0    Vosko Wilk Nusair interpolation
   ROPT   =   -0.00200  -0.00200  -0.00200
 Ionic relaxation
   EDIFFG = -.5E-01   stopping-criterion for IOM
   NSW    =     99    number of steps for IOM
   NBLOCK =      1;   KBLOCK =     99    inner block; outer block 
   IBRION =      2    ionic relax: 0-MD 1-quasi-New 2-CG
   NFREE  =      1    steps in history (QN), initial steepest desc. (CG)
   ISIF   =      3    stress and relaxation
   IWAVPR =     11    prediction:  0-non 1-charg 2-wave 3-comb
   ISYM   =      2    0-nonsym 1-usesym 2-fastsym
   LCORR  =      T    Harris-Foulkes like correction to forces

   POTIM  = 0.1000    time-step for ionic-motion
   TEIN   =    0.0    initial temperature
   TEBEG  =    0.0;   TEEND  =   0.0 temperature during run
   SMASS  =  -3.00    Nose mass-parameter (am)
   estimated Nose-frequenzy (Omega)   =  0.10E-29 period in steps =****** mass=  -0.135E-26a.u.
   SCALEE = 1.0000    scale energy and forces
   NPACO  =    256;   APACO  = 16.0  distance and # of slots for P.C.
   PSTRESS=    0.0 pullay stress

  Mass of Ions in am
   POMASS =   7.01 26.98 32.07
  Ionic Valenz
   ZVAL   =   1.00  3.00  6.00
  Atomic Wigner-Seitz radii
   RWIGS  =  -1.00 -1.00 -1.00
  virtual crystal weights 
   VCA    =   1.00  1.00  1.00
   NELECT =      64.0000    total number of electrons
   NUPDOWN=      -1.0000    fix difference up-down

 DOS related values:
   EMIN   =  10.00;   EMAX   =-10.00  energy-range for DOS
   EFERMI =   0.00
   ISMEAR =     0;   SIGMA  =   0.05  broadening in eV -4-tet -1-fermi 0-gaus

 Electronic relaxation 2 (details)
   IALGO  =     38    algorithm
   LDIAG  =      T    sub-space diagonalisation (order eigenvalues)
   LSUBROT=      F    optimize rotation matrix (better conditioning)
   TURBO    =      0    0=normal 1=particle mesh
   IRESTART =      0    0=no restart 2=restart with 2 vectors
   NREBOOT  =      0    no. of reboots
   NMIN     =      0    reboot dimension
   EREF     =   0.00    reference energy to select bands
   IMIX   =      4    mixing-type and parameters
     AMIX     =   0.40;   BMIX     =  1.00
     AMIX_MAG =   1.60;   BMIX_MAG =  1.00
     AMIN     =   0.10
     WC   =   100.;   INIMIX=   1;  MIXPRE=   1;  MAXMIX= -45

 Intra band minimization:
   WEIMIN = 0.0010     energy-eigenvalue tresh-hold
   EBREAK =  0.60E-06  absolut break condition
   DEPER  =   0.30     relativ break condition  

   TIME   =   0.40     timestep for ELM

  volume/ion in A,a.u.               =      20.93       141.23
  Fermi-wavevector in a.u.,A,eV,Ry     =   0.943020  1.782050 12.099490  0.889287
  Thomas-Fermi vector in A             =   2.070687
 
 Write flags
   LWAVE        =      F    write WAVECAR
   LDOWNSAMPLE  =      F    k-point downsampling of WAVECAR
   LCHARG       =      F    write CHGCAR
   LVTOT        =      F    write LOCPOT, total local potential
   LVHAR        =      F    write LOCPOT, Hartree potential only
   LELF         =      F    write electronic localiz. function (ELF)
   LORBIT       =     10    0 simple, 1 ext, 2 COOP (PROOUT), +10 PAW based schemes


 Dipole corrections
   LMONO  =      F    monopole corrections only (constant potential shift)
   LDIPOL =      F    correct potential (dipole corrections)
   IDIPOL =      0    1-x, 2-y, 3-z, 4-all directions 
   EPSILON=  1.0000000 bulk dielectric constant

 Exchange correlation treatment:
   GGA     =    --    GGA type
   LEXCH   =     8    internal setting for exchange type
   VOSKOWN=      0    Vosko Wilk Nusair interpolation
   LHFCALC =     F    Hartree Fock is set to
   LHFONE  =     F    Hartree Fock one center treatment
   AEXX    =    0.0000 exact exchange contribution

 Linear response parameters
   LEPSILON=     F    determine dielectric tensor
   LRPA    =     F    only Hartree local field effects (RPA)
   LNABLA  =     F    use nabla operator in PAW spheres
   LVEL    =     F    velocity operator in full k-point grid
   LINTERFAST=   F  fast interpolation
   KINTER  =     0    interpolate to denser k-point grid
   CSHIFT  =0.1000    complex shift for real part using Kramers Kronig
   OMEGAMAX=  -1.0    maximum frequency
   DEG_THRESHOLD= 0.2000000E-02 threshold for treating states as degnerate
   RTIME   =   -0.100 relaxation time in fs
  (WPLASMAI=    0.000 imaginary part of plasma frequency in eV, 0.658/RTIME)
   DFIELD  = 0.0000000 0.0000000 0.0000000 field for delta impulse in time
 
 Orbital magnetization related:
   ORBITALMAG=     F  switch on orbital magnetization
   LCHIMAG   =     F  perturbation theory with respect to B field
   DQ        =  0.001000  dq finite difference perturbation B field
   LLRAUG    =     F  two centre corrections for induced B field



--------------------------------------------------------------------------------------------------------


 conjugate gradient relaxation of ions
 charge density and potential will be updated during run
 non-spin polarized calculation
 Variant of blocked Davidson
 Davidson routine will perform the subspace rotation
 perform sub-space diagonalisation
    after iterative eigenvector-optimisation
 modified Broyden-mixing scheme, WC =      100.0
 initial mixing is a Kerker type mixing with AMIX =  0.4000 and BMIX =      1.0000
 Hartree-type preconditioning will be used
 using additional bands           10
 real space projection scheme for non local part
 use partial core corrections
 calculate Harris-corrections to forces 
   (improved forces if not selfconsistent)
 use gradient corrections 
 use of overlap-Matrix (Vanderbilt PP)
 Gauss-broadening in eV      SIGMA  =   0.05


--------------------------------------------------------------------------------------------------------


  energy-cutoff  :      300.00
  volume of cell :      334.84
      direct lattice vectors                 reciprocal lattice vectors
     7.659811609  0.635745081 -0.158864820     0.136280374 -0.085867743 -0.067403266
     4.375493856  7.852555529 -1.157025257    -0.011323618  0.129667008 -0.027077229
     3.705051287  1.491170964  5.591454417     0.001528841  0.024391979  0.171326257

  length of vectors
     7.687790562  9.063458626  6.871343273     0.174610451  0.132947109  0.173060661


 
 k-points in units of 2pi/SCALE and weight: pymatgen with grid density = 807 / numbe
   0.00000000  0.00000000  0.00000000       0.037
   0.04542679 -0.02862258 -0.02246776       0.074
  -0.00377454  0.04322234 -0.00902574       0.074
   0.04165225  0.01459976 -0.03149350       0.074
  -0.04920133  0.07184492  0.01344201       0.074
   0.00050961  0.00813066  0.05710875       0.074
   0.04593640 -0.02049192  0.03464100       0.074
  -0.04491718  0.03675324  0.07957651       0.074
  -0.00326493  0.05135300  0.04808301       0.074
   0.04216187  0.02273041  0.02561525       0.074
  -0.04869172  0.07997558  0.07055076       0.074
   0.00428415 -0.03509168  0.06613450       0.074
   0.04971094 -0.06371426  0.04366674       0.074
  -0.04114264 -0.00646910  0.08860225       0.074
 
 k-points in reciprocal lattice and weights: pymatgen with grid density = 807 / numbe
   0.00000000  0.00000000  0.00000000       0.037
   0.33333333 -0.00000000  0.00000000       0.074
   0.00000000  0.33333333  0.00000000       0.074
   0.33333333  0.33333333  0.00000000       0.074
  -0.33333333  0.33333333  0.00000000       0.074
   0.00000000  0.00000000  0.33333333       0.074
   0.33333333  0.00000000  0.33333333       0.074
  -0.33333333  0.00000000  0.33333333       0.074
   0.00000000  0.33333333  0.33333333       0.074
   0.33333333  0.33333333  0.33333333       0.074
  -0.33333333  0.33333333  0.33333333       0.074
   0.00000000 -0.33333333  0.33333333       0.074
   0.33333333 -0.33333333  0.33333333       0.074
  -0.33333333 -0.33333333  0.33333333       0.074
 
 position of ions in fractional coordinates (direct lattice) 
   0.46818688  0.41969225  0.52801248
   0.58928791  0.99352034  0.40972601
   0.95782381  0.49842435  0.05074119
   0.97810370  0.87864898  0.63951201
   0.01029279  0.45089812  0.46090096
   0.97416895  0.77963086  0.09943421
   0.22038574  0.85886290  0.18060671
   0.22540454  0.15535927  0.96871259
   0.29795431  0.86744000  0.72435923
   0.61837235  0.40274537  0.97012560
   0.40459147  0.25663915  0.21436516
   0.56513467  0.58676622  0.17066563
   0.60717337  0.10801645  0.65803574
   0.59227182  0.55343577  0.64274558
   0.04472006  0.58867058  0.65998512
   0.00262763  0.21315138  0.76437078
 
 position of ions in cartesian coordinates  (Angst):
   7.37889752  4.38066110  2.39238477
  10.37903240  8.78728208  1.04781908
   9.70560131  4.59850042 -0.44513704
  13.70603803  8.47508623  2.40379692
   3.75940449  4.23452827  2.05377106
  11.24162955  6.88969115 -0.50083192
   6.11521976  7.15369327 -0.01888341
   5.99545973  2.80778325  5.20094884
   8.76154037  8.08118722  2.99923719
  10.09319070  5.00233071  4.86018887
   5.01625137  2.59214533  0.83739968
   7.52854197  5.22138755  0.18558571
   7.56151510  2.21545641  3.45794059
   9.33965068  5.68086252  2.85945229
   5.36355047  5.63514966  3.00206556
   3.78480266  2.81526106  4.02690539
 


--------------------------------------------------------------------------------------------------------


 k-point  1 :   0.0000 0.0000 0.0000  plane waves:    3945
 k-point  2 :   0.3333-0.0000 0.0000  plane waves:    3967
 k-point  3 :   0.0000 0.3333 0.0000  plane waves:    3943
 k-point  4 :   0.3333 0.3333 0.0000  plane waves:    3959
 k-point  5 :  -0.3333 0.3333 0.0000  plane waves:    3965
 k-point  6 :   0.0000 0.0000 0.3333  plane waves:    3950
 k-point  7 :   0.3333 0.0000 0.3333  plane waves:    3936
 k-point  8 :  -0.3333 0.0000 0.3333  plane waves:    3965
 k-point  9 :   0.0000 0.3333 0.3333  plane waves:    3938
 k-point 10 :   0.3333 0.3333 0.3333  plane waves:    3947
 k-point 11 :  -0.3333 0.3333 0.3333  plane waves:    3961
 k-point 12 :   0.0000-0.3333 0.3333  plane waves:    3951
 k-point 13 :   0.3333-0.3333 0.3333  plane waves:    3934
 k-point 14 :  -0.3333-0.3333 0.3333  plane waves:    3960

 maximum and minimum number of plane-waves per node :      3967     3934

 maximum number of plane-waves:      3967
 maximum index in each direction: 
   IXMAX=   11   IYMAX=   13   IZMAX=    9
   IXMIN=  -11   IYMIN=  -13   IZMIN=  -10


 serial   3D FFT for wavefunctions
 parallel 3D FFT for charge:
    minimum data exchange during FFTs selected (reduces bandwidth)


 total amount of memory used by VASP MPI-rank0    36850. kBytes
=======================================================================

   base      :      30000. kBytes
   nonlr-proj:       1172. kBytes
   fftplans  :        521. kBytes
   grid      :       2352. kBytes
   one-center:         49. kBytes
   wavefun   :       2756. kBytes
 
     INWAV:  cpu time    0.0000: real time    0.0001
 Broyden mixing: mesh for mixing (old mesh)
   NGX = 21   NGY = 25   NGZ = 19
  (NGX  = 48   NGY  = 54   NGZ  = 42)
  gives a total of   9975 points

 initial charge density was supplied:
 charge density of overlapping atoms calculated
 number of electron      64.0000000 magnetization 
 keeping initial charge density in first step


--------------------------------------------------------------------------------------------------------


 Maximum index for non-local projection operator          963
 Maximum index for augmentation-charges          228 (set IRDMAX)


--------------------------------------------------------------------------------------------------------


 First call to EWALD:  gamma=   0.255
 Maximum number of real-space cells 3x 3x 3
 Maximum number of reciprocal cells 3x 3x 3

    FEWALD:  cpu time    0.0020: real time    0.0020


--------------------------------------- Iteration      1(   1)  ---------------------------------------


    POTLOK:  cpu time    0.0111: real time    0.0347
    SETDIJ:  cpu time    0.0882: real time    0.0888
     EDDAV:  cpu time    0.3136: real time    0.3165
       DOS:  cpu time    0.0004: real time    0.0004
    --------------------------------------------
      LOOP:  cpu time    0.4132: real time    0.4404

 eigenvalue-minimisations  :  1176
 total energy-change (2. order) : 0.1803227E+03  (-0.1814266E+04)
 number of electron      64.0000000 magnetization 
 augmentation part       64.0000000 magnetization 

 Free energy of the ion-electron system (eV)
  ---------------------------------------------------
  alpha Z        PSCENC =        27.42569791
  Ewald energy   TEWEN  =     -1929.15534203
  -Hartree energ DENC   =      -371.07699680
  -exchange      EXHF   =         0.00000000
  -V(xc)+E(xc)   XCENC  =      -169.10753519
  PAW double counting   =      1908.36882167    -1596.07763481
  entropy T*S    EENTRO =        -0.00313068
  eigenvalues    EBANDS =       161.91806162
  atomic energy  EATOM  =      2148.03074991
  Solvation  Ediel_sol  =         0.00000000
  ---------------------------------------------------
  free energy    TOTEN  =       180.32269160 eV

  energy without entropy =      180.32582228  energy(sigma->0) =      180.32425694


--------------------------------------------------------------------------------------------------------




--------------------------------------- Iteration      1(   2)  ---------------------------------------


     EDDAV:  cpu time    0.4039: real time    0.4057
       DOS:  cpu time    0.0002: real time    0.0002
    --------------------------------------------
      LOOP:  cpu time    0.4042: real time    0.4060

 eigenvalue-minimisations  :  1638
 total energy-change (2. order) :-0.2319862E+03  (-0.2270084E+03)
 number of electron      64.0000000 magnetization 
 augmentation part       64.0000000 magnetization 

 Free energy of the ion-electron system (eV)
  ---------------------------------------------------
  alpha Z        PSCENC =        27.42569791
  Ewald energy   TEWEN  =     -1929.15534203
  -Hartree energ DENC   =      -371.07699680
  -exchange      EXHF   =         0.00000000
  -V(xc)+E(xc)   XCENC  =      -169.10753519
  PAW double counting   =      1908.36882167    -1596.07763481
  entropy T*S    EENTRO =        -0.00000129
  eigenvalues    EBANDS =       -70.07129913
  atomic energy  EATOM  =      2148.03074991
  Solvation  Ediel_sol  =         0.00000000
  ---------------------------------------------------
  free energy    TOTEN  =       -51.66353976 eV

  energy without entropy =      -51.66353847  energy(sigma->0) =      -51.66353912


--------------------------------------------------------------------------------------------------------




--------------------------------------- Iteration      1(   3)  ---------------------------------------


     EDDAV:  cpu time    0.4613: real time    0.4619
       DOS:  cpu time    0.0002: real time    0.0002
    --------------------------------------------
      LOOP:  cpu time    0.4614: real time    0.4620

 eigenvalue-minimisations  :  1568
 total energy-change (2. order) :-0.1831105E+02  (-0.1823809E+02)
 number of electron      64.0000000 magnetization 
 augmentation part       64.0000000 magnetization 

 Free energy of the ion-electron system (eV)
  ---------------------------------------------------
  alpha Z        PSCENC =        27.42569791
  Ewald energy   TEWEN  =     -1929.15534203
  -Hartree energ DENC   =      -371.07699680
  -exchange      EXHF   =         0.00000000
  -V(xc)+E(xc)   XCENC  =      -169.10753519
  PAW double counting   =      1908.36882167    -1596.07763481
  entropy T*S    EENTRO =        -0.00000000
  eigenvalues    EBANDS =       -88.38234767
  atomic energy  EATOM  =      2148.03074991
  Solvation  Ediel_sol  =         0.00000000
  ---------------------------------------------------
  free energy    TOTEN  =       -69.97458701 eV

  energy without entropy =      -69.97458701  energy(sigma->0) =      -69.97458701


--------------------------------------------------------------------------------------------------------




--------------------------------------- Iteration      1(   4)  ---------------------------------------


     EDDAV:  cpu time    0.4433: real time    0.4438
       DOS:  cpu time    0.0002: real time    0.0002
    --------------------------------------------
      LOOP:  cpu time    0.4435: real time    0.4439

 eigenvalue-minimisations  :  1526
 total energy-change (2. order) :-0.3181452E+00  (-0.3179950E+00)
 number of electron      64.0000000 magnetization 
 augmentation part       64.0000000 magnetization 

 Free energy of the ion-electron system (eV)
  ---------------------------------------------------
  alpha Z        PSCENC =        27.42569791
  Ewald energy   TEWEN  =     -1929.15534203
  -Hartree energ DENC   =      -371.07699680
  -exchange      EXHF   =         0.00000000
  -V(xc)+E(xc)   XCENC  =      -169.10753519
  PAW double counting   =      1908.36882167    -1596.07763481
  entropy T*S    EENTRO =        -0.00000000
  eigenvalues    EBANDS =       -88.70049288
  atomic energy  EATOM  =      2148.03074991
  Solvation  Ediel_sol  =         0.00000000
  ---------------------------------------------------
  free energy    TOTEN  =       -70.29273222 eV

  energy without entropy =      -70.29273222  energy(sigma->0) =      -70.29273222


--------------------------------------------------------------------------------------------------------




--------------------------------------- Iteration      1(   5)  ---------------------------------------


     EDDAV:  cpu time    0.4947: real time    0.4953
       DOS:  cpu time    0.0002: real time    0.0002
    CHARGE:  cpu time    0.0173: real time    0.0173
    MIXING:  cpu time    0.0004: real time    0.0004
    --------------------------------------------
      LOOP:  cpu time    0.5125: real time    0.5131

 eigenvalue-minimisations  :  1596
 total energy-change (2. order) :-0.8153212E-02  (-0.8151056E-02)
 number of electron      63.9999981 magnetization 
 augmentation part       -5.4613140 magnetization 

 Broyden mixing:
  rms(total) = 0.15695E+01    rms(broyden)= 0.15694E+01
  rms(prec ) = 0.18691E+01
  weight for this iteration     100.00

 Free energy of the ion-electron system (eV)
  ---------------------------------------------------
  alpha Z        PSCENC =        27.42569791
  Ewald energy   TEWEN  =     -1929.15534203
  -Hartree energ DENC   =      -371.07699680
  -exchange      EXHF   =         0.00000000
  -V(xc)+E(xc)   XCENC  =      -169.10753519
  PAW double counting   =      1908.36882167    -1596.07763481
  entropy T*S    EENTRO =        -0.00000000
  eigenvalues    EBANDS =       -88.70864609
  atomic energy  EATOM  =      2148.03074991
  Solvation  Ediel_sol  =         0.00000000
  ---------------------------------------------------
  free energy    TOTEN  =       -70.30088543 eV

  energy without entropy =      -70.30088543  energy(sigma->0) =      -70.30088543


--------------------------------------------------------------------------------------------------------




--------------------------------------- Iteration      1(   6)  ---------------------------------------


    POTLOK:  cpu time    0.0051: real time    0.0052
    SETDIJ:  cpu time    0.0859: real time    0.0859
     EDDAV:  cpu time    0.5010: real time    0.5020
       DOS:  cpu time    0.0002: real time    0.0002
    CHARGE:  cpu time    0.0170: real time    0.0170
    MIXING:  cpu time    0.0003: real time    0.0003
    --------------------------------------------
      LOOP:  cpu time    0.6096: real time    0.6106

 eigenvalue-minimisations  :  1498
 total energy-change (2. order) : 0.1612862E+01  (-0.3447521E+00)
 number of electron      63.9999980 magnetization 
 augmentation part       -5.3296996 magnetization 

 Broyden mixing:
  rms(total) = 0.10822E+01    rms(broyden)= 0.10822E+01
  rms(prec ) = 0.11758E+01
  weight for this iteration     100.00

 eigenvalues of (default mixing * dielectric matrix)
  average eigenvalue GAMMA=   2.5362
  2.5362

 Free energy of the ion-electron system (eV)
  ---------------------------------------------------
  alpha Z        PSCENC =        27.42569791
  Ewald energy   TEWEN  =     -1929.15534203
  -Hartree energ DENC   =      -392.13277318
  -exchange      EXHF   =         0.00000000
  -V(xc)+E(xc)   XCENC  =      -167.05784107
  PAW double counting   =      2930.51899788    -2619.09198501
  entropy T*S    EENTRO =        -0.00000000
  eigenvalues    EBANDS =       -67.22552739
  atomic energy  EATOM  =      2148.03074991
  Solvation  Ediel_sol  =         0.00000000
  ---------------------------------------------------
  free energy    TOTEN  =       -68.68802299 eV

  energy without entropy =      -68.68802299  energy(sigma->0) =      -68.68802299


--------------------------------------------------------------------------------------------------------




--------------------------------------- Iteration      1(   7)  ---------------------------------------


    POTLOK:  cpu time    0.0049: real time    0.0050
    SETDIJ:  cpu time    0.0878: real time    0.0879
     EDDAV:  cpu time    0.5164: real time    0.5167
       DOS:  cpu time    0.0002: real time    0.0002
    CHARGE:  cpu time    0.0174: real time    0.0174
    MIXING:  cpu time    0.0004: real time    0.0004
    --------------------------------------------
      LOOP:  cpu time    0.6271: real time    0.6276

 eigenvalue-minimisations  :  1568
 total energy-change (2. order) : 0.1689565E+00  (-0.1681414E+00)
 number of electron      63.9999982 magnetization 
 augmentation part       -5.2381333 magnetization 

 Broyden mixing:
  rms(total) = 0.36229E+00    rms(broyden)= 0.36227E+00
  rms(prec ) = 0.39284E+00
  weight for this iteration     100.00

 eigenvalues of (default mixing * dielectric matrix)
  average eigenvalue GAMMA=   1.9127
  1.1791  2.6464

 Free energy of the ion-electron system (eV)
  ---------------------------------------------------
  alpha Z        PSCENC =        27.42569791
  Ewald energy   TEWEN  =     -1929.15534203
  -Hartree energ DENC   =      -407.08936875
  -exchange      EXHF   =         0.00000000
  -V(xc)+E(xc)   XCENC  =      -165.05151176
  PAW double counting   =      4676.21805033    -4365.45234715
  entropy T*S    EENTRO =        -0.00000006
  eigenvalues    EBANDS =       -53.44499489
  atomic energy  EATOM  =      2148.03074991
  Solvation  Ediel_sol  =         0.00000000
  ---------------------------------------------------
  free energy    TOTEN  =       -68.51906649 eV

  energy without entropy =      -68.51906643  energy(sigma->0) =      -68.51906646


--------------------------------------------------------------------------------------------------------




--------------------------------------- Iteration      1(   8)  ---------------------------------------


    POTLOK:  cpu time    0.0065: real time    0.0066
    SETDIJ:  cpu time    0.0882: real time    0.0884
     EDDAV:  cpu time    0.4589: real time    0.4595
       DOS:  cpu time    0.0002: real time    0.0002
    CHARGE:  cpu time    0.0164: real time    0.0164
    MIXING:  cpu time    0.0004: real time    0.0004
    --------------------------------------------
      LOOP:  cpu time    0.5705: real time    0.5713

 eigenvalue-minimisations  :  1484
 total energy-change (2. order) : 0.1985470E-01  (-0.2161507E-01)
 number of electron      63.9999982 magnetization 
 augmentation part       -5.2648552 magnetization 

 Broyden mixing:
  rms(total) = 0.95018E-01    rms(broyden)= 0.95016E-01
  rms(prec ) = 0.10043E+00
  weight for this iteration     100.00

 eigenvalues of (default mixing * dielectric matrix)
  average eigenvalue GAMMA=   1.7037
  2.6238  1.2436  1.2436

 Free energy of the ion-electron system (eV)
  ---------------------------------------------------
  alpha Z        PSCENC =        27.42569791
  Ewald energy   TEWEN  =     -1929.15534203
  -Hartree energ DENC   =      -405.04333990
  -exchange      EXHF   =         0.00000000
  -V(xc)+E(xc)   XCENC  =      -164.83422028
  PAW double counting   =      5351.54767707    -5040.71134539
  entropy T*S    EENTRO =        -0.00000002
  eigenvalues    EBANDS =       -55.75908905
  atomic energy  EATOM  =      2148.03074991
  Solvation  Ediel_sol  =         0.00000000
  ---------------------------------------------------
  free energy    TOTEN  =       -68.49921179 eV

  energy without entropy =      -68.49921177  energy(sigma->0) =      -68.49921178


--------------------------------------------------------------------------------------------------------




--------------------------------------- Iteration      1(   9)  ---------------------------------------


    POTLOK:  cpu time    0.0046: real time    0.0047
    SETDIJ:  cpu time    0.0865: real time    0.0865
     EDDAV:  cpu time    0.3705: real time    0.3709
       DOS:  cpu time    0.0002: real time    0.0002
    CHARGE:  cpu time    0.0167: real time    0.0167
    MIXING:  cpu time    0.0004: real time    0.0004
    --------------------------------------------
      LOOP:  cpu time    0.4790: real time    0.4794

 eigenvalue-minimisations  :  1568
 total energy-change (2. order) :-0.2337336E-02  (-0.2215682E-02)
 number of electron      63.9999982 magnetization 
 augmentation part       -5.2687855 magnetization 

 Broyden mixing:
  rms(total) = 0.37066E-01    rms(broyden)= 0.37064E-01
  rms(prec ) = 0.39716E-01
  weight for this iteration     100.00

 eigenvalues of (default mixing * dielectric matrix)
  average eigenvalue GAMMA=   1.6475
  2.4160  1.2970  1.4385  1.4385

 Free energy of the ion-electron system (eV)
  ---------------------------------------------------
  alpha Z        PSCENC =        27.42569791
  Ewald energy   TEWEN  =     -1929.15534203
  -Hartree energ DENC   =      -405.81963519
  -exchange      EXHF   =         0.00000000
  -V(xc)+E(xc)   XCENC  =      -164.74432062
  PAW double counting   =      5402.35117253    -5091.51943636
  entropy T*S    EENTRO =        -0.00000002
  eigenvalues    EBANDS =       -55.07043525
  atomic energy  EATOM  =      2148.03074991
  Solvation  Ediel_sol  =         0.00000000
  ---------------------------------------------------
  free energy    TOTEN  =       -68.50154912 eV

  energy without entropy =      -68.50154910  energy(sigma->0) =      -68.50154911


--------------------------------------------------------------------------------------------------------




--------------------------------------- Iteration      1(  10)  ---------------------------------------


    POTLOK:  cpu time    0.0052: real time    0.0053
    SETDIJ:  cpu time    0.0886: real time    0.0886
     EDDAV:  cpu time    0.4151: real time    0.4153
       DOS:  cpu time    0.0002: real time    0.0002
    CHARGE:  cpu time    0.0169: real time    0.0169
    MIXING:  cpu time    0.0004: real time    0.0004
    --------------------------------------------
      LOOP:  cpu time    0.5263: real time    0.5266

 eigenvalue-minimisations  :  1568
 total energy-change (2. order) :-0.6815690E-03  (-0.2028774E-03)
 number of electron      63.9999982 magnetization 
 augmentation part       -5.2678430 magnetization 

 Broyden mixing:
  rms(total) = 0.13896E-01    rms(broyden)= 0.13895E-01
  rms(prec ) = 0.16500E-01
  weight for this iteration     100.00

 eigenvalues of (default mixing * dielectric matrix)
  average eigenvalue GAMMA=   1.5702
  2.3297  1.9816  1.1539  1.1539  1.2316

 Free energy of the ion-electron system (eV)
  ---------------------------------------------------
  alpha Z        PSCENC =        27.42569791
  Ewald energy   TEWEN  =     -1929.15534203
  -Hartree energ DENC   =      -405.98537755
  -exchange      EXHF   =         0.00000000
  -V(xc)+E(xc)   XCENC  =      -164.73638186
  PAW double counting   =      5357.17859069    -5046.33829017
  entropy T*S    EENTRO =        -0.00000002
  eigenvalues    EBANDS =       -54.92187757
  atomic energy  EATOM  =      2148.03074991
  Solvation  Ediel_sol  =         0.00000000
  ---------------------------------------------------
  free energy    TOTEN  =       -68.50223069 eV

  energy without entropy =      -68.50223068  energy(sigma->0) =      -68.50223069


--------------------------------------------------------------------------------------------------------




--------------------------------------- Iteration      1(  11)  ---------------------------------------


    POTLOK:  cpu time    0.0051: real time    0.0051
    SETDIJ:  cpu time    0.0882: real time    0.0883
     EDDAV:  cpu time    0.4629: real time    0.4631
       DOS:  cpu time    0.0003: real time    0.0003
    CHARGE:  cpu time    0.0190: real time    0.0190
    MIXING:  cpu time    0.0006: real time    0.0006
    --------------------------------------------
      LOOP:  cpu time    0.5760: real time    0.5763

 eigenvalue-minimisations  :  1246
 total energy-change (2. order) :-0.3072696E-03  (-0.2498255E-04)
 number of electron      63.9999982 magnetization 
 augmentation part       -5.2679730 magnetization 

 Broyden mixing:
  rms(total) = 0.63979E-02    rms(broyden)= 0.63978E-02
  rms(prec ) = 0.79285E-02
  weight for this iteration     100.00

 eigenvalues of (default mixing * dielectric matrix)
  average eigenvalue GAMMA=   1.5986
  2.2372  2.2372  1.0281  1.4228  1.3332  1.3332

 Free energy of the ion-electron system (eV)
  ---------------------------------------------------
  alpha Z        PSCENC =        27.42569791
  Ewald energy   TEWEN  =     -1929.15534203
  -Hartree energ DENC   =      -406.08542260
  -exchange      EXHF   =         0.00000000
  -V(xc)+E(xc)   XCENC  =      -164.71760865
  PAW double counting   =      5359.84227117    -5048.99789007
  entropy T*S    EENTRO =        -0.00000002
  eigenvalues    EBANDS =       -54.84499359
  atomic energy  EATOM  =      2148.03074991
  Solvation  Ediel_sol  =         0.00000000
  ---------------------------------------------------
  free energy    TOTEN  =       -68.50253796 eV

  energy without entropy =      -68.50253795  energy(sigma->0) =      -68.50253796


--------------------------------------------------------------------------------------------------------




--------------------------------------- Iteration      1(  12)  ---------------------------------------


    POTLOK:  cpu time    0.0069: real time    0.0070
    SETDIJ:  cpu time    0.0888: real time    0.0888
     EDDAV:  cpu time    0.3418: real time    0.3420
       DOS:  cpu time    0.0002: real time    0.0002
    CHARGE:  cpu time    0.0166: real time    0.0166
    MIXING:  cpu time    0.0004: real time    0.0004
    --------------------------------------------
      LOOP:  cpu time    0.4545: real time    0.4550

 eigenvalue-minimisations  :  1176
 total energy-change (2. order) :-0.1112140E-03  (-0.1537412E-04)
 number of electron      63.9999982 magnetization 
 augmentation part       -5.2684087 magnetization 

 Broyden mixing:
  rms(total) = 0.29229E-02    rms(broyden)= 0.29228E-02
  rms(prec ) = 0.36146E-02
  weight for this iteration     100.00

 eigenvalues of (default mixing * dielectric matrix)
  average eigenvalue GAMMA=   1.6701
  2.4930  2.4930  1.9440  1.3019  1.3019  0.9913  1.1656

 Free energy of the ion-electron system (eV)
  ---------------------------------------------------
  alpha Z        PSCENC =        27.42569791
  Ewald energy   TEWEN  =     -1929.15534203
  -Hartree energ DENC   =      -406.10894422
  -exchange      EXHF   =         0.00000000
  -V(xc)+E(xc)   XCENC  =      -164.71007038
  PAW double counting   =      5360.40307062    -5049.55528705
  entropy T*S    EENTRO =        -0.00000002
  eigenvalues    EBANDS =       -54.83252393
  atomic energy  EATOM  =      2148.03074991
  Solvation  Ediel_sol  =         0.00000000
  ---------------------------------------------------
  free energy    TOTEN  =       -68.50264918 eV

  energy without entropy =      -68.50264916  energy(sigma->0) =      -68.50264917


--------------------------------------------------------------------------------------------------------




--------------------------------------- Iteration      1(  13)  ---------------------------------------


    POTLOK:  cpu time    0.0055: real time    0.0055
    SETDIJ:  cpu time    0.0864: real time    0.0864
     EDDAV:  cpu time    0.3658: real time    0.3660
       DOS:  cpu time    0.0003: real time    0.0003
    --------------------------------------------
      LOOP:  cpu time    0.4580: real time    0.4582

 eigenvalue-minimisations  :  1120
 total energy-change (2. order) :-0.4112136E-04  (-0.5360998E-05)
 number of electron      63.9999982 magnetization 
 augmentation part       -5.2684087 magnetization 

 Free energy of the ion-electron system (eV)
  ---------------------------------------------------
  alpha Z        PSCENC =        27.42569791
  Ewald energy   TEWEN  =     -1929.15534203
  -Hartree energ DENC   =      -406.16399825
  -exchange      EXHF   =         0.00000000
  -V(xc)+E(xc)   XCENC  =      -164.70400589
  PAW double counting   =      5357.13412291    -5046.28543415
  entropy T*S    EENTRO =        -0.00000002
  eigenvalues    EBANDS =       -54.78448069
  atomic energy  EATOM  =      2148.03074991
  Solvation  Ediel_sol  =         0.00000000
  ---------------------------------------------------
  free energy    TOTEN  =       -68.50269030 eV

  energy without entropy =      -68.50269028  energy(sigma->0) =      -68.50269029


--------------------------------------------------------------------------------------------------------




 average (electrostatic) potential at core
  the test charge radii are     0.9748  1.0406  0.9698
  (the norm of the test charge is              1.0000)
       1 -25.4620       2 -75.5555       3 -75.6827       4 -75.9386       5 -76.7195
       6 -75.1279       7 -75.3262       8 -75.6528       9 -75.6033      10 -76.3617
      11 -87.1932      12 -87.0325      13 -87.0784      14 -87.0190      15 -87.0553
      16 -87.0909
 
 
 
 E-fermi :   4.9902     XC(G=0):  -8.9464     alpha+bet :-10.7036


 k-point     1 :       0.0000    0.0000    0.0000
  band No.  band energies     occupation 
      1      -9.6351      2.00000
      2      -8.7843      2.00000
      3      -8.5945      2.00000
      4      -8.4839      2.00000
      5      -8.3891      2.00000
      6      -8.1715      2.00000
      7      -2.9662      2.00000
      8      -2.3569      2.00000
      9      -1.9487      2.00000
     10      -1.6173      2.00000
     11      -1.2635      2.00000
     12      -1.1117      2.00000
     13      -0.4100      2.00000
     14      -0.3102      2.00000
     15       0.0429      2.00000
     16       0.3046      2.00000
     17       0.5141      2.00000
     18       0.7155      2.00000
     19       0.9192      2.00000
     20       1.2521      2.00000
     21       1.4529      2.00000
     22       1.5824      2.00000
     23       1.6303      2.00000
     24       1.9866      2.00000
     25       2.3245      2.00000
     26       2.7427      2.00000
     27       2.7767      2.00000
     28       3.0376      2.00000
     29       3.2288      2.00000
     30       3.5305      2.00000
     31       4.0950      2.00000
     32       4.3714      2.00000
     33       5.9307      0.00000
     34       6.2953      0.00000
     35       6.4457      0.00000
     36       7.1387      0.00000
     37       7.3983      0.00000
     38       7.6152      0.00000
     39       7.6700      0.00000
     40       7.7834      0.00000
     41       8.0117      0.00000
     42       8.2445      0.00000

 k-point     2 :       0.3333   -0.0000    0.0000
  band No.  band energies     occupation 
      1      -9.4564      2.00000
      2      -8.9271      2.00000
      3      -8.6777      2.00000
      4      -8.5095      2.00000
      5      -8.3856      2.00000
      6      -8.2023      2.00000
      7      -2.7277      2.00000
      8      -2.1738      2.00000
      9      -1.8232      2.00000
     10      -1.5604      2.00000
     11      -1.2547      2.00000
     12      -1.0077      2.00000
     13      -0.5140      2.00000
     14      -0.2225      2.00000
     15      -0.0684      2.00000
     16       0.2919      2.00000
     17       0.4546      2.00000
     18       0.6537      2.00000
     19       0.9066      2.00000
     20       0.9764      2.00000
     21       1.2817      2.00000
     22       1.4805      2.00000
     23       1.8094      2.00000
     24       1.9114      2.00000
     25       2.0516      2.00000
     26       2.5557      2.00000
     27       2.7798      2.00000
     28       2.8627      2.00000
     29       3.1721      2.00000
     30       3.7517      2.00000
     31       4.2510      2.00000
     32       4.4618      2.00000
     33       5.4721      0.00000
     34       6.1752      0.00000
     35       6.3171      0.00000
     36       6.9615      0.00000
     37       7.4602      0.00000
     38       7.6237      0.00000
     39       7.9315      0.00000
     40       8.0887      0.00000
     41       8.3450      0.00000
     42       8.3953      0.00000

 k-point     3 :       0.0000    0.3333    0.0000
  band No.  band energies     occupation 
      1      -9.5953      2.00000
      2      -8.8682      2.00000
      3      -8.5560      2.00000
      4      -8.4924      2.00000
      5      -8.3829      2.00000
      6      -8.1899      2.00000
      7      -2.6251      2.00000
      8      -2.2978      2.00000
      9      -2.0464      2.00000
     10      -1.7585      2.00000
     11      -1.2653      2.00000
     12      -0.9701      2.00000
     13      -0.5382      2.00000
     14      -0.3255      2.00000
     15      -0.1402      2.00000
     16       0.0812      2.00000
     17       0.4203      2.00000
     18       0.7500      2.00000
     19       0.8234      2.00000
     20       1.1907      2.00000
     21       1.2931      2.00000
     22       1.6271      2.00000
     23       1.9360      2.00000
     24       2.0358      2.00000
     25       2.3640      2.00000
     26       2.6466      2.00000
     27       2.8806      2.00000
     28       3.0653      2.00000
     29       3.3117      2.00000
     30       3.4805      2.00000
     31       3.9768      2.00000
     32       4.8082      2.00000
     33       6.1369      0.00000
     34       6.2992      0.00000
     35       6.7346      0.00000
     36       7.0042      0.00000
     37       7.1089      0.00000
     38       7.6057      0.00000
     39       7.7009      0.00000
     40       8.0338      0.00000
     41       8.1895      0.00000
     42       8.3874      0.00000

 k-point     4 :       0.3333    0.3333    0.0000
  band No.  band energies     occupation 
      1      -9.4734      2.00000
      2      -8.9525      2.00000
      3      -8.6210      2.00000
      4      -8.5080      2.00000
      5      -8.3877      2.00000
      6      -8.2013      2.00000
      7      -2.8241      2.00000
      8      -2.1051      2.00000
      9      -1.8558      2.00000
     10      -1.6612      2.00000
     11      -1.1685      2.00000
     12      -0.8182      2.00000
     13      -0.5156      2.00000
     14      -0.2493      2.00000
     15      -0.0793      2.00000
     16       0.2077      2.00000
     17       0.3450      2.00000
     18       0.5067      2.00000
     19       0.8186      2.00000
     20       0.9788      2.00000
     21       1.2345      2.00000
     22       1.3534      2.00000
     23       1.8316      2.00000
     24       1.9695      2.00000
     25       2.2819      2.00000
     26       2.6731      2.00000
     27       2.8971      2.00000
     28       3.1405      2.00000
     29       3.3308      2.00000
     30       3.6656      2.00000
     31       4.1558      2.00000
     32       4.6697      2.00000
     33       5.7113      0.00000
     34       6.1751      0.00000
     35       6.4362      0.00000
     36       6.9208      0.00000
     37       7.0558      0.00000
     38       7.4082      0.00000
     39       7.7388      0.00000
     40       7.8832      0.00000
     41       8.1649      0.00000
     42       8.3945      0.00000

 k-point     5 :      -0.3333    0.3333    0.0000
  band No.  band energies     occupation 
      1      -9.4342      2.00000
      2      -8.9592      2.00000
      3      -8.7097      2.00000
      4      -8.4578      2.00000
      5      -8.3951      2.00000
      6      -8.2085      2.00000
      7      -2.5832      2.00000
      8      -2.1213      2.00000
      9      -1.8698      2.00000
     10      -1.5960      2.00000
     11      -1.2486      2.00000
     12      -0.9712      2.00000
     13      -0.5541      2.00000
     14      -0.4018      2.00000
     15      -0.0570      2.00000
     16       0.0958      2.00000
     17       0.3752      2.00000
     18       0.7167      2.00000
     19       0.8670      2.00000
     20       1.0010      2.00000
     21       1.1272      2.00000
     22       1.3372      2.00000
     23       1.7621      2.00000
     24       2.0886      2.00000
     25       2.3457      2.00000
     26       2.7100      2.00000
     27       2.8457      2.00000
     28       3.0050      2.00000
     29       3.2840      2.00000
     30       3.5835      2.00000
     31       4.1589      2.00000
     32       4.6266      2.00000
     33       5.7903      0.00000
     34       6.3110      0.00000
     35       6.5533      0.00000
     36       6.8903      0.00000
     37       7.0978      0.00000
     38       7.4283      0.00000
     39       7.8081      0.00000
     40       7.9209      0.00000
     41       8.1662      0.00000
     42       8.3273      0.00000

 k-point     6 :       0.0000    0.0000    0.3333
  band No.  band energies     occupation 
      1      -9.4400      2.00000
      2      -8.8373      2.00000
      3      -8.6775      2.00000
      4      -8.5621      2.00000
      5      -8.4479      2.00000
      6      -8.2117      2.00000
      7      -2.8739      2.00000
      8      -2.2480      2.00000
      9      -1.9747      2.00000
     10      -1.4269      2.00000
     11      -1.2449      2.00000
     12      -0.8085      2.00000
     13      -0.4870      2.00000
     14      -0.2261      2.00000
     15       0.1746      2.00000
     16       0.4401      2.00000
     17       0.5373      2.00000
     18       0.7208      2.00000
     19       0.8644      2.00000
     20       1.0084      2.00000
     21       1.1650      2.00000
     22       1.5496      2.00000
     23       1.6744      2.00000
     24       1.9045      2.00000
     25       2.1372      2.00000
     26       2.2874      2.00000
     27       2.4291      2.00000
     28       3.0528      2.00000
     29       3.4342      2.00000
     30       3.9951      2.00000
     31       4.3995      2.00000
     32       4.6666      2.00000
     33       5.4313      0.00000
     34       5.9813      0.00000
     35       6.3974      0.00000
     36       6.6894      0.00000
     37       6.9810      0.00000
     38       7.1312      0.00000
     39       7.8120      0.00000
     40       7.9282      0.00000
     41       8.0874      0.00000
     42       8.1480      0.00000

 k-point     7 :       0.3333    0.0000    0.3333
  band No.  band energies     occupation 
      1      -9.5005      2.00000
      2      -8.8261      2.00000
      3      -8.6386      2.00000
      4      -8.5292      2.00000
      5      -8.4362      2.00000
      6      -8.2215      2.00000
      7      -2.7783      2.00000
      8      -2.3668      2.00000
      9      -1.9868      2.00000
     10      -1.4737      2.00000
     11      -1.0781      2.00000
     12      -0.8428      2.00000
     13      -0.6037      2.00000
     14      -0.1652      2.00000
     15       0.1127      2.00000
     16       0.3104      2.00000
     17       0.4164      2.00000
     18       0.6759      2.00000
     19       0.8642      2.00000
     20       0.9653      2.00000
     21       1.4125      2.00000
     22       1.5265      2.00000
     23       1.6799      2.00000
     24       1.8525      2.00000
     25       1.9832      2.00000
     26       2.6067      2.00000
     27       2.8209      2.00000
     28       2.9502      2.00000
     29       3.1674      2.00000
     30       3.5966      2.00000
     31       4.1627      2.00000
     32       4.8097      2.00000
     33       5.4326      0.00000
     34       6.2819      0.00000
     35       6.7161      0.00000
     36       6.8245      0.00000
     37       7.1750      0.00000
     38       7.5238      0.00000
     39       7.6390      0.00000
     40       8.0102      0.00000
     41       8.1375      0.00000
     42       8.3415      0.00000

 k-point     8 :      -0.3333    0.0000    0.3333
  band No.  band energies     occupation 
      1      -9.3333      2.00000
      2      -8.9420      2.00000
      3      -8.7505      2.00000
      4      -8.5573      2.00000
      5      -8.3681      2.00000
      6      -8.2637      2.00000
      7      -2.8071      2.00000
      8      -2.0374      2.00000
      9      -1.7634      2.00000
     10      -1.4753      2.00000
     11      -1.2325      2.00000
     12      -0.8354      2.00000
     13      -0.4315      2.00000
     14      -0.3175      2.00000
     15      -0.1615      2.00000
     16       0.1205      2.00000
     17       0.5307      2.00000
     18       0.7733      2.00000
     19       0.9660      2.00000
     20       1.0738      2.00000
     21       1.2150      2.00000
     22       1.2907      2.00000
     23       1.6287      2.00000
     24       1.9236      2.00000
     25       2.1211      2.00000
     26       2.2879      2.00000
     27       2.7552      2.00000
     28       3.0632      2.00000
     29       3.3078      2.00000
     30       3.9383      2.00000
     31       4.3875      2.00000
     32       4.5416      2.00000
     33       5.1671      0.00000
     34       5.8903      0.00000
     35       6.5326      0.00000
     36       6.8144      0.00000
     37       7.1684      0.00000
     38       7.3030      0.00000
     39       7.6442      0.00000
     40       7.9490      0.00000
     41       8.1214      0.00000
     42       8.3120      0.00000

 k-point     9 :       0.0000    0.3333    0.3333
  band No.  band energies     occupation 
      1      -9.4037      2.00000
      2      -8.8231      2.00000
      3      -8.7263      2.00000
      4      -8.6098      2.00000
      5      -8.3951      2.00000
      6      -8.2431      2.00000
      7      -2.6387      2.00000
      8      -2.2474      2.00000
      9      -1.8133      2.00000
     10      -1.6561      2.00000
     11      -1.1218      2.00000
     12      -0.9342      2.00000
     13      -0.6593      2.00000
     14      -0.1656      2.00000
     15      -0.0080      2.00000
     16       0.2959      2.00000
     17       0.4937      2.00000
     18       0.6945      2.00000
     19       0.8534      2.00000
     20       1.1369      2.00000
     21       1.2230      2.00000
     22       1.5438      2.00000
     23       1.7449      2.00000
     24       1.8516      2.00000
     25       2.1374      2.00000
     26       2.3347      2.00000
     27       2.6392      2.00000
     28       3.0580      2.00000
     29       3.4272      2.00000
     30       4.0492      2.00000
     31       4.1612      2.00000
     32       4.5621      2.00000
     33       5.3041      0.00000
     34       6.0521      0.00000
     35       6.4804      0.00000
     36       6.6317      0.00000
     37       6.9215      0.00000
     38       7.5089      0.00000
     39       7.6752      0.00000
     40       7.7178      0.00000
     41       8.1961      0.00000
     42       8.3654      0.00000

 k-point    10 :       0.3333    0.3333    0.3333
  band No.  band energies     occupation 
      1      -9.5197      2.00000
      2      -8.8157      2.00000
      3      -8.6631      2.00000
      4      -8.5319      2.00000
      5      -8.3840      2.00000
      6      -8.2189      2.00000
      7      -2.7767      2.00000
      8      -2.3884      2.00000
      9      -2.0717      2.00000
     10      -1.6385      2.00000
     11      -1.1497      2.00000
     12      -0.6346      2.00000
     13      -0.4842      2.00000
     14      -0.2346      2.00000
     15      -0.0106      2.00000
     16       0.2655      2.00000
     17       0.5223      2.00000
     18       0.5969      2.00000
     19       0.9296      2.00000
     20       1.2019      2.00000
     21       1.2482      2.00000
     22       1.5633      2.00000
     23       1.6170      2.00000
     24       1.7758      2.00000
     25       2.2768      2.00000
     26       2.6508      2.00000
     27       2.9114      2.00000
     28       3.1309      2.00000
     29       3.3079      2.00000
     30       3.5821      2.00000
     31       4.2568      2.00000
     32       4.5686      2.00000
     33       5.2949      0.00000
     34       6.1389      0.00000
     35       6.5258      0.00000
     36       6.9535      0.00000
     37       7.1526      0.00000
     38       7.2593      0.00000
     39       7.3552      0.00000
     40       7.7522      0.00000
     41       8.1593      0.00000
     42       8.2281      0.00000

 k-point    11 :      -0.3333    0.3333    0.3333
  band No.  band energies     occupation 
      1      -9.3376      2.00000
      2      -8.9296      2.00000
      3      -8.7175      2.00000
      4      -8.6112      2.00000
      5      -8.3665      2.00000
      6      -8.2549      2.00000
      7      -2.5848      2.00000
      8      -2.2898      2.00000
      9      -1.8688      2.00000
     10      -1.4294      2.00000
     11      -1.2760      2.00000
     12      -0.8648      2.00000
     13      -0.4742      2.00000
     14      -0.2334      2.00000
     15      -0.0024      2.00000
     16       0.1863      2.00000
     17       0.6055      2.00000
     18       0.8411      2.00000
     19       0.8674      2.00000
     20       1.0794      2.00000
     21       1.1680      2.00000
     22       1.4081      2.00000
     23       1.5624      2.00000
     24       1.7796      2.00000
     25       2.0833      2.00000
     26       2.3686      2.00000
     27       2.7638      2.00000
     28       3.0811      2.00000
     29       3.3293      2.00000
     30       3.7416      2.00000
     31       4.2176      2.00000
     32       4.4541      2.00000
     33       5.2776      0.00000
     34       6.0774      0.00000
     35       6.3027      0.00000
     36       6.8306      0.00000
     37       7.1408      0.00000
     38       7.6110      0.00000
     39       7.8703      0.00000
     40       8.0721      0.00000
     41       8.2675      0.00000
     42       8.4269      0.00000

 k-point    12 :       0.0000   -0.3333    0.3333
  band No.  band energies     occupation 
      1      -9.3994      2.00000
      2      -8.8518      2.00000
      3      -8.7159      2.00000
      4      -8.5610      2.00000
      5      -8.4439      2.00000
      6      -8.2303      2.00000
      7      -2.6881      2.00000
      8      -2.2647      2.00000
      9      -1.7733      2.00000
     10      -1.3956      2.00000
     11      -1.2312      2.00000
     12      -0.9181      2.00000
     13      -0.5373      2.00000
     14      -0.4370      2.00000
     15      -0.0799      2.00000
     16       0.3106      2.00000
     17       0.4500      2.00000
     18       0.6593      2.00000
     19       0.8745      2.00000
     20       1.0915      2.00000
     21       1.2871      2.00000
     22       1.5733      2.00000
     23       1.7109      2.00000
     24       1.8520      2.00000
     25       2.1217      2.00000
     26       2.2340      2.00000
     27       2.9190      2.00000
     28       3.0422      2.00000
     29       3.5877      2.00000
     30       3.7380      2.00000
     31       4.2469      2.00000
     32       4.5778      2.00000
     33       5.3689      0.00000
     34       5.9623      0.00000
     35       6.4250      0.00000
     36       6.9070      0.00000
     37       7.1950      0.00000
     38       7.4145      0.00000
     39       7.5362      0.00000
     40       7.8692      0.00000
     41       8.0578      0.00000
     42       8.2048      0.00000

 k-point    13 :       0.3333   -0.3333    0.3333
  band No.  band energies     occupation 
      1      -9.4856      2.00000
      2      -8.8472      2.00000
      3      -8.6901      2.00000
      4      -8.4857      2.00000
      5      -8.4136      2.00000
      6      -8.2346      2.00000
      7      -2.6640      2.00000
      8      -2.2169      2.00000
      9      -1.9788      2.00000
     10      -1.7139      2.00000
     11      -1.2188      2.00000
     12      -0.8081      2.00000
     13      -0.6423      2.00000
     14      -0.1624      2.00000
     15       0.1218      2.00000
     16       0.2807      2.00000
     17       0.4231      2.00000
     18       0.6978      2.00000
     19       0.7728      2.00000
     20       0.9807      2.00000
     21       1.2315      2.00000
     22       1.3831      2.00000
     23       1.7410      2.00000
     24       1.9174      2.00000
     25       2.2231      2.00000
     26       2.7310      2.00000
     27       2.8475      2.00000
     28       2.9965      2.00000
     29       3.4902      2.00000
     30       3.7416      2.00000
     31       4.1218      2.00000
     32       4.4234      2.00000
     33       5.6307      0.00000
     34       6.1257      0.00000
     35       6.7376      0.00000
     36       7.0058      0.00000
     37       7.1166      0.00000
     38       7.3725      0.00000
     39       7.5521      0.00000
     40       7.8581      0.00000
     41       8.1203      0.00000
     42       8.2431      0.00000

 k-point    14 :      -0.3333   -0.3333    0.3333
  band No.  band energies     occupation 
      1      -9.3560      2.00000
      2      -8.9549      2.00000
      3      -8.7501      2.00000
      4      -8.4866      2.00000
      5      -8.4095      2.00000
      6      -8.2400      2.00000
      7      -2.7863      2.00000
      8      -2.1002      2.00000
      9      -1.9190      2.00000
     10      -1.5226      2.00000
     11      -1.3459      2.00000
     12      -0.7721      2.00000
     13      -0.3231      2.00000
     14      -0.2421      2.00000
     15      -0.0319      2.00000
     16       0.2613      2.00000
     17       0.4806      2.00000
     18       0.7840      2.00000
     19       0.8805      2.00000
     20       0.9688      2.00000
     21       1.1278      2.00000
     22       1.4055      2.00000
     23       1.6332      2.00000
     24       1.8708      2.00000
     25       2.1582      2.00000
     26       2.4539      2.00000
     27       2.6925      2.00000
     28       3.1222      2.00000
     29       3.5543      2.00000
     30       3.9485      2.00000
     31       4.0822      2.00000
     32       4.6627      2.00000
     33       5.1861      0.00000
     34       6.0872      0.00000
     35       6.6206      0.00000
     36       6.8266      0.00000
     37       7.1094      0.00000
     38       7.2209      0.00000
     39       7.4806      0.00000
     40       7.6899      0.00000
     41       8.1641      0.00000
     42       8.2812      0.00000


--------------------------------------------------------------------------------------------------------


 soft charge-density along one line, spin component           1
         0         1         2         3         4         5         6         7         8         9
 total charge-density along one line
 
 pseudopotential strength for first ion, spin component:           1
  1.178   5.262  -0.001   0.001  -0.001
  5.262  22.472  -0.003   0.002  -0.002
 -0.001  -0.003  -0.327  -0.006  -0.000
  0.001   0.002  -0.006  -0.327  -0.000
 -0.001  -0.002  -0.000  -0.000  -0.328
 total augmentation occupancy for first ion, spin component:           1
  0.946  -0.021   0.042  -0.020   0.016
 -0.021   0.001  -0.001   0.001  -0.001
  0.042  -0.001   0.081  -0.020  -0.000
 -0.020   0.001  -0.020   0.083  -0.001
  0.016  -0.001  -0.000  -0.001   0.080


------------------------ aborting loop because EDIFF is reached ----------------------------------------


 


 total charge     
 
# of ion       s       p       d       tot
------------------------------------------
    1        0.094   0.177   0.000   0.270
    2        0.438   0.339   0.000   0.777
    3        0.435   0.341   0.000   0.776
    4        0.429   0.322   0.000   0.751
    5        0.373   0.319   0.000   0.691
    6        0.435   0.370   0.000   0.805
    7        0.436   0.355   0.000   0.791
    8        0.454   0.311   0.000   0.765
    9        0.447   0.315   0.000   0.762
   10        0.381   0.381   0.000   0.762
   11        1.330   2.442   0.000   3.772
   12        1.322   2.487   0.000   3.809
   13        1.325   2.443   0.000   3.768
   14        1.335   2.451   0.000   3.785
   15        1.326   2.467   0.000   3.793
   16        1.335   2.429   0.000   3.764
--------------------------------------------------
tot         11.894  17.947   0.000  29.841
 
    CHARGE:  cpu time    0.0181: real time    0.0181
    FORLOC:  cpu time    0.0007: real time    0.0007
    FORNL :  cpu time    0.1205: real time    0.1208
    STRESS:  cpu time    0.3127: real time    0.3128
[...]
     24       1.8363      2.00000
     25       2.1101      2.00000
     26       2.2957      2.00000
     27       2.6178      2.00000
     28       3.0395      2.00000
     29       3.3766      2.00000
     30       4.0177      2.00000
     31       4.1532      2.00000
     32       4.5571      2.00000
     33       5.2994      0.00000
     34       6.0334      0.00000
     35       6.4858      0.00000
     36       6.6038      0.00000
     37       6.9303      0.00000
     38       7.4666      0.00000
     39       7.6322      0.00000
     40       7.7019      0.00000
     41       8.1689      0.00000
     42       8.3169      0.00000

 k-point    10 :       0.3333    0.3333    0.3333
  band No.  band energies     occupation 
      1      -9.5480      2.00000
      2      -8.8527      2.00000
      3      -8.7033      2.00000
      4      -8.5625      2.00000
      5      -8.4185      2.00000
      6      -8.2416      2.00000
      7      -2.7888      2.00000
      8      -2.4002      2.00000
      9      -2.1017      2.00000
     10      -1.6643      2.00000
     11      -1.1690      2.00000
     12      -0.6462      2.00000
     13      -0.5028      2.00000
     14      -0.2681      2.00000
     15      -0.0357      2.00000
     16       0.2296      2.00000
     17       0.4838      2.00000
     18       0.5654      2.00000
     19       0.8804      2.00000
     20       1.1858      2.00000
     21       1.2236      2.00000
     22       1.5452      2.00000
     23       1.5882      2.00000
     24       1.7503      2.00000
     25       2.2638      2.00000
     26       2.6251      2.00000
     27       2.8729      2.00000
     28       3.0922      2.00000
     29       3.2556      2.00000
     30       3.5787      2.00000
     31       4.2309      2.00000
     32       4.5607      2.00000
     33       5.2949      0.00000
     34       6.1205      0.00000
     35       6.5249      0.00000
     36       6.9395      0.00000
     37       7.1304      0.00000
     38       7.2251      0.00000
     39       7.2967      0.00000
     40       7.7089      0.00000
     41       8.1053      0.00000
     42       8.2101      0.00000

 k-point    11 :      -0.3333    0.3333    0.3333
  band No.  band energies     occupation 
      1      -9.3626      2.00000
      2      -8.9690      2.00000
      3      -8.7544      2.00000
      4      -8.6423      2.00000
      5      -8.4032      2.00000
      6      -8.2798      2.00000
      7      -2.5854      2.00000
      8      -2.3009      2.00000
      9      -1.8925      2.00000
     10      -1.4558      2.00000
     11      -1.3072      2.00000
     12      -0.8969      2.00000
     13      -0.4973      2.00000
     14      -0.2606      2.00000
     15      -0.0304      2.00000
     16       0.1476      2.00000
     17       0.5839      2.00000
     18       0.8014      2.00000
     19       0.8575      2.00000
     20       1.0422      2.00000
     21       1.1438      2.00000
     22       1.3744      2.00000
     23       1.5352      2.00000
     24       1.7519      2.00000
     25       2.0583      2.00000
     26       2.3314      2.00000
     27       2.7365      2.00000
     28       3.0498      2.00000
     29       3.3163      2.00000
     30       3.7227      2.00000
     31       4.2046      2.00000
     32       4.4493      2.00000
     33       5.2647      0.00000
     34       6.0498      0.00000
     35       6.2848      0.00000
     36       6.7969      0.00000
     37       7.1441      0.00000
     38       7.5837      0.00000
     39       7.8341      0.00000
     40       7.9964      0.00000
     41       8.2235      0.00000
     42       8.3848      0.00000

 k-point    12 :       0.0000   -0.3333    0.3333
  band No.  band energies     occupation 
      1      -9.4267      2.00000
      2      -8.8914      2.00000
      3      -8.7472      2.00000
      4      -8.5938      2.00000
      5      -8.4816      2.00000
      6      -8.2551      2.00000
      7      -2.6908      2.00000
      8      -2.2825      2.00000
      9      -1.7896      2.00000
     10      -1.4349      2.00000
     11      -1.2513      2.00000
     12      -0.9439      2.00000
     13      -0.5693      2.00000
     14      -0.4613      2.00000
     15      -0.1153      2.00000
     16       0.2831      2.00000
     17       0.4212      2.00000
     18       0.6289      2.00000
     19       0.8455      2.00000
     20       1.0673      2.00000
     21       1.2526      2.00000
     22       1.5607      2.00000
     23       1.6860      2.00000
     24       1.8288      2.00000
     25       2.0959      2.00000
     26       2.2025      2.00000
     27       2.8987      2.00000
     28       3.0069      2.00000
     29       3.5714      2.00000
     30       3.7062      2.00000
     31       4.2231      2.00000
     32       4.5678      2.00000
     33       5.3742      0.00000
     34       5.9436      0.00000
     35       6.4180      0.00000
     36       6.8919      0.00000
     37       7.1540      0.00000
     38       7.3671      0.00000
     39       7.5048      0.00000
     40       7.7937      0.00000
     41       8.0095      0.00000
     42       8.1456      0.00000

 k-point    13 :       0.3333   -0.3333    0.3333
  band No.  band energies     occupation 
      1      -9.5153      2.00000
      2      -8.8851      2.00000
      3      -8.7239      2.00000
      4      -8.5185      2.00000
      5      -8.4482      2.00000
      6      -8.2581      2.00000
      7      -2.6622      2.00000
      8      -2.2431      2.00000
      9      -2.0067      2.00000
     10      -1.7449      2.00000
     11      -1.2483      2.00000
     12      -0.8421      2.00000
     13      -0.6606      2.00000
     14      -0.1944      2.00000
     15       0.0985      2.00000
     16       0.2439      2.00000
     17       0.4080      2.00000
     18       0.6745      2.00000
     19       0.7616      2.00000
     20       0.9366      2.00000
     21       1.2053      2.00000
     22       1.3724      2.00000
     23       1.7175      2.00000
     24       1.9021      2.00000
     25       2.1889      2.00000
     26       2.7184      2.00000
     27       2.8224      2.00000
     28       2.9667      2.00000
     29       3.4388      2.00000
     30       3.6884      2.00000
     31       4.1150      2.00000
     32       4.4157      2.00000
     33       5.6440      0.00000
     34       6.0833      0.00000
     35       6.7214      0.00000
     36       6.9442      0.00000
     37       7.0948      0.00000
     38       7.3491      0.00000
     39       7.5008      0.00000
     40       7.8176      0.00000
     41       8.0828      0.00000
     42       8.2039      0.00000

 k-point    14 :      -0.3333   -0.3333    0.3333
  band No.  band energies     occupation 
      1      -9.3803      2.00000
      2      -8.9936      2.00000
      3      -8.7855      2.00000
      4      -8.5215      2.00000
      5      -8.4469      2.00000
      6      -8.2638      2.00000
      7      -2.7893      2.00000
      8      -2.1148      2.00000
      9      -1.9365      2.00000
     10      -1.5591      2.00000
     11      -1.3710      2.00000
     12      -0.8066      2.00000
     13      -0.3490      2.00000
     14      -0.2683      2.00000
     15      -0.0655      2.00000
     16       0.2379      2.00000
     17       0.4691      2.00000
     18       0.7544      2.00000
     19       0.8593      2.00000
     20       0.9405      2.00000
     21       1.1049      2.00000
     22       1.3689      2.00000
     23       1.6070      2.00000
     24       1.8356      2.00000
     25       2.1336      2.00000
     26       2.4309      2.00000
     27       2.6557      2.00000
     28       3.1001      2.00000
     29       3.5279      2.00000
     30       3.9158      2.00000
     31       4.0643      2.00000
     32       4.6460      2.00000
     33       5.1862      0.00000
     34       6.0375      0.00000
     35       6.5978      0.00000
     36       6.8079      0.00000
     37       7.0756      0.00000
     38       7.2114      0.00000
     39       7.4595      0.00000
     40       7.6562      0.00000
     41       8.1223      0.00000
     42       8.2009      0.00000


--------------------------------------------------------------------------------------------------------


 soft charge-density along one line, spin component           1
         0         1         2         3         4         5         6         7         8         9
 total charge-density along one line
 
 pseudopotential strength for first ion, spin component:           1
  1.178   5.261  -0.001   0.001  -0.001
  5.261  22.475  -0.003   0.002  -0.002
 -0.001  -0.003  -0.330  -0.006  -0.000
  0.001   0.002  -0.006  -0.330  -0.000
 -0.001  -0.002  -0.000  -0.000  -0.330
 total augmentation occupancy for first ion, spin component:           1
  0.932  -0.021   0.048  -0.018   0.011
 -0.021   0.001  -0.001   0.001  -0.000
  0.048  -0.001   0.079  -0.018  -0.001
 -0.018   0.001  -0.018   0.081  -0.001
  0.011  -0.000  -0.001  -0.001   0.081


------------------------ aborting loop because EDIFF is reached ----------------------------------------


 


 total charge     
 
# of ion       s       p       d       tot
------------------------------------------
    1        0.092   0.174   0.000   0.266
    2        0.437   0.339   0.000   0.776
    3        0.434   0.341   0.000   0.775
    4        0.430   0.321   0.000   0.751
    5        0.372   0.319   0.000   0.692
    6        0.435   0.366   0.000   0.801
    7        0.435   0.355   0.000   0.790
    8        0.453   0.308   0.000   0.761
    9        0.448   0.313   0.000   0.761
   10        0.381   0.380   0.000   0.761
   11        1.329   2.444   0.000   3.773
   12        1.322   2.488   0.000   3.810
   13        1.325   2.443   0.000   3.768
   14        1.335   2.450   0.000   3.784
   15        1.326   2.466   0.000   3.791
   16        1.336   2.428   0.000   3.764
--------------------------------------------------
tot         11.891  17.936   0.000  29.826
 
    CHARGE:  cpu time    0.0171: real time    0.0171
    FORLOC:  cpu time    0.0007: real time    0.0007
    FORNL :  cpu time    0.0952: real time    0.0952
    STRESS:  cpu time    0.2827: real time    0.2827
    FORCOR:  cpu time    0.0048: real time    0.0048
    FORHAR:  cpu time    0.0014: real time    0.0014
    MIXING:  cpu time    0.0003: real time    0.0003
    OFIELD:  cpu time    0.0000: real time    0.0000

  FORCE on cell =-STRESS in cart. coord.  units (eV):
  Direction    XX          YY          ZZ          XY          YZ          ZX
  --------------------------------------------------------------------------------------
  Alpha Z    27.32923    27.32923    27.32923
  Ewald    -612.22704  -676.12903  -635.61392   -64.11352    31.60806   -24.33695
  Hartree   166.67095    91.05275   151.89890   -17.83394    24.05734   -17.34949
  E(xc)    -205.30670  -205.31778  -205.75121    -0.40781     0.09195     0.23194
  Local    -492.76562  -355.01821  -463.00409    73.84237   -55.00237    42.48078
  n-local   609.75193   613.50002   614.20638     0.99737    -0.91729    -2.46705
  augment  -112.53704  -112.67258  -113.15737    -0.64103     0.06605    -0.00216
  Kinetic   619.18349   617.37141   624.28654     8.17429     0.15711     1.50028
  Fock        0.00000     0.00000     0.00000     0.00000     0.00000     0.00000
  -------------------------------------------------------------------------------------
  Total       0.09920     0.11581     0.19446     0.01773     0.06085     0.05734
  in kB       0.47300     0.55219     0.92721     0.08454     0.29014     0.27342
  external pressure =        0.65 kB  Pullay stress =        0.00 kB


 VOLUME and BASIS-vectors are now :
 -----------------------------------------------------------------------------
  energy-cutoff  :      300.00
  volume of cell :      336.02
      direct lattice vectors                 reciprocal lattice vectors
     7.646589200  0.681702542 -0.178146901     0.136906306 -0.086463418 -0.067787044
     4.409617995  7.937007517 -1.217877072    -0.012083329  0.128677047 -0.026252381
     3.693756434  1.482948450  5.568582645     0.001737143  0.025376230  0.171668777

  length of vectors
     7.678983075  9.161006699  6.844858317     0.175540145  0.131882436  0.173542905


 FORCES acting on ions
    electron-ion (+dipol)            ewald-force                    non-local-force                 convergence-correction
 -----------------------------------------------------------------------------------------------
   -.249E+01 0.484E+01 -.188E+01   0.263E+01 -.432E+01 0.167E+01   -.120E+00 -.548E+00 0.206E+00   0.317E-03 -.571E-03 0.356E-03
   0.287E+01 0.309E+02 0.922E+01   -.386E+01 -.343E+02 -.890E+01   0.988E+00 0.344E+01 -.349E+00   0.421E-04 -.183E-02 0.254E-03
   -.254E+02 -.466E+01 -.191E+02   0.265E+02 0.207E+01 0.193E+02   -.109E+01 0.259E+01 -.233E+00   0.473E-03 -.945E-03 -.873E-03
   -.145E+02 -.174E+02 0.358E+00   0.175E+02 0.163E+02 -.315E+01   -.301E+01 0.106E+01 0.278E+01   -.834E-03 0.323E-02 0.537E-04
   0.153E+02 -.423E+01 0.329E+02   -.143E+02 0.454E+01 -.321E+02   -.964E+00 -.312E+00 -.811E+00   -.136E-02 0.140E-02 -.164E-02
   0.775E+01 -.647E+01 -.389E+00   -.771E+01 0.831E+01 0.114E+01   -.473E-01 -.183E+01 -.766E+00   -.990E-03 0.914E-03 0.171E-02
   0.181E+01 -.247E+02 0.193E+00   -.332E+01 0.272E+02 -.238E+00   0.150E+01 -.250E+01 0.216E-01   0.298E-03 0.200E-02 -.119E-02
   -.975E+01 0.742E+01 -.341E+02   0.867E+01 -.688E+01 0.369E+02   0.108E+01 -.531E+00 -.277E+01   -.159E-03 0.250E-03 0.242E-02
   0.775E+01 -.430E+01 0.334E+01   -.600E+01 0.518E+01 -.448E+01   -.175E+01 -.896E+00 0.114E+01   0.422E-03 0.343E-02 -.108E-02
   0.132E+02 0.776E+01 -.149E+02   -.118E+02 -.702E+01 0.132E+02   -.143E+01 -.749E+00 0.159E+01   0.264E-02 0.191E-03 -.621E-03
   0.209E+02 0.407E+02 0.124E+02   -.227E+02 -.421E+02 -.127E+02   0.176E+01 0.140E+01 0.350E+00   -.144E-01 -.190E-01 0.126E-02
   -.132E+02 -.445E+02 -.147E+02   0.135E+02 0.441E+02 0.167E+02   -.321E+00 0.449E+00 -.194E+01   -.104E-02 -.373E-02 -.224E-01
   -.312E+02 0.418E+01 -.294E+01   0.316E+02 -.248E+01 0.157E+01   -.428E+00 -.167E+01 0.140E+01   0.198E-02 -.119E-01 -.422E-02
   0.343E+02 -.208E+02 0.288E+02   -.358E+02 0.207E+02 -.291E+02   0.143E+01 0.116E+00 0.330E+00   0.351E-02 -.554E-02 -.835E-02
   -.133E+02 -.327E+02 0.117E+02   0.145E+02 0.327E+02 -.115E+02   -.125E+01 -.145E-01 -.158E+00   -.474E-02 -.950E-02 0.139E-01
   0.880E+01 0.630E+02 -.121E+02   -.954E+01 -.641E+02 0.117E+02   0.736E+00 0.112E+01 0.347E+00   -.968E-03 -.147E-01 0.165E-01
 -----------------------------------------------------------------------------------------------
   0.294E+01 -.101E+01 -.110E+01   0.178E-14 0.000E+00 -.142E-13   -.292E+01 0.112E+01 0.114E+01   -.148E-01 -.563E-01 -.389E-02
 
 
 POSITION                                       TOTAL-FORCE (eV/Angst)
 -----------------------------------------------------------------------------------
      7.38564      4.43058      2.34525         0.023922     -0.026026     -0.000668
     10.39295      8.90417      0.96732        -0.001290     -0.012920     -0.026473
      9.70757      4.68257     -0.50299         0.005433     -0.002962      0.005423
     13.71235      8.58108      2.31360        -0.000110     -0.019493     -0.015444
      3.76765      4.27166      2.02470        -0.012646     -0.002749      0.034750
     11.25318      6.99267     -0.57334        -0.008717      0.003837     -0.019468
      6.14136      7.22988     -0.08964        -0.001441      0.017508     -0.026902
      5.98684      2.82941      5.17192        -0.005351      0.004502      0.022401
      8.78998      8.16051      2.92138        -0.003190     -0.017183     -0.004411
     10.08330      5.05555      4.81276         0.004622     -0.011666     -0.031787
      5.02470      2.63676      0.81322         0.004035      0.017064      0.020389
      7.53241      5.29271      0.13642         0.012904      0.012072      0.038490
      7.54804      2.24609      3.42168         0.002305      0.014236      0.024677
      9.34007      5.75111      2.80799        -0.001653      0.012346      0.007236
      5.38212      5.68418      2.94859        -0.011778     -0.003585     -0.011350
      3.78414      2.82969      3.98780        -0.007044      0.015019     -0.016862
 -----------------------------------------------------------------------------------
    total drift:                                0.002439      0.047833      0.035709


--------------------------------------------------------------------------------------------------------



  FREE ENERGIE OF THE ION-ELECTRON SYSTEM (eV)
  ---------------------------------------------------
  free  energy   TOTEN  =       -68.51928144 eV

  energy  without entropy=      -68.51928144  energy(sigma->0) =      -68.51928144
 
 d Force = 0.8917739E-03[ 0.641E-03, 0.114E-02]  d Energy = 0.9967393E-03-0.105E-03
 d Force = 0.2358670E-01[ 0.224E-01, 0.248E-01]  d Ewald  =-0.5649044E+00 0.588E+00


--------------------------------------------------------------------------------------------------------


    POTLOK:  cpu time    0.0917: real time    0.0917


--------------------------------------------------------------------------------------------------------


 Conjugate gradient step on ions:
 trial-energy change:   -0.000997  1 .order   -0.001027   -0.001287   -0.000767
  (g-gl).g = 0.295E-03      g.g   = 0.339E-03  gl.gl    = 0.966E-03
 g(Force)  = 0.258E-03   g(Stress)= 0.810E-04 ortho     =-0.116E-05
 gamma     =   0.30540
 trial     =   3.79498
 opt step  =   9.39259  (harmonic =   9.39259) maximal distance =0.00620977
 next E    =   -68.519877   (d E  =  -0.00159)


--------------------------------------------------------------------------------------------------------


  
 reached required accuracy - stopping structural energy minimisation
     LOOP+:  cpu time    2.2418: real time    2.5262
    4ORBIT:  cpu time    0.0000: real time    0.0000
 


 total charge     
 
# of ion       s       p       d       tot
------------------------------------------
    1        0.092   0.174   0.000   0.266
    2        0.437   0.339   0.000   0.776
    3        0.434   0.341   0.000   0.775
    4        0.430   0.321   0.000   0.751
    5        0.372   0.319   0.000   0.692
    6        0.435   0.366   0.000   0.801
    7        0.435   0.355   0.000   0.790
    8        0.453   0.308   0.000   0.761
    9        0.448   0.313   0.000   0.761
   10        0.381   0.380   0.000   0.761
   11        1.329   2.444   0.000   3.773
   12        1.322   2.488   0.000   3.810
   13        1.325   2.443   0.000   3.768
   14        1.335   2.450   0.000   3.784
   15        1.326   2.466   0.000   3.791
   16        1.336   2.428   0.000   3.764
--------------------------------------------------
tot         11.891  17.936   0.000  29.826
 

 total amount of memory used by VASP MPI-rank0    36850. kBytes
=======================================================================

   base      :      30000. kBytes
   nonlr-proj:       1172. kBytes
   fftplans  :        521. kBytes
   grid      :       2352. kBytes
   one-center:         49. kBytes
   wavefun   :       2756. kBytes
 
  
  
 General timing and accounting informations for this job:
 ========================================================
  
                  Total CPU time used (sec):       27.695
                            User time (sec):       27.241
                          System time (sec):        0.454
                         Elapsed time (sec):       29.485
  
                   Maximum memory used (kb):       69680.
                   Average memory used (kb):           0.
  
                          Minor page faults:        36359
                          Major page faults:            0
                 Voluntary context switches:          710
