PROCAR new format
# of k-points:   14         # of bands:   42         # of ions:   16

 k-point     1 :    0.00000000 0.00000000 0.00000000     weight = 0.03703704

band     1 # energy   -9.66473244 # occ.  2.00000000
 
ion      s      p      d    tot
    1  0.002  0.000  0.000  0.002
    2  0.002  0.000  0.000  0.002
    3  0.005  0.001  0.000  0.005
    4  0.002  0.000  0.000  0.002
    5  0.013  0.001  0.000  0.013
    6  0.000  0.000  0.000  0.000
    7  0.001  0.000  0.000  0.001
    8  0.002  0.000  0.000  0.002
    9  0.002  0.000  0.000  0.002
   10  0.021  0.000  0.000  0.022
   11  0.090  0.000  0.000  0.091
   12  0.100  0.001  0.000  0.101
   13  0.023  0.000  0.000  0.023
   14  0.110  0.001  0.000  0.111
   15  0.086  0.000  0.000  0.086
   16  0.127  0.001  0.000  0.129
tot    0.587  0.007  0.000  0.594
 
band     2 # energy   -8.83420642 # occ.  2.00000000
 
ion      s      p      d    tot
    1  0.000  0.002  0.000  0.002
    2  0.006  0.002  0.000  0.007
    3  0.002  0.001  0.000  0.004
    4  0.000  0.001  0.000  0.001
    5  0.000  0.002  0.000  0.003
    6  0.000  0.000  0.000  0.000
    7  0.001  0.001  0.000  0.002
    8  0.002  0.001  0.000  0.003
    9  0.000  0.001  0.000  0.001
   10  0.000  0.005  0.000  0.005
   11  0.207  0.000  0.000  0.207
   12  0.169  0.000  0.000  0.169
   13  0.133  0.000  0.000  0.134
   14  0.049  0.000  0.000  0.049
   15  0.030  0.000  0.000  0.030
   16  0.027  0.000  0.000  0.027
tot    0.627  0.017  0.000  0.644
 
band     3 # energy   -8.62884152 # occ.  2.00000000
 
ion      s      p      d    tot
    1  0.000  0.001  0.000  0.002
    2  0.001  0.001  0.000  0.001
    3  0.003  0.002  0.000  0.005
    4  0.006  0.002  0.000  0.007
    5  0.000  0.004  0.000  0.004
    6  0.000  0.000  0.000  0.000
    7  0.000  0.000  0.000  0.000
    8  0.000  0.001  0.000  0.001
    9  0.001  0.000  0.000  0.001
   10  0.005  0.003  0.000  0.008
   11  0.000  0.000  0.000  0.000
   12  0.013  0.000  0.000  0.013
   13  0.086  0.000  0.000  0.086
   14  0.146  0.001  0.000  0.147
   15  0.288  0.000  0.000  0.288
   16  0.091  0.001  0.000  0.092
tot    0.641  0.015  0.000  0.656
 
band     4 # energy   -8.50352641 # occ.  2.00000000
 
ion      s      p      d    tot
    1  0.000  0.001  0.000  0.001
    2  0.000  0.001  0.000  0.002
    3  0.000  0.002  0.000  0.002
    4  0.002  0.000  0.000  0.002
    5  0.001  0.003  0.000  0.004
    6  0.000  0.000  0.000  0.000
    7  0.001  0.001  0.000  0.002
    8  0.001  0.001  0.000  0.001
    9  0.001  0.000  0.000  0.001
   10  0.003  0.007  0.000  0.009
   11  0.210  0.001  0.000  0.210
   12  0.194  0.001  0.000  0.194
   13  0.019  0.000  0.000  0.019
   14  0.019  0.000  0.000  0.019
   15  0.087  0.000  0.000  0.087
   16  0.112  0.000  0.000  0.113
tot    0.649  0.018  0.000  0.667
 
band     5 # energy   -8.42073049 # occ.  2.00000000
 
ion      s      p      d    tot
    1  0.001  0.001  0.000  0.002
    2  0.001  0.003  0.000  0.004
    3  0.000  0.001  0.000  0.001
    4  0.001  0.003  0.000  0.004
    5  0.003  0.002  0.000  0.005
    6  0.000  0.000  0.000  0.000
    7  0.001  0.000  0.000  0.001
    8  0.001  0.002  0.000  0.003
    9  0.000  0.000  0.000  0.000
   10  0.000  0.002  0.000  0.002
   11  0.075  0.000  0.000  0.076
   12  0.045  0.000  0.000  0.045
   13  0.359  0.001  0.000  0.360
   14  0.041  0.000  0.000  0.041
   15  0.103  0.000  0.000  0.104
   16  0.020  0.000  0.000  0.020
tot    0.653  0.015  0.000  0.668
 
band     6 # energy   -8.19842208 # occ.  2.00000000
 
ion      s      p      d    tot
    1  0.000  0.001  0.000  0.001
    2  0.000  0.000  0.000  0.000
    3  0.000  0.001  0.000  0.001
    4  0.000  0.000  0.000  0.000
    5  0.002  0.001  0.000  0.003
    6  0.000  0.000  0.000  0.000
    7  0.001  0.000  0.000  0.001
    8  0.001  0.001  0.000  0.002
    9  0.000  0.002  0.000  0.003
   10  0.000  0.006  0.000  0.006
   11  0.041  0.000  0.000  0.041
   12  0.101  0.000  0.000  0.101
   13  0.000  0.000  0.000  0.000
   14  0.254  0.000  0.000  0.254
   15  0.025  0.000  0.000  0.025
   16  0.236  0.001  0.000  0.237
tot    0.660  0.014  0.000  0.675
 
band     7 # energy   -2.97797751 # occ.  2.00000000
 
ion      s      p      d    tot
    1  0.000  0.001  0.000  0.001
    2  0.015  0.000  0.000  0.016
    3  0.001  0.001  0.000  0.002
    4  0.025  0.002  0.000  0.026
    5  0.014  0.002  0.000  0.016
    6  0.021  0.001  0.000  0.023
    7  0.031  0.000  0.000  0.031
    8  0.003  0.003  0.000  0.005
    9  0.060  0.000  0.000  0.060
   10  0.020  0.002  0.000  0.022
   11  0.000  0.008  0.000  0.009
   12  0.000  0.021  0.000  0.021
   13  0.010  0.005  0.000  0.015
   14  0.001  0.037  0.000  0.038
   15  0.000  0.026  0.000  0.027
   16  0.001  0.051  0.000  0.053
tot    0.202  0.163  0.000  0.365
 
band     8 # energy   -2.39372592 # occ.  2.00000000
 
ion      s      p      d    tot
    1  0.000  0.000  0.000  0.000
    2  0.005  0.002  0.000  0.007
    3  0.016  0.001  0.000  0.017
    4  0.017  0.001  0.000  0.018
    5  0.038  0.001  0.000  0.039
    6  0.000  0.001  0.000  0.001
    7  0.001  0.001  0.000  0.002
    8  0.010  0.001  0.000  0.011
    9  0.000  0.002  0.000  0.002
   10  0.079  0.001  0.000  0.081
   11  0.000  0.073  0.000  0.073
   12  0.002  0.033  0.000  0.035
   13  0.000  0.019  0.000  0.019
   14  0.001  0.039  0.000  0.040
   15  0.002  0.024  0.000  0.026
   16  0.001  0.052  0.000  0.053
tot    0.172  0.250  0.000  0.422
 
band     9 # energy   -1.95848665 # occ.  2.00000000
 
ion      s      p      d    tot
    1  0.000  0.001  0.000  0.002
    2  0.001  0.000  0.000  0.001
    3  0.064  0.005  0.000  0.069
    4  0.003  0.003  0.000  0.006
    5  0.044  0.003  0.000  0.047
    6  0.000  0.002  0.000  0.002
    7  0.011  0.004  0.000  0.014
    8  0.022  0.002  0.000  0.024
    9  0.001  0.000  0.000  0.001
   10  0.001  0.001  0.000  0.003
   11  0.001  0.021  0.000  0.022
   12  0.002  0.058  0.000  0.060
   13  0.000  0.018  0.000  0.018
   14  0.001  0.014  0.000  0.015
   15  0.000  0.098  0.000  0.098
   16  0.000  0.030  0.000  0.030
tot    0.151  0.262  0.000  0.413
 
band    10 # energy   -1.62252274 # occ.  2.00000000
 
ion      s      p      d    tot
    1  0.000  0.003  0.000  0.003
    2  0.002  0.002  0.000  0.004
    3  0.016  0.005  0.000  0.021
    4  0.045  0.002  0.000  0.047
    5  0.004  0.008  0.000  0.012
    6  0.004  0.002  0.000  0.006
    7  0.004  0.003  0.000  0.007
    8  0.024  0.004  0.000  0.029
    9  0.006  0.003  0.000  0.009
   10  0.009  0.006  0.000  0.014
   11  0.001  0.008  0.000  0.009
   12  0.000  0.050  0.000  0.050
   13  0.000  0.073  0.000  0.073
   14  0.000  0.034  0.000  0.035
   15  0.004  0.039  0.000  0.043
   16  0.003  0.034  0.000  0.037
tot    0.121  0.277  0.000  0.398
 
band    11 # energy   -1.28176333 # occ.  2.00000000
 
ion      s      p      d    tot
    1  0.000  0.001  0.000  0.001
    2  0.056  0.007  0.000  0.062
    3  0.008  0.005  0.000  0.014
    4  0.002  0.001  0.000  0.002
    5  0.023  0.005  0.000  0.028
    6  0.012  0.003  0.000  0.015
    7  0.022  0.001  0.000  0.023
    8  0.023  0.001  0.000  0.024
    9  0.001  0.004  0.000  0.004
   10  0.001  0.003  0.000  0.004
   11  0.001  0.136  0.000  0.137
   12  0.003  0.013  0.000  0.016
   13  0.000  0.045  0.000  0.045
   14  0.005  0.003  0.000  0.008
   15  0.006  0.002  0.000  0.008
   16  0.002  0.001  0.000  0.002
tot    0.165  0.230  0.000  0.395
 
band    12 # energy   -1.12308131 # occ.  2.00000000
 
ion      s      p      d    tot
    1  0.009  0.003  0.000  0.012
    2  0.034  0.002  0.000  0.036
    3  0.016  0.001  0.000  0.017
    4  0.000  0.001  0.000  0.001
    5  0.012  0.004  0.000  0.016
    6  0.049  0.001  0.000  0.050
    7  0.002  0.005  0.000  0.007
    8  0.000  0.001  0.000  0.001
    9  0.005  0.001  0.000  0.006
   10  0.013  0.005  0.000  0.018
   11  0.004  0.005  0.000  0.009
   12  0.007  0.059  0.000  0.066
   13  0.003  0.026  0.000  0.029
   14  0.011  0.050  0.000  0.061
   15  0.006  0.039  0.000  0.046
   16  0.011  0.014  0.000  0.026
tot    0.182  0.218  0.000  0.400
 
band    13 # energy   -0.45236091 # occ.  2.00000000
 
ion      s      p      d    tot
    1  0.006  0.003  0.000  0.009
    2  0.000  0.004  0.000  0.004
    3  0.001  0.005  0.000  0.006
    4  0.000  0.001  0.000  0.001
    5  0.004  0.010  0.000  0.014
    6  0.006  0.000  0.000  0.007
    7  0.014  0.006  0.000  0.020
    8  0.002  0.003  0.000  0.006
    9  0.004  0.001  0.000  0.004
   10  0.001  0.022  0.000  0.023
   11  0.003  0.082  0.000  0.085
   12  0.001  0.102  0.000  0.103
   13  0.000  0.015  0.000  0.016
   14  0.000  0.055  0.000  0.055
   15  0.000  0.040  0.000  0.040
   16  0.000  0.029  0.000  0.029
tot    0.044  0.379  0.000  0.422
 
band    14 # energy   -0.31788330 # occ.  2.00000000
 
ion      s      p      d    tot
    1  0.000  0.001  0.000  0.001
    2  0.002  0.002  0.000  0.004
    3  0.000  0.004  0.000  0.004
    4  0.002  0.003  0.000  0.005
    5  0.000  0.016  0.000  0.016
    6  0.000  0.004  0.000  0.004
    7  0.026  0.001  0.000  0.027
    8  0.032  0.001  0.000  0.033
    9  0.018  0.002  0.000  0.020
   10  0.000  0.016  0.000  0.016
   11  0.000  0.065  0.000  0.065
   12  0.000  0.044  0.000  0.045
   13  0.003  0.013  0.000  0.015
   14  0.000  0.078  0.000  0.078
   15  0.001  0.025  0.000  0.025
   16  0.001  0.054  0.000  0.055
tot    0.085  0.328  0.000  0.413
 
band    15 # energy    0.00713124 # occ.  2.00000000
 
ion      s      p      d    tot
    1  0.010  0.001  0.000  0.011
    2  0.013  0.003  0.000  0.017
    3  0.007  0.008  0.000  0.014
    4  0.007  0.007  0.000  0.014
    5  0.000  0.005  0.000  0.005
    6  0.039  0.000  0.000  0.040
    7  0.004  0.003  0.000  0.007
    8  0.003  0.001  0.000  0.005
    9  0.007  0.002  0.000  0.008
   10  0.001  0.003  0.000  0.004
   11  0.007  0.012  0.000  0.018
   12  0.000  0.032  0.000  0.033
   13  0.000  0.091  0.000  0.091
   14  0.001  0.048  0.000  0.049
   15  0.001  0.071  0.000  0.072
   16  0.000  0.031  0.000  0.032
tot    0.100  0.318  0.000  0.419
 
band    16 # energy    0.26328074 # occ.  2.00000000
 
ion      s      p      d    tot
    1  0.000  0.002  0.000  0.002
    2  0.001  0.006  0.000  0.007
    3  0.000  0.002  0.000  0.002
    4  0.017  0.014  0.000  0.031
    5  0.000  0.009  0.000  0.009
    6  0.008  0.001  0.000  0.008
    7  0.000  0.004  0.000  0.004
    8  0.021  0.002  0.000  0.023
    9  0.014  0.002  0.000  0.016
   10  0.003  0.008  0.000  0.010
   11  0.000  0.038  0.000  0.038
   12  0.001  0.047  0.000  0.048
   13  0.006  0.065  0.000  0.071
   14  0.001  0.025  0.000  0.026
   15  0.001  0.119  0.000  0.120
   16  0.001  0.035  0.000  0.036
tot    0.074  0.378  0.000  0.453
 
band    17 # energy    0.49192606 # occ.  2.00000000
 
ion      s      p      d    tot
    1  0.001  0.000  0.000  0.001
    2  0.002  0.004  0.000  0.006
    3  0.003  0.007  0.000  0.009
    4  0.002  0.015  0.000  0.018
    5  0.001  0.006  0.000  0.007
    6  0.004  0.002  0.000  0.006
    7  0.029  0.001  0.000  0.030
    8  0.001  0.018  0.000  0.019
    9  0.004  0.003  0.000  0.007
   10  0.003  0.001  0.000  0.004
   11  0.001  0.013  0.000  0.014
   12  0.002  0.008  0.000  0.009
   13  0.000  0.142  0.000  0.142
   14  0.003  0.023  0.000  0.026
   15  0.001  0.059  0.000  0.060
   16  0.001  0.060  0.000  0.061
tot    0.057  0.363  0.000  0.419
 
band    18 # energy    0.65829007 # occ.  2.00000000
 
ion      s      p      d    tot
    1  0.004  0.000  0.000  0.005
    2  0.000  0.016  0.000  0.016
    3  0.002  0.006  0.000  0.008
    4  0.006  0.003  0.000  0.009
    5  0.000  0.001  0.000  0.001
    6  0.005  0.003  0.000  0.008
    7  0.000  0.006  0.000  0.006
    8  0.009  0.002  0.000  0.012
    9  0.001  0.004  0.000  0.005
   10  0.000  0.013  0.000  0.013
   11  0.001  0.116  0.000  0.118
   12  0.000  0.123  0.000  0.123
   13  0.000  0.074  0.000  0.075
   14  0.000  0.015  0.000  0.015
   15  0.000  0.031  0.000  0.031
   16  0.007  0.001  0.000  0.008
tot    0.037  0.415  0.000  0.453
 
band    19 # energy    0.89246726 # occ.  2.00000000
 
ion      s      p      d    tot
    1  0.000  0.003  0.000  0.003
    2  0.000  0.001  0.000  0.001
    3  0.001  0.001  0.000  0.002
    4  0.002  0.003  0.000  0.006
    5  0.000  0.001  0.000  0.001
    6  0.002  0.001  0.000  0.003
    7  0.002  0.003  0.000  0.005
    8  0.000  0.005  0.000  0.005
    9  0.000  0.029  0.000  0.029
   10  0.000  0.014  0.000  0.014
   11  0.000  0.008  0.000  0.008
   12  0.000  0.010  0.000  0.010
   13  0.000  0.029  0.000  0.029
   14  0.001  0.137  0.000  0.138
   15  0.003  0.012  0.000  0.016
   16  0.001  0.182  0.000  0.183
tot    0.013  0.439  0.000  0.453
 
band    20 # energy    1.20937608 # occ.  2.00000000
 
ion      s      p      d    tot
    1  0.000  0.004  0.000  0.004
    2  0.005  0.001  0.000  0.007
    3  0.000  0.008  0.000  0.008
    4  0.003  0.001  0.000  0.004
    5  0.001  0.017  0.000  0.018
    6  0.005  0.001  0.000  0.006
    7  0.002  0.001  0.000  0.003
    8  0.000  0.001  0.000  0.001
    9  0.001  0.000  0.000  0.001
   10  0.000  0.017  0.000  0.017
   11  0.000  0.031  0.000  0.031
   12  0.001  0.085  0.000  0.086
   13  0.000  0.023  0.000  0.024
   14  0.000  0.201  0.000  0.201
   15  0.000  0.083  0.000  0.084
   16  0.000  0.005  0.000  0.006
tot    0.020  0.479  0.000  0.499
 
band    21 # energy    1.40781303 # occ.  2.00000000
 
ion      s      p      d    tot
    1  0.000  0.014  0.000  0.014
    2  0.010  0.003  0.000  0.013
    3  0.000  0.004  0.000  0.004
    4  0.001  0.010  0.000  0.011
    5  0.000  0.004  0.000  0.004
    6  0.000  0.001  0.000  0.001
    7  0.001  0.000  0.000  0.001
    8  0.001  0.002  0.000  0.003
    9  0.000  0.003  0.000  0.003
   10  0.002  0.006  0.000  0.008
   11  0.002  0.038  0.000  0.040
   12  0.000  0.037  0.000  0.037
   13  0.005  0.196  0.000  0.201
   14  0.000  0.018  0.000  0.018
   15  0.000  0.095  0.000  0.095
   16  0.001  0.042  0.000  0.043
tot    0.024  0.474  0.000  0.498
 
band    22 # energy    1.55866383 # occ.  2.00000000
 
ion      s      p      d    tot
    1  0.000  0.001  0.000  0.001
    2  0.000  0.009  0.000  0.009
    3  0.000  0.007  0.000  0.007
    4  0.005  0.013  0.000  0.018
    5  0.001  0.005  0.000  0.006
    6  0.028  0.006  0.000  0.034
    7  0.015  0.008  0.000  0.023
    8  0.003  0.008  0.000  0.010
    9  0.042  0.001  0.000  0.043
   10  0.005  0.008  0.000  0.013
   11  0.000  0.015  0.000  0.015
   12  0.002  0.046  0.000  0.048
   13  0.001  0.037  0.000  0.038
   14  0.006  0.002  0.000  0.008
   15  0.000  0.007  0.000  0.007
   16  0.011  0.114  0.000  0.125
tot    0.120  0.286  0.000  0.406
 
band    23 # energy    1.58799950 # occ.  2.00000000
 
ion      s      p      d    tot
    1  0.000  0.001  0.000  0.001
    2  0.012  0.004  0.000  0.016
    3  0.002  0.009  0.000  0.011
    4  0.019  0.003  0.000  0.022
    5  0.001  0.011  0.000  0.012
    6  0.007  0.004  0.000  0.011
    7  0.001  0.001  0.000  0.002
    8  0.001  0.006  0.000  0.007
    9  0.000  0.006  0.000  0.006
   10  0.000  0.003  0.000  0.003
   11  0.000  0.140  0.000  0.140
   12  0.000  0.036  0.000  0.037
   13  0.000  0.038  0.000  0.038
   14  0.000  0.013  0.000  0.013
   15  0.005  0.021  0.000  0.026
   16  0.002  0.102  0.000  0.104
tot    0.051  0.398  0.000  0.450
 
band    24 # energy    1.96956925 # occ.  2.00000000
 
ion      s      p      d    tot
    1  0.000  0.003  0.000  0.003
    2  0.004  0.002  0.000  0.006
    3  0.002  0.003  0.000  0.005
    4  0.002  0.008  0.000  0.011
    5  0.000  0.006  0.000  0.006
    6  0.002  0.003  0.000  0.005
    7  0.000  0.007  0.000  0.007
    8  0.001  0.006  0.000  0.007
    9  0.000  0.008  0.000  0.008
   10  0.001  0.011  0.000  0.012
   11  0.001  0.145  0.000  0.146
   12  0.000  0.002  0.000  0.002
   13  0.001  0.072  0.000  0.073
   14  0.002  0.010  0.000  0.012
   15  0.001  0.017  0.000  0.017
   16  0.000  0.143  0.000  0.143
tot    0.017  0.446  0.000  0.463
 
band    25 # energy    2.30949762 # occ.  2.00000000
 
ion      s      p      d    tot
    1  0.000  0.013  0.000  0.013
    2  0.001  0.002  0.000  0.003
    3  0.005  0.003  0.000  0.008
    4  0.012  0.003  0.000  0.015
    5  0.000  0.004  0.000  0.004
    6  0.002  0.007  0.000  0.009
    7  0.013  0.009  0.000  0.022
    8  0.000  0.004  0.000  0.005
    9  0.000  0.005  0.000  0.006
   10  0.002  0.011  0.000  0.013
   11  0.001  0.007  0.000  0.007
   12  0.001  0.049  0.000  0.050
   13  0.000  0.004  0.000  0.004
   14  0.002  0.171  0.000  0.173
   15  0.002  0.127  0.000  0.128
   16  0.001  0.036  0.000  0.037
tot    0.043  0.454  0.000  0.497
 
band    26 # energy    2.72824165 # occ.  2.00000000
 
ion      s      p      d    tot
    1  0.000  0.004  0.000  0.004
    2  0.001  0.002  0.000  0.003
    3  0.003  0.004  0.000  0.007
    4  0.022  0.015  0.000  0.038
    5  0.002  0.003  0.000  0.005
    6  0.000  0.010  0.000  0.010
    7  0.014  0.010  0.000  0.024
    8  0.000  0.006  0.000  0.006
    9  0.006  0.019  0.000  0.025
   10  0.001  0.001  0.000  0.002
   11  0.000  0.020  0.000  0.020
   12  0.001  0.056  0.000  0.056
   13  0.001  0.033  0.000  0.034
   14  0.000  0.036  0.000  0.036
   15  0.002  0.112  0.000  0.114
   16  0.006  0.054  0.000  0.059
tot    0.059  0.385  0.000  0.444
 
band    27 # energy    2.74966628 # occ.  2.00000000
 
ion      s      p      d    tot
    1  0.000  0.004  0.000  0.004
    2  0.012  0.006  0.000  0.018
    3  0.010  0.001  0.000  0.011
    4  0.002  0.003  0.000  0.005
    5  0.000  0.009  0.000  0.009
    6  0.006  0.019  0.000  0.025
    7  0.001  0.013  0.000  0.014
    8  0.006  0.002  0.000  0.009
    9  0.004  0.021  0.000  0.025
   10  0.007  0.003  0.000  0.011
   11  0.012  0.091  0.000  0.103
   12  0.006  0.064  0.000  0.070
   13  0.003  0.028  0.000  0.031
   14  0.000  0.060  0.000  0.060
   15  0.001  0.012  0.000  0.013
   16  0.000  0.025  0.000  0.026
tot    0.070  0.362  0.000  0.432
 
band    28 # energy    3.02900284 # occ.  2.00000000
 
ion      s      p      d    tot
    1  0.000  0.013  0.000  0.013
    2  0.000  0.002  0.000  0.002
    3  0.003  0.002  0.000  0.004
    4  0.006  0.003  0.000  0.009
    5  0.000  0.000  0.000  0.000
    6  0.000  0.002  0.000  0.002
    7  0.000  0.001  0.000  0.001
    8  0.002  0.002  0.000  0.004
    9  0.000  0.005  0.000  0.005
   10  0.000  0.005  0.000  0.005
   11  0.001  0.025  0.000  0.026
   12  0.000  0.260  0.000  0.260
   13  0.000  0.020  0.000  0.021
   14  0.002  0.095  0.000  0.096
   15  0.000  0.099  0.000  0.099
   16  0.000  0.005  0.000  0.005
tot    0.015  0.537  0.000  0.552
 
band    29 # energy    3.17917262 # occ.  2.00000000
 
ion      s      p      d    tot
    1  0.003  0.002  0.000  0.004
    2  0.025  0.033  0.000  0.058
    3  0.023  0.006  0.000  0.029
    4  0.003  0.000  0.000  0.003
    5  0.001  0.004  0.000  0.005
    6  0.001  0.013  0.000  0.014
    7  0.000  0.002  0.000  0.002
    8  0.005  0.005  0.000  0.010
    9  0.012  0.018  0.000  0.030
   10  0.003  0.002  0.000  0.005
   11  0.000  0.073  0.000  0.073
   12  0.000  0.005  0.000  0.005
   13  0.000  0.070  0.000  0.070
   14  0.001  0.029  0.000  0.030
   15  0.001  0.026  0.000  0.027
   16  0.003  0.052  0.000  0.055
tot    0.080  0.340  0.000  0.420
 
band    30 # energy    3.51712017 # occ.  2.00000000
 
ion      s      p      d    tot
    1  0.001  0.002  0.000  0.002
    2  0.000  0.020  0.000  0.020
    3  0.006  0.014  0.000  0.020
    4  0.006  0.006  0.000  0.012
    5  0.007  0.003  0.000  0.010
    6  0.008  0.022  0.000  0.030
    7  0.003  0.027  0.000  0.029
    8  0.000  0.006  0.000  0.006
    9  0.036  0.007  0.000  0.043
   10  0.002  0.001  0.000  0.003
   11  0.001  0.041  0.000  0.042
   12  0.001  0.007  0.000  0.008
   13  0.001  0.042  0.000  0.043
   14  0.011  0.026  0.000  0.037
   15  0.000  0.029  0.000  0.030
   16  0.003  0.032  0.000  0.035
tot    0.085  0.285  0.000  0.370
 
band    31 # energy    4.06275619 # occ.  2.00000000
 
ion      s      p      d    tot
    1  0.000  0.001  0.000  0.002
    2  0.000  0.007  0.000  0.007
    3  0.019  0.008  0.000  0.027
    4  0.001  0.015  0.000  0.016
    5  0.002  0.003  0.000  0.005
    6  0.004  0.031  0.000  0.035
    7  0.004  0.048  0.000  0.052
    8  0.024  0.031  0.000  0.055
    9  0.013  0.001  0.000  0.015
   10  0.000  0.002  0.000  0.002
   11  0.001  0.012  0.000  0.014
   12  0.002  0.002  0.000  0.004
   13  0.000  0.040  0.000  0.040
   14  0.001  0.013  0.000  0.013
   15  0.002  0.005  0.000  0.007
   16  0.000  0.006  0.000  0.006
tot    0.074  0.224  0.000  0.299
 
band    32 # energy    4.33453390 # occ.  2.00000000
 
ion      s      p      d    tot
    1  0.000  0.000  0.000  0.000
    2  0.009  0.009  0.000  0.018
    3  0.000  0.042  0.000  0.042
    4  0.000  0.016  0.000  0.016
    5  0.000  0.007  0.000  0.008
    6  0.000  0.027  0.000  0.027
    7  0.021  0.014  0.000  0.035
    8  0.019  0.033  0.000  0.052
    9  0.002  0.003  0.000  0.005
   10  0.004  0.002  0.000  0.006
   11  0.002  0.036  0.000  0.038
   12  0.002  0.031  0.000  0.033
   13  0.004  0.006  0.000  0.009
   14  0.000  0.000  0.000  0.000
   15  0.000  0.019  0.000  0.020
   16  0.001  0.014  0.000  0.015
tot    0.066  0.259  0.000  0.324
 
band    33 # energy    5.93154955 # occ.  0.00000000
 
ion      s      p      d    tot
    1  0.002  0.002  0.000  0.004
    2  0.005  0.017  0.000  0.023
    3  0.002  0.006  0.000  0.008
    4  0.003  0.009  0.000  0.012
    5  0.075  0.021  0.000  0.095
    6  0.014  0.015  0.000  0.029
    7  0.000  0.002  0.000  0.002
    8  0.008  0.004  0.000  0.012
    9  0.001  0.006  0.000  0.008
   10  0.001  0.001  0.000  0.002
   11  0.008  0.008  0.000  0.016
   12  0.001  0.003  0.000  0.003
   13  0.005  0.025  0.000  0.029
   14  0.005  0.034  0.000  0.039
   15  0.002  0.031  0.000  0.034
   16  0.002  0.022  0.000  0.024
tot    0.134  0.206  0.000  0.340
 
band    34 # energy    6.24478998 # occ.  0.00000000
 
ion      s      p      d    tot
    1  0.006  0.003  0.000  0.010
    2  0.000  0.006  0.000  0.006
    3  0.000  0.010  0.000  0.010
    4  0.043  0.004  0.000  0.047
    5  0.022  0.001  0.000  0.024
    6  0.013  0.005  0.000  0.018
    7  0.000  0.003  0.000  0.003
    8  0.001  0.016  0.000  0.017
    9  0.000  0.023  0.000  0.024
   10  0.007  0.004  0.000  0.011
   11  0.000  0.007  0.000  0.007
   12  0.008  0.008  0.000  0.016
   13  0.022  0.016  0.000  0.039
   14  0.000  0.014  0.000  0.015
   15  0.014  0.004  0.000  0.018
   16  0.001  0.007  0.000  0.008
tot    0.138  0.134  0.000  0.272
 
band    35 # energy    6.44320115 # occ.  0.00000000
 
ion      s      p      d    tot
    1  0.000  0.007  0.000  0.007
    2  0.000  0.003  0.000  0.003
    3  0.017  0.020  0.000  0.037
    4  0.004  0.003  0.000  0.007
    5  0.002  0.016  0.000  0.018
    6  0.003  0.025  0.000  0.028
    7  0.021  0.008  0.000  0.029
    8  0.036  0.002  0.000  0.038
    9  0.002  0.008  0.000  0.009
   10  0.008  0.001  0.000  0.009
   11  0.003  0.015  0.000  0.019
   12  0.023  0.007  0.000  0.030
   13  0.000  0.016  0.000  0.016
   14  0.002  0.004  0.000  0.005
   15  0.001  0.012  0.000  0.013
   16  0.000  0.005  0.000  0.005
tot    0.122  0.150  0.000  0.272
 
band    36 # energy    7.09992579 # occ.  0.00000000
 
ion      s      p      d    tot
    1  0.002  0.002  0.000  0.003
    2  0.003  0.021  0.000  0.024
    3  0.030  0.001  0.000  0.030
    4  0.008  0.013  0.000  0.021
    5  0.005  0.004  0.000  0.009
    6  0.000  0.022  0.000  0.022
    7  0.003  0.008  0.000  0.011
    8  0.007  0.001  0.000  0.008
    9  0.009  0.002  0.000  0.011
   10  0.030  0.016  0.000  0.046
   11  0.022  0.008  0.000  0.030
   12  0.003  0.023  0.000  0.026
   13  0.010  0.000  0.000  0.011
   14  0.001  0.026  0.000  0.027
   15  0.002  0.015  0.000  0.017
   16  0.007  0.003  0.000  0.010
tot    0.143  0.165  0.000  0.308
 
band    37 # energy    7.40572631 # occ.  0.00000000
 
ion      s      p      d    tot
    1  0.003  0.003  0.000  0.005
    2  0.002  0.011  0.000  0.013
    3  0.011  0.026  0.000  0.037
    4  0.008  0.008  0.000  0.017
    5  0.001  0.013  0.000  0.014
    6  0.000  0.020  0.000  0.020
    7  0.000  0.020  0.000  0.020
    8  0.001  0.003  0.000  0.005
    9  0.001  0.010  0.000  0.011
   10  0.012  0.003  0.000  0.015
   11  0.006  0.005  0.000  0.011
   12  0.001  0.005  0.000  0.006
   13  0.000  0.011  0.000  0.011
   14  0.001  0.017  0.000  0.018
   15  0.000  0.035  0.000  0.035
   16  0.003  0.002  0.000  0.005
tot    0.053  0.191  0.000  0.244
 
band    38 # energy    7.59282403 # occ.  0.00000000
 
ion      s      p      d    tot
    1  0.006  0.001  0.000  0.006
    2  0.019  0.004  0.000  0.023
    3  0.001  0.015  0.000  0.016
    4  0.000  0.013  0.000  0.014
    5  0.008  0.009  0.000  0.017
    6  0.007  0.014  0.000  0.021
    7  0.015  0.013  0.000  0.029
    8  0.017  0.019  0.000  0.036
    9  0.007  0.000  0.000  0.007
   10  0.003  0.004  0.000  0.008
   11  0.013  0.004  0.000  0.017
   12  0.002  0.026  0.000  0.028
   13  0.001  0.001  0.000  0.002
   14  0.000  0.005  0.000  0.006
   15  0.008  0.002  0.000  0.010
   16  0.008  0.011  0.000  0.019
tot    0.117  0.141  0.000  0.258
 
band    39 # energy    7.63283592 # occ.  0.00000000
 
ion      s      p      d    tot
    1  0.000  0.001  0.000  0.001
    2  0.002  0.025  0.000  0.028
    3  0.001  0.008  0.000  0.009
    4  0.005  0.006  0.000  0.011
    5  0.011  0.007  0.000  0.018
    6  0.008  0.009  0.000  0.017
    7  0.001  0.016  0.000  0.018
    8  0.002  0.011  0.000  0.013
    9  0.000  0.012  0.000  0.012
   10  0.003  0.029  0.000  0.032
   11  0.000  0.006  0.000  0.006
   12  0.000  0.005  0.000  0.005
   13  0.001  0.007  0.000  0.008
   14  0.001  0.008  0.000  0.009
   15  0.003  0.006  0.000  0.009
   16  0.004  0.015  0.000  0.019
tot    0.043  0.172  0.000  0.215
 
band    40 # energy    7.74905548 # occ.  0.00000000
 
ion      s      p      d    tot
    1  0.006  0.005  0.000  0.012
    2  0.019  0.012  0.000  0.031
    3  0.009  0.014  0.000  0.023
    4  0.000  0.012  0.000  0.012
    5  0.001  0.006  0.000  0.007
    6  0.002  0.001  0.000  0.003
    7  0.001  0.002  0.000  0.003
    8  0.002  0.017  0.000  0.019
    9  0.006  0.006  0.000  0.012
   10  0.022  0.007  0.000  0.029
   11  0.000  0.015  0.000  0.015
   12  0.000  0.004  0.000  0.004
   13  0.001  0.002  0.000  0.003
   14  0.004  0.009  0.000  0.013
   15  0.001  0.005  0.000  0.005
   16  0.000  0.017  0.000  0.018
tot    0.075  0.132  0.000  0.207
 
band    41 # energy    8.02326116 # occ.  0.00000000
 
ion      s      p      d    tot
    1  0.000  0.001  0.000  0.001
    2  0.019  0.001  0.000  0.020
    3  0.000  0.014  0.000  0.014
    4  0.000  0.007  0.000  0.008
    5  0.007  0.006  0.000  0.013
    6  0.002  0.016  0.000  0.018
    7  0.001  0.010  0.000  0.012
    8  0.000  0.002  0.000  0.002
    9  0.001  0.015  0.000  0.016
   10  0.045  0.015  0.000  0.060
   11  0.001  0.011  0.000  0.012
   12  0.005  0.006  0.000  0.011
   13  0.001  0.022  0.000  0.023
   14  0.000  0.014  0.000  0.015
   15  0.004  0.013  0.000  0.017
   16  0.021  0.028  0.000  0.048
tot    0.108  0.182  0.000  0.291
 
band    42 # energy    8.21202620 # occ.  0.00000000
 
ion      s      p      d    tot
    1  0.000  0.012  0.000  0.012
    2  0.008  0.004  0.000  0.012
    3  0.001  0.019  0.000  0.019
    4  0.000  0.009  0.000  0.009
    5  0.022  0.006  0.000  0.028
    6  0.012  0.005  0.000  0.017
    7  0.005  0.011  0.000  0.016
    8  0.005  0.004  0.000  0.008
    9  0.028  0.007  0.000  0.035
   10  0.007  0.000  0.000  0.007
   11  0.003  0.020  0.000  0.022
   12  0.000  0.001  0.000  0.002
   13  0.000  0.011  0.000  0.011
   14  0.002  0.013  0.000  0.016
   15  0.009  0.008  0.000  0.017
   16  0.000  0.006  0.000  0.006
tot    0.102  0.135  0.000  0.238
 

 k-point     2 :    0.33333333-0.00000000 0.00000000     weight = 0.07407407

band     1 # energy   -9.48484715 # occ.  2.00000000
 
ion      s      p      d    tot
    1  0.001  0.001  0.000  0.002
    2  0.001  0.000  0.000  0.002
    3  0.004  0.001  0.000  0.005
    4  0.001  0.000  0.000  0.001
    5  0.011  0.002  0.000  0.013
    6  0.000  0.000  0.000  0.000
    7  0.001  0.000  0.000  0.001
    8  0.001  0.000  0.000  0.002
    9  0.001  0.001  0.000  0.002
   10  0.021  0.001  0.000  0.022
   11  0.062  0.001  0.000  0.063
   12  0.117  0.001  0.000  0.118
   13  0.013  0.000  0.000  0.014
   14  0.139  0.001  0.000  0.140
   15  0.078  0.000  0.000  0.078
   16  0.140  0.002  0.000  0.142
tot    0.593  0.012  0.000  0.605
 
band     2 # energy   -8.96992892 # occ.  2.00000000
 
ion      s      p      d    tot
    1  0.001  0.001  0.000  0.002
    2  0.006  0.002  0.000  0.007
    3  0.001  0.001  0.000  0.002
    4  0.000  0.001  0.000  0.001
    5  0.005  0.003  0.000  0.008
    6  0.000  0.000  0.000  0.000
    7  0.001  0.000  0.000  0.001
    8  0.002  0.001  0.000  0.003
    9  0.000  0.000  0.000  0.001
   10  0.006  0.004  0.000  0.010
   11  0.264  0.001  0.000  0.265
   12  0.095  0.000  0.000  0.095
   13  0.095  0.000  0.000  0.095
   14  0.063  0.000  0.000  0.063
   15  0.031  0.000  0.000  0.032
   16  0.048  0.001  0.000  0.049
tot    0.618  0.016  0.000  0.633
 
band     3 # energy   -8.70979193 # occ.  2.00000000
 
ion      s      p      d    tot
    1  0.001  0.002  0.000  0.002
    2  0.002  0.001  0.000  0.003
    3  0.002  0.002  0.000  0.004
    4  0.007  0.002  0.000  0.009
    5  0.001  0.003  0.000  0.004
    6  0.000  0.000  0.000  0.000
    7  0.001  0.000  0.000  0.001
    8  0.001  0.001  0.000  0.002
    9  0.000  0.000  0.000  0.000