 running on   14 total cores
 distrk:  each k-point on   14 cores,    1 groups
 distr:  one band on    1 cores,   14 groups
 using from now: INCAR     
 vasp.5.4.4.18Apr17-6-g9f103f2a35 (build Oct 27 2022 13:04:57) complex          
  
 POSCAR found type information on POSCAR  Al Li S 
 POSCAR found :  3 types and      16 ions
 scaLAPACK will be used

 ----------------------------------------------------------------------------- 
|                                                                             |
|           W    W    AA    RRRRR   N    N  II  N    N   GGGG   !!!           |
|           W    W   A  A   R    R  NN   N  II  NN   N  G    G  !!!           |
|           W    W  A    A  R    R  N N  N  II  N N  N  G       !!!           |
|           W WW W  AAAAAA  RRRRR   N  N N  II  N  N N  G  GGG   !            |
|           WW  WW  A    A  R   R   N   NN  II  N   NN  G    G                |
|           W    W  A    A  R    R  N    N  II  N    N   GGGG   !!!           |
|                                                                             |
|      For optimal performance we recommend to set                            |
|        NCORE= 4 - approx SQRT( number of cores)                             |
|      NCORE specifies how many cores store one orbital (NPAR=cpu/NCORE).     |
|      This setting can  greatly improve the performance of VASP for DFT.     |
|      The default,   NCORE=1            might be grossly inefficient         |
|      on modern multi-core architectures or massively parallel machines.     |
|      Do your own testing !!!!                                               |
|      Unfortunately you need to use the default for GW and RPA calculations. |
|      (for HF NCORE is supported but not extensively tested yet)             |
|                                                                             |
 ----------------------------------------------------------------------------- 

 WARNING: type information on POSCAR and POTCAR are incompatible
 POTCAR overwrites the type information in POSCAR
 typ   1 type information:  Al Li
 WARNING: type information on POSCAR and POTCAR are incompatible
 POTCAR overwrites the type information in POSCAR
 typ   2 type information:  Li Al
 LDA part: xc-table for Pade appr. of Perdew
 POSCAR, INCAR and KPOINTS ok, starting setup
 FFT: planning ...
 WAVECAR not read
 entering main loop
       N       E                     dE             d eps       ncg     rms          rms(c)
DAV:   1     0.180322691602E+03    0.18032E+03   -0.18143E+04  1176   0.806E+02
DAV:   2    -0.516635397615E+02   -0.23199E+03   -0.22701E+03  1638   0.154E+02
DAV:   3    -0.699745870141E+02   -0.18311E+02   -0.18238E+02  1568   0.485E+01
DAV:   4    -0.702927322223E+02   -0.31815E+00   -0.31799E+00  1526   0.776E+00
DAV:   5    -0.703008854341E+02   -0.81532E-02   -0.81511E-02  1596   0.117E+00    0.157E+01
DAV:   6    -0.686880229863E+02    0.16129E+01   -0.34475E+00  1498   0.586E+00    0.108E+01
DAV:   7    -0.685190664908E+02    0.16896E+00   -0.16814E+00  1568   0.422E+00    0.362E+00
DAV:   8    -0.684992117887E+02    0.19855E-01   -0.21615E-01  1484   0.172E+00    0.950E-01
DAV:   9    -0.685015491249E+02   -0.23373E-02   -0.22157E-02  1568   0.613E-01    0.371E-01
DAV:  10    -0.685022306939E+02   -0.68157E-03   -0.20288E-03  1568   0.167E-01    0.139E-01
DAV:  11    -0.685025379635E+02   -0.30727E-03   -0.24983E-04  1246   0.714E-02    0.640E-02
DAV:  12    -0.685026491775E+02   -0.11121E-03   -0.15374E-04  1176   0.507E-02    0.292E-02
DAV:  13    -0.685026902988E+02   -0.41121E-04   -0.53610E-05  1120   0.296E-02
   1 F= -.68502690E+02 E0= -.68502690E+02  d E =-.685027E+02
 curvature:   0.00 expect dE= 0.000E+00 dE for cont linesearch  0.000E+00
 trial: gam= 0.00000 g(F)=  0.415E-03 g(S)=  0.255E-02 ort = 0.000E+00 (trialstep = 0.100E+01)
 search vector abs. value=  0.296E-02
 bond charge predicted
       N       E                     dE             d eps       ncg     rms          rms(c)
DAV:   1    -0.685057502700E+02   -0.31011E-02   -0.17491E-02  1526   0.484E-01    0.122E-01
DAV:   2    -0.685055485273E+02    0.20174E-03   -0.85456E-04  1554   0.123E-01    0.523E-02
DAV:   3    -0.685054741887E+02    0.74339E-04   -0.16560E-04  1092   0.487E-02
   2 F= -.68505474E+02 E0= -.68505474E+02  d E =-.278389E-02
 ZBRENT: can't locate minimum, use default step
 trial-energy change:   -0.002784  1 .order   -0.002849   -0.002963   -0.002735
 step:   4.0000(harm= 12.9733)  dis= 0.00291  next Energy=   -68.521910 (dE=-0.192E-01)
 bond charge predicted
       N       E                     dE             d eps       ncg     rms          rms(c)
DAV:   1    -0.685140651640E+02   -0.85166E-02   -0.15369E-01  1526   0.143E+00    0.353E-01
DAV:   2    -0.685122325183E+02    0.18326E-02   -0.73117E-03  1540   0.361E-01    0.149E-01
DAV:   3    -0.685115679061E+02    0.66461E-03   -0.16235E-03  1568   0.145E-01    0.783E-02
DAV:   4    -0.685114439844E+02    0.12392E-03   -0.34067E-04  1386   0.727E-02    0.433E-02
DAV:   5    -0.685114299207E+02    0.14064E-04   -0.61025E-05  1022   0.317E-02
   3 F= -.68511430E+02 E0= -.68511430E+02  d E =-.873962E-02
 curvature:  -2.84 expect dE=-0.267E-02 dE for cont linesearch -0.199E-02
 ZBRENT: increasing intervall
 opt :  10.0000  next Energy=   -68.512297 (dE=-0.961E-02)
 bond charge predicted
       N       E                     dE             d eps       ncg     rms          rms(c)
DAV:   1    -0.685230069569E+02   -0.11563E-01   -0.62075E-01  1484   0.287E+00    0.701E-01
DAV:   2    -0.685160441887E+02    0.69628E-02   -0.30037E-02  1540   0.732E-01    0.300E-01
DAV:   3    -0.685135067907E+02    0.25374E-02   -0.62530E-03  1568   0.285E-01    0.158E-01
DAV:   4    -0.685130332497E+02    0.47354E-03   -0.14302E-03  1568   0.145E-01    0.817E-02
DAV:   5    -0.685129772932E+02    0.55957E-04   -0.16292E-04  1176   0.539E-02
   4 F= -.68512977E+02 E0= -.68512977E+02  d E =-.102870E-01
 curvature:  -1.24 expect dE=-0.208E-02 dE for cont linesearch -0.267E-03
 ZBRENT: bracketing found
 ZBRENT: interpolating
 opt :   7.8593  next Energy=   -68.513832 (dE=-0.111E-01)
 bond charge predicted
       N       E                     dE             d eps       ncg     rms          rms(c)
DAV:   1    -0.685152627710E+02   -0.22295E-02   -0.80263E-02  1428   0.103E+00    0.255E-01
DAV:   2    -0.685143417448E+02    0.92103E-03   -0.39170E-03  1540   0.265E-01    0.114E-01
DAV:   3    -0.685140185440E+02    0.32320E-03   -0.82213E-04  1568   0.103E-01    0.587E-02
DAV:   4    -0.685139621919E+02    0.56352E-04   -0.15041E-04  1050   0.507E-02
   5 F= -.68513962E+02 E0= -.68513962E+02  d E =-.112719E-01
 curvature:  -3.97 expect dE=-0.384E-02 dE for cont linesearch -0.479E-04
 trial: gam= 0.38972 g(F)=  0.729E-03 g(S)=  0.237E-03 ort =-0.189E-03 (trialstep = 0.237E+01)
 search vector abs. value=  0.127E-02
 bond charge predicted
       N       E                     dE             d eps       ncg     rms          rms(c)
DAV:   1    -0.685160372469E+02   -0.20187E-02   -0.32931E-02  1302   0.668E-01    0.137E-01
DAV:   2    -0.685159605747E+02    0.76672E-04   -0.20472E-03  1568   0.184E-01    0.618E-02
DAV:   3    -0.685159028846E+02    0.57690E-04   -0.12141E-04  1064   0.472E-02
   6 F= -.68515903E+02 E0= -.68515903E+02  d E =-.194069E-02
 ZBRENT: can't locate minimum, use default step
 trial-energy change:   -0.001941  1 .order   -0.001973   -0.002116   -0.001831
 step:   9.4875(harm= 17.6269)  dis= 0.00987  next Energy=   -68.521824 (dE=-0.786E-02)
 bond charge predicted
       N       E                     dE             d eps       ncg     rms          rms(c)
DAV:   1    -0.685198888590E+02   -0.39283E-02   -0.28830E-01  1302   0.197E+00    0.416E-01
DAV:   2    -0.685190326690E+02    0.85619E-03   -0.17847E-02  1568   0.541E-01    0.186E-01
DAV:   3    -0.685184889860E+02    0.54368E-03   -0.12355E-03  1512   0.140E-01    0.118E-01
DAV:   4    -0.685183054576E+02    0.18353E-03   -0.33169E-04  1372   0.718E-02    0.505E-02
DAV:   5    -0.685182846971E+02    0.20761E-04   -0.10344E-04  1050   0.407E-02
   7 F= -.68518285E+02 E0= -.68518285E+02  d E =-.432251E-02
 curvature:  -8.96 expect dE=-0.304E-02 dE for cont linesearch -0.954E-08
 trial: gam= 0.30540 g(F)=  0.258E-03 g(S)=  0.810E-04 ort =-0.116E-05 (trialstep = 0.379E+01)
 search vector abs. value=  0.457E-03
 bond charge predicted
       N       E                     dE             d eps       ncg     rms          rms(c)
DAV:   1    -0.685192451289E+02   -0.93967E-03   -0.29335E-02  1274   0.632E-01    0.144E-01
DAV:   2    -0.685193055462E+02   -0.60417E-04   -0.22392E-03  1568   0.184E-01    0.722E-02
DAV:   3    -0.685192814364E+02    0.24110E-04   -0.89252E-05  1050   0.405E-02
   8 F= -.68519281E+02 E0= -.68519281E+02  d E =-.996739E-03
 trial-energy change:   -0.000997  1 .order   -0.001027   -0.001287   -0.000767
 step:   9.3926(harm=  9.3926)  dis= 0.00621  next Energy=   -68.519877 (dE=-0.159E-02)
 reached required accuracy - stopping structural energy minimisation
