<?xml version="1.0" encoding="ISO-8859-1"?>
<modeling>
 <generator>
  <i name="program" type="string">vasp </i>
  <i name="version" type="string">5.4.4.18Apr17-6-g9f103f2a35  </i>
  <i name="subversion" type="string">(build Oct 27 2022 13:04:57) complex            parallel </i>
  <i name="platform" type="string">LinuxIFC </i>
  <i name="date" type="string">2024 07 04 </i>
  <i name="time" type="string">11:03:50 </i>
 </generator>
 <incar>
  <i type="string" name="SYSTEM"> CIS</i>
  <i type="int" name="ISTART">     0</i>
  <i type="string" name="PREC">medium</i>
  <i type="int" name="ICHARG">     2</i>
  <i type="int" name="IBRION">     2</i>
  <i name="EDIFF">      0.00010000</i>
  <i name="EDIFFG">     -0.05000000</i>
  <i type="int" name="NSW">    99</i>
  <i type="int" name="ISIF">     3</i>
  <i name="ENCUT">    300.00000000</i>
  <i name="POTIM">      0.10000000</i>
  <i type="string" name="LREAL"> Auto</i>
  <i type="int" name="ISMEAR">     0</i>
  <i name="SIGMA">      0.05000000</i>
  <i type="int" name="LMAXMIX">     4</i>
  <i type="logical" name="LWAVE"> F  </i>
  <i type="logical" name="LCHARG"> F  </i>
  <i type="int" name="LORBIT">    10</i>
  <i type="logical" name="LASPH"> T  </i>
  <v type="int" name="KPOINT_BSE">    -1     0     0     0</v>
  <i type="logical" name="LASPH"> T  </i>
 </incar>
 <structure name="primitive_cell" >
  <crystal>
   <varray name="basis" >
    <v>       7.65981161       0.63574508      -0.15886482 </v>
    <v>       4.37549386       7.85255553      -1.15702526 </v>
    <v>       3.70505129       1.49117096       5.59145442 </v>
   </varray>
   <i name="volume">    334.84299741 </i>
   <varray name="rec_basis" >
    <v>       0.13628037      -0.08586774      -0.06740327 </v>
    <v>      -0.01132362       0.12966701      -0.02707723 </v>
    <v>       0.00152884       0.02439198       0.17132626 </v>
   </varray>
  </crystal>
  <varray name="positions" >
   <v>       0.46818688       0.41969225      -0.47198752 </v>
   <v>      -0.43486533      -0.41323378       0.17066563 </v>
   <v>      -0.40772818      -0.44656423      -0.35725442 </v>
   <v>      -0.39282663       0.10801645      -0.34196426 </v>
   <v>       0.04472006      -0.41132942      -0.34001488 </v>
   <v>       0.40459147       0.25663915       0.21436516 </v>
   <v>      -0.38162765       0.40274537      -0.02987440 </v>
   <v>       0.22540454       0.15535927      -0.03128741 </v>
   <v>      -0.04217619       0.49842435       0.05074119 </v>
   <v>       0.01029279       0.45089812       0.46090096 </v>
   <v>      -0.02189630      -0.12135102      -0.36048799 </v>
   <v>      -0.41071209      -0.00647966       0.40972601 </v>
   <v>       0.22038574      -0.14113710       0.18060671 </v>
   <v>       0.29795431      -0.13256000      -0.27564077 </v>
   <v>       0.00262763       0.21315138      -0.23562922 </v>
   <v>      -0.02583105      -0.22036914       0.09943421 </v>
  </varray>
 </structure>
 <varray name="primitive_index" >
  <v type="int" >        1 </v>
  <v type="int" >       12 </v>
  <v type="int" >       14 </v>
  <v type="int" >       13 </v>
  <v type="int" >       15 </v>
  <v type="int" >       11 </v>
  <v type="int" >       10 </v>
  <v type="int" >        8 </v>
  <v type="int" >        3 </v>
  <v type="int" >        5 </v>
  <v type="int" >        4 </v>
  <v type="int" >        2 </v>
  <v type="int" >        7 </v>
  <v type="int" >        9 </v>
  <v type="int" >       16 </v>
  <v type="int" >        6 </v>
 </varray>
 <kpoints>
  <generation param="Monkhorst-Pack">
   <v type="int" name="divisions">       3        3        3 </v>
   <v name="usershift">      0.00000000       0.00000000       0.00000000 </v>
   <v name="genvec1">      0.33333333      -0.00000000       0.00000000 </v>
   <v name="genvec2">      0.00000000       0.33333333       0.00000000 </v>
   <v name="genvec3">      0.00000000       0.00000000       0.33333333 </v>
   <v name="shift">      0.00000000       0.00000000       0.00000000 </v>
  </generation>
  <varray name="kpointlist" >
   <v>       0.00000000       0.00000000       0.00000000 </v>
   <v>       0.33333333      -0.00000000       0.00000000 </v>
   <v>       0.00000000       0.33333333       0.00000000 </v>
   <v>       0.33333333       0.33333333       0.00000000 </v>
   <v>      -0.33333333       0.33333333       0.00000000 </v>
   <v>       0.00000000       0.00000000       0.33333333 </v>
   <v>       0.33333333       0.00000000       0.33333333 </v>
   <v>      -0.33333333       0.00000000       0.33333333 </v>
   <v>       0.00000000       0.33333333       0.33333333 </v>
   <v>       0.33333333       0.33333333       0.33333333 </v>
   <v>      -0.33333333       0.33333333       0.33333333 </v>
   <v>       0.00000000      -0.33333333       0.33333333 </v>
   <v>       0.33333333      -0.33333333       0.33333333 </v>
   <v>      -0.33333333      -0.33333333       0.33333333 </v>
  </varray>
  <varray name="weights" >
   <v>       0.03703704 </v>
   <v>       0.07407407 </v>
   <v>       0.07407407 </v>
   <v>       0.07407407 </v>
   <v>       0.07407407 </v>
   <v>       0.07407407 </v>
   <v>       0.07407407 </v>
   <v>       0.07407407 </v>
   <v>       0.07407407 </v>
   <v>       0.07407407 </v>
   <v>       0.07407407 </v>
   <v>       0.07407407 </v>
   <v>       0.07407407 </v>
   <v>       0.07407407 </v>
  </varray>
 </kpoints>
 <parameters>
  <separator name="general" >
   <i type="string" name="SYSTEM">CIS</i>
   <i type="logical" name="LCOMPAT"> F  </i>
  </separator>
  <separator name="electronic" >
   <i type="string" name="PREC">medium</i>
   <i name="ENMAX">    300.00000000</i>
   <i name="ENAUG">    335.09200000</i>
   <i name="EDIFF">      0.00010000</i>
   <i type="int" name="IALGO">    38</i>
   <i type="int" name="IWAVPR">    11</i>
   <i type="int" name="NBANDS">    42</i>
   <i name="NELECT">     64.00000000</i>
   <i type="int" name="TURBO">     0</i>
   <i type="int" name="IRESTART">     0</i>
   <i type="int" name="NREBOOT">     0</i>
   <i type="int" name="NMIN">     0</i>
   <i name="EREF">      0.00000000</i>
   <separator name="electronic smearing" >
    <i type="int" name="ISMEAR">     0</i>
    <i name="SIGMA">      0.05000000</i>
    <i name="KSPACING">      0.50000000</i>
    <i type="logical" name="KGAMMA"> T  </i>
   </separator>
   <separator name="electronic projectors" >
    <i type="logical" name="LREAL"> T  </i>
    <v name="ROPT">     -0.00200000     -0.00200000     -0.00200000</v>
    <i type="int" name="LMAXPAW">  -100</i>
    <i type="int" name="LMAXMIX">     4</i>
    <i type="logical" name="NLSPLINE"> F  </i>
   </separator>
   <separator name="electronic startup" >
    <i type="int" name="ISTART">     0</i>
    <i type="int" name="ICHARG">     2</i>
    <i type="int" name="INIWAV">     1</i>
   </separator>
   <separator name="electronic spin" >
    <i type="int" name="ISPIN">     1</i>
    <i type="logical" name="LNONCOLLINEAR"> F  </i>
    <v name="MAGMOM">      1.00000000      1.00000000      1.00000000      1.00000000      1.00000000      1.00000000      1.00000000      1.00000000      1.00000000      1.00000000      1.00000000      1.00000000      1.00000000      1.00000000      1.00000000      1.00000000</v>
    <i name="NUPDOWN">     -1.00000000</i>
    <i type="logical" name="LSORBIT"> F  </i>
    <v name="SAXIS">      0.00000000      0.00000000      1.00000000</v>
    <i type="logical" name="LSPIRAL"> F  </i>
    <v name="QSPIRAL">      0.00000000      0.00000000      0.00000000</v>
    <i type="logical" name="LZEROZ"> F  </i>
   </separator>
   <separator name="electronic exchange-correlation" >
    <i type="logical" name="LASPH"> T  </i>
    <i type="logical" name="LMETAGGA"> F  </i>
   </separator>
   <separator name="electronic convergence" >
    <i type="int" name="NELM">    60</i>
    <i type="int" name="NELMDL">    -5</i>
    <i type="int" name="NELMIN">     2</i>
    <i name="ENINI">    300.00000000</i>
    <separator name="electronic convergence detail" >
     <i type="logical" name="LDIAG"> T  </i>
     <i type="logical" name="LSUBROT"> F  </i>
     <i name="WEIMIN">      0.00100000</i>
     <i name="EBREAK">      0.00000060</i>
     <i name="DEPER">      0.30000000</i>
     <i type="int" name="NRMM">     4</i>
     <i name="TIME">      0.40000000</i>
    </separator>
   </separator>
   <separator name="electronic mixer" >
    <i name="AMIX">      0.40000000</i>
    <i name="BMIX">      1.00000000</i>
    <i name="AMIN">      0.10000000</i>
    <i name="AMIX_MAG">      1.60000000</i>
    <i name="BMIX_MAG">      1.00000000</i>
    <separator name="electronic mixer details" >
     <i type="int" name="IMIX">     4</i>
     <i type="logical" name="MIXFIRST"> F  </i>
     <i type="int" name="MAXMIX">   -45</i>
     <i name="WC">    100.00000000</i>
     <i type="int" name="INIMIX">     1</i>
     <i type="int" name="MIXPRE">     1</i>
     <i type="int" name="MREMOVE">     5</i>
    </separator>
   </separator>
   <separator name="electronic dipolcorrection" >
    <i type="logical" name="LDIPOL"> F  </i>
    <i type="logical" name="LMONO"> F  </i>
    <i type="int" name="IDIPOL">     0</i>
    <i name="EPSILON">      1.00000000</i>
    <v name="DIPOL">   -100.00000000   -100.00000000   -100.00000000</v>
    <i name="EFIELD">      0.00000000</i>
   </separator>
  </separator>
  <separator name="grids" >
   <i type="int" name="NGX">    36</i>
   <i type="int" name="NGY">    40</i>
   <i type="int" name="NGZ">    30</i>
   <i type="int" name="NGXF">    48</i>
   <i type="int" name="NGYF">    54</i>
   <i type="int" name="NGZF">    42</i>
   <i type="logical" name="ADDGRID"> F  </i>
  </separator>
  <separator name="ionic" >
   <i type="int" name="NSW">    99</i>
   <i type="int" name="IBRION">     2</i>
   <i type="int" name="MDALGO">     0</i>
   <i type="int" name="ISIF">     3</i>
   <i name="PSTRESS">      0.00000000</i>
   <i name="EDIFFG">     -0.05000000</i>
   <i type="int" name="NFREE">     1</i>
   <i name="POTIM">      0.10000000</i>
   <i name="SMASS">     -3.00000000</i>
   <i name="SCALEE">      1.00000000</i>
  </separator>
  <separator name="ionic md" >
   <i name="TEBEG">      0.00010000</i>
   <i name="TEEND">      0.00010000</i>
   <i type="int" name="NBLOCK">     1</i>
   <i type="int" name="KBLOCK">    99</i>
   <i type="int" name="NPACO">   256</i>
   <i name="APACO">     16.00000000</i>
  </separator>
  <separator name="symmetry" >
   <i type="int" name="ISYM">     2</i>
   <i name="SYMPREC">      0.00001000</i>
  </separator>
  <separator name="dos" >
   <i type="int" name="LORBIT">    10</i>
   <v name="RWIGS">     -1.00000000     -1.00000000     -1.00000000</v>
   <i type="int" name="NEDOS">   301</i>
   <i name="EMIN">     10.00000000</i>
   <i name="EMAX">    -10.00000000</i>
   <i name="EFERMI">      0.00000000</i>
  </separator>
  <separator name="writing" >
   <i type="int" name="NWRITE">     2</i>
   <i type="logical" name="LWAVE"> F  </i>
   <i type="logical" name="LDOWNSAMPLE"> F  </i>
   <i type="logical" name="LCHARG"> F  </i>
   <i type="logical" name="LPARD"> F  </i>
   <i type="logical" name="LVTOT"> F  </i>
   <i type="logical" name="LVHAR"> F  </i>
   <i type="logical" name="LELF"> F  </i>
   <i type="logical" name="LOPTICS"> F  </i>
   <v name="STM">      0.00000000      0.00000000      0.00000000      0.00000000      0.00000000      0.00000000      0.00000000</v>
  </separator>
  <separator name="performance" >
   <i type="int" name="NPAR">    14</i>
   <i type="int" name="NSIM">     4</i>
   <i type="int" name="NBLK">    -1</i>
   <i type="logical" name="LPLANE"> T  </i>
   <i type="logical" name="LSCALAPACK"> T  </i>
   <i type="logical" name="LSCAAWARE"> F  </i>
   <i type="logical" name="LSCALU"> F  </i>
   <i type="logical" name="LASYNC"> F  </i>
   <i type="logical" name="LORBITALREAL"> F  </i>
  </separator>
  <separator name="miscellaneous" >
   <i type="int" name="IDIOT">     3</i>
   <i type="int" name="ISPECIAL">     0</i>
   <i type="logical" name="LMUSIC"> F  </i>
   <v name="POMASS">      7.01000000     26.98100000     32.06600000</v>
   <v name="DARWINR">      0.00000000      0.00000000      0.00000000</v>
   <v name="DARWINV">      1.00000000      1.00000000      1.00000000</v>
   <i type="logical" name="LCORR"> T  </i>
  </separator>
  <i type="logical" name="GGA_COMPAT"> T  </i>
  <i type="logical" name="LBERRY"> F  </i>
  <i type="int" name="ICORELEVEL">     0</i>
  <i type="logical" name="LDAU"> F  </i>
  <i type="int" name="I_CONSTRAINED_M">     0</i>
  <separator name="electronic exchange-correlation" >
   <i type="string" name="GGA">--</i>
   <i type="int" name="VOSKOWN">     0</i>
   <i type="logical" name="LHFCALC"> F  </i>
   <i type="string" name="PRECFOCK"></i>
   <i type="logical" name="LSYMGRAD"> F  </i>
   <i type="logical" name="LHFONE"> F  </i>
   <i type="logical" name="LRHFCALC"> F  </i>
   <i type="logical" name="LTHOMAS"> F  </i>
   <i type="logical" name="LMODELHF"> F  </i>
   <i name="ENCUT4O">     -1.00000000</i>
   <i type="int" name="EXXOEP">     0</i>
   <i type="int" name="FOURORBIT">     0</i>
   <i name="AEXX">      0.00000000</i>
   <i name="HFALPHA">      0.00000000</i>
   <i name="MCALPHA">      0.00000000</i>
   <i name="ALDAX">      1.00000000</i>
   <i name="AGGAX">      1.00000000</i>
   <i name="ALDAC">      1.00000000</i>
   <i name="AGGAC">      1.00000000</i>
   <i type="int" name="NKREDX">     1</i>
   <i type="int" name="NKREDY">     1</i>
   <i type="int" name="NKREDZ">     1</i>
   <i type="logical" name="SHIFTRED"> F  </i>
   <i type="logical" name="ODDONLY"> F  </i>
   <i type="logical" name="EVENONLY"> F  </i>
   <i type="int" name="LMAXFOCK">     0</i>
   <i type="int" name="NMAXFOCKAE">     0</i>
   <i type="logical" name="LFOCKAEDFT"> F  </i>
   <i name="HFSCREEN">      0.00000000</i>
   <i name="HFSCREENC">      0.00000000</i>
   <i type="int" name="NBANDSGWLOW">     0</i>
  </separator>
  <separator name="vdW DFT" >
   <i type="logical" name="LUSE_VDW"> F  </i>
   <i name="Zab_VDW">     -0.84910000</i>
   <i name="PARAM1">      0.12340000</i>
   <i name="PARAM2">      1.00000000</i>
   <i name="PARAM3">      0.00000000</i>
  </separator>
  <separator name="model GW" >
   <i type="int" name="MODEL_GW">     0</i>
   <i name="MODEL_EPS0">     12.55661240</i>
   <i name="MODEL_ALPHA">      1.00000000</i>
  </separator>
  <separator name="linear response parameters" >
   <i type="logical" name="LEPSILON"> F  </i>
   <i type="logical" name="LRPA"> F  </i>
   <i type="logical" name="LNABLA"> F  </i>
   <i type="logical" name="LVEL"> F  </i>
   <i type="int" name="KINTER">     0</i>
   <i name="CSHIFT">      0.10000000</i>
   <i name="OMEGAMAX">     -1.00000000</i>
   <i name="DEG_THRESHOLD">      0.00200000</i>
   <i name="RTIME">     -0.10000000</i>
   <i name="WPLASMAI">      0.00000000</i>
   <v name="DFIELD">      0.00000000      0.00000000      0.00000000</v>
   <v name="WPLASMA">      0.00000000      0.00000000      0.00000000      0.00000000      0.00000000      0.00000000      0.00000000      0.00000000      0.00000000</v>
  </separator>
  <separator name="orbital magnetization" >
   <i type="logical" name="NUCIND"> F  </i>
   <v name="MAGPOS">      0.00000000      0.00000000      0.00000000</v>
   <i type="logical" name="LNICSALL"> T  </i>
   <i type="logical" name="ORBITALMAG"> F  </i>
   <i type="logical" name="LMAGBLOCH"> F  </i>
   <i type="logical" name="LCHIMAG"> F  </i>
   <i type="logical" name="LGAUGE"> T  </i>
   <i type="int" name="MAGATOM">     0</i>
   <v name="MAGDIPOL">      0.00000000      0.00000000      0.00000000</v>
   <v name="AVECCONST">      0.00000000      0.00000000      0.00000000</v>
  </separator>
  <separator name="response functions" >
   <i type="logical" name="LADDER"> F  </i>
   <i type="logical" name="LRPAFORCE"> F  </i>
   <i type="logical" name="LFXC"> F  </i>
   <i type="logical" name="LHARTREE"> T  </i>
   <i type="int" name="IBSE">     0</i>
   <v type="int" name="KPOINT">    -1     0     0     0</v>
   <i type="logical" name="LTCTE"> F  </i>
   <i type="logical" name="LTETE"> F  </i>
   <i type="logical" name="LTRIPLET"> F  </i>
   <i type="logical" name="LFXCEPS"> F  </i>
   <i type="logical" name="LFXHEG"> F  </i>
   <i type="int" name="NATURALO">     2</i>
   <i type="logical" name="L2ORDER"> F  </i>
   <i type="logical" name="LMP2LT"> F  </i>
   <i type="logical" name="LUSEW"> F  </i>
   <i name="ENCUTGW">     -2.00000000</i>
   <i name="ENCUTGWSOFT">     -2.00000000</i>
   <i name="ENCUTLF">     -1.00000000</i>
   <i type="int" name="LMAXMP2">    -1</i>
   <i name="SCISSOR">      0.00000000</i>
   <i type="int" name="NOMEGA">     0</i>
   <i type="int" name="NOMEGAR">     0</i>
   <i type="int" name="NBANDSGW">    -1</i>
   <i type="int" name="NBANDSO">    -1</i>
   <i type="int" name="NBANDSV">    -1</i>
   <i type="int" name="NELM">     1</i>
   <i type="int" name="NELMHF">     1</i>
   <i type="int" name="DIM">     3</i>
   <i type="int" name="ANTIRES">     0</i>
   <i name="OMEGAMAX">    -30.00000000</i>
   <i name="OMEGAMIN">    -30.00000000</i>
   <i name="OMEGATL">   -200.00000000</i>
   <i type="int" name="OMEGAGRID">   140</i>
   <i name="CSHIFT">     -0.10000000</i>
   <i type="logical" name="SELFENERGY"> F  </i>
   <i type="logical" name="LSPECTRAL"> F  </i>
   <i type="logical" name="LSPECTRALGW"> F  </i>
   <i type="logical" name="LSINGLES"> F  </i>
   <i type="logical" name="LFERMIGW"> F  </i>
   <i type="logical" name="ODDONLYGW"> F  </i>
   <i type="logical" name="EVENONLYGW"> F  </i>
   <i type="int" name="NKREDLFX">     1</i>
   <i type="int" name="NKREDLFY">     1</i>
   <i type="int" name="NKREDLFZ">     1</i>
   <i type="int" name="MAXMEM">  2800</i>
   <i type="int" name="TELESCOPE">     0</i>
   <i type="int" name="TAUPAR">     1</i>
   <i type="int" name="OMEGAPAR">    -1</i>
   <i name="LAMBDA">      1.00000000</i>
  </separator>
  <separator name="External order field" >
   <i name="OFIELD_KAPPA">      0.00000000</i>
   <v name="OFIELD_K">      0.00000000      0.00000000      0.00000000</v>
   <i name="OFIELD_Q6_NEAR">      0.00000000</i>
   <i name="OFIELD_Q6_FAR">      0.00000000</i>
   <i name="OFIELD_A">      0.00000000</i>
  </separator>
 </parameters>
 <atominfo>
  <atoms>      16 </atoms>
  <types>       3 </types>
  <array name="atoms" >
   <dimension dim="1">ion</dimension>
   <field type="string">element</field>
   <field type="int">atomtype</field>
   <set>
    <rc><c>Li</c><c>   1</c></rc>
    <rc><c>Al</c><c>   2</c></rc>
    <rc><c>Al</c><c>   2</c></rc>
    <rc><c>Al</c><c>   2</c></rc>
    <rc><c>Al</c><c>   2</c></rc>
    <rc><c>Al</c><c>   2</c></rc>
    <rc><c>Al</c><c>   2</c></rc>
    <rc><c>Al</c><c>   2</c></rc>
    <rc><c>Al</c><c>   2</c></rc>
    <rc><c>Al</c><c>   2</c></rc>
    <rc><c>S </c><c>   3</c></rc>
    <rc><c>S </c><c>   3</c></rc>
    <rc><c>S </c><c>   3</c></rc>
    <rc><c>S </c><c>   3</c></rc>
    <rc><c>S </c><c>   3</c></rc>
    <rc><c>S </c><c>   3</c></rc>
   </set>
  </array>
  <array name="atomtypes" >
   <dimension dim="1">type</dimension>
   <field type="int">atomspertype</field>
   <field type="string">element</field>
   <field>mass</field>
   <field>valence</field>
   <field type="string">pseudopotential</field>
   <set>
    <rc><c>   1</c><c>Li</c><c>      7.01000000</c><c>      1.00000000</c><c>  PAW_PBE Li 17Jan2003                  </c></rc>
    <rc><c>   9</c><c>Al</c><c>     26.98100000</c><c>      3.00000000</c><c>  PAW_PBE Al 04Jan2001                  </c></rc>
    <rc><c>   6</c><c>S </c><c>     32.06600000</c><c>      6.00000000</c><c>  PAW_PBE S 06Sep2000                   </c></rc>
   </set>
  </array>
 </atominfo>
 <structure name="initialpos" >
  <crystal>
   <varray name="basis" >
    <v>       7.65981161       0.63574508      -0.15886482 </v>
    <v>       4.37549386       7.85255553      -1.15702526 </v>
    <v>       3.70505129       1.49117096       5.59145442 </v>
   </varray>
   <i name="volume">    334.84299741 </i>
   <varray name="rec_basis" >
    <v>       0.13628037      -0.08586774      -0.06740327 </v>
    <v>      -0.01132362       0.12966701      -0.02707723 </v>
    <v>       0.00152884       0.02439198       0.17132626 </v>
   </varray>
  </crystal>
  <varray name="positions" >
   <v>       0.46818688       0.41969225       0.52801248 </v>
   <v>       0.58928791       0.99352034       0.40972601 </v>
   <v>       0.95782381       0.49842435       0.05074119 </v>
   <v>       0.97810370       0.87864898       0.63951201 </v>
   <v>       0.01029279       0.45089812       0.46090096 </v>
   <v>       0.97416895       0.77963086       0.09943421 </v>
   <v>       0.22038574       0.85886290       0.18060671 </v>
   <v>       0.22540454       0.15535927       0.96871259 </v>
   <v>       0.29795431       0.86744000       0.72435923 </v>
   <v>       0.61837235       0.40274537       0.97012560 </v>
   <v>       0.40459147       0.25663915       0.21436516 </v>
   <v>       0.56513467       0.58676622       0.17066563 </v>
   <v>       0.60717337       0.10801645       0.65803574 </v>
   <v>       0.59227182       0.55343577       0.64274558 </v>
   <v>       0.04472006       0.58867058       0.65998512 </v>
   <v>       0.00262763       0.21315138       0.76437078 </v>
  </varray>
 </structure>
 <calculation>
  <scstep>
   <time name="dav">    0.31    0.32</time>
   <time name="total">    0.41    0.44</time>
   <energy>
    <i name="alphaZ">     27.42569791 </i>
    <i name="ewald">  -1929.15534203 </i>
    <i name="hartreedc">   -371.07699680 </i>
    <i name="XCdc">   -169.10753519 </i>
    <i name="pawpsdc">   1908.36882167 </i>
    <i name="pawaedc">  -1596.07763481 </i>
    <i name="eentropy">     -0.00313068 </i>
    <i name="bandstr">    161.91806162 </i>
    <i name="atom">   2148.03074991 </i>
    <i name="e_fr_energy">    180.32269160 </i>
    <i name="e_wo_entrp">    180.32582228 </i>
    <i name="e_0_energy">    180.32425694 </i>
   </energy>
  </scstep>
  <scstep>
   <time name="dav">    0.40    0.41</time>
   <time name="total">    0.40    0.41</time>
   <energy>
    <i name="e_fr_energy">    -51.66353976 </i>
    <i name="e_wo_entrp">    -51.66353847 </i>
    <i name="e_0_energy">    -51.66353912 </i>
   </energy>
  </scstep>
  <scstep>
   <time name="dav">    0.46    0.46</time>
   <time name="total">    0.46    0.46</time>
   <energy>
    <i name="e_fr_energy">    -69.97458701 </i>
    <i name="e_wo_entrp">    -69.97458701 </i>
    <i name="e_0_energy">    -69.97458701 </i>
   </energy>
  </scstep>
  <scstep>
   <time name="dav">    0.44    0.44</time>
   <time name="total">    0.44    0.44</time>
   <energy>
    <i name="e_fr_energy">    -70.29273222 </i>
    <i name="e_wo_entrp">    -70.29273222 </i>
    <i name="e_0_energy">    -70.29273222 </i>
   </energy>
  </scstep>
  <scstep>
   <time name="dav">    0.49    0.50</time>
   <time name="total">    0.51    0.51</time>
   <energy>
    <i name="e_fr_energy">    -70.30088543 </i>
    <i name="e_wo_entrp">    -70.30088543 </i>
    <i name="e_0_energy">    -70.30088543 </i>
   </energy>
  </scstep>
  <scstep>
   <time name="dav">    0.50    0.50</time>
   <time name="total">    0.61    0.61</time>
   <energy>
    <i name="e_fr_energy">    -68.68802299 </i>
    <i name="e_wo_entrp">    -68.68802299 </i>
    <i name="e_0_energy">    -68.68802299 </i>
   </energy>
  </scstep>
  <scstep>
   <time name="dav">    0.52    0.52</time>
   <time name="total">    0.63    0.63</time>
   <energy>
    <i name="e_fr_energy">    -68.51906649 </i>
    <i name="e_wo_entrp">    -68.51906643 </i>
    <i name="e_0_energy">    -68.51906646 </i>
   </energy>
  </scstep>
  <scstep>
   <time name="dav">    0.46    0.46</time>
   <time name="total">    0.57    0.57</time>
   <energy>
    <i name="e_fr_energy">    -68.49921179 </i>
    <i name="e_wo_entrp">    -68.49921177 </i>
    <i name="e_0_energy">    -68.49921178 </i>
   </energy>
  </scstep>
  <scstep>
   <time name="dav">    0.37    0.37</time>
   <time name="total">    0.48    0.48</time>
   <energy>
    <i name="e_fr_energy">    -68.50154912 </i>
    <i name="e_wo_entrp">    -68.50154910 </i>
    <i name="e_0_energy">    -68.50154911 </i>
   </energy>
  </scstep>
  <scstep>
   <time name="dav">    0.42    0.42</time>
   <time name="total">    0.53    0.53</time>
   <energy>
    <i name="e_fr_energy">    -68.50223069 </i>
    <i name="e_wo_entrp">    -68.50223068 </i>
    <i name="e_0_energy">    -68.50223069 </i>
   </energy>
  </scstep>
  <scstep>
   <time name="dav">    0.46    0.46</time>
   <time name="total">    0.58    0.58</time>
   <energy>
    <i name="e_fr_energy">    -68.50253796 </i>
    <i name="e_wo_entrp">    -68.50253795 </i>
    <i name="e_0_energy">    -68.50253796 </i>
   </energy>
  </scstep>
  <scstep>
   <time name="dav">    0.34    0.34</time>
   <time name="total">    0.45    0.45</time>
   <energy>
    <i name="e_fr_energy">    -68.50264918 </i>
    <i name="e_wo_entrp">    -68.50264916 </i>
    <i name="e_0_energy">    -68.50264917 </i>
   </energy>
  </scstep>
  <scstep>
   <time name="dav">    0.37    0.37</time>
   <time name="total">    0.46    0.46</time>
   <energy>
    <i name="alphaZ">     27.42569791 </i>
    <i name="ewald">  -1929.15534203 </i>
    <i name="hartreedc">   -406.16399825 </i>
    <i name="XCdc">   -164.70400589 </i>
    <i name="pawpsdc">   5357.13412291 </i>
    <i name="pawaedc">  -5046.28543415 </i>
    <i name="eentropy">     -0.00000002 </i>
    <i name="bandstr">    -54.78448069 </i>
    <i name="atom">   2148.03074991 </i>
    <i name="e_fr_energy">    -68.50269030 </i>
    <i name="e_wo_entrp">    -68.50269028 </i>
    <i name="e_0_energy">    -68.50269029 </i>
   </energy>
  </scstep>
  <structure>
   <crystal>
    <varray name="basis" >
     <v>       7.65981161       0.63574508      -0.15886482 </v>
     <v>       4.37549386       7.85255553      -1.15702526 </v>
     <v>       3.70505129       1.49117096       5.59145442 </v>
    </varray>
    <i name="volume">    334.84299741 </i>
    <varray name="rec_basis" >
     <v>       0.13628037      -0.08586774      -0.06740327 </v>
     <v>      -0.01132362       0.12966701      -0.02707723 </v>
     <v>       0.00152884       0.02439198       0.17132626 </v>
    </varray>
   </crystal>
   <varray name="positions" >
    <v>       0.46818688       0.41969225       0.52801248 </v>
    <v>       0.58928791       0.99352034       0.40972601 </v>
    <v>       0.95782381       0.49842435       0.05074119 </v>
    <v>       0.97810370       0.87864898       0.63951201 </v>
    <v>       0.01029279       0.45089812       0.46090096 </v>
    <v>       0.97416895       0.77963086       0.09943421 </v>
    <v>       0.22038574       0.85886290       0.18060671 </v>
    <v>       0.22540454       0.15535927       0.96871259 </v>
    <v>       0.29795431       0.86744000       0.72435923 </v>
    <v>       0.61837235       0.40274537       0.97012560 </v>
    <v>       0.40459147       0.25663915       0.21436516 </v>
    <v>       0.56513467       0.58676622       0.17066563 </v>
    <v>       0.60717337       0.10801645       0.65803574 </v>
    <v>       0.59227182       0.55343577       0.64274558 </v>
    <v>       0.04472006       0.58867058       0.65998512 </v>
    <v>       0.00262763       0.21315138       0.76437078 </v>
   </varray>
  </structure>
  <varray name="forces" >
   <v>       0.00535844      -0.00401732       0.00306173 </v>
   <v>      -0.03586305       0.06573998       0.00313751 </v>
   <v>      -0.03248088      -0.01117059      -0.04534432 </v>
   <v>      -0.02737302       0.02173264      -0.02622872 </v>
   <v>      -0.01557872       0.00987101       0.00953128 </v>
   <v>      -0.00471262      -0.02985939      -0.00446729 </v>
   <v>       0.00968168      -0.08552214      -0.00593610 </v>
   <v>       0.02303914       0.07529307      -0.01609532 </v>
   <v>       0.05273176      -0.00291347      -0.01850659 </v>
   <v>       0.00093824      -0.00921784       0.01733179 </v>
   <v>      -0.00947895      -0.01367918       0.07043884 </v>
   <v>      -0.00787375       0.02875440      -0.01846577 </v>
   <v>       0.01264104      -0.03365801      -0.01390006 </v>
   <v>      -0.00048658      -0.00422312       0.03674375 </v>
   <v>       0.04187326      -0.01790392       0.03347914 </v>
   <v>      -0.01241600       0.01077388      -0.02477986 </v>
  </varray>
  <varray name="stress" >
   <v>      -0.12128697       4.04684897      -1.33021968 </v>
   <v>       4.04684940       5.15245658      -4.09486198 </v>
   <v>      -1.33022087      -4.09486220       0.59183178 </v>
  </varray>
  <energy>
   <i name="e_fr_energy">    -68.50269030 </i>
   <i name="e_wo_entrp">    -68.50269029 </i>
   <i name="e_0_energy">     -0.00000002 </i>
  </energy>
  <time name="totalsc">    7.25    7.34</time>
 </calculation>
 <calculation>
  <scstep>
   <time name="dav">    0.42    0.43</time>
   <time name="total">    0.54    0.59</time>
   <energy>
    <i name="alphaZ">     27.40629024 </i>
    <i name="ewald">  -1928.51035128 </i>
    <i name="hartreedc">   -406.21493181 </i>
    <i name="XCdc">   -164.72947369 </i>
    <i name="pawpsdc">   5357.18939102 </i>
    <i name="pawaedc">  -5046.34090816 </i>
    <i name="eentropy">     -0.00000001 </i>
    <i name="bandstr">    -55.33651648 </i>
    <i name="atom">   2148.03074991 </i>
    <i name="e_fr_energy">    -68.50575027 </i>
    <i name="e_wo_entrp">    -68.50575026 </i>
    <i name="e_0_energy">    -68.50575026 </i>
   </energy>
  </scstep>
  <scstep>
   <time name="dav">    0.49    0.50</time>
   <time name="total">    0.60    0.61</time>
   <energy>
    <i name="e_fr_energy">    -68.50554853 </i>
    <i name="e_wo_entrp">    -68.50554851 </i>
    <i name="e_0_energy">    -68.50554852 </i>
   </energy>
  </scstep>
  <scstep>
   <time name="dav">    0.41    0.42</time>
   <time name="total">    0.51    0.51</time>
   <energy>
    <i name="alphaZ">     27.40629024 </i>
    <i name="ewald">  -1928.51035128 </i>
    <i name="hartreedc">   -406.48623225 </i>
    <i name="XCdc">   -164.71746608 </i>
    <i name="pawpsdc">   5351.29198658 </i>
    <i name="pawaedc">  -5040.44446467 </i>
    <i name="eentropy">     -0.00000001 </i>
    <i name="bandstr">    -55.07598663 </i>
    <i name="atom">   2148.03074991 </i>
    <i name="e_fr_energy">    -68.50547419 </i>
    <i name="e_wo_entrp">    -68.50547418 </i>
    <i name="e_0_energy">    -68.50547418 </i>
   </energy>
  </scstep>
  <structure>
   <crystal>
    <varray name="basis" >
     <v>       7.66004540       0.64014657      -0.16048890 </v>
     <v>       4.37962592       7.86048338      -1.16189759 </v>
     <v>       3.70481779       1.49114333       5.59048078 </v>
    </varray>
    <i name="volume">    335.08011525 </i>
    <varray name="rec_basis" >
     <v>       0.13631497      -0.08591627      -0.06741972 </v>
     <v>      -0.01139441       0.12957474      -0.02701025 </v>
     <v>       0.00154511       0.02446372       0.17132636 </v>
    </varray>
   </crystal>
   <varray name="positions" >
    <v>       0.46819527       0.41968584       0.52801668 </v>
    <v>       0.58918425       0.99360569       0.40974614 </v>
    <v>       0.95781985       0.49842577       0.05066312 </v>
    <v>       0.97806675       0.87868601       0.63947336 </v>
    <v>       0.01025793       0.45090968       0.46091881 </v>
    <v>       0.97419040       0.77959518       0.09941973 </v>
    <v>       0.22047319       0.85875640       0.18057692 </v>
    <v>       0.22538293       0.15545516       0.96870404 </v>
    <v>       0.29803809       0.86743543       0.72432873 </v>
    <v>       0.61836995       0.40272921       0.97015209 </v>
    <v>       0.40454453       0.25660467       0.21447824 </v>
    <v>       0.56511250       0.58680788       0.17064175 </v>
    <v>       0.60722692       0.10797659       0.65800503 </v>
    <v>       0.59225078       0.55342094       0.64280532 </v>
    <v>       0.04476818       0.58863486       0.66003687 </v>
    <v>       0.00261850       0.21317269       0.76433217 </v>
   </varray>
  </structure>
  <varray name="forces" >
   <v>       0.00837309      -0.00349420       0.00101576 </v>
   <v>      -0.03503724       0.06104454       0.00468527 </v>
   <v>      -0.02684618      -0.00904448      -0.04460962 </v>
   <v>      -0.02485637       0.00858879      -0.02314354 </v>
   <v>      -0.01220203       0.01098375       0.01634423 </v>
   <v>      -0.00390489      -0.02939747      -0.00760809 </v>
   <v>       0.00945718      -0.06839321      -0.01598404 </v>
   <v>       0.01707082       0.06246170      -0.00522190 </v>
   <v>       0.05201702      -0.00233928      -0.01725494 </v>
   <v>      -0.00401748      -0.00666280       0.02740624 </v>
   <v>      -0.00721143      -0.01185894       0.06355882 </v>
   <v>      -0.00222617       0.02903127      -0.02189376 </v>
   <v>       0.01001056      -0.03473840      -0.01737981 </v>
   <v>      -0.00667181      -0.00083621       0.03689743 </v>
   <v>       0.03646518      -0.01294490       0.03052766 </v>
   <v>      -0.01042024       0.00759985      -0.02733970 </v>
  </varray>
  <varray name="stress" >
   <v>      -0.23947809       3.69891576      -1.22404974 </v>
   <v>       3.69891623       4.75544042      -3.86925080 </v>
   <v>      -1.22405033      -3.86925019       0.37808710 </v>
  </varray>
  <energy>
   <i name="e_fr_energy">    -68.50547419 </i>
   <i name="e_wo_entrp">    -68.50547418 </i>
   <i name="e_0_energy">     -0.00000001 </i>
  </energy>
  <time name="totalsc">    2.34    2.50</time>
 </calculation>
 <calculation>
  <scstep>
   <time name="dav">    0.46    0.47</time>
   <time name="total">    0.58    0.63</time>
   <energy>
    <i name="alphaZ">     27.34840087 </i>
    <i name="ewald">  -1926.57563663 </i>
    <i name="hartreedc">   -406.59981388 </i>
    <i name="XCdc">   -164.80108711 </i>
    <i name="pawpsdc">   5350.16394879 </i>
    <i name="pawaedc">  -5039.31474580 </i>
    <i name="eentropy">     -0.00000001 </i>
    <i name="bandstr">    -56.76588131 </i>
    <i name="atom">   2148.03074991 </i>
    <i name="e_fr_energy">    -68.51406516 </i>
    <i name="e_wo_entrp">    -68.51406516 </i>
    <i name="e_0_energy">    -68.51406516 </i>
   </energy>
  </scstep>
  <scstep>
   <time name="dav">    0.45    0.45</time>
   <time name="total">    0.56    0.56</time>
   <energy>
    <i name="e_fr_energy">    -68.51223252 </i>
    <i name="e_wo_entrp">    -68.51223251 </i>
    <i name="e_0_energy">    -68.51223252 </i>
   </energy>
  </scstep>
  <scstep>
   <time name="dav">    0.51    0.51</time>
   <time name="total">    0.62    0.62</time>
   <energy>
    <i name="e_fr_energy">    -68.51156791 </i>
    <i name="e_wo_entrp">    -68.51156790 </i>
    <i name="e_0_energy">    -68.51156790 </i>
   </energy>
  </scstep>
  <scstep>
   <time name="dav">    0.47    0.47</time>
   <time name="total">    0.58    0.58</time>
   <energy>
    <i name="e_fr_energy">    -68.51144398 </i>
    <i name="e_wo_entrp">    -68.51144398 </i>
    <i name="e_0_energy">    -68.51144398 </i>
   </energy>
  </scstep>
  <scstep>
   <time name="dav">    0.38    0.39</time>
   <time name="total">    0.48    0.48</time>
   <energy>
    <i name="alphaZ">     27.34840087 </i>
    <i name="ewald">  -1926.57563663 </i>
    <i name="hartreedc">   -407.43295664 </i>
    <i name="XCdc">   -164.76877139 </i>
    <i name="pawpsdc">   5340.94211307 </i>
    <i name="pawaedc">  -5030.08584645 </i>
    <i name="eentropy">     -0.00000001 </i>
    <i name="bandstr">    -55.96948266 </i>
    <i name="atom">   2148.03074991 </i>
    <i name="e_fr_energy">    -68.51142992 </i>
    <i name="e_wo_entrp">    -68.51142991 </i>
    <i name="e_0_energy">    -68.51142992 </i>
   </energy>
  </scstep>
  <structure>
   <crystal>
    <varray name="basis" >
     <v>       7.66074677       0.65335102      -0.16536115 </v>
     <v>       4.39202212       7.88426693      -1.17651457 </v>
     <v>       3.70411731       1.49106043       5.58755987 </v>
    </varray>
    <i name="volume">    335.78939170 </i>
    <varray name="rec_basis" >
     <v>       0.13641904      -0.08606179      -0.06746931 </v>
     <v>      -0.01160609       0.12929949      -0.02681010 </v>
     <v>       0.00159348       0.02467830       0.17132715 </v>
    </varray>
   </crystal>
   <varray name="positions" >
    <v>       0.46822042       0.41966661       0.52802926 </v>
    <v>       0.58887313       0.99386163       0.40980665 </v>
    <v>       0.95780796       0.49843003       0.05042889 </v>
    <v>       0.97795589       0.87879705       0.63935746 </v>
    <v>       0.01015331       0.45094439       0.46097237 </v>
    <v>       0.97425478       0.77948824       0.09937622 </v>
    <v>       0.22073566       0.85843709       0.18048735 </v>
    <v>       0.22531800       0.15574254       0.96867857 </v>
    <v>       0.29828952       0.86742158       0.72423725 </v>
    <v>       0.61836275       0.40268078       0.97023156 </v>
    <v>       0.40440368       0.25650142       0.21481744 </v>
    <v>       0.56504596       0.58693276       0.17057019 </v>
    <v>       0.60738763       0.10785705       0.65791283 </v>
    <v>       0.59218766       0.55337653       0.64298452 </v>
    <v>       0.04491259       0.58852773       0.66019209 </v>
    <v>       0.00259107       0.21323657       0.76421635 </v>
   </varray>
  </structure>
  <varray name="forces" >
   <v>       0.01734128      -0.00872795      -0.00339366 </v>
   <v>      -0.03208096       0.04479783       0.00832891 </v>
   <v>      -0.00952715      -0.00523498      -0.03943089 </v>
   <v>      -0.01689287      -0.03459840      -0.01391160 </v>
   <v>      -0.00383833       0.01208634       0.03644948 </v>
   <v>      -0.00258999      -0.03055640      -0.01703672 </v>
   <v>       0.00851914      -0.02232553      -0.04451466 </v>
   <v>      -0.00007602       0.02403723       0.02714828 </v>
   <v>       0.04942512      -0.00419559      -0.01281746 </v>
   <v>      -0.01909252       0.00125738       0.05980518 </v>
   <v>       0.03668315       0.02550090       0.02167192 </v>
   <v>      -0.03151495      -0.00826342      -0.00011579 </v>
   <v>      -0.00631377      -0.01270475      -0.02050127 </v>
   <v>      -0.01925879       0.00652608       0.03433117 </v>
   <v>       0.02664403       0.00974014      -0.00402207 </v>
   <v>       0.00257263       0.00266114      -0.03199082 </v>
  </varray>
  <varray name="stress" >
   <v>      -0.96890332       1.77563730      -0.70722503 </v>
   <v>       1.77563739       2.19735290      -2.43688762 </v>
   <v>      -0.70722584      -2.43688713      -0.64778395 </v>
  </varray>
  <energy>
   <i name="e_fr_energy">    -68.51142992 </i>
   <i name="e_wo_entrp">    -68.51142992 </i>
   <i name="e_0_energy">     -0.00000001 </i>
  </energy>
  <time name="totalsc">    3.53    3.74</time>
 </calculation>
 <calculation>
  <scstep>
   <time name="dav">    0.40    0.41</time>
   <time name="total">    0.52    0.57</time>
   <energy>
    <i name="alphaZ">     27.23410680 </i>
    <i name="ewald">  -1922.70750021 </i>
    <i name="hartreedc">   -407.64193735 </i>
    <i name="XCdc">   -164.93403704 </i>
    <i name="pawpsdc">   5343.37416875 </i>
    <i name="pawaedc">  -5032.51665680 </i>
    <i name="eentropy">     -0.00000000 </i>
    <i name="bandstr">    -59.36190101 </i>
    <i name="atom">   2148.03074991 </i>
    <i name="e_fr_energy">    -68.52300696 </i>
    <i name="e_wo_entrp">    -68.52300695 </i>
    <i name="e_0_energy">    -68.52300696 </i>
   </energy>
  </scstep>
  <scstep>
   <time name="dav">    0.56    0.57</time>
   <time name="total">    0.67    0.68</time>
   <energy>
    <i name="e_fr_energy">    -68.51604419 </i>
    <i name="e_wo_entrp">    -68.51604419 </i>
    <i name="e_0_energy">    -68.51604419 </i>
   </energy>
  </scstep>
  <scstep>
   <time name="dav">    0.40    0.40</time>
   <time name="total">    0.51    0.51</time>
   <energy>
    <i name="e_fr_energy">    -68.51350679 </i>
    <i name="e_wo_entrp">    -68.51350679 </i>
    <i name="e_0_energy">    -68.51350679 </i>
   </energy>
  </scstep>
  <scstep>
   <time name="dav">    0.40    0.40</time>
   <time name="total">    0.51    0.51</time>
   <energy>
    <i name="e_fr_energy">    -68.51303325 </i>
    <i name="e_wo_entrp">    -68.51303325 </i>
    <i name="e_0_energy">    -68.51303325 </i>
   </energy>
  </scstep>
  <scstep>
   <time name="dav">    0.39    0.39</time>
   <time name="total">    0.49    0.49</time>
   <energy>
    <i name="alphaZ">     27.23410680 </i>
    <i name="ewald">  -1922.70750021 </i>
    <i name="hartreedc">   -409.30608795 </i>
    <i name="XCdc">   -164.86891670 </i>
    <i name="pawpsdc">   5322.53424768 </i>
    <i name="pawaedc">  -5011.66557458 </i>
    <i name="eentropy">     -0.00000000 </i>
    <i name="bandstr">    -57.76400224 </i>
    <i name="atom">   2148.03074991 </i>
    <i name="e_fr_energy">    -68.51297729 </i>
    <i name="e_wo_entrp">    -68.51297729 </i>
    <i name="e_0_energy">    -68.51297729 </i>
   </energy>
  </scstep>
  <structure>
   <crystal>
    <varray name="basis" >
     <v>       7.66214952       0.67975994      -0.17510565 </v>
     <v>       4.41681451       7.93183403      -1.20574855 </v>
     <v>       3.70271634       1.49089463       5.58171805 </v>
    </varray>
    <i name="volume">    337.19860765 </i>
    <varray name="rec_basis" >
     <v>       0.13662840      -0.08635255      -0.06756946 </v>
     <v>      -0.01202642       0.12875594      -0.02641322 </v>
     <v>       0.00168829       0.02510454       0.17133085 </v>
    </varray>
   </crystal>
   <varray name="positions" >
    <v>       0.46827080       0.41962819       0.52805438 </v>
    <v>       0.58825012       0.99437294       0.40992838 </v>
    <v>       0.95778420       0.49843862       0.04996019 </v>
    <v>       0.97773388       0.87901883       0.63912583 </v>
    <v>       0.00994387       0.45101395       0.46107957 </v>
    <v>       0.97438378       0.77927483       0.09928882 </v>
    <v>       0.22126140       0.85779964       0.18030719 </v>
    <v>       0.22518769       0.15631563       0.96862863 </v>
    <v>       0.29879277       0.86739306       0.72405440 </v>
    <v>       0.61834839       0.40258425       0.97039038 </v>
    <v>       0.40412185       0.25629607       0.21549566 </v>
    <v>       0.56491264       0.58718195       0.17042739 </v>
    <v>       0.60770944       0.10761819       0.65772804 </v>
    <v>       0.59206134       0.55328822       0.64334288 </v>
    <v>       0.04520172       0.58831361       0.66050243 </v>
    <v>       0.00253613       0.21336401       0.76398483 </v>
   </varray>
  </structure>
  <varray name="forces" >
   <v>       0.03391892      -0.01344927      -0.01240578 </v>
   <v>      -0.02691686       0.01238791       0.01721235 </v>
   <v>       0.02314413       0.00103591      -0.02880954 </v>
   <v>       0.00061610      -0.11544108       0.00521308 </v>
   <v>       0.01292314       0.01527519       0.07606096 </v>
   <v>       0.00079162      -0.03147999      -0.03411608 </v>
   <v>       0.00537610       0.06612272      -0.09579406 </v>
   <v>      -0.03281388      -0.04674997       0.08851279 </v>
   <v>       0.04428206      -0.00742684      -0.00257242 </v>
   <v>      -0.04698396       0.01783765       0.12146130 </v>
   <v>       0.10750851       0.08629897      -0.06265790 </v>
   <v>      -0.07526200      -0.10040851       0.01490995 </v>
   <v>      -0.04635635       0.02953693      -0.02160281 </v>
   <v>      -0.03169254       0.02964242       0.02762322 </v>
   <v>       0.00098232       0.05028757      -0.04839230 </v>
   <v>       0.03048269       0.00653040      -0.04464276 </v>
  </varray>
  <varray name="stress" >
   <v>      -2.12814465      -1.51304689       0.11076770 </v>
   <v>      -1.51304672      -2.15196083      -0.04877754 </v>
   <v>       0.11076656      -0.04877749      -2.21880464 </v>
  </varray>
  <energy>
   <i name="e_fr_energy">    -68.51297729 </i>
   <i name="e_wo_entrp">    -68.51297729 </i>
   <i name="e_0_energy">     -0.00000000 </i>
  </energy>
  <time name="totalsc">    3.39    3.58</time>
 </calculation>
 <calculation>
  <scstep>
   <time name="dav">    0.40    0.40</time>
   <time name="total">    0.52    0.55</time>
   <energy>
    <i name="alphaZ">     27.27465924 </i>
    <i name="ewald">  -1924.08725839 </i>
    <i name="hartreedc">   -409.25281750 </i>
    <i name="XCdc">   -164.81007558 </i>
    <i name="pawpsdc">   5326.81745651 </i>
    <i name="pawaedc">  -5015.94628369 </i>
    <i name="eentropy">     -0.00000000 </i>
    <i name="bandstr">    -56.54169327 </i>
    <i name="atom">   2148.03074991 </i>
    <i name="e_fr_energy">    -68.51526277 </i>
    <i name="e_wo_entrp">    -68.51526277 </i>
    <i name="e_0_energy">    -68.51526277 </i>
   </energy>
  </scstep>
  <scstep>
   <time name="dav">    0.50    0.50</time>
   <time name="total">    0.62    0.62</time>
   <energy>
    <i name="e_fr_energy">    -68.51434174 </i>
    <i name="e_wo_entrp">    -68.51434174 </i>
    <i name="e_0_energy">    -68.51434174 </i>
   </energy>
  </scstep>
  <scstep>
   <time name="dav">    0.49    0.49</time>
   <time name="total">    0.60    0.60</time>
   <energy>
    <i name="e_fr_energy">    -68.51401854 </i>
    <i name="e_wo_entrp">    -68.51401854 </i>
    <i name="e_0_energy">    -68.51401854 </i>
   </energy>
  </scstep>
  <scstep>
   <time name="dav">    0.28    0.28</time>
   <time name="total">    0.37    0.38</time>
   <energy>
    <i name="alphaZ">     27.27465924 </i>
    <i name="ewald">  -1924.08725839 </i>
    <i name="hartreedc">   -408.67016924 </i>
    <i name="XCdc">   -164.83376169 </i>
    <i name="pawpsdc">   5340.37136169 </i>
    <i name="pawaedc">  -5029.50122441 </i>
    <i name="eentropy">     -0.00000000 </i>
    <i name="bandstr">    -57.09831931 </i>
    <i name="atom">   2148.03074991 </i>
    <i name="e_fr_energy">    -68.51396219 </i>
    <i name="e_wo_entrp">    -68.51396219 </i>
    <i name="e_0_energy">    -68.51396219 </i>
   </energy>
  </scstep>
  <structure>
   <crystal>
    <varray name="basis" >
     <v>       7.66164905       0.67033776      -0.17162901 </v>
     <v>       4.40796907       7.91486304      -1.19531845 </v>
     <v>       3.70321618       1.49095379       5.58380230 </v>
    </varray>
    <i name="volume">    336.69725484 </i>
    <varray name="rec_basis" >
     <v>       0.13655352      -0.08624885      -0.06753358 </v>
     <v>      -0.01187691       0.12894882      -0.02655430 </v>
     <v>       0.00165476       0.02495291       0.17132921 </v>
    </varray>
   </crystal>
   <varray name="positions" >
    <v>       0.46825279       0.41964187       0.52804544 </v>
    <v>       0.58847295       0.99419091       0.40988444 </v>
    <v>       0.95779266       0.49843552       0.05012758 </v>
    <v>       0.97781328       0.87893993       0.63920834 </v>
    <v>       0.01001874       0.45098903       0.46104127 </v>
    <v>       0.97433759       0.77935063       0.09932027 </v>
    <v>       0.22107326       0.85802624       0.18037220 </v>
    <v>       0.22523450       0.15611234       0.96864574 </v>
    <v>       0.29861294       0.86740381       0.72411956 </v>
    <v>       0.61835349       0.40261845       0.97033379 </v>
    <v>       0.40422251       0.25636852       0.21525382 </v>
    <v>       0.56496037       0.58709345       0.17047810 </v>
    <v>       0.60759434       0.10770325       0.65779424 </v>
    <v>       0.59210646       0.55331937       0.64321506 </v>
    <v>       0.04509834       0.58838989       0.66039178 </v>
    <v>       0.00255580       0.21331876       0.76406736 </v>
   </varray>
  </structure>
  <varray name="forces" >
   <v>       0.02873330      -0.01216771      -0.00784088 </v>
   <v>      -0.02819731       0.02379499       0.01478635 </v>
   <v>       0.01230359      -0.00123467      -0.03103788 </v>
   <v>      -0.00552307      -0.08780149      -0.00033711 </v>
   <v>       0.00672568       0.01395015       0.06288458 </v>
   <v>      -0.00078256      -0.03167494      -0.02704649 </v>
   <v>       0.00603985       0.03486701      -0.07638736 </v>
   <v>      -0.02127462      -0.02227059       0.06834442 </v>
   <v>       0.04585642      -0.00683066      -0.00516645 </v>
   <v>      -0.03716574       0.01221274       0.10112132 </v>
   <v>       0.07936885       0.06700402      -0.04272826 </v>
   <v>      -0.06193816      -0.06799151       0.01432166 </v>
   <v>      -0.03356710       0.01755927      -0.02005440 </v>
   <v>      -0.02919417       0.01312807       0.03514829 </v>
   <v>       0.01762141       0.04048462      -0.04236775 </v>
   <v>       0.02099364       0.00697070      -0.04364005 </v>
  </varray>
  <varray name="stress" >
   <v>      -1.78354765      -0.62394262      -0.08289853 </v>
   <v>      -0.62394221      -1.00018602      -0.63647839 </v>
   <v>      -0.08289962      -0.63647852      -1.76215810 </v>
  </varray>
  <energy>
   <i name="e_fr_energy">    -68.51396219 </i>
   <i name="e_wo_entrp">    -68.51396219 </i>
   <i name="e_0_energy">     -0.00000000 </i>
  </energy>
  <time name="totalsc">    2.79    2.93</time>
 </calculation>
 <calculation>
  <scstep>
   <time name="dav">    0.42    0.43</time>
   <time name="total">    0.54    0.57</time>
   <energy>
    <i name="alphaZ">     27.29409126 </i>
    <i name="ewald">  -1924.19862051 </i>
    <i name="hartreedc">   -409.03366635 </i>
    <i name="XCdc">   -164.80077008 </i>
    <i name="pawpsdc">   5339.07654865 </i>
    <i name="pawaedc">  -5028.20845493 </i>
    <i name="eentropy">     -0.00000000 </i>
    <i name="bandstr">    -56.67591520 </i>
    <i name="atom">   2148.03074991 </i>
    <i name="e_fr_energy">    -68.51603725 </i>
    <i name="e_wo_entrp">    -68.51603724 </i>
    <i name="e_0_energy">    -68.51603725 </i>
   </energy>
  </scstep>
  <scstep>
   <time name="dav">    0.45    0.46</time>
   <time name="total">    0.56    0.57</time>
   <energy>
    <i name="e_fr_energy">    -68.51596057 </i>
    <i name="e_wo_entrp">    -68.51596057 </i>
    <i name="e_0_energy">    -68.51596057 </i>
   </energy>
  </scstep>
  <scstep>
   <time name="dav">    0.32    0.32</time>
   <time name="total">    0.42    0.42</time>
   <energy>
    <i name="alphaZ">     27.29409126 </i>
    <i name="ewald">  -1924.19862051 </i>
    <i name="hartreedc">   -408.84426258 </i>
    <i name="XCdc">   -164.81035525 </i>
    <i name="pawpsdc">   5344.07385233 </i>
    <i name="pawaedc">  -5033.20621950 </i>
    <i name="eentropy">     -0.00000000 </i>
    <i name="bandstr">    -56.85513855 </i>
    <i name="atom">   2148.03074991 </i>
    <i name="e_fr_energy">    -68.51590288 </i>
    <i name="e_wo_entrp">    -68.51590288 </i>
    <i name="e_0_energy">    -68.51590288 </i>
   </energy>
  </scstep>
  <structure>
   <crystal>
    <varray name="basis" >
     <v>       7.65765458       0.67282846      -0.17337616 </v>
     <v>       4.40800574       7.91928473      -1.20085058 </v>
     <v>       3.70059741       1.48871989       5.57956708 </v>
    </varray>
    <i name="volume">    336.45754333 </i>
    <varray name="rec_basis" >
     <v>       0.13664105      -0.08630696      -0.06759783 </v>
     <v>      -0.01192483       0.12889588      -0.02648250 </v>
     <v>       0.00167941       0.02505949       0.17142524 </v>
    </varray>
   </crystal>
   <varray name="positions" >
    <v>       0.46838648       0.41959701       0.52801270 </v>
    <v>       0.58821888       0.99433847       0.40997383 </v>
    <v>       0.95787786       0.49844873       0.04993339 </v>
    <v>       0.97793559       0.87871664       0.63912102 </v>
    <v>       0.00988273       0.45100090       0.46131258 </v>
    <v>       0.97445938       0.77924103       0.09918257 </v>
    <v>       0.22122252       0.85807593       0.18006487 </v>
    <v>       0.22508618       0.15609884       0.96889269 </v>
    <v>       0.29885531       0.86736978       0.72406899 </v>
    <v>       0.61805475       0.40258834       0.97076029 </v>
    <v>       0.40436087       0.25653923       0.21523201 </v>
    <v>       0.56485830       0.58693921       0.17047115 </v>
    <v>       0.60753544       0.10773962       0.65769582 </v>
    <v>       0.59191552       0.55333118       0.64341446 </v>
    <v>       0.04518358       0.58849737       0.66029724 </v>
    <v>       0.00266661       0.21337972       0.76386538 </v>
   </varray>
  </structure>
  <varray name="forces" >
   <v>       0.02784927      -0.01430108      -0.00724233 </v>
   <v>      -0.02507095       0.01243177       0.00397363 </v>
   <v>       0.01360358      -0.00220116      -0.02001382 </v>
   <v>      -0.00333808      -0.07532290      -0.00145634 </v>
   <v>       0.00009931       0.00920170       0.05807234 </v>
   <v>      -0.00310354      -0.02392781      -0.02527030 </v>
   <v>       0.00435642       0.03596798      -0.06861144 </v>
   <v>      -0.02042657      -0.01923595       0.06387275 </v>
   <v>       0.03534007      -0.00856595      -0.00366655 </v>
   <v>      -0.03364301      -0.00009143       0.06892979 </v>
   <v>       0.06358175       0.06396472      -0.03150810 </v>
   <v>      -0.04244980      -0.05124055       0.02364692 </v>
   <v>      -0.02335948       0.01730781      -0.00795862 </v>
   <v>      -0.02313151       0.01758233       0.02894491 </v>
   <v>       0.01636099       0.03138254      -0.04034274 </v>
   <v>       0.01333156       0.00704797      -0.04137010 </v>
  </varray>
  <varray name="stress" >
   <v>      -1.44072618      -0.26120239      -0.11260991 </v>
   <v>      -0.26120194      -0.33542804      -0.75230410 </v>
   <v>      -0.11261091      -0.75230408      -1.28136941 </v>
  </varray>
  <energy>
   <i name="e_fr_energy">    -68.51590288 </i>
   <i name="e_wo_entrp">    -68.51590288 </i>
   <i name="e_0_energy">     -0.00000000 </i>
  </energy>
  <time name="totalsc">    2.23    2.36</time>
 </calculation>
 <calculation>
  <scstep>
   <time name="dav">    0.32    0.33</time>
   <time name="total">    0.44    0.52</time>
   <energy>
    <i name="alphaZ">     27.35275360 </i>
    <i name="ewald">  -1924.53110788 </i>
    <i name="hartreedc">   -409.96864227 </i>
    <i name="XCdc">   -164.71201019 </i>
    <i name="pawpsdc">   5344.35057147 </i>
    <i name="pawaedc">  -5033.48517812 </i>
    <i name="eentropy">     -0.00000000 </i>
    <i name="bandstr">    -55.55702538 </i>
    <i name="atom">   2148.03074991 </i>
    <i name="e_fr_energy">    -68.51988886 </i>
    <i name="e_wo_entrp">    -68.51988886 </i>
    <i name="e_0_energy">    -68.51988886 </i>
   </energy>
  </scstep>
  <scstep>
   <time name="dav">    0.48    0.48</time>
   <time name="total">    0.59    0.59</time>
   <energy>
    <i name="e_fr_energy">    -68.51903267 </i>
    <i name="e_wo_entrp">    -68.51903267 </i>
    <i name="e_0_energy">    -68.51903267 </i>
   </energy>
  </scstep>
  <scstep>
   <time name="dav">    0.55    0.56</time>
   <time name="total">    0.66    0.67</time>
   <energy>
    <i name="e_fr_energy">    -68.51848899 </i>
    <i name="e_wo_entrp">    -68.51848899 </i>
    <i name="e_0_energy">    -68.51848899 </i>
   </energy>
  </scstep>
  <scstep>
   <time name="dav">    0.39    0.39</time>
   <time name="total">    0.49    0.50</time>
   <energy>
    <i name="e_fr_energy">    -68.51830546 </i>
    <i name="e_wo_entrp">    -68.51830546 </i>
    <i name="e_0_energy">    -68.51830546 </i>
   </energy>
  </scstep>
  <scstep>
   <time name="dav">    0.34    0.34</time>
   <time name="total">    0.43    0.44</time>
   <energy>
    <i name="alphaZ">     27.35275360 </i>
    <i name="ewald">  -1924.53110788 </i>
    <i name="hartreedc">   -409.36369682 </i>
    <i name="XCdc">   -164.73828038 </i>
    <i name="pawpsdc">   5361.84959726 </i>
    <i name="pawaedc">  -5050.99569260 </i>
    <i name="eentropy">     -0.00000000 </i>
    <i name="bandstr">    -56.12260779 </i>
    <i name="atom">   2148.03074991 </i>
    <i name="e_fr_energy">    -68.51828470 </i>
    <i name="e_wo_entrp">    -68.51828470 </i>
    <i name="e_0_energy">    -68.51828470 </i>
   </energy>
  </scstep>
  <structure>
   <crystal>
    <varray name="basis" >
     <v>       7.64567116       0.68030056      -0.17861764 </v>
     <v>       4.40811575       7.93254980      -1.21744695 </v>
     <v>       3.69274110       1.48201822       5.56686143 </v>
    </varray>
    <i name="volume">    335.73595651 </i>
    <varray name="rec_basis" >
     <v>       0.13690426      -0.08648191      -0.06779120 </v>
     <v>      -0.01206857       0.12873802      -0.02626722 </v>
     <v>       0.00175335       0.02537956       0.17171477 </v>
    </varray>
   </crystal>
   <varray name="positions" >
    <v>       0.46878785       0.41946233       0.52791439 </v>
    <v>       0.58745614       0.99478119       0.41024240 </v>
    <v>       0.95813370       0.49848813       0.04935047 </v>
    <v>       0.97830278       0.87804705       0.63885840 </v>
    <v>       0.00947433       0.45103677       0.46212710 </v>
    <v>       0.97482505       0.77891223       0.09876895 </v>
    <v>       0.22167071       0.85822459       0.17914240 </v>
    <v>       0.22464085       0.15605863       0.96963397 </v>
    <v>       0.29958294       0.86726742       0.72391725 </v>
    <v>       0.61715780       0.40249861       0.97204049 </v>
    <v>       0.40477625       0.25705082       0.21516704 </v>
    <v>       0.56455187       0.58647697       0.17044982 </v>
    <v>       0.60735865       0.10784869       0.65740038 </v>
    <v>       0.59134225       0.55336691       0.64401303 </v>
    <v>       0.04543951       0.58881940       0.66001373 </v>
    <v>       0.00299932       0.21356224       0.76325919 </v>
   </varray>
  </structure>
  <varray name="forces" >
   <v>       0.02768009      -0.02686866      -0.00110297 </v>
   <v>      -0.01505555      -0.02209558      -0.03154017 </v>
   <v>       0.01868007      -0.00587577       0.01453500 </v>
   <v>       0.00594024      -0.03838277      -0.00497097 </v>
   <v>      -0.01885921      -0.00514816       0.04243225 </v>
   <v>      -0.01118918      -0.00237276      -0.02029521 </v>
   <v>       0.00215015       0.03698259      -0.04439091 </v>
   <v>      -0.01382958      -0.00979509       0.04956483 </v>
   <v>       0.00431833      -0.01817308      -0.00227308 </v>
   <v>      -0.02139550      -0.03786582      -0.03255230 </v>
   <v>       0.01166103       0.02295375       0.01045662 </v>
   <v>       0.01365024       0.02319136       0.05467535 </v>
   <v>       0.00793220       0.03054251       0.01980932 </v>
   <v>      -0.00866382       0.02024788       0.01301086 </v>
   <v>      -0.00311845       0.01624925      -0.03336837 </v>
   <v>       0.00009892       0.01641034      -0.03399022 </v>
  </varray>
  <varray name="stress" >
   <v>       0.78864977       0.00217550       0.33479908 </v>
   <v>       0.00217545       0.68779803       0.57175644 </v>
   <v>       0.33479830       0.57175638       1.04278907 </v>
  </varray>
  <energy>
   <i name="e_fr_energy">    -68.51828470 </i>
   <i name="e_wo_entrp">    -68.51828470 </i>
   <i name="e_0_energy">     -0.00000000 </i>
  </energy>
  <time name="totalsc">    3.25    3.51</time>
 </calculation>
 <calculation>
  <scstep>
   <time name="dav">    0.36    0.36</time>
   <time name="total">    0.47    0.52</time>
   <energy>
    <i name="alphaZ">     27.32923125 </i>
    <i name="ewald">  -1923.96620351 </i>
    <i name="hartreedc">   -409.26136637 </i>
    <i name="XCdc">   -164.77650360 </i>
    <i name="pawpsdc">   5361.00247769 </i>
    <i name="pawaedc">  -5050.14953504 </i>
    <i name="eentropy">     -0.00000000 </i>
    <i name="bandstr">    -56.72809546 </i>
    <i name="atom">   2148.03074991 </i>
    <i name="e_fr_energy">    -68.51924513 </i>
    <i name="e_wo_entrp">    -68.51924513 </i>
    <i name="e_0_energy">    -68.51924513 </i>
   </energy>
  </scstep>
  <scstep>
   <time name="dav">    0.58    0.58</time>
   <time name="total">    0.69    0.69</time>
   <energy>
    <i name="e_fr_energy">    -68.51930555 </i>
    <i name="e_wo_entrp">    -68.51930555 </i>
    <i name="e_0_energy">    -68.51930555 </i>
   </energy>
  </scstep>
  <scstep>
   <time name="dav">    0.40    0.40</time>
   <time name="total">    0.49    0.49</time>
   <energy>
    <i name="alphaZ">     27.32923125 </i>
    <i name="ewald">  -1923.96620351 </i>
    <i name="hartreedc">   -409.51675017 </i>
    <i name="XCdc">   -164.76441003 </i>
    <i name="pawpsdc">   5353.99845821 </i>
    <i name="pawaedc">  -5043.14656722 </i>
    <i name="eentropy">     -0.00000000 </i>
    <i name="bandstr">    -56.48378988 </i>
    <i name="atom">   2148.03074991 </i>
    <i name="e_fr_energy">    -68.51928144 </i>
    <i name="e_wo_entrp">    -68.51928144 </i>
    <i name="e_0_energy">    -68.51928144 </i>
   </energy>
  </scstep>
  <structure>
   <crystal>
    <varray name="basis" >
     <v>       7.64658920       0.68170254      -0.17814690 </v>
     <v>       4.40961799       7.93700752      -1.21787707 </v>
     <v>       3.69375643       1.48294845       5.56858265 </v>
    </varray>
    <i name="volume">    336.02492548 </i>
    <varray name="rec_basis" >
     <v>       0.13690631      -0.08646342      -0.06778704 </v>
     <v>      -0.01208333       0.12867705      -0.02625238 </v>
     <v>       0.00173714       0.02537623       0.17166878 </v>
    </varray>
   </crystal>
   <varray name="positions" >
    <v>       0.46907994       0.41930253       0.52786820 </v>
    <v>       0.58740443       0.99478615       0.41006653 </v>
    <v>       0.95825165       0.49844451       0.04934247 </v>
    <v>       0.97852638       0.87775936       0.63874874 </v>
    <v>       0.00922407       0.45098600       0.46252084 </v>
    <v>       0.97488655       0.77887197       0.09857079 </v>
    <v>       0.22174777       0.85846468       0.17874731 </v>
    <v>       0.22440679       0.15596451       0.97005658 </v>
    <v>       0.29978653       0.86716524       0.72386162 </v>
    <v>       0.61710480       0.40234657       0.97200812 </v>
    <v>       0.40480385       0.25722687       0.21524452 </v>
    <v>       0.56436114       0.58645260       0.17081231 </v>
    <v>       0.60722369       0.10798785       0.65750561 </v>
    <v>       0.59110882       0.55345963       0.64421077 </v>
    <v>       0.04549703       0.58898174       0.65977270 </v>
    <v>       0.00308656       0.21370180       0.76296188 </v>
   </varray>
  </structure>
  <varray name="forces" >
   <v>       0.02392176      -0.02602633      -0.00066800 </v>
   <v>      -0.00129005      -0.01291986      -0.02647269 </v>
   <v>       0.00543304      -0.00296172       0.00542275 </v>
   <v>      -0.00011016      -0.01949273      -0.01544395 </v>
   <v>      -0.01264582      -0.00274925       0.03475010 </v>
   <v>      -0.00871717       0.00383682      -0.01946769 </v>
   <v>      -0.00144125       0.01750809      -0.02690214 </v>
   <v>      -0.00535123       0.00450180       0.02240077 </v>
   <v>      -0.00318996      -0.01718289      -0.00441110 </v>
   <v>       0.00462248      -0.01166576      -0.03178737 </v>
   <v>       0.00403492       0.01706415       0.02038905 </v>
   <v>       0.01290389       0.01207173       0.03848998 </v>
   <v>       0.00230456       0.01423612       0.02467687 </v>
   <v>      -0.00165304       0.01234620       0.00723618 </v>
   <v>      -0.01177783      -0.00358507      -0.01135042 </v>
   <v>      -0.00704416       0.01501870      -0.01686235 </v>
  </varray>
  <varray name="stress" >
   <v>       0.47299740       0.08454068       0.27341532 </v>
   <v>       0.08454070       0.55219231       0.29013579 </v>
   <v>       0.27341462       0.29013576       0.92721354 </v>
  </varray>
  <energy>
   <i name="e_fr_energy">    -68.51928144 </i>
   <i name="e_wo_entrp">    -68.51928144 </i>
   <i name="e_0_energy">     -0.00000000 </i>
  </energy>
  <time name="totalsc">    2.24    2.53</time>
  <eigenvalues>
   <array>
    <dimension dim="1">band</dimension>
    <dimension dim="2">kpoint</dimension>
    <dimension dim="3">spin</dimension>
    <field>eigene</field>
    <field>occ</field>
    <set>
     <set comment="spin 1">
      <set comment="kpoint 1">
       <r>   -9.6647    1.0000 </r>
       <r>   -8.8342    1.0000 </r>
       <r>   -8.6288    1.0000 </r>
       <r>   -8.5035    1.0000 </r>
       <r>   -8.4207    1.0000 </r>
       <r>   -8.1984    1.0000 </r>
       <r>   -2.9780    1.0000 </r>
       <r>   -2.3937    1.0000 </r>
       <r>   -1.9585    1.0000 </r>
       <r>   -1.6225    1.0000 </r>
       <r>   -1.2818    1.0000 </r>
       <r>   -1.1231    1.0000 </r>
       <r>   -0.4524    1.0000 </r>
       <r>   -0.3179    1.0000 </r>
       <r>    0.0071    1.0000 </r>
       <r>    0.2633    1.0000 </r>
       <r>    0.4919    1.0000 </r>
       <r>    0.6583    1.0000 </r>
       <r>    0.8925    1.0000 </r>
       <r>    1.2094    1.0000 </r>
       <r>    1.4078    1.0000 </r>
       <r>    1.5587    1.0000 </r>
       <r>    1.5880    1.0000 </r>
       <r>    1.9696    1.0000 </r>
       <r>    2.3095    1.0000 </r>
       <r>    2.7282    1.0000 </r>
       <r>    2.7497    1.0000 </r>
       <r>    3.0290    1.0000 </r>
       <r>    3.1792    1.0000 </r>
       <r>    3.5171    1.0000 </r>
       <r>    4.0628    1.0000 </r>
       <r>    4.3345    1.0000 </r>
       <r>    5.9315    0.0000 </r>
       <r>    6.2448    0.0000 </r>
       <r>    6.4432    0.0000 </r>
       <r>    7.0999    0.0000 </r>
       <r>    7.4057    0.0000 </r>
       <r>    7.5928    0.0000 </r>
       <r>    7.6328    0.0000 </r>
       <r>    7.7491    0.0000 </r>
       <r>    8.0233    0.0000 </r>
       <r>    8.2120    0.0000 </r>
      </set>
      <set comment="kpoint 2">
       <r>   -9.4848    1.0000 </r>
       <r>   -8.9699    1.0000 </r>
       <r>   -8.7098    1.0000 </r>
       <r>   -8.5383    1.0000 </r>
       <r>   -8.4181    1.0000 </r>
       <r>   -8.2308    1.0000 </r>
       <r>   -2.7281    1.0000 </r>
       <r>   -2.2026    1.0000 </r>
       <r>   -1.8410    1.0000 </r>
       <r>   -1.5769    1.0000 </r>
       <r>   -1.2714    1.0000 </r>
       <r>   -1.0194    1.0000 </r>
       <r>   -0.5418    1.0000 </r>
       <r>   -0.2561    1.0000 </r>
       <r>   -0.1059    1.0000 </r>
       <r>    0.2666    1.0000 </r>
       <r>    0.4219    1.0000 </r>
       <r>    0.6332    1.0000 </r>
       <r>    0.8539    1.0000 </r>
       <r>    0.9257    1.0000 </r>
       <r>    1.2440    1.0000 </r>
       <r>    1.4375    1.0000 </r>
       <r>    1.7796    1.0000 </r>
       <r>    1.8807    1.0000 </r>
       <r>    2.0373    1.0000 </r>
       <r>    2.5386    1.0000 </r>
       <r>    2.7782    1.0000 </r>
       <r>    2.8466    1.0000 </r>
       <r>    3.1353    1.0000 </r>
       <r>    3.7312    1.0000 </r>
       <r>    4.2248    1.0000 </r>
       <r>    4.4447    1.0000 </r>
       <r>    5.4180    0.0000 </r>
       <r>    6.1766    0.0000 </r>
       <r>    6.2907    0.0000 </r>
       <r>    6.9707    0.0000 </r>
       <r>    7.4320    0.0000 </r>
       <r>    7.6059    0.0000 </r>
       <r>    7.9100    0.0000 </r>
       <r>    8.0667    0.0000 </r>
       <r>    8.3141    0.0000 </r>
       <r>    8.3563    0.0000 </r>
      </set>
      <set comment="kpoint 3">
       <r>   -9.6270    1.0000 </r>
       <r>   -8.9118    1.0000 </r>
       <r>   -8.5929    1.0000 </r>
       <r>   -8.5110    1.0000 </r>
       <r>   -8.4168    1.0000 </r>
       <r>   -8.2158    1.0000 </r>
       <r>   -2.6433    1.0000 </r>
       <r>   -2.3331    1.0000 </r>
       <r>   -2.0530    1.0000 </r>
       <r>   -1.7745    1.0000 </r>
       <r>   -1.2844    1.0000 </r>
       <r>   -0.9987    1.0000 </r>
       <r>   -0.5629    1.0000 </r>
       <r>   -0.3630    1.0000 </r>
       <r>   -0.1748    1.0000 </r>
       <r>    0.0668    1.0000 </r>
       <r>    0.3865    1.0000 </r>
       <r>    0.7201    1.0000 </r>
       <r>    0.7966    1.0000 </r>
       <r>    1.1595    1.0000 </r>
       <r>    1.2623    1.0000 </r>
       <r>    1.6135    1.0000 </r>
       <r>    1.9237    1.0000 </r>
       <r>    2.0094    1.0000 </r>
       <r>    2.3522    1.0000 </r>
       <r>    2.6262    1.0000 </r>
       <r>    2.8676    1.0000 </r>
       <r>    3.0555    1.0000 </r>
       <r>    3.2659    1.0000 </r>
       <r>    3.4157    1.0000 </r>
       <r>    3.9157    1.0000 </r>
       <r>    4.7768    1.0000 </r>
       <r>    6.1352    0.0000 </r>
       <r>    6.2906    0.0000 </r>
       <r>    6.6824    0.0000 </r>
       <r>    6.9296    0.0000 </r>
       <r>    7.0566    0.0000 </r>
       <r>    7.5869    0.0000 </r>
       <r>    7.7123    0.0000 </r>
       <r>    8.0138    0.0000 </r>
       <r>    8.1550    0.0000 </r>
       <r>    8.3823    0.0000 </r>
      </set>
      <set comment="kpoint 4">
       <r>   -9.5023    1.0000 </r>
       <r>   -8.9939    1.0000 </r>
       <r>   -8.6539    1.0000 </r>
       <r>   -8.5353    1.0000 </r>
       <r>   -8.4234    1.0000 </r>
       <r>   -8.2277    1.0000 </r>
       <r>   -2.8367    1.0000 </r>
       <r>   -2.1329    1.0000 </r>
       <r>   -1.8705    1.0000 </r>
       <r>   -1.6698    1.0000 </r>
       <r>   -1.1973    1.0000 </r>
       <r>   -0.8421    1.0000 </r>
       <r>   -0.5410    1.0000 </r>
       <r>   -0.2807    1.0000 </r>
       <r>   -0.1189    1.0000 </r>
       <r>    0.1830    1.0000 </r>
       <r>    0.3360    1.0000 </r>
       <r>    0.4874    1.0000 </r>
       <r>    0.7972    1.0000 </r>
       <r>    0.9431    1.0000 </r>
       <r>    1.1962    1.0000 </r>
       <r>    1.3172    1.0000 </r>
       <r>    1.7974    1.0000 </r>
       <r>    1.9425    1.0000 </r>
       <r>    2.2480    1.0000 </r>
       <r>    2.6802    1.0000 </r>
       <r>    2.8813    1.0000 </r>
       <r>    3.1021    1.0000 </r>
       <r>    3.2787    1.0000 </r>
       <r>    3.6313    1.0000 </r>
       <r>    4.1302    1.0000 </r>
       <r>    4.6484    1.0000 </r>
       <r>    5.6877    0.0000 </r>
       <r>    6.1190    0.0000 </r>
       <r>    6.4195    0.0000 </r>
       <r>    6.8931    0.0000 </r>
       <r>    7.0156    0.0000 </r>
       <r>    7.3634    0.0000 </r>
       <r>    7.7119    0.0000 </r>
       <r>    7.8438    0.0000 </r>
       <r>    8.1170    0.0000 </r>
       <r>    8.3600    0.0000 </r>
      </set>
      <set comment="kpoint 5">
       <r>   -9.4648    1.0000 </r>
       <r>   -8.9993    1.0000 </r>
       <r>   -8.7381    1.0000 </r>
       <r>   -8.4893    1.0000 </r>
       <r>   -8.4297    1.0000 </r>
       <r>   -8.2355    1.0000 </r>
       <r>   -2.5913    1.0000 </r>
       <r>   -2.1386    1.0000 </r>
       <r>   -1.9074    1.0000 </r>
       <r>   -1.6053    1.0000 </r>
       <r>   -1.2673    1.0000 </r>
       <r>   -0.9935    1.0000 </r>
       <r>   -0.5832    1.0000 </r>
       <r>   -0.4323    1.0000 </r>
       <r>   -0.0914    1.0000 </r>
       <r>    0.0803    1.0000 </r>
       <r>    0.3426    1.0000 </r>
       <r>    0.6948    1.0000 </r>
       <r>    0.8239    1.0000 </r>
       <r>    0.9615    1.0000 </r>
       <r>    1.0984    1.0000 </r>
       <r>    1.3149    1.0000 </r>
       <r>    1.7316    1.0000 </r>
       <r>    2.0574    1.0000 </r>
       <r>    2.3368    1.0000 </r>
       <r>    2.7036    1.0000 </r>
       <r>    2.8260    1.0000 </r>
       <r>    2.9822    1.0000 </r>
       <r>    3.2426    1.0000 </r>
       <r>    3.5506    1.0000 </r>
       <r>    4.1291    1.0000 </r>
       <r>    4.6018    1.0000 </r>
       <r>    5.7659    0.0000 </r>
       <r>    6.2814    0.0000 </r>
       <r>    6.4815    0.0000 </r>
       <r>    6.8636    0.0000 </r>
       <r>    7.0947    0.0000 </r>
       <r>    7.3663    0.0000 </r>
       <r>    7.7704    0.0000 </r>
       <r>    7.8627    0.0000 </r>
       <r>    8.1441    0.0000 </r>
       <r>    8.2896    0.0000 </r>
      </set>
      <set comment="kpoint 6">
       <r>   -9.4650    1.0000 </r>
       <r>   -8.8766    1.0000 </r>
       <r>   -8.7130    1.0000 </r>
       <r>   -8.5978    1.0000 </r>
       <r>   -8.4826    1.0000 </r>
       <r>   -8.2364    1.0000 </r>
       <r>   -2.8715    1.0000 </r>
       <r>   -2.2647    1.0000 </r>
       <r>   -1.9895    1.0000 </r>
       <r>   -1.4585    1.0000 </r>
       <r>   -1.2721    1.0000 </r>
       <r>   -0.8449    1.0000 </r>
       <r>   -0.5144    1.0000 </r>
       <r>   -0.2483    1.0000 </r>
       <r>    0.1309    1.0000 </r>
       <r>    0.4183    1.0000 </r>
       <r>    0.5130    1.0000 </r>
       <r>    0.6944    1.0000 </r>
       <r>    0.8416    1.0000 </r>
       <r>    0.9748    1.0000 </r>
       <r>    1.1421    1.0000 </r>
       <r>    1.4994    1.0000 </r>
       <r>    1.6453    1.0000 </r>
       <r>    1.8839    1.0000 </r>
       <r>    2.1052    1.0000 </r>
       <r>    2.2655    1.0000 </r>
       <r>    2.3957    1.0000 </r>
       <r>    3.0403    1.0000 </r>
       <r>    3.4053    1.0000 </r>
       <r>    3.9785    1.0000 </r>
       <r>    4.4024    1.0000 </r>
       <r>    4.6258    1.0000 </r>
       <r>    5.4179    0.0000 </r>
       <r>    5.9678    0.0000 </r>
       <r>    6.3974    0.0000 </r>
       <r>    6.6377    0.0000 </r>
       <r>    6.9835    0.0000 </r>
       <r>    7.1241    0.0000 </r>
       <r>    7.7392    0.0000 </r>
       <r>    7.8822    0.0000 </r>
       <r>    8.0203    0.0000 </r>
       <r>    8.1296    0.0000 </r>
      </set>
      <set comment="kpoint 7">
       <r>   -9.5288    1.0000 </r>
       <r>   -8.8676    1.0000 </r>
       <r>   -8.6739    1.0000 </r>
       <r>   -8.5608    1.0000 </r>
       <r>   -8.4664    1.0000 </r>
       <r>   -8.2475    1.0000 </r>
       <r>   -2.7751    1.0000 </r>
       <r>   -2.3839    1.0000 </r>
       <r>   -2.0266    1.0000 </r>
       <r>   -1.4957    1.0000 </r>
       <r>   -1.0981    1.0000 </r>
       <r>   -0.8746    1.0000 </r>
       <r>   -0.6365    1.0000 </r>
       <r>   -0.1992    1.0000 </r>
       <r>    0.0979    1.0000 </r>
       <r>    0.2846    1.0000 </r>
       <r>    0.3836    1.0000 </r>
       <r>    0.6529    1.0000 </r>
       <r>    0.8317    1.0000 </r>
       <r>    0.9242    1.0000 </r>
       <r>    1.3858    1.0000 </r>
       <r>    1.4825    1.0000 </r>
       <r>    1.6670    1.0000 </r>
       <r>    1.8354    1.0000 </r>
       <r>    1.9653    1.0000 </r>
       <r>    2.5833    1.0000 </r>
       <r>    2.7995    1.0000 </r>
       <r>    2.9359    1.0000 </r>
       <r>    3.1260    1.0000 </r>
       <r>    3.5796    1.0000 </r>
       <r>    4.1492    1.0000 </r>
       <r>    4.7762    1.0000 </r>
       <r>    5.4327    0.0000 </r>
       <r>    6.2718    0.0000 </r>
       <r>    6.6667    0.0000 </r>
       <r>    6.8146    0.0000 </r>
       <r>    7.1302    0.0000 </r>
       <r>    7.4647    0.0000 </r>
       <r>    7.6061    0.0000 </r>
       <r>    7.9536    0.0000 </r>
       <r>    8.1289    0.0000 </r>
       <r>    8.3228    0.0000 </r>
      </set>
      <set comment="kpoint 8">
       <r>   -9.3575    1.0000 </r>
       <r>   -8.9803    1.0000 </r>
       <r>   -8.7881    1.0000 </r>
       <r>   -8.5906    1.0000 </r>
       <r>   -8.4052    1.0000 </r>
       <r>   -8.2878    1.0000 </r>
       <r>   -2.8022    1.0000 </r>
       <r>   -2.0517    1.0000 </r>
       <r>   -1.7884    1.0000 </r>
       <r>   -1.5018    1.0000 </r>
       <r>   -1.2610    1.0000 </r>
       <r>   -0.8627    1.0000 </r>
       <r>   -0.4615    1.0000 </r>
       <r>   -0.3466    1.0000 </r>
       <r>   -0.1943    1.0000 </r>
       <r>    0.0897    1.0000 </r>
       <r>    0.5079    1.0000 </r>
       <r>    0.7559    1.0000 </r>
       <r>    0.9247    1.0000 </r>
       <r>    1.0381    1.0000 </r>
       <r>    1.1729    1.0000 </r>
       <r>    1.2629    1.0000 </r>
       <r>    1.5890    1.0000 </r>
       <r>    1.8973    1.0000 </r>
       <r>    2.0976    1.0000 </r>
       <r>    2.2632    1.0000 </r>
       <r>    2.7443    1.0000 </r>
       <r>    3.0509    1.0000 </r>
       <r>    3.2877    1.0000 </r>
       <r>    3.9316    1.0000 </r>
       <r>    4.3881    1.0000 </r>
       <r>    4.5079    1.0000 </r>
       <r>    5.1780    0.0000 </r>
       <r>    5.8421    0.0000 </r>
       <r>    6.5060    0.0000 </r>
       <r>    6.7977    0.0000 </r>
       <r>    7.1356    0.0000 </r>
       <r>    7.2788    0.0000 </r>
       <r>    7.6196    0.0000 </r>
       <r>    7.8731    0.0000 </r>
       <r>    8.0836    0.0000 </r>
       <r>    8.2598    0.0000 </r>
      </set>
      <set comment="kpoint 9">
       <r>   -9.4303    1.0000 </r>
       <r>   -8.8632    1.0000 </r>
       <r>   -8.7595    1.0000 </r>
       <r>   -8.6427    1.0000 </r>
       <r>   -8.4325    1.0000 </r>
       <r>   -8.2667    1.0000 </r>
       <r>   -2.6422    1.0000 </r>
       <r>   -2.2565    1.0000 </r>
       <r>   -1.8463    1.0000 </r>
       <r>   -1.6756    1.0000 </r>
       <r>   -1.1471    1.0000 </r>
       <r>   -0.9512    1.0000 </r>
       <r>   -0.6993    1.0000 </r>
       <r>   -0.1907    1.0000 </r>
       <r>   -0.0471    1.0000 </r>
       <r>    0.2667    1.0000 </r>
       <r>    0.4789    1.0000 </r>
       <r>    0.6517    1.0000 </r>
       <r>    0.8371    1.0000 </r>
       <r>    1.0900    1.0000 </r>
       <r>    1.1996    1.0000 </r>
       <r>    1.5277    1.0000 </r>
       <r>    1.7034    1.0000 </r>
       <r>    1.8363    1.0000 </r>
       <r>    2.1101    1.0000 </r>
       <r>    2.2957    1.0000 </r>
       <r>    2.6178    1.0000 </r>
       <r>    3.0395    1.0000 </r>
       <r>    3.3766    1.0000 </r>
       <r>    4.0177    1.0000 </r>
       <r>    4.1532    1.0000 </r>
       <r>    4.5571    1.0000 </r>
       <r>    5.2994    0.0000 </r>
       <r>    6.0334    0.0000 </r>
       <r>    6.4858    0.0000 </r>
       <r>    6.6038    0.0000 </r>
       <r>    6.9303    0.0000 </r>
       <r>    7.4666    0.0000 </r>
       <r>    7.6322    0.0000 </r>
       <r>    7.7019    0.0000 </r>
       <r>    8.1689    0.0000 </r>
       <r>    8.3169    0.0000 </r>
      </set>
      <set comment="kpoint 10">
       <r>   -9.5480    1.0000 </r>
       <r>   -8.8527    1.0000 </r>
       <r>   -8.7033    1.0000 </r>
       <r>   -8.5625    1.0000 </r>
       <r>   -8.4185    1.0000 </r>
       <r>   -8.2416    1.0000 </r>
       <r>   -2.7888    1.0000 </r>
       <r>   -2.4002    1.0000 </r>
       <r>   -2.1017    1.0000 </r>
       <r>   -1.6643    1.0000 </r>
       <r>   -1.1690    1.0000 </r>
       <r>   -0.6462    1.0000 </r>
       <r>   -0.5028    1.0000 </r>
       <r>   -0.2681    1.0000 </r>
       <r>   -0.0357    1.0000 </r>
       <r>    0.2296    1.0000 </r>
       <r>    0.4838    1.0000 </r>
       <r>    0.5654    1.0000 </r>
       <r>    0.8804    1.0000 </r>
       <r>    1.1858    1.0000 </r>
       <r>    1.2236    1.0000 </r>
       <r>    1.5452    1.0000 </r>
       <r>    1.5882    1.0000 </r>
       <r>    1.7503    1.0000 </r>
       <r>    2.2638    1.0000 </r>
       <r>    2.6251    1.0000 </r>
       <r>    2.8729    1.0000 </r>
       <r>    3.0922    1.0000 </r>
       <r>    3.2556    1.0000 </r>
       <r>    3.5787    1.0000 </r>
       <r>    4.2309    1.0000 </r>
       <r>    4.5607    1.0000 </r>
       <r>    5.2949    0.0000 </r>
       <r>    6.1205    0.0000 </r>
       <r>    6.5249    0.0000 </r>
       <r>    6.9395    0.0000 </r>
       <r>    7.1304    0.0000 </r>
       <r>    7.2251    0.0000 </r>
[...]
        <r>  0.0050  0.0244  0.0000 </r>
       </set>
       <set comment="band 17">
        <r>  0.0008  0.0015  0.0000 </r>
        <r>  0.0021  0.0010  0.0000 </r>
        <r>  0.0003  0.0045  0.0000 </r>
        <r>  0.0098  0.0072  0.0000 </r>
        <r>  0.0002  0.0206  0.0000 </r>
        <r>  0.0077  0.0024  0.0000 </r>
        <r>  0.0001  0.0042  0.0000 </r>
        <r>  0.0011  0.0046  0.0000 </r>
        <r>  0.0081  0.0033  0.0000 </r>
        <r>  0.0022  0.0081  0.0000 </r>
        <r>  0.0009  0.0556  0.0000 </r>
        <r>  0.0006  0.0358  0.0000 </r>
        <r>  0.0019  0.0404  0.0000 </r>
        <r>  0.0036  0.0910  0.0000 </r>
        <r>  0.0003  0.0267  0.0000 </r>
        <r>  0.0022  0.0992  0.0000 </r>
       </set>
       <set comment="band 18">
        <r>  0.0074  0.0046  0.0000 </r>
        <r>  0.0003  0.0027  0.0000 </r>
        <r>  0.0061  0.0034  0.0000 </r>
        <r>  0.0010  0.0035  0.0000 </r>
        <r>  0.0013  0.0057  0.0000 </r>
        <r>  0.0011  0.0010  0.0000 </r>
        <r>  0.0050  0.0020  0.0000 </r>
        <r>  0.0022  0.0067  0.0000 </r>
        <r>  0.0117  0.0025  0.0000 </r>
        <r>  0.0016  0.0116  0.0000 </r>
        <r>  0.0023  0.0486  0.0000 </r>
        <r>  0.0016  0.0513  0.0000 </r>
        <r>  0.0004  0.0285  0.0000 </r>
        <r>  0.0016  0.0959  0.0000 </r>
        <r>  0.0044  0.0559  0.0000 </r>
        <r>  0.0008  0.0848  0.0000 </r>
       </set>
       <set comment="band 19">
        <r>  0.0039  0.0008  0.0000 </r>
        <r>  0.0026  0.0139  0.0000 </r>
        <r>  0.0005  0.0058  0.0000 </r>
        <r>  0.0008  0.0029  0.0000 </r>
        <r>  0.0002  0.0120  0.0000 </r>
        <r>  0.0068  0.0006  0.0000 </r>
        <r>  0.0009  0.0020  0.0000 </r>
        <r>  0.0015  0.0045  0.0000 </r>
        <r>  0.0006  0.0026  0.0000 </r>
        <r>  0.0036  0.0058  0.0000 </r>
        <r>  0.0007  0.1044  0.0000 </r>
        <r>  0.0004  0.0330  0.0000 </r>
        <r>  0.0002  0.1260  0.0000 </r>
        <r>  0.0013  0.0189  0.0000 </r>
        <r>  0.0013  0.0619  0.0000 </r>
        <r>  0.0005  0.0543  0.0000 </r>
       </set>
       <set comment="band 20">
        <r>  0.0031  0.0010  0.0000 </r>
        <r>  0.0001  0.0142  0.0000 </r>
        <r>  0.0003  0.0029  0.0000 </r>
        <r>  0.0084  0.0019  0.0000 </r>
        <r>  0.0011  0.0041  0.0000 </r>
        <r>  0.0490  0.0009  0.0000 </r>
        <r>  0.0017  0.0080  0.0000 </r>
        <r>  0.0057  0.0045  0.0000 </r>
        <r>  0.0051  0.0059  0.0000 </r>
        <r>  0.0024  0.0083  0.0000 </r>
        <r>  0.0027  0.0156  0.0000 </r>
        <r>  0.0013  0.0872  0.0000 </r>
        <r>  0.0010  0.0800  0.0000 </r>
        <r>  0.0014  0.0457  0.0000 </r>
        <r>  0.0007  0.0305  0.0000 </r>
        <r>  0.0015  0.0513  0.0000 </r>
       </set>
       <set comment="band 21">
        <r>  0.0110  0.0017  0.0000 </r>
        <r>  0.0026  0.0018  0.0000 </r>
        <r>  0.0009  0.0008  0.0000 </r>
        <r>  0.0004  0.0042  0.0000 </r>
        <r>  0.0050  0.0059  0.0000 </r>
        <r>  0.0002  0.0008  0.0000 </r>
        <r>  0.0013  0.0016  0.0000 </r>
        <r>  0.0008  0.0042  0.0000 </r>
        <r>  0.0006  0.0086  0.0000 </r>
        <r>  0.0001  0.0142  0.0000 </r>
        <r>  0.0002  0.0429  0.0000 </r>
        <r>  0.0004  0.0602  0.0000 </r>
        <r>  0.0002  0.0982  0.0000 </r>
        <r>  0.0009  0.0943  0.0000 </r>
        <r>  0.0010  0.0246  0.0000 </r>
        <r>  0.0009  0.0898  0.0000 </r>
       </set>
       <set comment="band 22">
        <r>  0.0008  0.0024  0.0000 </r>
        <r>  0.0011  0.0036  0.0000 </r>
        <r>  0.0025  0.0030  0.0000 </r>
        <r>  0.0048  0.0066  0.0000 </r>
        <r>  0.0017  0.0054  0.0000 </r>
        <r>  0.0180  0.0005  0.0000 </r>
        <r>  0.0036  0.0012  0.0000 </r>
        <r>  0.0008  0.0041  0.0000 </r>
        <r>  0.0002  0.0108  0.0000 </r>
        <r>  0.0005  0.0133  0.0000 </r>
        <r>  0.0001  0.0450  0.0000 </r>
        <r>  0.0002  0.0192  0.0000 </r>
        <r>  0.0006  0.0407  0.0000 </r>
        <r>  0.0008  0.1190  0.0000 </r>
        <r>  0.0008  0.0740  0.0000 </r>
        <r>  0.0002  0.1058  0.0000 </r>
       </set>
       <set comment="band 23">
        <r>  0.0003  0.0144  0.0000 </r>
        <r>  0.0060  0.0020  0.0000 </r>
        <r>  0.0013  0.0053  0.0000 </r>
        <r>  0.0010  0.0041  0.0000 </r>
        <r>  0.0000  0.0031  0.0000 </r>
        <r>  0.0021  0.0008  0.0000 </r>
        <r>  0.0007  0.0003  0.0000 </r>
        <r>  0.0020  0.0038  0.0000 </r>
        <r>  0.0039  0.0032  0.0000 </r>
        <r>  0.0012  0.0095  0.0000 </r>
        <r>  0.0001  0.0084  0.0000 </r>
        <r>  0.0028  0.0517  0.0000 </r>
        <r>  0.0025  0.1229  0.0000 </r>
        <r>  0.0004  0.0590  0.0000 </r>
        <r>  0.0002  0.1192  0.0000 </r>
        <r>  0.0006  0.0582  0.0000 </r>
       </set>
       <set comment="band 24">
        <r>  0.0017  0.0075  0.0000 </r>
        <r>  0.0005  0.0039  0.0000 </r>
        <r>  0.0029  0.0031  0.0000 </r>
        <r>  0.0011  0.0017  0.0000 </r>
        <r>  0.0002  0.0016  0.0000 </r>
        <r>  0.0020  0.0004  0.0000 </r>
        <r>  0.0010  0.0012  0.0000 </r>
        <r>  0.0004  0.0059  0.0000 </r>
        <r>  0.0037  0.0025  0.0000 </r>
        <r>  0.0022  0.0038  0.0000 </r>
        <r>  0.0011  0.1737  0.0000 </r>
        <r>  0.0007  0.0720  0.0000 </r>
        <r>  0.0012  0.0557  0.0000 </r>
        <r>  0.0013  0.0608  0.0000 </r>
        <r>  0.0003  0.0252  0.0000 </r>
        <r>  0.0014  0.0474  0.0000 </r>
       </set>
       <set comment="band 25">
        <r>  0.0014  0.0138  0.0000 </r>
        <r>  0.0017  0.0032  0.0000 </r>
        <r>  0.0005  0.0076  0.0000 </r>
        <r>  0.0017  0.0027  0.0000 </r>
        <r>  0.0014  0.0012  0.0000 </r>
        <r>  0.0033  0.0029  0.0000 </r>
        <r>  0.0066  0.0032  0.0000 </r>
        <r>  0.0022  0.0029  0.0000 </r>
        <r>  0.0045  0.0023  0.0000 </r>
        <r>  0.0007  0.0034  0.0000 </r>
        <r>  0.0014  0.0383  0.0000 </r>
        <r>  0.0001  0.1356  0.0000 </r>
        <r>  0.0004  0.0411  0.0000 </r>
        <r>  0.0021  0.0193  0.0000 </r>
        <r>  0.0001  0.1566  0.0000 </r>
        <r>  0.0009  0.0248  0.0000 </r>
       </set>
       <set comment="band 26">
        <r>  0.0003  0.0059  0.0000 </r>
        <r>  0.0049  0.0043  0.0000 </r>
        <r>  0.0045  0.0042  0.0000 </r>
        <r>  0.0014  0.0039  0.0000 </r>
        <r>  0.0031  0.0033  0.0000 </r>
        <r>  0.0101  0.0089  0.0000 </r>
        <r>  0.0248  0.0057  0.0000 </r>
        <r>  0.0033  0.0048  0.0000 </r>
        <r>  0.0028  0.0027  0.0000 </r>
        <r>  0.0005  0.0042  0.0000 </r>
        <r>  0.0022  0.0690  0.0000 </r>
        <r>  0.0018  0.0777  0.0000 </r>
        <r>  0.0016  0.0363  0.0000 </r>
        <r>  0.0008  0.0700  0.0000 </r>
        <r>  0.0001  0.0558  0.0000 </r>
        <r>  0.0007  0.0478  0.0000 </r>
       </set>
       <set comment="band 27">
        <r>  0.0000  0.0023  0.0000 </r>
        <r>  0.0037  0.0023  0.0000 </r>
        <r>  0.0026  0.0052  0.0000 </r>
        <r>  0.0149  0.0189  0.0000 </r>
        <r>  0.0017  0.0041  0.0000 </r>
        <r>  0.0020  0.0121  0.0000 </r>
        <r>  0.0170  0.0121  0.0000 </r>
        <r>  0.0046  0.0146  0.0000 </r>
        <r>  0.0076  0.0106  0.0000 </r>
        <r>  0.0000  0.0016  0.0000 </r>
        <r>  0.0005  0.0114  0.0000 </r>
        <r>  0.0002  0.0528  0.0000 </r>
        <r>  0.0020  0.0350  0.0000 </r>
        <r>  0.0019  0.0485  0.0000 </r>
        <r>  0.0036  0.0627  0.0000 </r>
        <r>  0.0042  0.0683  0.0000 </r>
       </set>
       <set comment="band 28">
        <r>  0.0000  0.0033  0.0000 </r>
        <r>  0.0054  0.0144  0.0000 </r>
        <r>  0.0369  0.0170  0.0000 </r>
        <r>  0.0006  0.0029  0.0000 </r>
        <r>  0.0001  0.0044  0.0000 </r>
        <r>  0.0004  0.0090  0.0000 </r>
        <r>  0.0012  0.0080  0.0000 </r>
        <r>  0.0119  0.0120  0.0000 </r>
        <r>  0.0186  0.0060  0.0000 </r>
        <r>  0.0006  0.0038  0.0000 </r>
        <r>  0.0025  0.0705  0.0000 </r>
        <r>  0.0004  0.0295  0.0000 </r>
        <r>  0.0000  0.0412  0.0000 </r>
        <r>  0.0016  0.0322  0.0000 </r>
        <r>  0.0013  0.0223  0.0000 </r>
        <r>  0.0032  0.0482  0.0000 </r>
       </set>
       <set comment="band 29">
        <r>  0.0000  0.0016  0.0000 </r>
        <r>  0.0170  0.0154  0.0000 </r>
        <r>  0.0030  0.0230  0.0000 </r>
        <r>  0.0007  0.0083  0.0000 </r>
        <r>  0.0029  0.0051  0.0000 </r>
        <r>  0.0012  0.0249  0.0000 </r>
        <r>  0.0010  0.0160  0.0000 </r>
        <r>  0.0235  0.0057  0.0000 </r>
        <r>  0.0084  0.0206  0.0000 </r>
        <r>  0.0020  0.0039  0.0000 </r>
        <r>  0.0012  0.0287  0.0000 </r>
        <r>  0.0001  0.0096  0.0000 </r>
        <r>  0.0008  0.0299  0.0000 </r>
        <r>  0.0002  0.0358  0.0000 </r>
        <r>  0.0002  0.0130  0.0000 </r>
        <r>  0.0012  0.0465  0.0000 </r>
       </set>
       <set comment="band 30">
        <r>  0.0009  0.0011  0.0000 </r>
        <r>  0.0097  0.0141  0.0000 </r>
        <r>  0.0176  0.0088  0.0000 </r>
        <r>  0.0186  0.0158  0.0000 </r>
        <r>  0.0022  0.0031  0.0000 </r>
        <r>  0.0103  0.0190  0.0000 </r>
        <r>  0.0033  0.0406  0.0000 </r>
        <r>  0.0068  0.0251  0.0000 </r>
        <r>  0.0057  0.0162  0.0000 </r>
        <r>  0.0029  0.0016  0.0000 </r>
        <r>  0.0005  0.0110  0.0000 </r>
        <r>  0.0003  0.0058  0.0000 </r>
        <r>  0.0002  0.0262  0.0000 </r>
        <r>  0.0010  0.0135  0.0000 </r>
        <r>  0.0036  0.0292  0.0000 </r>
        <r>  0.0003  0.0088  0.0000 </r>
       </set>
       <set comment="band 31">
        <r>  0.0003  0.0016  0.0000 </r>
        <r>  0.0025  0.0115  0.0000 </r>
        <r>  0.0022  0.0138  0.0000 </r>
        <r>  0.0104  0.0218  0.0000 </r>
        <r>  0.0034  0.0057  0.0000 </r>
        <r>  0.0002  0.0310  0.0000 </r>
        <r>  0.0029  0.0213  0.0000 </r>
        <r>  0.0194  0.0119  0.0000 </r>
        <r>  0.0092  0.0231  0.0000 </r>
        <r>  0.0004  0.0041  0.0000 </r>
        <r>  0.0002  0.0072  0.0000 </r>
        <r>  0.0007  0.0104  0.0000 </r>
        <r>  0.0024  0.0359  0.0000 </r>
        <r>  0.0002  0.0099  0.0000 </r>
        <r>  0.0016  0.0240  0.0000 </r>
        <r>  0.0022  0.0347  0.0000 </r>
       </set>
       <set comment="band 32">
        <r>  0.0001  0.0007  0.0000 </r>
        <r>  0.0086  0.0350  0.0000 </r>
        <r>  0.0024  0.0182  0.0000 </r>
        <r>  0.0035  0.0128  0.0000 </r>
        <r>  0.0105  0.0048  0.0000 </r>
        <r>  0.0032  0.0507  0.0000 </r>
        <r>  0.0050  0.0221  0.0000 </r>
        <r>  0.0036  0.0092  0.0000 </r>
        <r>  0.0091  0.0115  0.0000 </r>
        <r>  0.0012  0.0043  0.0000 </r>
        <r>  0.0005  0.0075  0.0000 </r>
        <r>  0.0015  0.0064  0.0000 </r>
        <r>  0.0006  0.0031  0.0000 </r>
        <r>  0.0006  0.0095  0.0000 </r>
        <r>  0.0010  0.0091  0.0000 </r>
        <r>  0.0046  0.0157  0.0000 </r>
       </set>
       <set comment="band 33">
        <r>  0.0004  0.0010  0.0000 </r>
        <r>  0.0084  0.0072  0.0000 </r>
        <r>  0.0032  0.0071  0.0000 </r>
        <r>  0.0057  0.0172  0.0000 </r>
        <r>  0.0305  0.0189  0.0000 </r>
        <r>  0.0125  0.0274  0.0000 </r>
        <r>  0.0071  0.0057  0.0000 </r>
        <r>  0.0017  0.0060  0.0000 </r>
        <r>  0.0172  0.0169  0.0000 </r>
        <r>  0.0024  0.0011  0.0000 </r>
        <r>  0.0013  0.0420  0.0000 </r>
        <r>  0.0004  0.0014  0.0000 </r>
        <r>  0.0020  0.0096  0.0000 </r>
        <r>  0.0060  0.0245  0.0000 </r>
        <r>  0.0092  0.0132  0.0000 </r>
        <r>  0.0020  0.0072  0.0000 </r>
       </set>
       <set comment="band 34">
        <r>  0.0003  0.0010  0.0000 </r>
        <r>  0.0100  0.0059  0.0000 </r>
        <r>  0.0105  0.0098  0.0000 </r>
        <r>  0.0185  0.0024  0.0000 </r>
        <r>  0.0217  0.0040  0.0000 </r>
        <r>  0.0101  0.0164  0.0000 </r>
        <r>  0.0050  0.0108  0.0000 </r>
        <r>  0.0149  0.0121  0.0000 </r>
        <r>  0.0062  0.0223  0.0000 </r>
        <r>  0.0001  0.0041  0.0000 </r>
        <r>  0.0040  0.0158  0.0000 </r>
        <r>  0.0031  0.0080  0.0000 </r>
        <r>  0.0071  0.0118  0.0000 </r>
        <r>  0.0068  0.0100  0.0000 </r>
        <r>  0.0027  0.0110  0.0000 </r>
        <r>  0.0030  0.0156  0.0000 </r>
       </set>
       <set comment="band 35">
        <r>  0.0036  0.0047  0.0000 </r>
        <r>  0.0102  0.0186  0.0000 </r>
        <r>  0.0111  0.0130  0.0000 </r>
        <r>  0.0227  0.0192  0.0000 </r>
        <r>  0.0278  0.0047  0.0000 </r>
        <r>  0.0021  0.0105  0.0000 </r>
        <r>  0.0019  0.0028  0.0000 </r>
        <r>  0.0021  0.0105  0.0000 </r>
        <r>  0.0119  0.0118  0.0000 </r>
        <r>  0.0044  0.0032  0.0000 </r>
        <r>  0.0076  0.0105  0.0000 </r>
        <r>  0.0029  0.0121  0.0000 </r>
        <r>  0.0071  0.0168  0.0000 </r>
        <r>  0.0002  0.0087  0.0000 </r>
        <r>  0.0008  0.0111  0.0000 </r>
        <r>  0.0006  0.0057  0.0000 </r>
       </set>
       <set comment="band 36">
        <r>  0.0005  0.0014  0.0000 </r>
        <r>  0.0043  0.0032  0.0000 </r>
        <r>  0.0014  0.0144  0.0000 </r>
        <r>  0.0124  0.0104  0.0000 </r>
        <r>  0.0003  0.0145  0.0000 </r>
        <r>  0.0029  0.0152  0.0000 </r>
        <r>  0.0186  0.0087  0.0000 </r>
        <r>  0.0104  0.0164  0.0000 </r>
        <r>  0.0037  0.0056  0.0000 </r>
        <r>  0.0085  0.0110  0.0000 </r>
        <r>  0.0087  0.0041  0.0000 </r>
        <r>  0.0031  0.0029  0.0000 </r>
        <r>  0.0076  0.0059  0.0000 </r>
        <r>  0.0022  0.0159  0.0000 </r>
        <r>  0.0013  0.0092  0.0000 </r>
        <r>  0.0050  0.0163  0.0000 </r>
       </set>
       <set comment="band 37">
        <r>  0.0004  0.0002  0.0000 </r>
        <r>  0.0223  0.0080  0.0000 </r>
        <r>  0.0008  0.0062  0.0000 </r>
        <r>  0.0086  0.0133  0.0000 </r>
        <r>  0.0106  0.0163  0.0000 </r>
        <r>  0.0004  0.0053  0.0000 </r>
        <r>  0.0084  0.0074  0.0000 </r>
        <r>  0.0045  0.0141  0.0000 </r>
        <r>  0.0084  0.0167  0.0000 </r>
        <r>  0.0083  0.0089  0.0000 </r>
        <r>  0.0081  0.0133  0.0000 </r>
        <r>  0.0017  0.0150  0.0000 </r>
        <r>  0.0016  0.0109  0.0000 </r>
        <r>  0.0055  0.0116  0.0000 </r>
        <r>  0.0023  0.0057  0.0000 </r>
        <r>  0.0014  0.0019  0.0000 </r>
       </set>
       <set comment="band 38">
        <r>  0.0003  0.0009  0.0000 </r>
        <r>  0.0079  0.0086  0.0000 </r>
        <r>  0.0098  0.0064  0.0000 </r>
        <r>  0.0166  0.0089  0.0000 </r>
        <r>  0.0123  0.0023  0.0000 </r>
        <r>  0.0107  0.0149  0.0000 </r>
        <r>  0.0164  0.0383  0.0000 </r>
        <r>  0.0066  0.0133  0.0000 </r>
        <r>  0.0230  0.0135  0.0000 </r>
        <r>  0.0165  0.0051  0.0000 </r>
        <r>  0.0047  0.0031  0.0000 </r>
        <r>  0.0156  0.0023  0.0000 </r>
        <r>  0.0010  0.0111  0.0000 </r>
        <r>  0.0018  0.0036  0.0000 </r>
        <r>  0.0044  0.0072  0.0000 </r>
        <r>  0.0030  0.0066  0.0000 </r>
       </set>
       <set comment="band 39">
        <r>  0.0001  0.0048  0.0000 </r>
        <r>  0.0171  0.0214  0.0000 </r>
        <r>  0.0040  0.0205  0.0000 </r>
        <r>  0.0036  0.0043  0.0000 </r>
        <r>  0.0016  0.0059  0.0000 </r>
        <r>  0.0111  0.0023  0.0000 </r>
        <r>  0.0007  0.0168  0.0000 </r>
        <r>  0.0222  0.0164  0.0000 </r>
        <r>  0.0027  0.0069  0.0000 </r>
        <r>  0.0010  0.0034  0.0000 </r>
        <r>  0.0082  0.0066  0.0000 </r>
        <r>  0.0086  0.0092  0.0000 </r>
        <r>  0.0053  0.0115  0.0000 </r>
        <r>  0.0014  0.0163  0.0000 </r>
        <r>  0.0031  0.0094  0.0000 </r>
        <r>  0.0002  0.0057  0.0000 </r>
       </set>
       <set comment="band 40">
        <r>  0.0036  0.0032  0.0000 </r>
        <r>  0.0048  0.0208  0.0000 </r>
        <r>  0.0005  0.0079  0.0000 </r>
        <r>  0.0041  0.0179  0.0000 </r>
        <r>  0.0023  0.0211  0.0000 </r>
        <r>  0.0058  0.0057  0.0000 </r>
        <r>  0.0063  0.0190  0.0000 </r>
        <r>  0.0033  0.0137  0.0000 </r>
        <r>  0.0037  0.0054  0.0000 </r>
        <r>  0.0030  0.0123  0.0000 </r>
        <r>  0.0011  0.0105  0.0000 </r>
        <r>  0.0032  0.0035  0.0000 </r>
        <r>  0.0032  0.0054  0.0000 </r>
        <r>  0.0018  0.0031  0.0000 </r>
        <r>  0.0042  0.0057  0.0000 </r>
        <r>  0.0011  0.0106  0.0000 </r>
       </set>
       <set comment="band 41">
        <r>  0.0070  0.0092  0.0000 </r>
        <r>  0.0109  0.0041  0.0000 </r>
        <r>  0.0002  0.0058  0.0000 </r>
        <r>  0.0063  0.0341  0.0000 </r>
        <r>  0.0009  0.0080  0.0000 </r>
        <r>  0.0242  0.0041  0.0000 </r>
        <r>  0.0112  0.0130  0.0000 </r>
        <r>  0.0053  0.0056  0.0000 </r>
        <r>  0.0169  0.0131  0.0000 </r>
        <r>  0.0098  0.0031  0.0000 </r>
        <r>  0.0013  0.0164  0.0000 </r>
        <r>  0.0057  0.0046  0.0000 </r>
        <r>  0.0032  0.0110  0.0000 </r>
        <r>  0.0017  0.0070  0.0000 </r>
        <r>  0.0111  0.0026  0.0000 </r>
        <r>  0.0009  0.0080  0.0000 </r>
       </set>
       <set comment="band 42">
        <r>  0.0022  0.0038  0.0000 </r>
        <r>  0.0003  0.0086  0.0000 </r>
        <r>  0.0042  0.0068  0.0000 </r>
        <r>  0.0006  0.0286  0.0000 </r>
        <r>  0.0154  0.0052  0.0000 </r>
        <r>  0.0019  0.0080  0.0000 </r>
        <r>  0.0047  0.0063  0.0000 </r>
        <r>  0.0030  0.0188  0.0000 </r>
        <r>  0.0034  0.0139  0.0000 </r>
        <r>  0.0021  0.0115  0.0000 </r>
        <r>  0.0067  0.0052  0.0000 </r>
        <r>  0.0004  0.0078  0.0000 </r>
        <r>  0.0019  0.0070  0.0000 </r>
        <r>  0.0002  0.0126  0.0000 </r>
        <r>  0.0026  0.0212  0.0000 </r>
        <r>  0.0003  0.0108  0.0000 </r>
       </set>
      </set>
     </set>
    </set>
   </array>
  </projected>
 </calculation>
 <structure name="finalpos" >
  <crystal>
   <varray name="basis" >
    <v>       7.64658920       0.68170254      -0.17814690 </v>
    <v>       4.40961799       7.93700752      -1.21787707 </v>
    <v>       3.69375643       1.48294845       5.56858265 </v>
   </varray>
   <i name="volume">    336.02492548 </i>
   <varray name="rec_basis" >
    <v>       0.13690631      -0.08646342      -0.06778704 </v>
    <v>      -0.01208333       0.12867705      -0.02625238 </v>
    <v>       0.00173714       0.02537623       0.17166878 </v>
   </varray>
  </crystal>
  <varray name="positions" >
   <v>       0.46907994       0.41930253       0.52786820 </v>
   <v>       0.58740443       0.99478615       0.41006653 </v>
   <v>       0.95825165       0.49844451       0.04934247 </v>
   <v>       0.97852638       0.87775936       0.63874874 </v>
   <v>       0.00922407       0.45098600       0.46252084 </v>
   <v>       0.97488655       0.77887197       0.09857079 </v>
   <v>       0.22174777       0.85846468       0.17874731 </v>
   <v>       0.22440679       0.15596451       0.97005658 </v>
   <v>       0.29978653       0.86716524       0.72386162 </v>
   <v>       0.61710480       0.40234657       0.97200812 </v>
   <v>       0.40480385       0.25722687       0.21524452 </v>
   <v>       0.56436114       0.58645260       0.17081231 </v>
   <v>       0.60722369       0.10798785       0.65750561 </v>
   <v>       0.59110882       0.55345963       0.64421077 </v>
   <v>       0.04549703       0.58898174       0.65977270 </v>
   <v>       0.00308656       0.21370180       0.76296188 </v>
  </varray>
 </structure>
</modeling>
