CIS                                     
           1
     7.659812    0.635745   -0.158865
     4.375494    7.852556   -1.157025
     3.705051    1.491171    5.591454
   Al   Li   S 
   1   9   6
Direct configuration=     1
   0.46818688  0.41969225  0.52801248
   0.58928791  0.99352034  0.40972601
   0.95782381  0.49842435  0.05074119
   0.97810370  0.87864898  0.63951201
   0.01029279  0.45089812  0.46090096
   0.97416895  0.77963086  0.09943421
   0.22038574  0.85886290  0.18060671
   0.22540454  0.15535927  0.96871259
   0.29795431  0.86744000  0.72435923
   0.61837235  0.40274537  0.97012560
   0.40459147  0.25663915  0.21436516
   0.56513467  0.58676622  0.17066563
   0.60717337  0.10801645  0.65803574
   0.59227182  0.55343577  0.64274558
   0.04472006  0.58867058  0.65998512
   0.00262763  0.21315138  0.76437078
CIS                                     
           1
     7.660045    0.640147   -0.160489
     4.379626    7.860483   -1.161898
     3.704818    1.491143    5.590481
   Al   Li   S 
   1   9   6
Direct configuration=     2
   0.46819527  0.41968584  0.52801668
   0.58918425  0.99360569  0.40974614
   0.95781985  0.49842577  0.05066312
   0.97806675  0.87868601  0.63947336
   0.01025793  0.45090968  0.46091881
   0.97419040  0.77959518  0.09941973
   0.22047319  0.85875640  0.18057692
   0.22538293  0.15545516  0.96870404
   0.29803809  0.86743543  0.72432873
   0.61836995  0.40272921  0.97015209
   0.40454453  0.25660467  0.21447824
   0.56511250  0.58680788  0.17064175
   0.60722692  0.10797659  0.65800503
   0.59225078  0.55342094  0.64280532
   0.04476818  0.58863486  0.66003687
   0.00261850  0.21317269  0.76433217
CIS                                     
           1
     7.660747    0.653351   -0.165361
     4.392022    7.884267   -1.176515
     3.704117    1.491060    5.587560
   Al   Li   S 
   1   9   6
Direct configuration=     3
   0.46822042  0.41966661  0.52802926
   0.58887313  0.99386163  0.40980665
   0.95780796  0.49843003  0.05042889
   0.97795589  0.87879705  0.63935746
   0.01015331  0.45094439  0.46097237
   0.97425478  0.77948824  0.09937622
   0.22073566  0.85843709  0.18048735
   0.22531800  0.15574254  0.96867857
   0.29828952  0.86742158  0.72423725
   0.61836275  0.40268078  0.97023156
   0.40440368  0.25650142  0.21481744
   0.56504596  0.58693276  0.17057019
   0.60738763  0.10785705  0.65791283
   0.59218766  0.55337653  0.64298452
   0.04491259  0.58852773  0.66019209
   0.00259107  0.21323657  0.76421635
CIS                                     
           1
     7.662150    0.679760   -0.175106
     4.416815    7.931834   -1.205749
     3.702716    1.490895    5.581718
   Al   Li   S 
   1   9   6
Direct configuration=     4
   0.46827080  0.41962819  0.52805438
   0.58825012  0.99437294  0.40992838
   0.95778420  0.49843862  0.04996019
   0.97773388  0.87901883  0.63912583
   0.00994387  0.45101395  0.46107957
   0.97438378  0.77927483  0.09928882
   0.22126140  0.85779964  0.18030719
   0.22518769  0.15631563  0.96862863
   0.29879277  0.86739306  0.72405440
   0.61834839  0.40258425  0.97039038
   0.40412185  0.25629607  0.21549566
   0.56491264  0.58718195  0.17042739
   0.60770944  0.10761819  0.65772804
   0.59206134  0.55328822  0.64334288
   0.04520172  0.58831361  0.66050243
   0.00253613  0.21336401  0.76398483
CIS                                     
           1
     7.661649    0.670338   -0.171629
     4.407969    7.914863   -1.195318
     3.703216    1.490954    5.583802
   Al   Li   S 
   1   9   6
Direct configuration=     5
   0.46825279  0.41964187  0.52804544
   0.58847295  0.99419091  0.40988444
   0.95779266  0.49843552  0.05012758
   0.97781328  0.87893993  0.63920834
   0.01001874  0.45098903  0.46104127
   0.97433759  0.77935063  0.09932027
   0.22107326  0.85802624  0.18037220
   0.22523450  0.15611234  0.96864574
   0.29861294  0.86740381  0.72411956
   0.61835349  0.40261845  0.97033379
   0.40422251  0.25636852  0.21525382
   0.56496037  0.58709345  0.17047810
   0.60759434  0.10770325  0.65779424
   0.59210646  0.55331937  0.64321506
   0.04509834  0.58838989  0.66039178
   0.00255580  0.21331876  0.76406736
CIS                                     
           1
     7.657655    0.672828   -0.173376
     4.408006    7.919285   -1.200851
     3.700597    1.488720    5.579567
   Al   Li   S 
   1   9   6
Direct configuration=     6
   0.46838648  0.41959701  0.52801270
   0.58821888  0.99433847  0.40997383
   0.95787786  0.49844873  0.04993339
   0.97793559  0.87871664  0.63912102
   0.00988273  0.45100090  0.46131258
   0.97445938  0.77924103  0.09918257
   0.22122252  0.85807593  0.18006487
   0.22508618  0.15609884  0.96889269
   0.29885531  0.86736978  0.72406899
   0.61805475  0.40258834  0.97076029
   0.40436087  0.25653923  0.21523201
   0.56485830  0.58693921  0.17047115
   0.60753544  0.10773962  0.65769582
   0.59191552  0.55333118  0.64341446
   0.04518358  0.58849737  0.66029724
   0.00266661  0.21337972  0.76386538
CIS                                     
           1
     7.645671    0.680301   -0.178618
     4.408116    7.932550   -1.217447
     3.692741    1.482018    5.566861
   Al   Li   S 
   1   9   6
Direct configuration=     7
   0.46878785  0.41946233  0.52791439
   0.58745614  0.99478119  0.41024240
   0.95813370  0.49848813  0.04935047
   0.97830278  0.87804705  0.63885840
   0.00947433  0.45103677  0.46212710
   0.97482505  0.77891223  0.09876895
   0.22167071  0.85822459  0.17914240
   0.22464085  0.15605863  0.96963397
   0.29958294  0.86726742  0.72391725
   0.61715780  0.40249861  0.97204049
   0.40477625  0.25705082  0.21516704
   0.56455187  0.58647697  0.17044982
   0.60735865  0.10784869  0.65740038
   0.59134225  0.55336691  0.64401303
   0.04543951  0.58881940  0.66001373
   0.00299932  0.21356224  0.76325919
CIS                                     
           1
     7.646589    0.681703   -0.178147
     4.409618    7.937008   -1.217877
     3.693756    1.482948    5.568583
   Al   Li   S 
   1   9   6
Direct configuration=     8
   0.46907994  0.41930253  0.52786820
   0.58740443  0.99478615  0.41006653
   0.95825165  0.49844451  0.04934247
   0.97852638  0.87775936  0.63874874
   0.00922407  0.45098600  0.46252084
   0.97488655  0.77887197  0.09857079
   0.22174777  0.85846468  0.17874731
   0.22440679  0.15596451  0.97005658
   0.29978653  0.86716524  0.72386162
   0.61710480  0.40234657  0.97200812
   0.40480385  0.25722687  0.21524452
   0.56436114  0.58645260  0.17081231
   0.60722369  0.10798785  0.65750561
   0.59110882  0.55345963  0.64421077
   0.04549703  0.58898174  0.65977270
   0.00308656  0.21370180  0.76296188
