  26  26   1   0
  0.3000078E+02  0.7359444E-09  0.9620216E-09  0.1147373E-08  0.1000000E-15
  1.000000000000000E-004
  CAR 
 CIS                                     
      7.68072194    -11.54840728  301      3.06973699      1.00000000
    -11.548  0.0000E+00  0.0000E+00
    -11.484  0.0000E+00  0.0000E+00
    -11.420  0.0000E+00  0.0000E+00
    -11.356  0.0000E+00  0.0000E+00
    -11.292  0.0000E+00  0.0000E+00
    -11.228  0.0000E+00  0.0000E+00
    -11.164  0.0000E+00  0.0000E+00
    -11.100  0.0000E+00  0.0000E+00
    -11.036  0.0000E+00  0.0000E+00
    -10.972  0.0000E+00  0.0000E+00
    -10.907  0.1136E-11  0.7281E-13
    -10.843  0.4615E-07  0.2958E-08
    -10.779  0.7931E-04  0.5086E-05
    -10.715  0.6699E-02  0.4345E-03
    -10.651  0.4383E-01  0.3244E-02
    -10.587  0.5529E-01  0.6788E-02
    -10.523  0.1067E+00  0.1363E-01
    -10.459  0.1287E+00  0.2188E-01
    -10.395  0.9086E-01  0.2770E-01
    -10.331  0.1117E+00  0.3486E-01
    -10.266  0.6469E-01  0.3900E-01
    -10.202  0.3100E-01  0.4099E-01
    -10.138  0.5755E-01  0.4468E-01
    -10.074  0.7913E-01  0.4975E-01
    -10.010  0.1234E+00  0.5766E-01
     -9.946  0.7939E-01  0.6275E-01
     -9.882  0.1381E+00  0.7160E-01
     -9.818  0.1135E+00  0.7888E-01
     -9.754  0.1180E+00  0.8644E-01
     -9.690  0.1682E+00  0.9722E-01
     -9.625  0.1682E+00  0.1080E+00
     -9.561  0.1418E+00  0.1171E+00
     -9.497  0.1081E+00  0.1240E+00
     -9.433  0.1780E+00  0.1354E+00
     -9.369  0.2558E+00  0.1518E+00
     -9.305  0.1910E+00  0.1641E+00
     -9.241  0.2090E+00  0.1775E+00
     -9.177  0.3243E+00  0.1983E+00
     -9.113  0.4916E+00  0.2298E+00
     -9.049  0.4127E+00  0.2562E+00
     -8.985  0.2804E+00  0.2742E+00
     -8.920  0.1117E+00  0.2813E+00
     -8.856  0.2268E-01  0.2828E+00
     -8.792  0.4827E-03  0.2828E+00
     -8.728  0.5245E-06  0.2828E+00
     -8.664  0.2449E-10  0.2828E+00
     -8.600  0.4666E-16  0.2828E+00
     -8.536  0.0000E+00  0.2828E+00
     -8.472  0.0000E+00  0.2828E+00
     -8.408  0.0000E+00  0.2828E+00
     -8.344  0.0000E+00  0.2828E+00
     -8.279  0.0000E+00  0.2828E+00
     -8.215  0.0000E+00  0.2828E+00
     -8.151  0.0000E+00  0.2828E+00
     -8.087  0.0000E+00  0.2828E+00
     -8.023  0.0000E+00  0.2828E+00
     -7.959  0.0000E+00  0.2828E+00
     -7.895  0.0000E+00  0.2828E+00
     -7.831  0.0000E+00  0.2828E+00
     -7.767  0.0000E+00  0.2828E+00
     -7.703  0.0000E+00  0.2828E+00
     -7.638  0.0000E+00  0.2828E+00
     -7.574  0.0000E+00  0.2828E+00
     -7.510  0.0000E+00  0.2828E+00
     -7.446  0.0000E+00  0.2828E+00
     -7.382  0.0000E+00  0.2828E+00
     -7.318  0.0000E+00  0.2828E+00
     -7.254  0.0000E+00  0.2828E+00
     -7.190  0.0000E+00  0.2828E+00
     -7.126  0.0000E+00  0.2828E+00
     -7.062  0.0000E+00  0.2828E+00
     -6.998  0.0000E+00  0.2828E+00
     -6.933  0.0000E+00  0.2828E+00
     -6.869  0.0000E+00  0.2828E+00
     -6.805  0.0000E+00  0.2828E+00
     -6.741  0.0000E+00  0.2828E+00
     -6.677  0.0000E+00  0.2828E+00
     -6.613  0.0000E+00  0.2828E+00
     -6.549  0.0000E+00  0.2828E+00
     -6.485  0.0000E+00  0.2828E+00
     -6.421  0.1403E-12  0.2828E+00
     -6.357  0.1014E-07  0.2828E+00
     -6.292  0.3200E-04  0.2828E+00
     -6.228  0.5239E-02  0.2832E+00
     -6.164  0.6565E-01  0.2874E+00
     -6.100  0.1114E+00  0.2945E+00
     -6.036  0.8194E-01  0.2998E+00
     -5.972  0.1604E+00  0.3100E+00
     -5.908  0.2112E+00  0.3236E+00
     -5.844  0.1027E+00  0.3302E+00
     -5.780  0.1229E+00  0.3380E+00
     -5.716  0.2156E+00  0.3519E+00
     -5.651  0.1293E+00  0.3602E+00
     -5.587  0.8108E-01  0.3653E+00
     -5.523  0.1004E+00  0.3718E+00
     -5.459  0.1114E+00  0.3789E+00
     -5.395  0.2531E-01  0.3805E+00
     -5.331  0.4491E-01  0.3834E+00
     -5.267  0.1399E+00  0.3924E+00
     -5.203  0.7532E-01  0.3972E+00
     -5.139  0.3945E-01  0.3997E+00
     -5.075  0.6426E-01  0.4039E+00
     -5.011  0.8980E-01  0.4096E+00
     -4.946  0.1092E+00  0.4166E+00
     -4.882  0.9413E-01  0.4227E+00
     -4.818  0.7156E-01  0.4272E+00
     -4.754  0.4691E-01  0.4302E+00
     -4.690  0.3510E-01  0.4325E+00
     -4.626  0.6649E-01  0.4368E+00
     -4.562  0.4113E-01  0.4394E+00
     -4.498  0.5670E-01  0.4430E+00
     -4.434  0.2125E-01  0.4444E+00
     -4.370  0.8615E-03  0.4444E+00
     -4.305  0.2030E-05  0.4444E+00
     -4.241  0.2133E-09  0.4444E+00
     -4.177  0.9156E-15  0.4444E+00
     -4.113  0.0000E+00  0.4444E+00
     -4.049  0.0000E+00  0.4444E+00
     -3.985  0.0000E+00  0.4444E+00
     -3.921  0.0000E+00  0.4444E+00
     -3.857  0.0000E+00  0.4444E+00
     -3.793  0.0000E+00  0.4444E+00
     -3.729  0.0000E+00  0.4444E+00
     -3.664  0.0000E+00  0.4444E+00
     -3.600  0.0000E+00  0.4444E+00
     -3.536  0.0000E+00  0.4444E+00
     -3.472  0.0000E+00  0.4444E+00
     -3.408  0.0000E+00  0.4444E+00
     -3.344  0.0000E+00  0.4444E+00
     -3.280  0.0000E+00  0.4444E+00
     -3.216  0.0000E+00  0.4444E+00
     -3.152  0.0000E+00  0.4444E+00
     -3.088  0.0000E+00  0.4444E+00
     -3.023  0.0000E+00  0.4444E+00
     -2.959  0.0000E+00  0.4444E+00
     -2.895  0.0000E+00  0.4444E+00
     -2.831  0.0000E+00  0.4444E+00
     -2.767  0.0000E+00  0.4444E+00
     -2.703  0.0000E+00  0.4444E+00
     -2.639  0.0000E+00  0.4444E+00
     -2.575  0.0000E+00  0.4444E+00
     -2.511  0.0000E+00  0.4444E+00
     -2.447  0.0000E+00  0.4444E+00
     -2.383  0.0000E+00  0.4444E+00
     -2.318  0.0000E+00  0.4444E+00
     -2.254  0.0000E+00  0.4444E+00
     -2.190  0.0000E+00  0.4444E+00
     -2.126  0.0000E+00  0.4444E+00
     -2.062  0.6436E-13  0.4444E+00
     -1.998  0.5963E-08  0.4444E+00
     -1.934  0.2376E-04  0.4444E+00
     -1.870  0.4536E-02  0.4447E+00
     -1.806  0.5372E-01  0.4482E+00
     -1.742  0.8767E-01  0.4538E+00
     -1.677  0.8831E-01  0.4595E+00
     -1.613  0.1018E+00  0.4660E+00
     -1.549  0.1582E+00  0.4761E+00
     -1.485  0.9112E-01  0.4820E+00
     -1.421  0.1027E+00  0.4885E+00
     -1.357  0.1826E+00  0.5003E+00
     -1.293  0.1608E+00  0.5106E+00
     -1.229  0.1231E+00  0.5184E+00
     -1.165  0.1704E+00  0.5294E+00
     -1.101  0.1566E+00  0.5394E+00
     -1.036  0.1806E+00  0.5510E+00
     -0.972  0.1259E+00  0.5591E+00
     -0.908  0.1078E+00  0.5660E+00
     -0.844  0.1086E+00  0.5729E+00
     -0.780  0.1481E+00  0.5824E+00
     -0.716  0.1459E+00  0.5918E+00
     -0.652  0.1051E+00  0.5985E+00
     -0.588  0.2221E+00  0.6127E+00
     -0.524  0.1226E+00  0.6206E+00
     -0.460  0.1008E+00  0.6271E+00
     -0.396  0.1489E+00  0.6366E+00
     -0.331  0.1910E+00  0.6488E+00
     -0.267  0.1757E+00  0.6601E+00
     -0.203  0.1846E+00  0.6719E+00
     -0.139  0.1730E+00  0.6830E+00
     -0.075  0.2530E+00  0.6992E+00
     -0.011  0.2492E+00  0.7152E+00
      0.053  0.2132E+00  0.7289E+00
      0.117  0.1585E+00  0.7390E+00
      0.181  0.2009E+00  0.7519E+00
      0.245  0.2433E+00  0.7675E+00
      0.310  0.2580E+00  0.7841E+00
      0.374  0.2014E+00  0.7970E+00
      0.438  0.1901E+00  0.8091E+00
      0.502  0.2116E+00  0.8227E+00
      0.566  0.2219E+00  0.8369E+00
      0.630  0.2236E+00  0.8513E+00
      0.694  0.2475E+00  0.8671E+00
      0.758  0.1905E+00  0.8793E+00
      0.822  0.1456E+00  0.8887E+00
      0.886  0.1485E+00  0.8982E+00
      0.951  0.1954E+00  0.9107E+00
      1.015  0.1096E+00  0.9177E+00
      1.079  0.1383E+00  0.9266E+00
      1.143  0.1488E+00  0.9361E+00
      1.207  0.1890E+00  0.9483E+00
      1.271  0.2054E+00  0.9614E+00
      1.335  0.2062E+00  0.9746E+00
      1.399  0.1648E+00  0.9852E+00
      1.463  0.2038E+00  0.9983E+00
      1.527  0.2215E+00  0.1012E+01
      1.591  0.1897E+00  0.1025E+01
      1.656  0.2688E+00  0.1042E+01
      1.720  0.3473E+00  0.1064E+01
      1.784  0.2378E+00  0.1079E+01
      1.848  0.2164E+00  0.1093E+01
      1.912  0.3402E+00  0.1115E+01
      1.976  0.3128E+00  0.1135E+01
      2.040  0.2349E+00  0.1150E+01
      2.104  0.2509E+00  0.1166E+01
      2.168  0.2581E+00  0.1183E+01
      2.232  0.1797E+00  0.1194E+01
      2.297  0.1704E+00  0.1205E+01
      2.361  0.2422E+00  0.1221E+01
      2.425  0.1966E+00  0.1233E+01
      2.489  0.9643E-01  0.1240E+01
      2.553  0.2306E+00  0.1254E+01
      2.617  0.2401E+00  0.1270E+01
      2.681  0.1856E+00  0.1282E+01
      2.745  0.9760E-01  0.1288E+01
      2.809  0.3517E-01  0.1290E+01
      2.873  0.3460E-01  0.1292E+01
      2.938  0.9358E-02  0.1293E+01
      3.002  0.1696E-03  0.1293E+01
      3.066  0.1504E-06  0.1293E+01
      3.130  0.5683E-11  0.1293E+01
      3.194  0.1166E-16  0.1293E+01
      3.258  0.0000E+00  0.1293E+01
      3.322  0.0000E+00  0.1293E+01
      3.386  0.0000E+00  0.1293E+01
      3.450  0.0000E+00  0.1293E+01
      3.514  0.0000E+00  0.1293E+01
      3.579  0.0000E+00  0.1293E+01
      3.643  0.0000E+00  0.1293E+01
      3.707  0.0000E+00  0.1293E+01
      3.771  0.7950E-13  0.1293E+01
      3.835  0.6365E-08  0.1293E+01
      3.899  0.2117E-04  0.1293E+01
      3.963  0.3240E-02  0.1293E+01
      4.027  0.2942E-01  0.1295E+01
      4.091  0.4572E-01  0.1298E+01
      4.155  0.6685E-01  0.1302E+01
      4.219  0.3109E-01  0.1304E+01
      4.284  0.3782E-01  0.1307E+01
      4.348  0.6202E-01  0.1311E+01
      4.412  0.6617E-01  0.1315E+01
      4.476  0.1246E+00  0.1323E+01
      4.540  0.1498E+00  0.1332E+01
      4.604  0.1901E+00  0.1345E+01
      4.668  0.1523E+00  0.1354E+01
      4.732  0.1233E+00  0.1362E+01
      4.796  0.1139E+00  0.1370E+01
      4.860  0.1696E+00  0.1380E+01
      4.925  0.1908E+00  0.1393E+01
      4.989  0.2067E+00  0.1406E+01
      5.053  0.2560E+00  0.1422E+01
      5.117  0.2207E+00  0.1437E+01
      5.181  0.1715E+00  0.1448E+01
      5.245  0.1817E+00  0.1459E+01
      5.309  0.1924E+00  0.1471E+01
      5.373  0.1498E+00  0.1481E+01
      5.437  0.1040E+00  0.1488E+01
      5.501  0.1817E+00  0.1499E+01
      5.566  0.2116E+00  0.1513E+01
      5.630  0.2039E+00  0.1526E+01
      5.694  0.1827E+00  0.1538E+01
      5.758  0.2489E+00  0.1554E+01
      5.822  0.2289E+00  0.1568E+01
      5.886  0.2008E+00  0.1581E+01
      5.950  0.1408E+00  0.1590E+01
      6.014  0.1698E+00  0.1601E+01
      6.078  0.1849E+00  0.1613E+01
      6.142  0.1354E+00  0.1622E+01
      6.206  0.1185E+00  0.1629E+01
      6.271  0.1243E+00  0.1637E+01
      6.335  0.4768E-01  0.1640E+01
      6.399  0.8336E-01  0.1646E+01
      6.463  0.1068E+00  0.1652E+01
      6.527  0.1010E+00  0.1659E+01
      6.591  0.6954E-01  0.1663E+01
      6.655  0.1519E+00  0.1673E+01
      6.719  0.1486E+00  0.1683E+01
      6.783  0.1136E+00  0.1690E+01
      6.847  0.9615E-01  0.1696E+01
      6.912  0.1291E-01  0.1697E+01
      6.976  0.1240E-03  0.1697E+01
      7.040  0.6167E-07  0.1697E+01
      7.104  0.1370E-11  0.1697E+01
      7.168  0.0000E+00  0.1697E+01
      7.232  0.0000E+00  0.1697E+01
      7.296  0.0000E+00  0.1697E+01
      7.360  0.0000E+00  0.1697E+01
      7.424  0.0000E+00  0.1697E+01
      7.488  0.0000E+00  0.1697E+01
      7.553  0.0000E+00  0.1697E+01
      7.617  0.0000E+00  0.1697E+01
      7.681  0.0000E+00  0.1697E+01
      7.68072194    -11.54840728  301      3.06973699      1.00000000
    -11.548  0.0000E+00  0.0000E+00  0.0000E+00
    -11.484  0.0000E+00  0.0000E+00  0.0000E+00
    -11.420  0.0000E+00  0.0000E+00  0.0000E+00
    -11.356  0.0000E+00  0.0000E+00  0.0000E+00
    -11.292  0.0000E+00  0.0000E+00  0.0000E+00
    -11.228  0.0000E+00  0.0000E+00  0.0000E+00
    -11.164  0.0000E+00  0.0000E+00  0.0000E+00
    -11.100  0.0000E+00  0.0000E+00  0.0000E+00
    -11.036  0.0000E+00  0.0000E+00  0.0000E+00
    -10.972  0.0000E+00  0.0000E+00  0.0000E+00
    -10.907  0.1274E-13  0.5796E-15  0.0000E+00
    -10.843  0.5175E-09  0.2356E-10  0.0000E+00
    -10.779  0.8880E-06  0.4076E-07  0.0000E+00
    -10.715  0.7386E-04  0.3682E-05  0.0000E+00
    -10.651  0.4340E-03  0.3429E-04  0.0000E+00
    -10.587  0.4178E-03  0.7172E-04  0.0000E+00
    -10.523  0.8073E-03  0.1480E-03  0.0000E+00
    -10.459  0.8155E-03  0.1706E-03  0.0000E+00
    -10.395  0.4263E-03  0.2043E-03  0.0000E+00
    -10.331  0.6169E-03  0.2903E-03  0.0000E+00
    -10.266  0.1889E-03  0.1687E-03  0.0000E+00
    -10.202  0.7530E-04  0.1089E-03  0.0000E+00
    -10.138  0.2101E-03  0.3260E-03  0.0000E+00
    -10.074  0.4904E-03  0.3182E-03  0.0000E+00
    -10.010  0.9457E-03  0.3619E-03  0.0000E+00
     -9.946  0.7869E-03  0.2722E-03  0.0000E+00
     -9.882  0.1386E-02  0.7383E-03  0.0000E+00
     -9.818  0.8510E-03  0.5519E-03  0.0000E+00
     -9.754  0.5603E-03  0.3336E-03  0.0000E+00
     -9.690  0.8528E-03  0.5155E-03  0.0000E+00
     -9.625  0.6503E-03  0.5610E-03  0.0000E+00
     -9.561  0.6112E-03  0.4214E-03  0.0000E+00
     -9.497  0.1856E-03  0.2510E-03  0.0000E+00
     -9.433  0.2289E-03  0.5006E-03  0.0000E+00
     -9.369  0.4152E-03  0.8939E-03  0.0000E+00
     -9.305  0.2804E-03  0.7326E-03  0.0000E+00
     -9.241  0.4845E-03  0.9886E-03  0.0000E+00
     -9.177  0.1620E-02  0.1294E-02  0.0000E+00
     -9.113  0.2423E-02  0.1823E-02  0.0000E+00
     -9.049  0.1933E-02  0.1723E-02  0.0000E+00
     -8.985  0.2078E-02  0.1402E-02  0.0000E+00
     -8.920  0.5265E-03  0.3825E-03  0.0000E+00
     -8.856  0.3827E-04  0.4846E-04  0.0000E+00
     -8.792  0.6862E-06  0.9903E-06  0.0000E+00
     -8.728  0.7317E-09  0.1079E-08  0.0000E+00
     -8.664  0.3375E-13  0.5059E-13  0.0000E+00
     -8.600  0.6713E-19  0.9486E-19  0.0000E+00
     -8.536  0.0000E+00  0.0000E+00  0.0000E+00
     -8.472  0.0000E+00  0.0000E+00  0.0000E+00
     -8.408  0.0000E+00  0.0000E+00  0.0000E+00
     -8.344  0.0000E+00  0.0000E+00  0.0000E+00
     -8.279  0.0000E+00  0.0000E+00  0.0000E+00
     -8.215  0.0000E+00  0.0000E+00  0.0000E+00
     -8.151  0.0000E+00  0.0000E+00  0.0000E+00
     -8.087  0.0000E+00  0.0000E+00  0.0000E+00
     -8.023  0.0000E+00  0.0000E+00  0.0000E+00
     -7.959  0.0000E+00  0.0000E+00  0.0000E+00
     -7.895  0.0000E+00  0.0000E+00  0.0000E+00
     -7.831  0.0000E+00  0.0000E+00  0.0000E+00
     -7.767  0.0000E+00  0.0000E+00  0.0000E+00
     -7.703  0.0000E+00  0.0000E+00  0.0000E+00
     -7.638  0.0000E+00  0.0000E+00  0.0000E+00
     -7.574  0.0000E+00  0.0000E+00  0.0000E+00
     -7.510  0.0000E+00  0.0000E+00  0.0000E+00
     -7.446  0.0000E+00  0.0000E+00  0.0000E+00
     -7.382  0.0000E+00  0.0000E+00  0.0000E+00
     -7.318  0.0000E+00  0.0000E+00  0.0000E+00
     -7.254  0.0000E+00  0.0000E+00  0.0000E+00
     -7.190  0.0000E+00  0.0000E+00  0.0000E+00
     -7.126  0.0000E+00  0.0000E+00  0.0000E+00
     -7.062  0.0000E+00  0.0000E+00  0.0000E+00
     -6.998  0.0000E+00  0.0000E+00  0.0000E+00
     -6.933  0.0000E+00  0.0000E+00  0.0000E+00
     -6.869  0.0000E+00  0.0000E+00  0.0000E+00
     -6.805  0.0000E+00  0.0000E+00  0.0000E+00
     -6.741  0.0000E+00  0.0000E+00  0.0000E+00
     -6.677  0.0000E+00  0.0000E+00  0.0000E+00
     -6.613  0.0000E+00  0.0000E+00  0.0000E+00
     -6.549  0.0000E+00  0.0000E+00  0.0000E+00
     -6.485  0.0000E+00  0.0000E+00  0.0000E+00
     -6.421  0.1522E-15  0.1957E-15  0.0000E+00
     -6.357  0.1099E-10  0.1397E-10  0.0000E+00
     -6.292  0.3495E-07  0.4297E-07  0.0000E+00
     -6.228  0.6038E-05  0.6728E-05  0.0000E+00
     -6.164  0.8901E-04  0.8181E-04  0.0000E+00
     -6.100  0.1663E-03  0.1455E-03  0.0000E+00
     -6.036  0.7928E-04  0.1154E-03  0.0000E+00
     -5.972  0.2924E-03  0.2241E-03  0.0000E+00
     -5.908  0.4841E-03  0.2415E-03  0.0000E+00
     -5.844  0.2223E-03  0.1032E-03  0.0000E+00
     -5.780  0.2779E-03  0.1788E-03  0.0000E+00
     -5.716  0.4077E-03  0.2879E-03  0.0000E+00
     -5.651  0.2372E-03  0.1420E-03  0.0000E+00
     -5.587  0.2474E-03  0.7266E-04  0.0000E+00
     -5.523  0.2988E-03  0.1278E-03  0.0000E+00
     -5.459  0.2908E-03  0.2389E-03  0.0000E+00
     -5.395  0.6055E-04  0.6022E-04  0.0000E+00
     -5.331  0.1199E-03  0.1106E-03  0.0000E+00
     -5.267  0.3219E-03  0.3675E-03  0.0000E+00
     -5.203  0.1549E-03  0.2034E-03  0.0000E+00
     -5.139  0.3379E-04  0.6576E-04  0.0000E+00
     -5.075  0.2421E-04  0.1173E-03  0.0000E+00
     -5.011  0.2649E-04  0.1518E-03  0.0000E+00
     -4.946  0.8362E-04  0.1892E-03  0.0000E+00
     -4.882  0.3514E-03  0.2245E-03  0.0000E+00
     -4.818  0.6280E-03  0.1803E-03  0.0000E+00
     -4.754  0.6898E-03  0.1450E-03  0.0000E+00
     -4.690  0.6428E-03  0.1086E-03  0.0000E+00
     -4.626  0.1296E-02  0.1937E-03  0.0000E+00
     -4.562  0.1054E-02  0.1206E-03  0.0000E+00
     -4.498  0.1713E-02  0.1555E-03  0.0000E+00
     -4.434  0.6561E-03  0.5441E-04  0.0000E+00
     -4.370  0.2675E-04  0.2160E-05  0.0000E+00
     -4.305  0.6309E-07  0.5074E-08  0.0000E+00
     -4.241  0.6629E-11  0.5329E-12  0.0000E+00
     -4.177  0.2846E-16  0.2288E-17  0.0000E+00
     -4.113  0.0000E+00  0.0000E+00  0.0000E+00
     -4.049  0.0000E+00  0.0000E+00  0.0000E+00
     -3.985  0.0000E+00  0.0000E+00  0.0000E+00
     -3.921  0.0000E+00  0.0000E+00  0.0000E+00
     -3.857  0.0000E+00  0.0000E+00  0.0000E+00
     -3.793  0.0000E+00  0.0000E+00  0.0000E+00
     -3.729  0.0000E+00  0.0000E+00  0.0000E+00
     -3.664  0.0000E+00  0.0000E+00  0.0000E+00
     -3.600  0.0000E+00  0.0000E+00  0.0000E+00
     -3.536  0.0000E+00  0.0000E+00  0.0000E+00
     -3.472  0.0000E+00  0.0000E+00  0.0000E+00
     -3.408  0.0000E+00  0.0000E+00  0.0000E+00
     -3.344  0.0000E+00  0.0000E+00  0.0000E+00
     -3.280  0.0000E+00  0.0000E+00  0.0000E+00
     -3.216  0.0000E+00  0.0000E+00  0.0000E+00
     -3.152  0.0000E+00  0.0000E+00  0.0000E+00
     -3.088  0.0000E+00  0.0000E+00  0.0000E+00
     -3.023  0.0000E+00  0.0000E+00  0.0000E+00
     -2.959  0.0000E+00  0.0000E+00  0.0000E+00
     -2.895  0.0000E+00  0.0000E+00  0.0000E+00
     -2.831  0.0000E+00  0.0000E+00  0.0000E+00
     -2.767  0.0000E+00  0.0000E+00  0.0000E+00
     -2.703  0.0000E+00  0.0000E+00  0.0000E+00
     -2.639  0.0000E+00  0.0000E+00  0.0000E+00
     -2.575  0.0000E+00  0.0000E+00  0.0000E+00
     -2.511  0.0000E+00  0.0000E+00  0.0000E+00
     -2.447  0.0000E+00  0.0000E+00  0.0000E+00
     -2.383  0.0000E+00  0.0000E+00  0.0000E+00
     -2.318  0.0000E+00  0.0000E+00  0.0000E+00
     -2.254  0.0000E+00  0.0000E+00  0.0000E+00
     -2.190  0.0000E+00  0.0000E+00  0.0000E+00
     -2.126  0.0000E+00  0.0000E+00  0.0000E+00
     -2.062  0.8787E-16  0.1434E-14  0.0000E+00
     -1.998  0.8550E-11  0.1337E-09  0.0000E+00
     -1.934  0.3636E-07  0.5373E-06  0.0000E+00
     -1.870  0.7475E-05  0.1036E-03  0.0000E+00
     -1.806  0.9381E-04  0.1228E-02  0.0000E+00
     -1.742  0.1532E-03  0.1824E-02  0.0000E+00
     -1.677  0.2420E-03  0.1775E-02  0.0000E+00
     -1.613  0.1218E-02  0.2682E-02  0.0000E+00
     -1.549  0.3017E-02  0.4812E-02  0.0000E+00
     -1.485  0.1896E-02  0.2549E-02  0.0000E+00
     -1.421  0.2804E-02  0.2320E-02  0.0000E+00
     -1.357  0.3901E-02  0.3433E-02  0.0000E+00
     -1.293  0.3973E-02  0.2240E-02  0.0000E+00
     -1.229  0.4213E-02  0.1438E-02  0.0000E+00
     -1.165  0.4434E-02  0.1551E-02  0.0000E+00
     -1.101  0.3586E-02  0.1525E-02  0.0000E+00
     -1.036  0.5169E-02  0.1769E-02  0.0000E+00
     -0.972  0.4078E-02  0.1430E-02  0.0000E+00
     -0.908  0.3224E-02  0.1432E-02  0.0000E+00
     -0.844  0.2557E-02  0.1595E-02  0.0000E+00
     -0.780  0.4888E-02  0.1749E-02  0.0000E+00
     -0.716  0.5744E-02  0.1314E-02  0.0000E+00
     -0.652  0.5623E-02  0.1206E-02  0.0000E+00
     -0.588  0.1360E-01  0.2730E-02  0.0000E+00
     -0.524  0.7749E-02  0.1563E-02  0.0000E+00
     -0.460  0.6340E-02  0.2165E-02  0.0000E+00
     -0.396  0.9963E-02  0.3322E-02  0.0000E+00
     -0.331  0.1443E-01  0.3219E-02  0.0000E+00
     -0.267  0.9621E-02  0.3074E-02  0.0000E+00
     -0.203  0.9029E-02  0.3665E-02  0.0000E+00
     -0.139  0.1146E-01  0.4394E-02  0.0000E+00
     -0.075  0.1433E-01  0.6484E-02  0.0000E+00
     -0.011  0.1067E-01  0.4580E-02  0.0000E+00
      0.053  0.5805E-02  0.2937E-02  0.0000E+00
      0.117  0.5264E-02  0.2374E-02  0.0000E+00
      0.181  0.7822E-02  0.3739E-02  0.0000E+00
      0.245  0.1026E-01  0.5620E-02  0.0000E+00
      0.310  0.1112E-01  0.7060E-02  0.0000E+00
      0.374  0.9666E-02  0.4585E-02  0.0000E+00
      0.438  0.6461E-02  0.4152E-02  0.0000E+00
      0.502  0.9156E-02  0.4337E-02  0.0000E+00
      0.566  0.1148E-01  0.5103E-02  0.0000E+00
      0.630  0.2240E-01  0.4772E-02  0.0000E+00
      0.694  0.2733E-01  0.6724E-02  0.0000E+00
      0.758  0.1999E-01  0.6244E-02  0.0000E+00
      0.822  0.2469E-01  0.5260E-02  0.0000E+00
      0.886  0.2670E-01  0.4658E-02  0.0000E+00
      0.951  0.2456E-01  0.6105E-02  0.0000E+00
      1.015  0.1293E-01  0.3613E-02  0.0000E+00
      1.079  0.1780E-01  0.6613E-02  0.0000E+00
      1.143  0.2842E-01  0.6282E-02  0.0000E+00
      1.207  0.3349E-01  0.1115E-01  0.0000E+00
      1.271  0.3808E-01  0.1447E-01  0.0000E+00
      1.335  0.4015E-01  0.1177E-01  0.0000E+00
      1.399  0.2904E-01  0.8936E-02  0.0000E+00
      1.463  0.1421E-01  0.1414E-01  0.0000E+00
      1.527  0.1426E-01  0.1872E-01  0.0000E+00
      1.591  0.7929E-02  0.1684E-01  0.0000E+00
      1.656  0.1297E-01  0.2288E-01  0.0000E+00
      1.720  0.1237E-01  0.2877E-01  0.0000E+00
      1.784  0.8028E-02  0.1884E-01  0.0000E+00
      1.848  0.6072E-02  0.1580E-01  0.0000E+00
      1.912  0.6947E-02  0.2403E-01  0.0000E+00
      1.976  0.7241E-02  0.2236E-01  0.0000E+00
      2.040  0.1143E-01  0.1597E-01  0.0000E+00
      2.104  0.9078E-02  0.1511E-01  0.0000E+00
      2.168  0.8060E-02  0.1115E-01  0.0000E+00
      2.232  0.5247E-02  0.6644E-02  0.0000E+00
      2.297  0.3459E-02  0.8404E-02  0.0000E+00
      2.361  0.4963E-02  0.1250E-01  0.0000E+00
      2.425  0.5000E-02  0.6771E-02  0.0000E+00
      2.489  0.1361E-02  0.3016E-02  0.0000E+00
      2.553  0.2077E-02  0.6565E-02  0.0000E+00
      2.617  0.1740E-02  0.8262E-02  0.0000E+00
      2.681  0.2440E-02  0.5911E-02  0.0000E+00
      2.745  0.1762E-02  0.1615E-02  0.0000E+00
      2.809  0.3231E-03  0.4044E-03  0.0000E+00
      2.873  0.1529E-03  0.1879E-03  0.0000E+00
      2.938  0.3997E-04  0.4783E-04  0.0000E+00
      3.002  0.7240E-06  0.8661E-06  0.0000E+00
      3.066  0.6419E-09  0.7680E-09  0.0000E+00
      3.130  0.2426E-13  0.2903E-13  0.0000E+00
      3.194  0.4980E-19  0.5958E-19  0.0000E+00
      3.258  0.0000E+00  0.0000E+00  0.0000E+00
      3.322  0.0000E+00  0.0000E+00  0.0000E+00
      3.386  0.0000E+00  0.0000E+00  0.0000E+00
      3.450  0.0000E+00  0.0000E+00  0.0000E+00
      3.514  0.0000E+00  0.0000E+00  0.0000E+00
      3.579  0.0000E+00  0.0000E+00  0.0000E+00
      3.643  0.0000E+00  0.0000E+00  0.0000E+00
      3.707  0.0000E+00  0.0000E+00  0.0000E+00
      3.771  0.3821E-14  0.1736E-14  0.0000E+00
      3.835  0.3059E-09  0.1390E-09  0.0000E+00
      3.899  0.1018E-05  0.4623E-06  0.0000E+00
      3.963  0.1557E-03  0.7075E-04  0.0000E+00
      4.027  0.1381E-02  0.6519E-03  0.0000E+00
      4.091  0.1014E-02  0.1401E-02  0.0000E+00
      4.155  0.2480E-03  0.2598E-02  0.0000E+00
      4.219  0.2470E-03  0.1391E-02  0.0000E+00
      4.284  0.3641E-03  0.1971E-02  0.0000E+00
      4.348  0.3757E-03  0.4232E-02  0.0000E+00
      4.412  0.2552E-02  0.3732E-02  0.0000E+00
      4.476  0.1104E-01  0.6143E-02  0.0000E+00
      4.540  0.1640E-01  0.7968E-02  0.0000E+00
      4.604  0.1379E-01  0.9013E-02  0.0000E+00
      4.668  0.1303E-01  0.5233E-02  0.0000E+00
      4.732  0.1483E-01  0.3446E-02  0.0000E+00
      4.796  0.7495E-02  0.3990E-02  0.0000E+00
      4.860  0.8903E-02  0.7493E-02  0.0000E+00
      4.925  0.1649E-01  0.1187E-01  0.0000E+00
      4.989  0.2129E-01  0.1693E-01  0.0000E+00
      5.053  0.1685E-01  0.1697E-01  0.0000E+00
      5.117  0.1110E-01  0.1584E-01  0.0000E+00
      5.181  0.1192E-01  0.1470E-01  0.0000E+00
      5.245  0.1739E-01  0.1020E-01  0.0000E+00
      5.309  0.2281E-01  0.8283E-02  0.0000E+00
      5.373  0.1817E-01  0.6981E-02  0.0000E+00
      5.437  0.8829E-02  0.3199E-02  0.0000E+00
      5.501  0.1719E-01  0.6152E-02  0.0000E+00
      5.566  0.1706E-01  0.9356E-02  0.0000E+00
      5.630  0.2246E-01  0.1023E-01  0.0000E+00
      5.694  0.1997E-01  0.9752E-02  0.0000E+00
      5.758  0.2700E-01  0.1682E-01  0.0000E+00
      5.822  0.2597E-01  0.1787E-01  0.0000E+00
      5.886  0.1331E-01  0.1275E-01  0.0000E+00
      5.950  0.9161E-02  0.8121E-02  0.0000E+00
      6.014  0.2140E-01  0.8559E-02  0.0000E+00
      6.078  0.3124E-01  0.1034E-01  0.0000E+00
      6.142  0.1476E-01  0.9176E-02  0.0000E+00
      6.206  0.1380E-01  0.6969E-02  0.0000E+00
      6.271  0.1534E-01  0.7037E-02  0.0000E+00
      6.335  0.5338E-02  0.3033E-02  0.0000E+00
      6.399  0.6448E-02  0.4600E-02  0.0000E+00
      6.463  0.6532E-02  0.5456E-02  0.0000E+00
      6.527  0.3118E-02  0.4297E-02  0.0000E+00
      6.591  0.2380E-02  0.3027E-02  0.0000E+00
      6.655  0.1135E-01  0.9658E-02  0.0000E+00
      6.719  0.1678E-01  0.7945E-02  0.0000E+00
      6.783  0.3281E-01  0.6562E-02  0.0000E+00
      6.847  0.2426E-01  0.7621E-02  0.0000E+00
      6.912  0.2393E-02  0.1011E-02  0.0000E+00
      6.976  0.1729E-04  0.9362E-05  0.0000E+00
      7.040  0.6664E-08  0.4607E-08  0.0000E+00
      7.104  0.1202E-12  0.1029E-12  0.0000E+00
      7.168  0.0000E+00  0.0000E+00  0.0000E+00
      7.232  0.0000E+00  0.0000E+00  0.0000E+00
      7.296  0.0000E+00  0.0000E+00  0.0000E+00
      7.360  0.0000E+00  0.0000E+00  0.0000E+00
      7.424  0.0000E+00  0.0000E+00  0.0000E+00
      7.488  0.0000E+00  0.0000E+00  0.0000E+00
      7.553  0.0000E+00  0.0000E+00  0.0000E+00
      7.617  0.0000E+00  0.0000E+00  0.0000E+00
      7.681  0.0000E+00  0.0000E+00  0.0000E+00
      7.68072194    -11.54840728  301      3.06973699      1.00000000
    -11.548  0.0000E+00  0.0000E+00  0.0000E+00
    -11.484  0.0000E+00  0.0000E+00  0.0000E+00
    -11.420  0.0000E+00  0.0000E+00  0.0000E+00
    -11.356  0.0000E+00  0.0000E+00  0.0000E+00
    -11.292  0.0000E+00  0.0000E+00  0.0000E+00
    -11.228  0.0000E+00  0.0000E+00  0.0000E+00
    -11.164  0.0000E+00  0.0000E+00  0.0000E+00
    -11.100  0.0000E+00  0.0000E+00  0.0000E+00
    -11.036  0.0000E+00  0.0000E+00  0.0000E+00
    -10.972  0.0000E+00  0.0000E+00  0.0000E+00
    -10.907  0.7154E-14  0.1552E-14  0.0000E+00
    -10.843  0.2907E-09  0.6304E-10  0.0000E+00
    -10.779  0.4999E-06  0.1082E-06  0.0000E+00
    -10.715  0.4260E-04  0.9003E-05  0.0000E+00
    -10.651  0.2943E-03  0.5318E-04  0.0000E+00
    -10.587  0.3882E-03  0.5286E-04  0.0000E+00
    -10.523  0.4280E-03  0.1401E-03  0.0000E+00
    -10.459  0.3401E-03  0.2125E-03  0.0000E+00
    -10.395  0.1863E-03  0.1109E-03  0.0000E+00
    -10.331  0.2059E-03  0.1279E-03  0.0000E+00
    -10.266  0.1149E-03  0.5991E-04  0.0000E+00
    -10.202  0.7111E-04  0.2592E-04  0.0000E+00
    -10.138  0.1821E-03  0.9922E-04  0.0000E+00
    -10.074  0.2369E-03  0.1722E-03  0.0000E+00
    -10.010  0.3079E-03  0.2274E-03  0.0000E+00
     -9.946  0.3829E-03  0.1364E-03  0.0000E+00
     -9.882  0.6376E-03  0.2302E-03  0.0000E+00
     -9.818  0.4478E-03  0.1958E-03  0.0000E+00
     -9.754  0.7061E-03  0.3287E-03  0.0000E+00
     -9.690  0.8574E-03  0.4581E-03  0.0000E+00
     -9.625  0.6060E-03  0.4199E-03  0.0000E+00
     -9.561  0.6243E-03  0.2942E-03  0.0000E+00
     -9.497  0.4810E-03  0.3522E-03  0.0000E+00
     -9.433  0.4798E-03  0.4253E-03  0.0000E+00
     -9.369  0.5420E-03  0.3843E-03  0.0000E+00
     -9.305  0.4518E-03  0.5064E-03  0.0000E+00
     -9.241  0.1083E-02  0.7394E-03  0.0000E+00
     -9.177  0.1648E-02  0.9744E-03  0.0000E+00
     -9.113  0.1711E-02  0.1465E-02  0.0000E+00
     -9.049  0.7684E-03  0.1255E-02  0.0000E+00
     -8.985  0.1443E-03  0.7743E-03  0.0000E+00
     -8.920  0.1990E-04  0.2509E-03  0.0000E+00
     -8.856  0.1890E-05  0.4673E-04  0.0000E+00
     -8.792  0.3625E-07  0.9886E-06  0.0000E+00
     -8.728  0.3871E-10  0.1071E-08  0.0000E+00
     -8.664  0.1783E-14  0.4984E-13  0.0000E+00
     -8.600  0.3567E-20  0.9605E-19  0.0000E+00
     -8.536  0.0000E+00  0.0000E+00  0.0000E+00
     -8.472  0.0000E+00  0.0000E+00  0.0000E+00
     -8.408  0.0000E+00  0.0000E+00  0.0000E+00
     -8.344  0.0000E+00  0.0000E+00  0.0000E+00
     -8.279  0.0000E+00  0.0000E+00  0.0000E+00
     -8.215  0.0000E+00  0.0000E+00  0.0000E+00
     -8.151  0.0000E+00  0.0000E+00  0.0000E+00
     -8.087  0.0000E+00  0.0000E+00  0.0000E+00
     -8.023  0.0000E+00  0.0000E+00  0.0000E+00
     -7.959  0.0000E+00  0.0000E+00  0.0000E+00
     -7.895  0.0000E+00  0.0000E+00  0.0000E+00
     -7.831  0.0000E+00  0.0000E+00  0.0000E+00
     -7.767  0.0000E+00  0.0000E+00  0.0000E+00
     -7.703  0.0000E+00  0.0000E+00  0.0000E+00
     -7.638  0.0000E+00  0.0000E+00  0.0000E+00
     -7.574  0.0000E+00  0.0000E+00  0.0000E+00
     -7.510  0.0000E+00  0.0000E+00  0.0000E+00
     -7.446  0.0000E+00  0.0000E+00  0.0000E+00
     -7.382  0.0000E+00  0.0000E+00  0.0000E+00
     -7.318  0.0000E+00  0.0000E+00  0.0000E+00
     -7.254  0.0000E+00  0.0000E+00  0.0000E+00
     -7.190  0.0000E+00  0.0000E+00  0.0000E+00
     -7.126  0.0000E+00  0.0000E+00  0.0000E+00
     -7.062  0.0000E+00  0.0000E+00  0.0000E+00
     -6.998  0.0000E+00  0.0000E+00  0.0000E+00
     -6.933  0.0000E+00  0.0000E+00  0.0000E+00
     -6.869  0.0000E+00  0.0000E+00  0.0000E+00
     -6.805  0.0000E+00  0.0000E+00  0.0000E+00
     -6.741  0.0000E+00  0.0000E+00  0.0000E+00
     -6.677  0.0000E+00  0.0000E+00  0.0000E+00
     -6.613  0.0000E+00  0.0000E+00  0.0000E+00
     -6.549  0.0000E+00  0.0000E+00  0.0000E+00
     -6.485  0.0000E+00  0.0000E+00  0.0000E+00
     -6.421  0.1230E-15  0.1425E-15  0.0000E+00
     -6.357  0.8949E-11  0.1023E-10  0.0000E+00
     -6.292  0.2875E-07  0.3188E-07  0.0000E+00
     -6.228  0.4928E-05  0.5112E-05  0.0000E+00
     -6.164  0.7181E-04  0.6416E-04  0.0000E+00
     -6.100  0.1709E-03  0.1192E-03  0.0000E+00
     -6.036  0.2062E-03  0.1247E-03  0.0000E+00
     -5.972  0.3297E-03  0.2188E-03  0.0000E+00
     -5.908  0.2545E-03  0.2077E-03  0.0000E+00
     -5.844  0.1238E-03  0.8720E-04  0.0000E+00