 vasp.5.4.4.18Apr17-6-g9f103f2a35 (build Oct 27 2022 13:04:57) complex          
  
 executed on             LinuxIFC date 2024.06.30  09:05:57
 running on   14 total cores
 distrk:  each k-point on   14 cores,    1 groups
 distr:  one band on NCORES_PER_BAND=   1 cores,   14 groups


--------------------------------------------------------------------------------------------------------


 INCAR:
 POTCAR:    PAW_PBE Na 08Apr2002                  
 POTCAR:    PAW_PBE Sb 06Sep2000                  
 POTCAR:    PAW_PBE Se 06Sep2000                  

 ----------------------------------------------------------------------------- 
|                                                                             |
|           W    W    AA    RRRRR   N    N  II  N    N   GGGG   !!!           |
|           W    W   A  A   R    R  NN   N  II  NN   N  G    G  !!!           |
|           W    W  A    A  R    R  N N  N  II  N N  N  G       !!!           |
|           W WW W  AAAAAA  RRRRR   N  N N  II  N  N N  G  GGG   !            |
|           WW  WW  A    A  R   R   N   NN  II  N   NN  G    G                |
|           W    W  A    A  R    R  N    N  II  N    N   GGGG   !!!           |
|                                                                             |
|      For optimal performance we recommend to set                            |
|        NCORE= 4 - approx SQRT( number of cores)                             |
|      NCORE specifies how many cores store one orbital (NPAR=cpu/NCORE).     |
|      This setting can  greatly improve the performance of VASP for DFT.     |
|      The default,   NCORE=1            might be grossly inefficient         |
|      on modern multi-core architectures or massively parallel machines.     |
|      Do your own testing !!!!                                               |
|      Unfortunately you need to use the default for GW and RPA calculations. |
|      (for HF NCORE is supported but not extensively tested yet)             |
|                                                                             |
 ----------------------------------------------------------------------------- 

 POTCAR:    PAW_PBE Na 08Apr2002                  
   VRHFIN =Na: s1p0                                                             
   LEXCH  = PE                                                                  
   EATOM  =     5.1581 eV,    0.3791 Ry                                         
                                                                                
   TITEL  = PAW_PBE Na 08Apr2002                                                
   LULTRA =        F    use ultrasoft PP ?                                      
   IUNSCR =        1    unscreen: 0-lin 1-nonlin 2-no                           
   RPACOR =    1.800    partial core radius                                     
   POMASS =   22.990; ZVAL   =    1.000    mass and valenz                      
   RCORE  =    2.200    outmost cutoff radius                                   
   RWIGS  =    3.320; RWIGS  =    1.757    wigner-seitz radius (au A)           
   ENMAX  =  101.968; ENMIN  =   76.476 eV                                      
   ICORE  =        2    local potential                                         
   LCOR   =        T    correct aug charges                                     
   LPAW   =        T    paw PP                                                  
   EAUG   =  250.695                                                            
   DEXC   =    0.000                                                            
   RMAX   =    2.245    core radius for proj-oper                               
   RAUG   =    1.300    factor for augmentation sphere                          
   RDEP   =    2.259    radius for radial grids                                 
   RDEPT  =    2.115    core radius for aug-charge                              
                                                                                
   Atomic configuration                                                         
    6 entries                                                                   
     n  l   j            E        occ.                                          
     1  0  0.50     -1033.6933   2.0000                                         
     2  0  0.50       -56.7526   2.0000                                         
     2  1  1.50       -28.6721   6.0000                                         
     3  0  0.50        -2.7440   1.0000                                         
     3  1  0.50        -1.3606   0.0000                                         
     3  2  1.50        -1.3606   0.0000                                         
   Description                                                                  
     l       E           TYP  RCUT    TYP  RCUT                                 
     0     -2.7439560     23  2.200                                             
     0     27.2116520     23  2.200                                             
     1     -1.3605826     23  2.200                                             
     2     -1.3605826     23  2.200                                             
  local pseudopotential read in
  partial core-charges read in
  partial kinetic energy density read in
  atomic valenz-charges read in
  non local Contribution for L=           0  read in
    real space projection operators read in
  non local Contribution for L=           0  read in
    real space projection operators read in
  non local Contribution for L=           1  read in
    real space projection operators read in
    PAW grid and wavefunctions read in
 
   number of l-projection  operators is LMAX  =           3
   number of lm-projection operators is LMMAX =           5
 
 POTCAR:    PAW_PBE Sb 06Sep2000                  
   VRHFIN =Sb: s2p3                                                             
   LEXCH  = PE                                                                  
   EATOM  =   149.9515 eV,   11.0211 Ry                                         
                                                                                
   TITEL  = PAW_PBE Sb 06Sep2000                                                
   LULTRA =        F    use ultrasoft PP ?                                      
   IUNSCR =        1    unscreen: 0-lin 1-nonlin 2-no                           
   RPACOR =    2.200    partial core radius                                     
   POMASS =  121.750; ZVAL   =    5.000    mass and valenz                      
   RCORE  =    2.300    outmost cutoff radius                                   
   RWIGS  =    2.980; RWIGS  =    1.577    wigner-seitz radius (au A)           
   ENMAX  =  172.069; ENMIN  =  129.052 eV                                      
   ICORE  =        3    local potential                                         
   LCOR   =        T    correct aug charges                                     
   LPAW   =        T    paw PP                                                  
   EAUG   =  380.513                                                            
   DEXC   =    0.000                                                            
   RMAX   =    2.346    core radius for proj-oper                               
   RAUG   =    1.300    factor for augmentation sphere                          
   RDEP   =    2.360    radius for radial grids                                 
   RDEPT  =    2.192    core radius for aug-charge                              
                                                                                
   Atomic configuration                                                         
   13 entries                                                                   
     n  l   j            E        occ.                                          
     1  0  0.50    -30298.2797   2.0000                                         
     2  0  0.50     -4610.2252   2.0000                                         
     2  1  1.50     -4138.3407   6.0000                                         
     3  0  0.50      -903.8815   2.0000                                         
     3  1  1.50      -750.1337   6.0000                                         
     3  2  2.50      -515.7092  10.0000                                         
     4  0  0.50      -148.8034   2.0000                                         
     4  1  1.50      -101.7581   6.0000                                         
     4  2  2.50       -33.5048  10.0000                                         
     5  0  0.50       -12.8298   2.0000                                         
     5  1  0.50        -4.8276   3.0000                                         
     5  2  1.50        -4.0817   0.0000                                         
     4  3  2.50        -4.0817   0.0000                                         
   Description                                                                  
     l       E           TYP  RCUT    TYP  RCUT                                 
     0    -12.8297861     23  2.300                                             
     0     13.6058260     23  2.300                                             
     1     -4.8275512     23  2.300                                             
     1     -0.7245443     23  2.300                                             
     2     -4.0817478     23  2.300                                             
     3     -1.3605826     23  2.300                                             
  local pseudopotential read in
  partial core-charges read in
  partial kinetic energy density read in
  atomic valenz-charges read in
  non local Contribution for L=           0  read in
    real space projection operators read in
  non local Contribution for L=           0  read in
    real space projection operators read in
  non local Contribution for L=           1  read in
    real space projection operators read in
  non local Contribution for L=           1  read in
    real space projection operators read in
  non local Contribution for L=           2  read in
    real space projection operators read in
    PAW grid and wavefunctions read in
 
   number of l-projection  operators is LMAX  =           5
   number of lm-projection operators is LMMAX =          13
 
 POTCAR:    PAW_PBE Se 06Sep2000                  
   VRHFIN =Se: s2p4                                                             
   LEXCH  = PE                                                                  
   EATOM  =   257.1286 eV,   18.8984 Ry                                         
                                                                                
   TITEL  = PAW_PBE Se 06Sep2000                                                
   LULTRA =        F    use ultrasoft PP ?                                      
   IUNSCR =        1    unscreen: 0-lin 1-nonlin 2-no                           
   RPACOR =    1.900    partial core radius                                     
   POMASS =   78.960; ZVAL   =    6.000    mass and valenz                      
   RCORE  =    2.100    outmost cutoff radius                                   
   RWIGS  =    2.200; RWIGS  =    1.164    wigner-seitz radius (au A)           
   ENMAX  =  211.555; ENMIN  =  158.666 eV                                      
   ICORE  =        3    local potential                                         
   LCOR   =        T    correct aug charges                                     
   LPAW   =        T    paw PP                                                  
   EAUG   =  446.842                                                            
   DEXC   =    0.000                                                            
   RMAX   =    2.147    core radius for proj-oper                               
   RAUG   =    1.300    factor for augmentation sphere                          
   RDEP   =    2.177    radius for radial grids                                 
   RDEPT  =    1.928    core radius for aug-charge                              
                                                                                
   Atomic configuration                                                         
   10 entries                                                                   
     n  l   j            E        occ.                                          
     1  0  0.50    -12503.4787   2.0000                                         
     2  0  0.50     -1606.9547   2.0000                                         
     2  1  1.50     -1413.3140   6.0000                                         
     3  0  0.50      -213.4885   2.0000                                         
     3  1  1.50      -152.9538   6.0000                                         
     3  2  2.50       -53.1221  10.0000                                         
     4  0  0.50       -17.2865   2.0000                                         
     4  1  0.50        -6.5110   4.0000                                         
     4  2  2.50        -6.8029   0.0000                                         
     4  3  2.50        -6.8029   0.0000                                         
   Description                                                                  
     l       E           TYP  RCUT    TYP  RCUT                                 
     0    -17.2865377     23  2.100                                             
     0    -15.3094411     23  2.100                                             
     1     -6.5110275     23  2.100                                             
     1     -0.0695192     23  2.100                                             
     2     -6.8029130     23  2.100                                             
     3     -1.3605826      7  2.100                                             
  local pseudopotential read in
  partial core-charges read in
  partial kinetic energy density read in
  atomic valenz-charges read in
  non local Contribution for L=           0  read in
    real space projection operators read in
  non local Contribution for L=           0  read in
    real space projection operators read in
  non local Contribution for L=           1  read in
    real space projection operators read in
  non local Contribution for L=           1  read in
    real space projection operators read in
  non local Contribution for L=           2  read in
    real space projection operators read in
    PAW grid and wavefunctions read in
 
   number of l-projection  operators is LMAX  =           5
   number of lm-projection operators is LMMAX =          13
 
 Optimization of the real space projectors (new method)

 maximal supplied QI-value         = 17.01
 optimisation between [QCUT,QGAM] = [  8.84, 17.69] = [ 21.90, 87.61] Ry 
 Optimized for a Real-space Cutoff    1.22 Angstroem

   l    n(q)    QCUT    max X(q) W(low)/X(q) W(high)/X(q)  e(spline) 
   0      6     8.844    45.123    0.62E-03    0.70E-03    0.80E-07
   0      6     8.844    12.364    0.51E-03    0.48E-03    0.55E-07
   1      6     8.844     8.302    0.36E-03    0.27E-03    0.23E-07
 Optimization of the real space projectors (new method)

 maximal supplied QI-value         = 16.25
 optimisation between [QCUT,QGAM] = [  8.78, 17.71] = [ 21.57, 87.87] Ry 
 Optimized for a Real-space Cutoff    1.26 Angstroem

   l    n(q)    QCUT    max X(q) W(low)/X(q) W(high)/X(q)  e(spline) 
   0      7     8.776    19.000    0.12E-02    0.42E-03    0.95E-07
   0      7     8.776     9.057    0.14E-02    0.54E-03    0.11E-06
   1      6     8.776   125.345    0.45E-03    0.22E-02    0.77E-07
   1      6     8.776    79.963    0.45E-03    0.21E-02    0.76E-07
   2      6     8.776     6.963    0.11E-02    0.51E-03    0.39E-07
 Optimization of the real space projectors (new method)

 maximal supplied QI-value         = 17.95
 optimisation between [QCUT,QGAM] = [  8.80, 17.59] = [ 21.67, 86.68] Ry 
 Optimized for a Real-space Cutoff    1.19 Angstroem

   l    n(q)    QCUT    max X(q) W(low)/X(q) W(high)/X(q)  e(spline) 
   0      6     8.797   133.320    0.14E-02    0.11E-02    0.95E-07
   0      6     8.797   111.601    0.15E-02    0.12E-02    0.10E-06
   1      6     8.797    47.222    0.19E-02    0.96E-03    0.11E-06
   1      6     8.797    33.775    0.19E-02    0.99E-03    0.11E-06
   2      5     8.797     3.720    0.16E-02    0.14E-02    0.40E-07
  PAW_PBE Na 08Apr2002                  :
 energy of atom  1       EATOM=   -5.1581
 kinetic energy error for atom=    0.0001 (will be added to EATOM!!)
  PAW_PBE Sb 06Sep2000                  :
 energy of atom  2       EATOM= -149.9515
 kinetic energy error for atom=    0.0018 (will be added to EATOM!!)
  PAW_PBE Se 06Sep2000                  :
 energy of atom  3       EATOM= -257.1286
 kinetic energy error for atom=    0.0040 (will be added to EATOM!!)
 
 
 POSCAR: Na4 Sb8 Se14                            
  positions in direct lattice
  velocities in cartesian coordinates
 exchange correlation table for  LEXCH =        8
   RHO(1)=    0.500       N(1)  =     2000
   RHO(2)=  100.500       N(2)  =     4000
 


--------------------------------------------------------------------------------------------------------


 ion  position               nearest neighbor table
   1  0.311  0.344  0.121-  19 3.00  25 3.02  22 3.03  14 3.09  18 3.13  26 3.29
   2  0.430  0.757  0.588-  23 3.05  24 3.06  21 3.15  16 3.16  15 3.37  12 4.00
   3  0.570  0.243  0.412-  22 3.05  16 3.06  19 3.15  24 3.16  25 3.37   8 4.00
   4  0.689  0.656  0.879-  21 3.00  15 3.02  23 3.03  18 3.09  14 3.13  13 3.29
   5  0.023  0.960  0.331-  24 2.60  17 2.65  13 2.84  16 3.00
   6  0.142  0.447  0.809-  15 2.65  20 2.66  23 2.69  26 3.12
   7  0.750  0.131  0.050-  19 2.62  22 2.75  14 2.76  13 3.15  21 3.17
   8  0.527  0.206  0.757-  14 2.69  26 2.73  15 2.77  21 3.10  20 3.23   3 4.00
   9  0.250  0.869  0.950-  21 2.62  23 2.75  18 2.76  26 3.15  19 3.17
  10  0.977  0.040  0.669-  16 2.60  20 2.65  26 2.84  24 3.00
  11  0.858  0.553  0.191-  25 2.65  17 2.66  22 2.69  13 3.12
  12  0.473  0.794  0.243-  18 2.69  13 2.73  25 2.77  19 3.10  17 3.23   2 4.00
  13  0.822  0.849  0.129-  12 2.73   5 2.84  11 3.12   7 3.15   4 3.29
  14  0.675  0.355  0.954-   8 2.69   7 2.76   1 3.09   4 3.13
  15  0.474  0.457  0.689-   6 2.65   8 2.77   4 3.02   2 3.37
  16  0.276  0.018  0.528-  10 2.60   5 3.00   3 3.06   2 3.16
  17  0.056  0.701  0.366-   5 2.65  11 2.66  12 3.23
  18  0.325  0.645  0.046-  12 2.69   9 2.76   4 3.09   1 3.13
  19  0.423  0.079  0.170-   7 2.62   1 3.00  12 3.10   3 3.15   9 3.17
  20  0.944  0.299  0.634-  10 2.65   6 2.66   8 3.23
  21  0.577  0.921  0.830-   9 2.62   4 3.00   8 3.10   2 3.15   7 3.17
  22  0.916  0.303  0.240-  11 2.69   7 2.75   1 3.03   3 3.05
  23  0.084  0.697  0.760-   6 2.69   9 2.75   4 3.03   2 3.05
  24  0.724  0.982  0.472-   5 2.60  10 3.00   2 3.06   3 3.16
  25  0.526  0.543  0.311-  11 2.65  12 2.77   1 3.02   3 3.37
  26  0.178  0.151  0.871-   8 2.73  10 2.84   6 3.12   9 3.15   1 3.29
 
  LATTYP: Found a triclinic cell.
 ALAT       =     9.6202162287
 B/A-ratio  =     1.9824554572
 C/A-ratio  =     1.4911190499
 COS(alpha) =     0.0074162665
 COS(beta)  =     0.2397604225
 COS(gamma) =     0.9262387158
  
  Lattice vectors:
  
 A1 = (   2.0795107494,   9.3922918933,  -0.0951226586)
 A2 = (  -3.1934317498,  18.7954502484,  -0.5107675739)
 A3 = (   8.2207461940,   1.8202979813,  11.6138559444)


Analysis of symmetry for initial positions (statically):
=====================================================================
 Subroutine PRICEL returns:
 Original cell was already a primitive cell.
 

 Routine SETGRP: Setting up the symmetry group for a 
 triclinic supercell.


 Subroutine GETGRP returns: Found  2 space group operations
 (whereof  2 operations were pure point group operations)
 out of a pool of  2 trial point group operations.


The static configuration has the point symmetry S_2 .


Analysis of symmetry for dynamics (positions and initial velocities):
=====================================================================
 Subroutine PRICEL returns:
 Original cell was already a primitive cell.
 

 Routine SETGRP: Setting up the symmetry group for a 
 triclinic supercell.


 Subroutine GETGRP returns: Found  2 space group operations
 (whereof  2 operations were pure point group operations)
 out of a pool of  2 trial point group operations.


The dynamic configuration has the point symmetry S_2 .


 Subroutine INISYM returns: Found  2 space group operations
 (whereof  2 operations are pure point group operations),
 and found     1 'primitive' translations

 
 
 KPOINTS: pymatgen with grid density = 807 / numbe

Automatic generation of k-mesh.
Space group operators:
 irot       det(A)        alpha          n_x          n_y          n_z        tau_x        tau_y        tau_z
    1     1.000000     0.000000     1.000000     0.000000     0.000000     0.000000     0.000000     0.000000
    2    -1.000000     0.000000     1.000000     0.000000     0.000000     0.000000     0.000000     0.000000
 
 Subroutine IBZKPT returns following result:
 ===========================================
 
 Found      6 irreducible k-points:
 
 Following reciprocal coordinates:
            Coordinates               Weight
  0.000000  0.250000  0.250000      2.000000
  0.333333  0.250000  0.250000      2.000000
 -0.333333  0.250000  0.250000      2.000000
  0.000000 -0.250000  0.250000      2.000000
  0.333333 -0.250000  0.250000      2.000000
 -0.333333 -0.250000  0.250000      2.000000
 
 Following cartesian coordinates:
            Coordinates               Weight
  0.001192  0.026086 -0.026458      2.000000
 -0.044210  0.036157 -0.024600      2.000000
  0.046594  0.016015 -0.028316      2.000000
  0.000737 -0.026961 -0.017822      2.000000
 -0.044665 -0.016890 -0.015964      2.000000
  0.046140 -0.037032 -0.019680      2.000000
 


--------------------------------------------------------------------------------------------------------




 Dimension of arrays:
   k-points           NKPTS =      6   k-points in BZ     NKDIM =      6   number of bands    NBANDS=     84
   number of dos      NEDOS =    301   number of ions     NIONS =     26
   non local maximal  LDIM  =      5   non local SUM 2l+1 LMDIM =     13
   total plane-waves  NPLWV =  67200
   max r-space proj   IRMAX =    769   max aug-charges    IRDMAX=   2689
   dimension x,y,z NGX =    32 NGY =   42 NGZ =   50
   dimension x,y,z NGXF=    50 NGYF=   70 NGZF=   80
   support grid    NGXF=    50 NGYF=   70 NGZF=   80
   ions per type =               4   8  14
   NGX,Y,Z   is equivalent  to a cutoff of   7.23,  7.26,  7.24 a.u.
   NGXF,Y,Z  is equivalent  to a cutoff of  11.29, 12.10, 11.59 a.u.

 SYSTEM =  CIS                                     
 POSCAR =  Na4 Sb8 Se14                            

 Startparameter for this run:
   NWRITE =      2    write-flag & timer
   PREC   = medium    normal or accurate (medium, high low for compatibility)
   ISTART =      0    job   : 0-new  1-cont  2-samecut
   ICHARG =      2    charge: 1-file 2-atom 10-const
   ISPIN  =      1    spin polarized calculation?
   LNONCOLLINEAR =      F non collinear calculations
   LSORBIT =      F    spin-orbit coupling
   INIWAV =      1    electr: 0-lowe 1-rand  2-diag
   LASPH  =      T    aspherical Exc in radial PAW
   METAGGA=      F    non-selfconsistent MetaGGA calc.

 Electronic Relaxation 1
   ENCUT  =  300.0 eV  22.05 Ry    4.70 a.u.  10.39 13.59 16.20*2*pi/ulx,y,z
   ENINI  =  300.0     initial cutoff
   ENAUG  =  446.8 eV  augmentation charge cutoff
   NELM   =     60;   NELMIN=  2; NELMDL= -5     # of ELM steps 
   EDIFF  = 0.1E-03   stopping-criterion for ELM
   LREAL  =      T    real-space projection
   NLSPLINE    = F    spline interpolate recip. space projectors
   LCOMPAT=      F    compatible to vasp.4.4
   GGA_COMPAT  = T    GGA compatible to vasp.4.4-vasp.4.6
   LMAXPAW     = -100 max onsite density
   LMAXMIX     =    4 max onsite mixed and CHGCAR
   VOSKOWN=      0    Vosko Wilk Nusair interpolation
   ROPT   =   -0.00200  -0.00200  -0.00200
 Ionic relaxation
   EDIFFG = -.5E-01   stopping-criterion for IOM
   NSW    =     99    number of steps for IOM
   NBLOCK =      1;   KBLOCK =     99    inner block; outer block 
   IBRION =      2    ionic relax: 0-MD 1-quasi-New 2-CG
   NFREE  =      1    steps in history (QN), initial steepest desc. (CG)
   ISIF   =      3    stress and relaxation
   IWAVPR =     11    prediction:  0-non 1-charg 2-wave 3-comb
   ISYM   =      2    0-nonsym 1-usesym 2-fastsym
   LCORR  =      T    Harris-Foulkes like correction to forces

   POTIM  = 0.1000    time-step for ionic-motion
   TEIN   =    0.0    initial temperature
   TEBEG  =    0.0;   TEEND  =   0.0 temperature during run
   SMASS  =  -3.00    Nose mass-parameter (am)
   estimated Nose-frequenzy (Omega)   =  0.10E-29 period in steps =****** mass=  -0.124E-26a.u.
   SCALEE = 1.0000    scale energy and forces
   NPACO  =    256;   APACO  = 16.0  distance and # of slots for P.C.
   PSTRESS=    0.0 pullay stress

  Mass of Ions in am
   POMASS =  22.99121.75 78.96
  Ionic Valenz
   ZVAL   =   1.00  5.00  6.00
  Atomic Wigner-Seitz radii
   RWIGS  =  -1.00 -1.00 -1.00
  virtual crystal weights 
   VCA    =   1.00  1.00  1.00
   NELECT =     128.0000    total number of electrons
   NUPDOWN=      -1.0000    fix difference up-down

 DOS related values:
   EMIN   =  10.00;   EMAX   =-10.00  energy-range for DOS
   EFERMI =   0.00
   ISMEAR =     0;   SIGMA  =   0.05  broadening in eV -4-tet -1-fermi 0-gaus

 Electronic relaxation 2 (details)
   IALGO  =     38    algorithm
   LDIAG  =      T    sub-space diagonalisation (order eigenvalues)
   LSUBROT=      F    optimize rotation matrix (better conditioning)
   TURBO    =      0    0=normal 1=particle mesh
   IRESTART =      0    0=no restart 2=restart with 2 vectors
   NREBOOT  =      0    no. of reboots
   NMIN     =      0    reboot dimension
   EREF     =   0.00    reference energy to select bands
   IMIX   =      4    mixing-type and parameters
     AMIX     =   0.40;   BMIX     =  1.00
     AMIX_MAG =   1.60;   BMIX_MAG =  1.00
     AMIN     =   0.10
     WC   =   100.;   INIMIX=   1;  MIXPRE=   1;  MAXMIX= -45

 Intra band minimization:
   WEIMIN = 0.0010     energy-eigenvalue tresh-hold
   EBREAK =  0.30E-06  absolut break condition
   DEPER  =   0.30     relativ break condition  

   TIME   =   0.40     timestep for ELM

  volume/ion in A,a.u.               =      30.00       202.46
  Fermi-wavevector in a.u.,A,eV,Ry     =   0.896278  1.693720 10.929761  0.803315
  Thomas-Fermi vector in A             =   2.018716
 
 Write flags
   LWAVE        =      F    write WAVECAR
   LDOWNSAMPLE  =      F    k-point downsampling of WAVECAR
   LCHARG       =      F    write CHGCAR
   LVTOT        =      F    write LOCPOT, total local potential
   LVHAR        =      F    write LOCPOT, Hartree potential only
   LELF         =      F    write electronic localiz. function (ELF)
   LORBIT       =     10    0 simple, 1 ext, 2 COOP (PROOUT), +10 PAW based schemes


 Dipole corrections
   LMONO  =      F    monopole corrections only (constant potential shift)
   LDIPOL =      F    correct potential (dipole corrections)
   IDIPOL =      0    1-x, 2-y, 3-z, 4-all directions 
   EPSILON=  1.0000000 bulk dielectric constant

 Exchange correlation treatment:
   GGA     =    --    GGA type
   LEXCH   =     8    internal setting for exchange type
   VOSKOWN=      0    Vosko Wilk Nusair interpolation
   LHFCALC =     F    Hartree Fock is set to
   LHFONE  =     F    Hartree Fock one center treatment
   AEXX    =    0.0000 exact exchange contribution

 Linear response parameters
   LEPSILON=     F    determine dielectric tensor
   LRPA    =     F    only Hartree local field effects (RPA)
   LNABLA  =     F    use nabla operator in PAW spheres
   LVEL    =     F    velocity operator in full k-point grid
   LINTERFAST=   F  fast interpolation
   KINTER  =     0    interpolate to denser k-point grid
   CSHIFT  =0.1000    complex shift for real part using Kramers Kronig
   OMEGAMAX=  -1.0    maximum frequency
   DEG_THRESHOLD= 0.2000000E-02 threshold for treating states as degnerate
   RTIME   =   -0.100 relaxation time in fs
  (WPLASMAI=    0.000 imaginary part of plasma frequency in eV, 0.658/RTIME)
   DFIELD  = 0.0000000 0.0000000 0.0000000 field for delta impulse in time
 
 Orbital magnetization related:
   ORBITALMAG=     F  switch on orbital magnetization
   LCHIMAG   =     F  perturbation theory with respect to B field
   DQ        =  0.001000  dq finite difference perturbation B field
   LLRAUG    =     F  two centre corrections for induced B field



--------------------------------------------------------------------------------------------------------


 conjugate gradient relaxation of ions
 charge density and potential will be updated during run
 non-spin polarized calculation
 Variant of blocked Davidson
 Davidson routine will perform the subspace rotation
 perform sub-space diagonalisation
    after iterative eigenvector-optimisation
 modified Broyden-mixing scheme, WC =      100.0
 initial mixing is a Kerker type mixing with AMIX =  0.4000 and BMIX =      1.0000
 Hartree-type preconditioning will be used
 using additional bands           20
 real space projection scheme for non local part
 use partial core corrections
 calculate Harris-corrections to forces 
   (improved forces if not selfconsistent)
 use gradient corrections 
 use of overlap-Matrix (Vanderbilt PP)
 Gauss-broadening in eV      SIGMA  =   0.05


--------------------------------------------------------------------------------------------------------


  energy-cutoff  :      300.00
  volume of cell :      780.02
      direct lattice vectors                 reciprocal lattice vectors
    -7.352453249  0.010866462 -0.320522257    -0.136207336  0.030213581  0.005573362
     2.079510749  9.392291893 -0.095122659     0.000909781  0.106093922 -0.017272612
    -0.868292945 -1.831164443-11.293333688     0.003858112 -0.001751127 -0.088560508

  length of vectors
     7.359444366  9.620216229 11.473730066     0.139629371  0.107494610  0.088661802


 
 k-points in units of 2pi/SCALE and weight: pymatgen with grid density = 807 / numbe
   0.00119197  0.02608570 -0.02645828       0.167
  -0.04421047  0.03615689 -0.02460049       0.167
   0.04659442  0.01601451 -0.02831607       0.167
   0.00073708 -0.02696126 -0.01782197       0.167
  -0.04466536 -0.01689007 -0.01596419       0.167
   0.04613953 -0.03703246 -0.01967976       0.167
 
 k-points in reciprocal lattice and weights: pymatgen with grid density = 807 / numbe
   0.00000000  0.25000000  0.25000000       0.167
   0.33333333  0.25000000  0.25000000       0.167
  -0.33333333  0.25000000  0.25000000       0.167
   0.00000000 -0.25000000  0.25000000       0.167
   0.33333333 -0.25000000  0.25000000       0.167
  -0.33333333 -0.25000000  0.25000000       0.167
 
 position of ions in fractional coordinates (direct lattice) 
   0.31115542  0.34441321  0.12071091
   0.42984391  0.75709282  0.58776848
   0.57015609  0.24290718  0.41223152
   0.68884458  0.65558679  0.87928909
   0.02315420  0.95990407  0.33147171
   0.14199245  0.44665643  0.80913698
   0.74976107  0.13058205  0.04997949
   0.52661781  0.20611778  0.75677449
   0.25023893  0.86941795  0.95002051
   0.97684580  0.04009593  0.66852829
   0.85800755  0.55334357  0.19086302
   0.47338219  0.79388222  0.24322551
   0.82206227  0.84948094  0.12911662
   0.67466501  0.35492854  0.95397689
   0.47426548  0.45746856  0.68851471
   0.27615276  0.01784078  0.52825276
   0.05620988  0.70110794  0.36589446
   0.32533499  0.64507146  0.04602311
   0.42301706  0.07924352  0.17006298
   0.94379012  0.29889206  0.63410554
   0.57698294  0.92075648  0.82993702
   0.91629827  0.30258862  0.23972447
   0.08370173  0.69741138  0.76027553
   0.72384724  0.98215922  0.47174724
   0.52573452  0.54253144  0.31148529
   0.17793773  0.15051906  0.87088338
 
 position of ions in cartesian coordinates  (Angst):
  -1.67635712  3.01716905 -1.49572236
  -2.09637980  6.03920687 -6.84765678
  -4.04485564  1.53278705 -4.86132182
  -4.46487832  4.55482486-10.21325624
   1.53807610  8.40897160 -3.84215064
  -0.81773393  2.71500760 -9.22585285
  -5.28443327  1.14309132 -0.81717152
  -4.10041063  0.55586234 -8.73490601
  -0.85680217  6.42890259-10.89180708
  -7.67931154 -0.83697769 -7.86682796
  -5.32350151  4.85698631 -2.48312575
  -2.04082481  7.01613157 -2.97407259
  -4.38978073  7.75107211 -1.80245122
  -5.05069665  1.59403508-11.02358626
  -3.13353645  3.04104817 -7.97115463
  -2.45197830 -0.79675109 -6.05594488
   0.72697738  5.91560828 -4.21687602
  -1.09053880  5.97795883 -0.68539234
  -3.09308990  0.43746171 -2.06370221
  -6.86821282  1.65638563 -7.49210258
  -3.04814554  7.13453220 -9.64527639
  -6.31595495  2.41298268 -3.02976545
   0.17471950  5.15901123 -8.67921315
  -3.68925715  8.36874501 -5.65303372
  -3.00769899  4.53094574 -3.73782397
  -1.75145471 -0.17907820 -9.90652738
 


--------------------------------------------------------------------------------------------------------


 k-point  1 :   0.0000 0.2500 0.2500  plane waves:    9194
 k-point  2 :   0.3333 0.2500 0.2500  plane waves:    9200
 k-point  3 :  -0.3333 0.2500 0.2500  plane waves:    9191
 k-point  4 :   0.0000-0.2500 0.2500  plane waves:    9227
 k-point  5 :   0.3333-0.2500 0.2500  plane waves:    9198
 k-point  6 :  -0.3333-0.2500 0.2500  plane waves:    9196

 maximum and minimum number of plane-waves per node :      9227     9191

 maximum number of plane-waves:      9227
 maximum index in each direction: 
   IXMAX=   10   IYMAX=   13   IZMAX=   15
   IXMIN=  -10   IYMIN=  -13   IZMIN=  -16


 serial   3D FFT for wavefunctions
 parallel 3D FFT for charge:
    minimum data exchange during FFTs selected (reduces bandwidth)


 total amount of memory used by VASP MPI-rank0    42946. kBytes
=======================================================================

   base      :      30000. kBytes
   nonlr-proj:       2001. kBytes
   fftplans  :       1067. kBytes
   grid      :       4169. kBytes
   one-center:        210. kBytes
   wavefun   :       5499. kBytes
 
     INWAV:  cpu time    0.0000: real time    0.0000
 Broyden mixing: mesh for mixing (old mesh)
   NGX = 21   NGY = 27   NGZ = 33
  (NGX  = 50   NGY  = 70   NGZ  = 80)
  gives a total of  18711 points

 initial charge density was supplied:
 charge density of overlapping atoms calculated
 number of electron     128.0000000 magnetization 
 keeping initial charge density in first step


--------------------------------------------------------------------------------------------------------


 Maximum index for non-local projection operator          695
 Maximum index for augmentation-charges          286 (set IRDMAX)


--------------------------------------------------------------------------------------------------------


 First call to EWALD:  gamma=   0.193
 Maximum number of real-space cells 3x 3x 2
 Maximum number of reciprocal cells 2x 3x 3

    FEWALD:  cpu time    0.0024: real time    0.0024


--------------------------------------- Iteration      1(   1)  ---------------------------------------


    POTLOK:  cpu time    0.0335: real time    0.0945
    SETDIJ:  cpu time    0.2352: real time    0.2375
     EDDAV:  cpu time    0.6133: real time    0.6191
       DOS:  cpu time    0.0005: real time    0.0005
    --------------------------------------------
      LOOP:  cpu time    0.8825: real time    0.9516

 eigenvalue-minimisations  :  1008
 total energy-change (2. order) : 0.5647628E+03  (-0.3396570E+04)
 number of electron     128.0000000 magnetization 
 augmentation part      128.0000000 magnetization 

 Free energy of the ion-electron system (eV)
  ---------------------------------------------------
  alpha Z        PSCENC =       105.85194096
  Ewald energy   TEWEN  =     -4063.77726744
  -Hartree energ DENC   =      -871.07048363
  -exchange      EXHF   =         0.00000000
  -V(xc)+E(xc)   XCENC  =      -524.97805931
  PAW double counting   =      4413.14680164    -3638.63163603
  entropy T*S    EENTRO =        -0.01870063
  eigenvalues    EBANDS =       324.26659068
  atomic energy  EATOM  =      4819.97366116
  Solvation  Ediel_sol  =         0.00000000
  ---------------------------------------------------
  free energy    TOTEN  =       564.76284739 eV

  energy without entropy =      564.78154802  energy(sigma->0) =      564.77219771


--------------------------------------------------------------------------------------------------------




--------------------------------------- Iteration      1(   2)  ---------------------------------------


     EDDAV:  cpu time    0.8955: real time    0.8993
       DOS:  cpu time    0.0002: real time    0.0002
    --------------------------------------------
      LOOP:  cpu time    0.8957: real time    0.8995

 eigenvalue-minimisations  :  1288
 total energy-change (2. order) :-0.6036991E+03  (-0.5863109E+03)
 number of electron     128.0000000 magnetization 
 augmentation part      128.0000000 magnetization 

 Free energy of the ion-electron system (eV)
  ---------------------------------------------------
  alpha Z        PSCENC =       105.85194096
  Ewald energy   TEWEN  =     -4063.77726744
  -Hartree energ DENC   =      -871.07048363
  -exchange      EXHF   =         0.00000000
  -V(xc)+E(xc)   XCENC  =      -524.97805931
  PAW double counting   =      4413.14680164    -3638.63163603
  entropy T*S    EENTRO =        -0.00000000
  eigenvalues    EBANDS =      -279.45116465
  atomic energy  EATOM  =      4819.97366116
  Solvation  Ediel_sol  =         0.00000000
  ---------------------------------------------------
  free energy    TOTEN  =       -38.93620731 eV

  energy without entropy =      -38.93620731  energy(sigma->0) =      -38.93620731


--------------------------------------------------------------------------------------------------------




--------------------------------------- Iteration      1(   3)  ---------------------------------------


     EDDAV:  cpu time    0.9295: real time    0.9297
       DOS:  cpu time    0.0003: real time    0.0003
    --------------------------------------------
      LOOP:  cpu time    0.9298: real time    0.9299

 eigenvalue-minimisations  :  1204
 total energy-change (2. order) :-0.6279611E+02  (-0.6182066E+02)
 number of electron     128.0000000 magnetization 
 augmentation part      128.0000000 magnetization 

 Free energy of the ion-electron system (eV)
  ---------------------------------------------------
  alpha Z        PSCENC =       105.85194096
  Ewald energy   TEWEN  =     -4063.77726744
  -Hartree energ DENC   =      -871.07048363
  -exchange      EXHF   =         0.00000000
  -V(xc)+E(xc)   XCENC  =      -524.97805931
  PAW double counting   =      4413.14680164    -3638.63163603
  entropy T*S    EENTRO =        -0.00000000
  eigenvalues    EBANDS =      -342.24726972
  atomic energy  EATOM  =      4819.97366116
  Solvation  Ediel_sol  =         0.00000000
  ---------------------------------------------------
  free energy    TOTEN  =      -101.73231238 eV

  energy without entropy =     -101.73231238  energy(sigma->0) =     -101.73231238


--------------------------------------------------------------------------------------------------------




--------------------------------------- Iteration      1(   4)  ---------------------------------------


     EDDAV:  cpu time    0.9690: real time    0.9707
       DOS:  cpu time    0.0005: real time    0.0005
    --------------------------------------------
      LOOP:  cpu time    0.9695: real time    0.9712

 eigenvalue-minimisations  :  1400
 total energy-change (2. order) :-0.2197581E+01  (-0.2184227E+01)
 number of electron     128.0000000 magnetization 
 augmentation part      128.0000000 magnetization 

 Free energy of the ion-electron system (eV)
  ---------------------------------------------------
  alpha Z        PSCENC =       105.85194096
  Ewald energy   TEWEN  =     -4063.77726744
  -Hartree energ DENC   =      -871.07048363
  -exchange      EXHF   =         0.00000000
  -V(xc)+E(xc)   XCENC  =      -524.97805931
  PAW double counting   =      4413.14680164    -3638.63163603
  entropy T*S    EENTRO =        -0.00000000
  eigenvalues    EBANDS =      -344.44485114
  atomic energy  EATOM  =      4819.97366116
  Solvation  Ediel_sol  =         0.00000000
  ---------------------------------------------------
  free energy    TOTEN  =      -103.92989379 eV

  energy without entropy =     -103.92989379  energy(sigma->0) =     -103.92989379


--------------------------------------------------------------------------------------------------------




--------------------------------------- Iteration      1(   5)  ---------------------------------------


     EDDAV:  cpu time    1.0315: real time    1.0316
       DOS:  cpu time    0.0002: real time    0.0002
    CHARGE:  cpu time    0.0290: real time    0.0290
    MIXING:  cpu time    0.0008: real time    0.0008
    --------------------------------------------
      LOOP:  cpu time    1.0615: real time    1.0617

 eigenvalue-minimisations  :  1302
 total energy-change (2. order) :-0.5019986E-01  (-0.5016379E-01)
 number of electron     127.9999955 magnetization 
 augmentation part      -22.5763954 magnetization 

 Broyden mixing:
  rms(total) = 0.12702E+01    rms(broyden)= 0.12702E+01
  rms(prec ) = 0.16063E+01
  weight for this iteration     100.00

 Free energy of the ion-electron system (eV)
  ---------------------------------------------------
  alpha Z        PSCENC =       105.85194096
  Ewald energy   TEWEN  =     -4063.77726744
  -Hartree energ DENC   =      -871.07048363
  -exchange      EXHF   =         0.00000000
  -V(xc)+E(xc)   XCENC  =      -524.97805931
  PAW double counting   =      4413.14680164    -3638.63163603
  entropy T*S    EENTRO =        -0.00000000
  eigenvalues    EBANDS =      -344.49505100
  atomic energy  EATOM  =      4819.97366116
  Solvation  Ediel_sol  =         0.00000000
  ---------------------------------------------------
  free energy    TOTEN  =      -103.98009365 eV

  energy without entropy =     -103.98009365  energy(sigma->0) =     -103.98009365


--------------------------------------------------------------------------------------------------------




--------------------------------------- Iteration      1(   6)  ---------------------------------------


    POTLOK:  cpu time    0.0133: real time    0.0134
    SETDIJ:  cpu time    0.2383: real time    0.2383
     EDDAV:  cpu time    0.8028: real time    0.8028
       DOS:  cpu time    0.0003: real time    0.0003
    CHARGE:  cpu time    0.0242: real time    0.0242
    MIXING:  cpu time    0.0008: real time    0.0008
    --------------------------------------------
      LOOP:  cpu time    1.0796: real time    1.0798

 eigenvalue-minimisations  :  1176
 total energy-change (2. order) : 0.3788160E+01  (-0.7451793E+00)
 number of electron     127.9999961 magnetization 
 augmentation part      -22.2755094 magnetization 

 Broyden mixing:
  rms(total) = 0.86641E+00    rms(broyden)= 0.86641E+00
  rms(prec ) = 0.91749E+00
  weight for this iteration     100.00

 eigenvalues of (default mixing * dielectric matrix)
  average eigenvalue GAMMA=   1.6452
  1.6452

 Free energy of the ion-electron system (eV)
  ---------------------------------------------------
  alpha Z        PSCENC =       105.85194096
  Ewald energy   TEWEN  =     -4063.77726744
  -Hartree energ DENC   =      -899.44465610
  -exchange      EXHF   =         0.00000000
  -V(xc)+E(xc)   XCENC  =      -522.00592407
  PAW double counting   =      5365.91404995    -4592.25292825
  entropy T*S    EENTRO =        -0.00000000
  eigenvalues    EBANDS =      -314.45080938
  atomic energy  EATOM  =      4819.97366116
  Solvation  Ediel_sol  =         0.00000000
  ---------------------------------------------------
  free energy    TOTEN  =      -100.19193317 eV

  energy without entropy =     -100.19193317  energy(sigma->0) =     -100.19193317


--------------------------------------------------------------------------------------------------------




--------------------------------------- Iteration      1(   7)  ---------------------------------------


    POTLOK:  cpu time    0.0116: real time    0.0117
    SETDIJ:  cpu time    0.2376: real time    0.2376
     EDDAV:  cpu time    0.9354: real time    0.9354
       DOS:  cpu time    0.0003: real time    0.0003
    CHARGE:  cpu time    0.0295: real time    0.0295
    MIXING:  cpu time    0.0007: real time    0.0007
    --------------------------------------------
      LOOP:  cpu time    1.2151: real time    1.2152

 eigenvalue-minimisations  :  1246
 total energy-change (2. order) : 0.5963898E-03  (-0.2622242E+00)
 number of electron     127.9999966 magnetization 
 augmentation part      -22.2110425 magnetization 

 Broyden mixing:
  rms(total) = 0.34013E+00    rms(broyden)= 0.34013E+00
  rms(prec ) = 0.36812E+00
  weight for this iteration     100.00

 eigenvalues of (default mixing * dielectric matrix)
  average eigenvalue GAMMA=   1.3649
  0.9910  1.7388

 Free energy of the ion-electron system (eV)
  ---------------------------------------------------
  alpha Z        PSCENC =       105.85194096
  Ewald energy   TEWEN  =     -4063.77726744
  -Hartree energ DENC   =      -911.11752531
  -exchange      EXHF   =         0.00000000
  -V(xc)+E(xc)   XCENC  =      -520.46838708
  PAW double counting   =      6432.80703039    -5659.58814412
  entropy T*S    EENTRO =        -0.00000000
  eigenvalues    EBANDS =      -303.87264535
  atomic energy  EATOM  =      4819.97366116
  Solvation  Ediel_sol  =         0.00000000
  ---------------------------------------------------
  free energy    TOTEN  =      -100.19133678 eV

  energy without entropy =     -100.19133678  energy(sigma->0) =     -100.19133678


--------------------------------------------------------------------------------------------------------




--------------------------------------- Iteration      1(   8)  ---------------------------------------


    POTLOK:  cpu time    0.0154: real time    0.0155
    SETDIJ:  cpu time    0.2377: real time    0.2377
     EDDAV:  cpu time    0.7046: real time    0.7046
       DOS:  cpu time    0.0002: real time    0.0002
    CHARGE:  cpu time    0.0226: real time    0.0226
    MIXING:  cpu time    0.0005: real time    0.0005
    --------------------------------------------
      LOOP:  cpu time    0.9810: real time    0.9811

 eigenvalue-minimisations  :  1274
 total energy-change (2. order) : 0.9350675E-02  (-0.1482457E-01)
 number of electron     127.9999965 magnetization 
 augmentation part      -22.2309860 magnetization 

 Broyden mixing:
  rms(total) = 0.15468E+00    rms(broyden)= 0.15468E+00
  rms(prec ) = 0.16899E+00
  weight for this iteration     100.00

 eigenvalues of (default mixing * dielectric matrix)
  average eigenvalue GAMMA=   1.5953
  2.5053  1.1404  1.1404

 Free energy of the ion-electron system (eV)
  ---------------------------------------------------
  alpha Z        PSCENC =       105.85194096
  Ewald energy   TEWEN  =     -4063.77726744
  -Hartree energ DENC   =      -912.06090189
  -exchange      EXHF   =         0.00000000
  -V(xc)+E(xc)   XCENC  =      -520.05228346
  PAW double counting   =      6799.14859916    -6026.14775612
  entropy T*S    EENTRO =        -0.00000000
  eigenvalues    EBANDS =      -303.11797847
  atomic energy  EATOM  =      4819.97366116
  Solvation  Ediel_sol  =         0.00000000
  ---------------------------------------------------
  free energy    TOTEN  =      -100.18198611 eV

  energy without entropy =     -100.18198611  energy(sigma->0) =     -100.18198611


--------------------------------------------------------------------------------------------------------




--------------------------------------- Iteration      1(   9)  ---------------------------------------


    POTLOK:  cpu time    0.0101: real time    0.0102
    SETDIJ:  cpu time    0.2352: real time    0.2352
     EDDAV:  cpu time    0.8805: real time    0.8806
       DOS:  cpu time    0.0003: real time    0.0003
    CHARGE:  cpu time    0.0273: real time    0.0273
    MIXING:  cpu time    0.0008: real time    0.0008
    --------------------------------------------
      LOOP:  cpu time    1.1541: real time    1.1543

 eigenvalue-minimisations  :  1176
 total energy-change (2. order) :-0.7979247E-02  (-0.4356860E-02)
 number of electron     127.9999965 magnetization 
 augmentation part      -22.2333472 magnetization 

 Broyden mixing:
  rms(total) = 0.31108E-01    rms(broyden)= 0.31107E-01
  rms(prec ) = 0.35125E-01
  weight for this iteration     100.00

 eigenvalues of (default mixing * dielectric matrix)
  average eigenvalue GAMMA=   1.4457
  2.2803  1.1284  1.1284  1.2458

 Free energy of the ion-electron system (eV)
  ---------------------------------------------------
  alpha Z        PSCENC =       105.85194096
  Ewald energy   TEWEN  =     -4063.77726744
  -Hartree energ DENC   =      -915.22106693
  -exchange      EXHF   =         0.00000000
  -V(xc)+E(xc)   XCENC  =      -519.45813949
  PAW double counting   =      7082.47520038    -6309.66906392
  entropy T*S    EENTRO =        -0.00000000
  eigenvalues    EBANDS =      -300.36523007
  atomic energy  EATOM  =      4819.97366116
  Solvation  Ediel_sol  =         0.00000000
  ---------------------------------------------------
  free energy    TOTEN  =      -100.18996535 eV

  energy without entropy =     -100.18996535  energy(sigma->0) =     -100.18996535


--------------------------------------------------------------------------------------------------------




--------------------------------------- Iteration      1(  10)  ---------------------------------------


    POTLOK:  cpu time    0.0143: real time    0.0145
    SETDIJ:  cpu time    0.2360: real time    0.2360
     EDDAV:  cpu time    0.9360: real time    0.9361
       DOS:  cpu time    0.0002: real time    0.0002
    CHARGE:  cpu time    0.0251: real time    0.0251
    MIXING:  cpu time    0.0009: real time    0.0009
    --------------------------------------------
      LOOP:  cpu time    1.2125: real time    1.2127

 eigenvalue-minimisations  :  1330
 total energy-change (2. order) :-0.1141645E-02  (-0.3858324E-03)
 number of electron     127.9999965 magnetization 
 augmentation part      -22.2347664 magnetization 

 Broyden mixing:
  rms(total) = 0.16798E-01    rms(broyden)= 0.16798E-01
  rms(prec ) = 0.20680E-01
  weight for this iteration     100.00

 eigenvalues of (default mixing * dielectric matrix)
  average eigenvalue GAMMA=   1.4905
  2.3731  1.7129  1.0938  1.0938  1.1790

 Free energy of the ion-electron system (eV)
  ---------------------------------------------------
  alpha Z        PSCENC =       105.85194096
  Ewald energy   TEWEN  =     -4063.77726744
  -Hartree energ DENC   =      -915.40533413
  -exchange      EXHF   =         0.00000000
  -V(xc)+E(xc)   XCENC  =      -519.45817021
  PAW double counting   =      7035.31620774    -6262.49273911
  entropy T*S    EENTRO =        -0.00000000
  eigenvalues    EBANDS =      -300.19940597
  atomic energy  EATOM  =      4819.97366116
  Solvation  Ediel_sol  =         0.00000000
  ---------------------------------------------------
  free energy    TOTEN  =      -100.19110700 eV

  energy without entropy =     -100.19110700  energy(sigma->0) =     -100.19110700


--------------------------------------------------------------------------------------------------------




--------------------------------------- Iteration      1(  11)  ---------------------------------------


    POTLOK:  cpu time    0.0120: real time    0.0121
    SETDIJ:  cpu time    0.2359: real time    0.2359
     EDDAV:  cpu time    0.9217: real time    0.9217
       DOS:  cpu time    0.0003: real time    0.0003
    CHARGE:  cpu time    0.0290: real time    0.0290
    MIXING:  cpu time    0.0010: real time    0.0010
    --------------------------------------------
      LOOP:  cpu time    1.2000: real time    1.2001

 eigenvalue-minimisations  :  1176
 total energy-change (2. order) :-0.1234111E-02  (-0.1314970E-03)
 number of electron     127.9999965 magnetization 
 augmentation part      -22.2339173 magnetization 

 Broyden mixing:
  rms(total) = 0.63085E-02    rms(broyden)= 0.63084E-02
  rms(prec ) = 0.79178E-02
  weight for this iteration     100.00

 eigenvalues of (default mixing * dielectric matrix)
  average eigenvalue GAMMA=   1.5168
  2.2377  2.2377  0.9900  1.1166  1.1166  1.4021

 Free energy of the ion-electron system (eV)
  ---------------------------------------------------
  alpha Z        PSCENC =       105.85194096
  Ewald energy   TEWEN  =     -4063.77726744
  -Hartree energ DENC   =      -915.93502231
  -exchange      EXHF   =         0.00000000
  -V(xc)+E(xc)   XCENC  =      -519.39976586
  PAW double counting   =      7021.72683780    -6248.90547985
  entropy T*S    EENTRO =        -0.00000000
  eigenvalues    EBANDS =      -299.72724556
  atomic energy  EATOM  =      4819.97366116
  Solvation  Ediel_sol  =         0.00000000
  ---------------------------------------------------
  free energy    TOTEN  =      -100.19234111 eV

  energy without entropy =     -100.19234111  energy(sigma->0) =     -100.19234111


--------------------------------------------------------------------------------------------------------




--------------------------------------- Iteration      1(  12)  ---------------------------------------


    POTLOK:  cpu time    0.0148: real time    0.0149
    SETDIJ:  cpu time    0.2375: real time    0.2375
     EDDAV:  cpu time    0.8664: real time    0.8664
       DOS:  cpu time    0.0003: real time    0.0003
    CHARGE:  cpu time    0.0283: real time    0.0283
    MIXING:  cpu time    0.0007: real time    0.0007
    --------------------------------------------
      LOOP:  cpu time    1.1479: real time    1.1481

 eigenvalue-minimisations  :  1092
 total energy-change (2. order) :-0.2969127E-03  (-0.2976538E-04)
 number of electron     127.9999965 magnetization 
 augmentation part      -22.2334806 magnetization 

 Broyden mixing:
  rms(total) = 0.28747E-02    rms(broyden)= 0.28746E-02
  rms(prec ) = 0.39014E-02
  weight for this iteration     100.00

 eigenvalues of (default mixing * dielectric matrix)
  average eigenvalue GAMMA=   1.6293
  2.7474  2.7474  0.9629  1.3515  1.3515  1.1223  1.1223

 Free energy of the ion-electron system (eV)
  ---------------------------------------------------
  alpha Z        PSCENC =       105.85194096
  Ewald energy   TEWEN  =     -4063.77726744
  -Hartree energ DENC   =      -916.14754134
  -exchange      EXHF   =         0.00000000
  -V(xc)+E(xc)   XCENC  =      -519.38280312
  PAW double counting   =      7012.92469251    -6240.09976011
  entropy T*S    EENTRO =        -0.00000000
  eigenvalues    EBANDS =      -299.53556064
  atomic energy  EATOM  =      4819.97366116
  Solvation  Ediel_sol  =         0.00000000
  ---------------------------------------------------
  free energy    TOTEN  =      -100.19263802 eV

  energy without entropy =     -100.19263802  energy(sigma->0) =     -100.19263802


--------------------------------------------------------------------------------------------------------




--------------------------------------- Iteration      1(  13)  ---------------------------------------


    POTLOK:  cpu time    0.0135: real time    0.0136
    SETDIJ:  cpu time    0.2380: real time    0.2380
     EDDAV:  cpu time    0.7835: real time    0.7836
       DOS:  cpu time    0.0003: real time    0.0003
    CHARGE:  cpu time    0.0253: real time    0.0253
    MIXING:  cpu time    0.0012: real time    0.0012
    --------------------------------------------
      LOOP:  cpu time    1.0618: real time    1.0620

 eigenvalue-minimisations  :   924
 total energy-change (2. order) :-0.1174255E-03  (-0.1557643E-04)
 number of electron     127.9999965 magnetization 
 augmentation part      -22.2332520 magnetization 

 Broyden mixing:
  rms(total) = 0.14825E-02    rms(broyden)= 0.14825E-02
  rms(prec ) = 0.17310E-02
  weight for this iteration     100.00

 eigenvalues of (default mixing * dielectric matrix)
  average eigenvalue GAMMA=   1.5896
  3.0296  2.3897  1.5041  1.5041  1.1322  1.1322  1.1355  0.8896

 Free energy of the ion-electron system (eV)
  ---------------------------------------------------
  alpha Z        PSCENC =       105.85194096
  Ewald energy   TEWEN  =     -4063.77726744
  -Hartree energ DENC   =      -916.31506968
  -exchange      EXHF   =         0.00000000
  -V(xc)+E(xc)   XCENC  =      -519.37002376
  PAW double counting   =      7006.76147573    -6233.93298636
  entropy T*S    EENTRO =        -0.00000000
  eigenvalues    EBANDS =      -299.38448605
  atomic energy  EATOM  =      4819.97366116
  Solvation  Ediel_sol  =         0.00000000
  ---------------------------------------------------
  free energy    TOTEN  =      -100.19275545 eV

  energy without entropy =     -100.19275545  energy(sigma->0) =     -100.19275545


--------------------------------------------------------------------------------------------------------




--------------------------------------- Iteration      1(  14)  ---------------------------------------


    POTLOK:  cpu time    0.0123: real time    0.0125
    SETDIJ:  cpu time    0.2369: real time    0.2369
     EDDAV:  cpu time    0.5371: real time    0.5371
       DOS:  cpu time    0.0003: real time    0.0003
    --------------------------------------------
      LOOP:  cpu time    0.7866: real time    0.7868

 eigenvalue-minimisations  :   756
 total energy-change (2. order) :-0.1043264E-04  (-0.1551224E-05)
 number of electron     127.9999965 magnetization 
 augmentation part      -22.2332520 magnetization 

 Free energy of the ion-electron system (eV)
  ---------------------------------------------------
  alpha Z        PSCENC =       105.85194096
  Ewald energy   TEWEN  =     -4063.77726744
  -Hartree energ DENC   =      -916.34027231
  -exchange      EXHF   =         0.00000000
  -V(xc)+E(xc)   XCENC  =      -519.36724983
  PAW double counting   =      7009.46275807    -6236.63492568
  entropy T*S    EENTRO =        -0.00000000
  eigenvalues    EBANDS =      -299.36141081
  atomic energy  EATOM  =      4819.97366116
  Solvation  Ediel_sol  =         0.00000000
  ---------------------------------------------------
  free energy    TOTEN  =      -100.19276588 eV

  energy without entropy =     -100.19276588  energy(sigma->0) =     -100.19276588


--------------------------------------------------------------------------------------------------------




 average (electrostatic) potential at core
  the test charge radii are     1.1212  1.1712  1.0808
  (the norm of the test charge is              1.0000)
       1 -40.0659       2 -40.4256       3 -40.4256       4 -40.0659       5 -90.1820
       6 -90.1081       7 -90.1131       8 -90.2454       9 -90.1131      10 -90.1820
      11 -90.1081      12 -90.2454      13 -54.9611      14 -54.8465      15 -54.7323
      16 -54.6464      17 -55.0776      18 -54.8465      19 -54.6270      20 -55.0776
      21 -54.6270      22 -54.7252      23 -54.7252      24 -54.6464      25 -54.7323
      26 -54.9611
 
 
 
 E-fermi :   3.0674     XC(G=0):  -8.3742     alpha+bet : -8.4676


 k-point     1 :       0.0000    0.2500    0.2500
  band No.  band energies     occupation 
      1     -10.6341      2.00000
      2     -10.5308      2.00000
      3     -10.0515      2.00000
      4      -9.7738      2.00000
      5      -9.7435      2.00000
      6      -9.6479      2.00000
      7      -9.4211      2.00000
      8      -9.3546      2.00000
      9      -9.2653      2.00000
     10      -9.1864      2.00000
     11      -9.1644      2.00000
     12      -9.1223      2.00000
     13      -9.0281      2.00000
     14      -8.9232      2.00000
     15      -6.1944      2.00000
     16      -6.0322      2.00000
     17      -5.9218      2.00000
     18      -5.7151      2.00000
     19      -5.5918      2.00000
     20      -5.2749      2.00000
     21      -4.9300      2.00000
     22      -4.5671      2.00000
     23      -1.7350      2.00000
     24      -1.6189      2.00000
     25      -1.4332      2.00000
     26      -1.3387      2.00000
     27      -1.2154      2.00000
     28      -1.1444      2.00000
     29      -0.8301      2.00000
     30      -0.7063      2.00000
     31      -0.6185      2.00000
     32      -0.4629      2.00000
     33      -0.3468      2.00000
     34      -0.2269      2.00000
     35      -0.0988      2.00000
     36      -0.0035      2.00000
     37       0.1385      2.00000
     38       0.2876      2.00000
     39       0.3828      2.00000
     40       0.4336      2.00000
     41       0.4864      2.00000
     42       0.6507      2.00000
     43       0.7255      2.00000
     44       0.9213      2.00000
     45       0.9525      2.00000
     46       1.0543      2.00000
     47       1.2168      2.00000
     48       1.2899      2.00000
     49       1.4135      2.00000
     50       1.4385      2.00000
     51       1.5731      2.00000
     52       1.6729      2.00000
     53       1.7020      2.00000
     54       1.7624      2.00000
     55       1.8714      2.00000
     56       1.9416      2.00000
     57       2.0453      2.00000
     58       2.0883      2.00000
     59       2.1848      2.00000
     60       2.3013      2.00000
     61       2.3668      2.00000
     62       2.3883      2.00000
     63       2.5120      2.00000
     64       2.5842      2.00000
     65       4.3436      0.00000
     66       4.4297      0.00000
     67       4.7151      0.00000
     68       4.7974      0.00000
     69       4.8871      0.00000
     70       4.9984      0.00000
     71       5.0253      0.00000
     72       5.1774      0.00000
     73       5.2593      0.00000
     74       5.3063      0.00000
     75       5.4802      0.00000
     76       5.5826      0.00000
     77       5.6919      0.00000
     78       5.7243      0.00000
     79       5.9298      0.00000
     80       6.1146      0.00000
     81       6.1293      0.00000
     82       6.2595      0.00000
     83       6.6150      0.00000
     84       6.6967      0.00000

 k-point     2 :       0.3333    0.2500    0.2500
  band No.  band energies     occupation 
      1     -10.4720      2.00000
      2     -10.4104      2.00000
      3     -10.1659      2.00000
      4      -9.8872      2.00000
      5      -9.7454      2.00000
      6      -9.6336      2.00000
      7      -9.4998      2.00000
      8      -9.4260      2.00000
      9      -9.2753      2.00000
     10      -9.1699      2.00000
     11      -9.1506      2.00000
     12      -9.1131      2.00000
     13      -9.0739      2.00000
     14      -9.0278      2.00000
     15      -6.1504      2.00000
     16      -5.9625      2.00000
     17      -5.7827      2.00000
     18      -5.6275      2.00000
     19      -5.4935      2.00000
     20      -5.1569      2.00000
     21      -4.9049      2.00000
     22      -4.8563      2.00000
     23      -1.6201      2.00000
     24      -1.5434      2.00000
     25      -1.4045      2.00000
     26      -1.2513      2.00000
     27      -1.1581      2.00000
     28      -1.0738      2.00000
     29      -0.8372      2.00000
     30      -0.7623      2.00000
     31      -0.5206      2.00000
     32      -0.3841      2.00000
     33      -0.2466      2.00000
     34      -0.1244      2.00000
     35      -0.0733      2.00000
     36      -0.0211      2.00000
     37       0.1417      2.00000
     38       0.1898      2.00000
     39       0.2559      2.00000
     40       0.3192      2.00000
     41       0.4538      2.00000
     42       0.5643      2.00000
     43       0.5773      2.00000
     44       0.6909      2.00000
     45       0.9039      2.00000
     46       1.0355      2.00000
     47       1.1359      2.00000
     48       1.1497      2.00000
     49       1.3324      2.00000
     50       1.4436      2.00000
     51       1.4988      2.00000
     52       1.6606      2.00000
     53       1.7103      2.00000
     54       1.8037      2.00000
     55       1.8309      2.00000
     56       1.8866      2.00000
     57       1.9964      2.00000
     58       2.0726      2.00000
     59       2.1600      2.00000
     60       2.2891      2.00000
     61       2.3639      2.00000
     62       2.4885      2.00000
     63       2.5212      2.00000
     64       2.6811      2.00000
     65       3.9944      0.00000
     66       4.3226      0.00000
     67       4.5663      0.00000
     68       4.8778      0.00000
     69       4.9233      0.00000
     70       5.0441      0.00000
     71       5.0833      0.00000
     72       5.2154      0.00000
     73       5.3278      0.00000
     74       5.4629      0.00000
     75       5.5460      0.00000
     76       5.6713      0.00000
     77       5.7671      0.00000
     78       5.8350      0.00000
     79       5.9254      0.00000
     80       6.0021      0.00000
     81       6.1232      0.00000
     82       6.3630      0.00000
     83       6.5706      0.00000
     84       6.7598      0.00000

 k-point     3 :      -0.3333    0.2500    0.2500
  band No.  band energies     occupation 
      1     -10.5322      2.00000
      2     -10.3850      2.00000
      3     -10.0595      2.00000
      4      -9.9270      2.00000
      5      -9.7738      2.00000
      6      -9.6060      2.00000
      7      -9.4982      2.00000
      8      -9.4051      2.00000
      9      -9.2953      2.00000
     10      -9.2042      2.00000
     11      -9.1466      2.00000
     12      -9.1380      2.00000
     13      -9.0835      2.00000
     14      -9.0151      2.00000
     15      -6.0279      2.00000
     16      -5.9145      2.00000
     17      -5.7784      2.00000
     18      -5.6915      2.00000
     19      -5.4975      2.00000
     20      -5.3283      2.00000
     21      -5.0127      2.00000
     22      -4.6661      2.00000
     23      -1.6809      2.00000
     24      -1.6050      2.00000
     25      -1.4082      2.00000
     26      -1.1624      2.00000
     27      -1.0960      2.00000
     28      -0.9506      2.00000
     29      -0.7833      2.00000
     30      -0.6260      2.00000
     31      -0.6024      2.00000
     32      -0.3855      2.00000
     33      -0.2934      2.00000
     34      -0.2629      2.00000
     35      -0.1377      2.00000
     36       0.0355      2.00000
     37       0.0496      2.00000
     38       0.1379      2.00000
     39       0.2413      2.00000
     40       0.2857      2.00000
     41       0.4897      2.00000
     42       0.5233      2.00000
     43       0.6429      2.00000
     44       0.6761      2.00000
     45       0.8633      2.00000
     46       0.9434      2.00000
     47       1.1248      2.00000
     48       1.2559      2.00000
     49       1.3096      2.00000
     50       1.4558      2.00000
     51       1.5558      2.00000
     52       1.6090      2.00000
     53       1.7035      2.00000
     54       1.8335      2.00000
     55       1.8672      2.00000
     56       1.9050      2.00000
     57       1.9587      2.00000
     58       2.0090      2.00000
     59       2.1224      2.00000
     60       2.2395      2.00000
     61       2.3500      2.00000
     62       2.5736      2.00000
     63       2.6113      2.00000
     64       2.8299      2.00000
     65       4.2152      0.00000
     66       4.4900      0.00000
     67       4.6265      0.00000
     68       4.6864      0.00000
     69       4.8572      0.00000
     70       4.9489      0.00000
     71       5.0392      0.00000
     72       5.1257      0.00000
     73       5.2943      0.00000
     74       5.3215      0.00000
     75       5.5401      0.00000
     76       5.6231      0.00000
     77       5.7187      0.00000
     78       5.7440      0.00000
     79       5.8822      0.00000
     80       6.0266      0.00000
     81       6.2266      0.00000
     82       6.3952      0.00000
     83       6.6642      0.00000
     84       6.8000      0.00000

 k-point     4 :       0.0000   -0.2500    0.2500
  band No.  band energies     occupation 
      1     -10.6869      2.00000
      2     -10.4198      2.00000
      3     -10.0884      2.00000
      4      -9.9572      2.00000
      5      -9.6551      2.00000
      6      -9.4976      2.00000
      7      -9.4498      2.00000
      8      -9.3967      2.00000
      9      -9.2583      2.00000
     10      -9.1966      2.00000
     11      -9.1561      2.00000
     12      -9.1174      2.00000
     13      -9.0413      2.00000
     14      -8.9247      2.00000
     15      -6.1750      2.00000
     16      -6.0384      2.00000
     17      -5.9364      2.00000
     18      -5.7826      2.00000
     19      -5.4962      2.00000
     20      -5.2675      2.00000
     21      -5.0123      2.00000
     22      -4.5225      2.00000
     23      -1.7534      2.00000
     24      -1.4698      2.00000
     25      -1.3658      2.00000
     26      -1.3161      2.00000
     27      -1.2609      2.00000
     28      -1.0770      2.00000
     29      -0.9503      2.00000
     30      -0.8761      2.00000
     31      -0.6305      2.00000
     32      -0.4713      2.00000
     33      -0.3716      2.00000
     34      -0.1880      2.00000
     35      -0.1136      2.00000
     36      -0.0658      2.00000
     37       0.2093      2.00000
     38       0.2184      2.00000
     39       0.2583      2.00000
     40       0.5122      2.00000
     41       0.5935      2.00000
     42       0.6056      2.00000
     43       0.7250      2.00000
     44       0.8326      2.00000
     45       0.8904      2.00000
     46       1.1713      2.00000
     47       1.2023      2.00000
     48       1.3027      2.00000
     49       1.4496      2.00000
     50       1.5300      2.00000
     51       1.5901      2.00000
     52       1.6512      2.00000
     53       1.7042      2.00000
     54       1.8321      2.00000
     55       1.8897      2.00000
     56       1.9439      2.00000
     57       2.0723      2.00000
     58       2.1287      2.00000
     59       2.1474      2.00000
     60       2.2378      2.00000
     61       2.3280      2.00000
     62       2.5281      2.00000
     63       2.5871      2.00000
     64       2.6422      2.00000
     65       4.1077      0.00000
     66       4.4619      0.00000
     67       4.6028      0.00000
     68       4.6573      0.00000
     69       4.7864      0.00000
     70       4.9702      0.00000
     71       5.0327      0.00000
     72       5.1341      0.00000
     73       5.1954      0.00000
     74       5.3063      0.00000
     75       5.4605      0.00000
     76       5.5180      0.00000
     77       5.7794      0.00000
     78       5.8353      0.00000
     79       5.9752      0.00000
     80       6.0318      0.00000
     81       6.0898      0.00000
     82       6.4494      0.00000
     83       6.6572      0.00000
     84       6.8072      0.00000

 k-point     5 :       0.3333   -0.2500    0.2500
  band No.  band energies     occupation 
      1     -10.5570      2.00000
      2     -10.3467      2.00000
      3     -10.0483      2.00000
      4      -9.9342      2.00000
      5      -9.7509      2.00000
      6      -9.6871      2.00000
      7      -9.4835      2.00000
      8      -9.4091      2.00000
      9      -9.2617      2.00000
     10      -9.1927      2.00000
     11      -9.1643      2.00000
     12      -9.1529      2.00000
     13      -9.0661      2.00000
     14      -9.0146      2.00000
     15      -5.9687      2.00000
     16      -5.9390      2.00000
     17      -5.7787      2.00000
     18      -5.7139      2.00000
     19      -5.5653      2.00000
     20      -5.2942      2.00000
     21      -4.9719      2.00000
     22      -4.6818      2.00000
     23      -1.8083      2.00000
     24      -1.5682      2.00000
     25      -1.4347      2.00000
     26      -1.1963      2.00000
     27      -1.0434      2.00000
     28      -0.9105      2.00000
     29      -0.8020      2.00000
     30      -0.6328      2.00000
     31      -0.4701      2.00000
     32      -0.3695      2.00000
     33      -0.2264      2.00000
     34      -0.1366      2.00000
     35      -0.0900      2.00000
     36      -0.0220      2.00000
     37       0.0245      2.00000
     38       0.1298      2.00000
     39       0.1580      2.00000
     40       0.3637      2.00000
     41       0.4131      2.00000
     42       0.4930      2.00000
     43       0.6571      2.00000
     44       0.6816      2.00000
     45       0.7805      2.00000
     46       0.8506      2.00000
     47       1.0664      2.00000
     48       1.2459      2.00000
     49       1.3466      2.00000
     50       1.4546      2.00000
     51       1.5974      2.00000
     52       1.6416      2.00000
     53       1.6796      2.00000
     54       1.7375      2.00000
     55       1.8556      2.00000
     56       1.8899      2.00000
     57       1.9728      2.00000
     58       2.0909      2.00000
     59       2.1735      2.00000
     60       2.2891      2.00000
     61       2.4084      2.00000
     62       2.5118      2.00000
     63       2.6175      2.00000
     64       2.7390      2.00000
     65       4.0954      0.00000
     66       4.5099      0.00000
     67       4.5496      0.00000
     68       4.6834      0.00000
     69       4.8588      0.00000
     70       4.9724      0.00000
     71       5.0450      0.00000
     72       5.2069      0.00000
     73       5.4124      0.00000
     74       5.5015      0.00000
     75       5.5914      0.00000
     76       5.6423      0.00000
     77       5.7221      0.00000
     78       5.8380      0.00000
     79       5.8633      0.00000
     80       6.0250      0.00000
     81       6.2287      0.00000
     82       6.3869      0.00000
     83       6.4871      0.00000
     84       6.6403      0.00000

 k-point     6 :      -0.3333   -0.2500    0.2500
  band No.  band energies     occupation 
      1     -10.5266      2.00000
      2     -10.2932      2.00000
      3     -10.1976      2.00000
      4      -9.9136      2.00000
      5      -9.8297      2.00000
      6      -9.6427      2.00000
      7      -9.3964      2.00000
      8      -9.3538      2.00000
      9      -9.2951      2.00000
     10      -9.2353      2.00000
     11      -9.1660      2.00000
     12      -9.1031      2.00000
     13      -9.0529      2.00000
     14      -9.0425      2.00000
     15      -6.1294      2.00000
     16      -5.9923      2.00000
     17      -5.8003      2.00000
     18      -5.7356      2.00000
     19      -5.3105      2.00000
     20      -5.1042      2.00000
     21      -5.0595      2.00000
     22      -4.7955      2.00000
     23      -1.8167      2.00000
     24      -1.5737      2.00000
     25      -1.3516      2.00000
     26      -1.2033      2.00000
     27      -1.0796      2.00000
     28      -1.0083      2.00000
     29      -0.7435      2.00000
     30      -0.6256      2.00000
     31      -0.5955      2.00000
     32      -0.4292      2.00000
     33      -0.2834      2.00000
     34      -0.1657      2.00000
     35      -0.0394      2.00000
     36      -0.0101      2.00000
     37       0.0808      2.00000
     38       0.2120      2.00000
     39       0.2966      2.00000
     40       0.3272      2.00000
     41       0.4073      2.00000
     42       0.5200      2.00000
     43       0.5914      2.00000
     44       0.7381      2.00000
     45       0.8051      2.00000
     46       1.0089      2.00000
     47       1.1129      2.00000
     48       1.2187      2.00000
     49       1.3041      2.00000
     50       1.3883      2.00000
     51       1.5091      2.00000
     52       1.6268      2.00000
     53       1.6948      2.00000
     54       1.7350      2.00000
     55       1.8942      2.00000
     56       1.9339      2.00000
     57       1.9575      2.00000
     58       2.0310      2.00000
     59       2.1368      2.00000
     60       2.2925      2.00000
     61       2.3617      2.00000
     62       2.5121      2.00000
     63       2.5618      2.00000
     64       2.6791      2.00000
     65       4.4255      0.00000
     66       4.5451      0.00000
     67       4.5781      0.00000
     68       4.7946      0.00000
     69       4.8544      0.00000
     70       4.9134      0.00000
     71       5.0484      0.00000
     72       5.1030      0.00000
     73       5.2303      0.00000
     74       5.4249      0.00000
     75       5.5616      0.00000
     76       5.6212      0.00000
     77       5.7556      0.00000
     78       5.7789      0.00000
     79       5.8763      0.00000
     80       6.0032      0.00000
     81       6.1966      0.00000
     82       6.4643      0.00000
     83       6.6126      0.00000
     84       6.7872      0.00000


--------------------------------------------------------------------------------------------------------


 soft charge-density along one line, spin component           1
         0         1         2         3         4         5         6         7         8         9
 total charge-density along one line
 
 pseudopotential strength for first ion, spin component:           1
  1.431   6.371  -0.000  -0.001  -0.000
  6.371  27.990   0.000   0.000   0.001
 -0.000   0.000   5.611  -0.000   0.000
 -0.001   0.000  -0.000   5.610  -0.000
 -0.000   0.001   0.000  -0.000   5.611
 total augmentation occupancy for first ion, spin component:           1
  0.426   0.002  -0.001  -0.011  -0.009
  0.002   0.000  -0.000  -0.000  -0.000
 -0.001  -0.000   0.017  -0.001  -0.000
 -0.011  -0.000  -0.001   0.015  -0.001
 -0.009  -0.000  -0.000  -0.001   0.019


------------------------ aborting loop because EDIFF is reached ----------------------------------------


 


 total charge     
 
# of ion       s       p       d       tot
------------------------------------------
    1        0.049   0.033   0.000   0.082
    2        0.041   0.025   0.000   0.066
    3        0.041   0.025   0.000   0.066
    4        0.049   0.033   0.000   0.082
    5        1.271   0.971   0.056   2.299
    6        1.272   0.974   0.057   2.303
    7        1.292   0.938   0.055   2.285
    8        1.299   0.913   0.056   2.269
    9        1.292   0.938   0.055   2.285
   10        1.271   0.971   0.056   2.299
   11        1.272   0.974   0.057   2.303
   12        1.299   0.913   0.056   2.269
   13        1.477   2.297   0.024   3.798
   14        1.471   2.319   0.022   3.812
   15        1.468   2.323   0.019   3.810
   16        1.473   2.311   0.021   3.806
   17        1.486   2.276   0.027   3.789
   18        1.471   2.319   0.022   3.812
   19        1.471   2.324   0.020   3.815
   20        1.486   2.276   0.027   3.789
   21        1.471   2.324   0.020   3.815
   22        1.470   2.320   0.019   3.809
   23        1.470   2.320   0.019   3.809
   24        1.473   2.311   0.021   3.806
   25        1.468   2.323   0.019   3.810
   26        1.477   2.297   0.024   3.798
--------------------------------------------------
tot         31.080  40.050   0.753  71.884
 
    CHARGE:  cpu time    0.0276: real time    0.0276
    FORLOC:  cpu time    0.0024: real time    0.0024
    FORNL :  cpu time    0.1735: real time    0.1735
    STRESS:  cpu time    0.3795: real time    0.3796
    FORCOR:  cpu time    0.0113: real time    0.0113
    FORHAR:  cpu time    0.0038: real time    0.0038
    MIXING:  cpu time    0.0007: real time    0.0007
[...]
     18      -5.7072      2.00000
     19      -5.5537      2.00000
     20      -5.2898      2.00000
     21      -4.9604      2.00000
     22      -4.6712      2.00000
     23      -1.8031      2.00000
     24      -1.5510      2.00000
     25      -1.4215      2.00000
     26      -1.1911      2.00000
     27      -1.0437      2.00000
     28      -0.8933      2.00000
     29      -0.7859      2.00000
     30      -0.6151      2.00000
     31      -0.4555      2.00000
     32      -0.3483      2.00000
     33      -0.2232      2.00000
     34      -0.1251      2.00000
     35      -0.0812      2.00000
     36      -0.0149      2.00000
     37       0.0470      2.00000
     38       0.1294      2.00000
     39       0.1856      2.00000
     40       0.3613      2.00000
     41       0.4159      2.00000
     42       0.5050      2.00000
     43       0.6682      2.00000
     44       0.6782      2.00000
     45       0.8051      2.00000
     46       0.8766      2.00000
     47       1.0650      2.00000
     48       1.2590      2.00000
     49       1.3648      2.00000
     50       1.4695      2.00000
     51       1.6130      2.00000
     52       1.6406      2.00000
     53       1.6857      2.00000
     54       1.7524      2.00000
     55       1.8638      2.00000
     56       1.8958      2.00000
     57       1.9837      2.00000
     58       2.0940      2.00000
     59       2.1822      2.00000
     60       2.3038      2.00000
     61       2.4012      2.00000
     62       2.5314      2.00000
     63       2.6262      2.00000
     64       2.7388      2.00000
     65       4.1122      0.00000
     66       4.5109      0.00000
     67       4.5566      0.00000
     68       4.6693      0.00000
     69       4.8702      0.00000
     70       4.9779      0.00000
     71       5.0647      0.00000
     72       5.2127      0.00000
     73       5.4165      0.00000
     74       5.5073      0.00000
     75       5.6022      0.00000
     76       5.6552      0.00000
     77       5.7285      0.00000
     78       5.8530      0.00000
     79       5.8613      0.00000
     80       6.0269      0.00000
     81       6.2314      0.00000
     82       6.3960      0.00000
     83       6.4936      0.00000
     84       6.6370      0.00000

 k-point     6 :      -0.3333   -0.2500    0.2500
  band No.  band energies     occupation 
      1     -10.5165      2.00000
      2     -10.2766      2.00000
      3     -10.1684      2.00000
      4      -9.8911      2.00000
      5      -9.8067      2.00000
      6      -9.6285      2.00000
      7      -9.3794      2.00000
      8      -9.3484      2.00000
      9      -9.3059      2.00000
     10      -9.2122      2.00000
     11      -9.1499      2.00000
     12      -9.1016      2.00000
     13      -9.0591      2.00000
     14      -9.0295      2.00000
     15      -6.1156      2.00000
     16      -5.9729      2.00000
     17      -5.7930      2.00000
     18      -5.7270      2.00000
     19      -5.3159      2.00000
     20      -5.0959      2.00000
     21      -5.0455      2.00000
     22      -4.7810      2.00000
     23      -1.8138      2.00000
     24      -1.5603      2.00000
     25      -1.3396      2.00000
     26      -1.1927      2.00000
     27      -1.0557      2.00000
     28      -0.9922      2.00000
     29      -0.7299      2.00000
     30      -0.6112      2.00000
     31      -0.5984      2.00000
     32      -0.4044      2.00000
     33      -0.2732      2.00000
     34      -0.1609      2.00000
     35      -0.0441      2.00000
     36       0.0116      2.00000
     37       0.0924      2.00000
     38       0.2206      2.00000
     39       0.2975      2.00000
     40       0.3561      2.00000
     41       0.4155      2.00000
     42       0.5183      2.00000
     43       0.6080      2.00000
     44       0.7581      2.00000
     45       0.7907      2.00000
     46       1.0330      2.00000
     47       1.1176      2.00000
     48       1.2330      2.00000
     49       1.3174      2.00000
     50       1.3968      2.00000
     51       1.5219      2.00000
     52       1.6430      2.00000
     53       1.6985      2.00000
     54       1.7535      2.00000
     55       1.9036      2.00000
     56       1.9414      2.00000
     57       1.9708      2.00000
     58       2.0471      2.00000
     59       2.1530      2.00000
     60       2.2841      2.00000
     61       2.3653      2.00000
     62       2.5271      2.00000
     63       2.5674      2.00000
     64       2.6799      2.00000
     65       4.4330      0.00000
     66       4.5531      0.00000
     67       4.5959      0.00000
     68       4.7932      0.00000
     69       4.8451      0.00000
     70       4.9350      0.00000
     71       5.0527      0.00000
     72       5.1087      0.00000
     73       5.2388      0.00000
     74       5.4312      0.00000
     75       5.5632      0.00000
     76       5.6264      0.00000
     77       5.7411      0.00000
     78       5.7989      0.00000
     79       5.8810      0.00000
     80       6.0164      0.00000
     81       6.2007      0.00000
     82       6.4678      0.00000
     83       6.6232      0.00000
     84       6.7981      0.00000


--------------------------------------------------------------------------------------------------------


 soft charge-density along one line, spin component           1
         0         1         2         3         4         5         6         7         8         9
 total charge-density along one line
 
 pseudopotential strength for first ion, spin component:           1
  1.431   6.371  -0.000  -0.001  -0.000
  6.371  27.988   0.000   0.000   0.001
 -0.000   0.000   5.614  -0.000   0.000
 -0.001   0.000  -0.000   5.614  -0.000
 -0.000   0.001   0.000  -0.000   5.614
 total augmentation occupancy for first ion, spin component:           1
  0.427   0.002  -0.001  -0.010  -0.008
  0.002   0.000  -0.000  -0.000  -0.000
 -0.001  -0.000   0.017  -0.001  -0.000
 -0.010  -0.000  -0.001   0.015  -0.002
 -0.008  -0.000  -0.000  -0.002   0.019


------------------------ aborting loop because EDIFF is reached ----------------------------------------


 


 total charge     
 
# of ion       s       p       d       tot
------------------------------------------
    1        0.049   0.033   0.000   0.082
    2        0.041   0.025   0.000   0.066
    3        0.041   0.025   0.000   0.066
    4        0.049   0.033   0.000   0.082
    5        1.271   0.970   0.056   2.297
    6        1.272   0.973   0.057   2.302
    7        1.293   0.935   0.055   2.283
    8        1.299   0.912   0.056   2.268
    9        1.293   0.935   0.055   2.283
   10        1.271   0.970   0.056   2.297
   11        1.272   0.973   0.057   2.302
   12        1.299   0.912   0.056   2.268
   13        1.477   2.298   0.024   3.798
   14        1.471   2.318   0.022   3.810
   15        1.468   2.324   0.019   3.811
   16        1.474   2.313   0.022   3.808
   17        1.485   2.275   0.027   3.788
   18        1.471   2.318   0.022   3.810
   19        1.471   2.323   0.020   3.814
   20        1.485   2.275   0.027   3.788
   21        1.471   2.323   0.020   3.814
   22        1.470   2.319   0.018   3.807
   23        1.470   2.319   0.018   3.807
   24        1.474   2.313   0.022   3.808
   25        1.468   2.324   0.019   3.811
   26        1.477   2.298   0.024   3.798
--------------------------------------------------
tot         31.082  40.034   0.751  71.867
 
    CHARGE:  cpu time    0.0254: real time    0.0256
    FORLOC:  cpu time    0.0024: real time    0.0025
    FORNL :  cpu time    0.1922: real time    0.1976
    STRESS:  cpu time    0.5437: real time    0.5575
    FORCOR:  cpu time    0.0135: real time    0.0139
    FORHAR:  cpu time    0.0047: real time    0.0047
    MIXING:  cpu time    0.0006: real time    0.0006
    OFIELD:  cpu time    0.0000: real time    0.0000

  FORCE on cell =-STRESS in cart. coord.  units (eV):
  Direction    XX          YY          ZZ          XY          YZ          ZX
  --------------------------------------------------------------------------------------
  Alpha Z   105.99456   105.99456   105.99456
  Ewald   -1142.53115 -1409.68138 -1518.71461    13.40551  -137.63150   107.67267
  Hartree   457.65380   253.77828   199.31196     6.22579   -99.25772    70.73906
  E(xc)    -478.06883  -477.59242  -478.31969     0.14890    -0.22519     1.05123
  Local   -1252.80891  -782.67889  -628.74390   -16.67564   236.63476  -172.43974
  n-local  1255.97433  1251.65264  1255.62530    -1.37602     0.94731    -6.81213
  augment  -197.48342  -197.06139  -198.75143     0.40863    -0.03741     1.60506
  Kinetic  1251.14346  1255.55322  1263.53298    -2.12415    -0.50029    -1.82083
  Fock        0.00000     0.00000     0.00000     0.00000     0.00000     0.00000
  -------------------------------------------------------------------------------------
  Total      -0.12615    -0.03537    -0.06483     0.01302    -0.07003    -0.00468
  in kB      -0.25947    -0.07276    -0.13334     0.02678    -0.14404    -0.00962
  external pressure =       -0.16 kB  Pullay stress =        0.00 kB


 VOLUME and BASIS-vectors are now :
 -----------------------------------------------------------------------------
  energy-cutoff  :      300.00
  volume of cell :      778.97
      direct lattice vectors                 reciprocal lattice vectors
    -7.347190690  0.005050343 -0.301095956    -0.136300533  0.030321094  0.005244629
     2.086187592  9.396328760 -0.106488220     0.000778581  0.106056533 -0.017219620
    -0.839998997 -1.825097052-11.278847639     0.003631278 -0.001810764 -0.088638971

  length of vectors
     7.353359458  9.625721406 11.456394792     0.139730849  0.107448172  0.088731799


 FORCES acting on ions
    electron-ion (+dipol)            ewald-force                    non-local-force                 convergence-correction
 -----------------------------------------------------------------------------------------------
   -.337E+01 0.427E+00 0.568E+01   0.307E+01 -.460E+00 -.597E+01   0.296E+00 0.321E-01 0.306E+00   -.822E-05 0.881E-04 -.477E-04
   0.284E+01 0.928E+01 -.469E+01   -.261E+01 -.872E+01 0.423E+01   -.209E+00 -.560E+00 0.440E+00   -.407E-04 -.191E-03 0.756E-04
   -.284E+01 -.928E+01 0.469E+01   0.261E+01 0.872E+01 -.423E+01   0.209E+00 0.560E+00 -.440E+00   0.407E-04 0.191E-03 -.756E-04
   0.337E+01 -.427E+00 -.568E+01   -.307E+01 0.460E+00 0.597E+01   -.296E+00 -.321E-01 -.306E+00   0.822E-05 -.881E-04 0.477E-04
   0.107E+02 -.393E+02 0.460E+01   -.152E+02 0.472E+02 -.135E+01   0.445E+01 -.790E+01 -.328E+01   0.512E-03 -.820E-03 0.830E-05
   -.645E+01 -.167E+02 0.934E+00   0.748E+01 0.142E+02 -.103E+02   -.107E+01 0.245E+01 0.942E+01   -.136E-02 0.289E-03 0.392E-03
   0.257E+02 -.429E+01 0.392E+01   -.320E+02 0.817E+00 0.105E+01   0.632E+01 0.351E+01 -.494E+01   -.127E-02 0.424E-04 -.374E-03
   0.101E+02 -.830E+01 -.364E+02   -.133E+02 0.423E+01 0.425E+02   0.317E+01 0.410E+01 -.613E+01   0.852E-03 0.158E-02 0.863E-03
   -.257E+02 0.429E+01 -.392E+01   0.320E+02 -.817E+00 -.105E+01   -.632E+01 -.351E+01 0.494E+01   0.127E-02 -.424E-04 0.374E-03
   -.107E+02 0.393E+02 -.460E+01   0.152E+02 -.472E+02 0.135E+01   -.445E+01 0.790E+01 0.328E+01   -.512E-03 0.820E-03 -.830E-05
   0.645E+01 0.167E+02 -.934E+00   -.748E+01 -.142E+02 0.103E+02   0.107E+01 -.245E+01 -.942E+01   0.136E-02 -.289E-03 -.392E-03
   -.101E+02 0.830E+01 0.364E+02   0.133E+02 -.423E+01 -.425E+02   -.317E+01 -.410E+01 0.613E+01   -.852E-03 -.158E-02 -.863E-03
   0.174E+02 -.364E+01 -.355E+02   -.182E+02 0.392E+01 0.373E+02   0.792E+00 -.274E+00 -.180E+01   -.357E-04 -.830E-03 0.456E-03
   -.465E+01 -.478E+02 0.130E+02   0.492E+01 0.499E+02 -.137E+02   -.271E+00 -.214E+01 0.678E+00   0.344E-03 0.808E-03 -.188E-02
   0.322E+02 -.629E+02 -.735E+02   -.332E+02 0.644E+02 0.748E+02   0.103E+01 -.151E+01 -.136E+01   0.776E-04 -.161E-02 -.152E-03
   0.342E+02 -.788E+01 -.172E+02   -.362E+02 0.786E+01 0.179E+02   0.195E+01 0.177E-01 -.725E+00   -.353E-04 0.154E-03 -.702E-03
   0.180E+02 0.664E+02 0.734E+02   -.190E+02 -.673E+02 -.758E+02   0.987E+00 0.964E+00 0.243E+01   0.336E-03 0.206E-03 0.715E-03
   0.465E+01 0.478E+02 -.130E+02   -.492E+01 -.499E+02 0.137E+02   0.271E+00 0.214E+01 -.678E+00   -.344E-03 -.808E-03 0.188E-02
   -.384E+02 -.395E+02 0.520E+02   0.400E+02 0.399E+02 -.531E+02   -.156E+01 -.403E+00 0.110E+01   0.289E-03 0.615E-03 -.751E-03
   -.180E+02 -.664E+02 -.734E+02   0.190E+02 0.673E+02 0.758E+02   -.987E+00 -.964E+00 -.243E+01   -.336E-03 -.206E-03 -.715E-03
   0.384E+02 0.395E+02 -.520E+02   -.400E+02 -.399E+02 0.531E+02   0.156E+01 0.403E+00 -.110E+01   -.289E-03 -.615E-03 0.751E-03
   0.376E+02 0.188E+01 0.660E+02   -.388E+02 -.281E+01 -.677E+02   0.120E+01 0.938E+00 0.171E+01   0.428E-03 0.131E-02 0.453E-03
   -.376E+02 -.188E+01 -.660E+02   0.388E+02 0.281E+01 0.677E+02   -.120E+01 -.938E+00 -.171E+01   -.428E-03 -.131E-02 -.453E-03
   -.342E+02 0.788E+01 0.172E+02   0.362E+02 -.786E+01 -.179E+02   -.195E+01 -.177E-01 0.725E+00   0.353E-04 -.154E-03 0.702E-03
   -.322E+02 0.629E+02 0.735E+02   0.332E+02 -.644E+02 -.748E+02   -.103E+01 0.151E+01 0.136E+01   -.776E-04 0.161E-02 0.152E-03
   -.174E+02 0.364E+01 0.355E+02   0.182E+02 -.392E+01 -.373E+02   -.792E+00 0.274E+00 0.180E+01   0.357E-04 0.830E-03 -.456E-03
 -----------------------------------------------------------------------------------------------
   0.139E-10 -.174E-10 0.145E-11   0.178E-13 0.440E-13 -.426E-13   0.222E-15 -.999E-15 0.222E-14   0.120E-12 -.219E-12 -.234E-11
 
 
 POSITION                                       TOTAL-FORCE (eV/Angst)
 -----------------------------------------------------------------------------------
     -1.67083      3.01266     -1.47531        -0.005321     -0.000686      0.015722
     -2.05889      6.04241     -6.85593         0.016478      0.000998     -0.018845
     -4.04211      1.53387     -4.83051        -0.016478     -0.000998      0.018845
     -4.43018      4.56362    -10.21112         0.005321      0.000686     -0.015722
      1.57216      8.43918     -3.85821         0.014801     -0.020129     -0.041876
     -0.78442      2.72885     -9.20968        -0.042959      0.014009      0.019949
     -5.27400      1.13548     -0.80473         0.009605      0.026916      0.030739
     -4.06270      0.56627     -8.69466        -0.009882      0.037002      0.025341
     -0.82700      6.44080    -10.88170        -0.009605     -0.026916     -0.030739
     -7.67316     -0.86290     -7.82823        -0.014801      0.020129      0.041876
     -5.31658      4.84743     -2.47675         0.042959     -0.014009     -0.019949
     -2.03830      7.01001     -2.99177         0.009882     -0.037002     -0.025341
     -4.37072      7.74581     -1.79502         0.001450      0.004335      0.003843
     -5.01721      1.59599    -10.99826         0.002297     -0.001903     -0.006011
     -3.10512      3.04907     -7.95510         0.007127      0.013237     -0.002768
     -2.44346     -0.77772     -6.04605         0.011889      0.001212      0.003578
      0.75138      5.93364     -4.22582        -0.004661      0.004357      0.005497
     -1.08379      5.98030     -0.68817        -0.002297      0.001903      0.006011
     -3.07662      0.42536     -2.04655         0.008322      0.000735      0.016122
     -6.85238      1.64264     -7.46061         0.004661     -0.004357     -0.005497
     -3.02438      7.15092     -9.63988        -0.008322     -0.000735     -0.016122
     -6.32675      2.40920     -3.02513        -0.010217      0.009569      0.006080
      0.22575      5.16708     -8.66130         0.010217     -0.009569     -0.006080
     -3.65755      8.35400     -5.64038        -0.011889     -0.001212     -0.003578
     -2.99588      4.52721     -3.73133        -0.007127     -0.013237      0.002768
     -1.73028     -0.16952     -9.89142        -0.001450     -0.004335     -0.003843
 -----------------------------------------------------------------------------------
    total drift:                                0.000000     -0.000000     -0.000000


--------------------------------------------------------------------------------------------------------



  FREE ENERGIE OF THE ION-ELECTRON SYSTEM (eV)
  ---------------------------------------------------
  free  energy   TOTEN  =      -100.21969544 eV

  energy  without entropy=     -100.21969544  energy(sigma->0) =     -100.21969544
 
 d Force = 0.1241336E-03[ 0.673E-04, 0.181E-03]  d Energy = 0.1118202E-03 0.123E-04
 d Force =-0.1194844E-02[-0.121E-02,-0.118E-02]  d Ewald  = 0.1902509E-02-0.310E-02


--------------------------------------------------------------------------------------------------------


    POTLOK:  cpu time    0.2428: real time    0.2544


--------------------------------------------------------------------------------------------------------


 Conjugate gradient step on ions:
 trial-energy change:   -0.000112  1 .order   -0.000127   -0.000185   -0.000070
  (g-gl).g = 0.172E-03      g.g   = 0.330E-03  gl.gl    = 0.379E-03
 g(Force)  = 0.305E-03   g(Stress)= 0.248E-04 ortho     = 0.313E-04
 gamma     =   0.45373
 trial     =   0.53682
 opt step  =   0.86390  (harmonic =   0.86390) maximal distance =0.00057418
 next E    =  -100.219732   (d E  =  -0.00015)


--------------------------------------------------------------------------------------------------------


  
 reached required accuracy - stopping structural energy minimisation
     LOOP+:  cpu time    3.3995: real time    3.6821
    4ORBIT:  cpu time    0.0000: real time    0.0000
 


 total charge     
 
# of ion       s       p       d       tot
------------------------------------------
    1        0.049   0.033   0.000   0.082
    2        0.041   0.025   0.000   0.066
    3        0.041   0.025   0.000   0.066
    4        0.049   0.033   0.000   0.082
    5        1.271   0.970   0.056   2.297
    6        1.272   0.973   0.057   2.302
    7        1.293   0.935   0.055   2.283
    8        1.299   0.912   0.056   2.268
    9        1.293   0.935   0.055   2.283
   10        1.271   0.970   0.056   2.297
   11        1.272   0.973   0.057   2.302
   12        1.299   0.912   0.056   2.268
   13        1.477   2.298   0.024   3.798
   14        1.471   2.318   0.022   3.810
   15        1.468   2.324   0.019   3.811
   16        1.474   2.313   0.022   3.808
   17        1.485   2.275   0.027   3.788
   18        1.471   2.318   0.022   3.810
   19        1.471   2.323   0.020   3.814
   20        1.485   2.275   0.027   3.788
   21        1.471   2.323   0.020   3.814
   22        1.470   2.319   0.018   3.807
   23        1.470   2.319   0.018   3.807
   24        1.474   2.313   0.022   3.808
   25        1.468   2.324   0.019   3.811
   26        1.477   2.298   0.024   3.798
--------------------------------------------------
tot         31.082  40.034   0.751  71.867
 

 total amount of memory used by VASP MPI-rank0    42946. kBytes
=======================================================================

   base      :      30000. kBytes
   nonlr-proj:       2001. kBytes
   fftplans  :       1067. kBytes
   grid      :       4169. kBytes
   one-center:        210. kBytes
   wavefun   :       5499. kBytes
 
  
  
 General timing and accounting informations for this job:
 ========================================================
  
                  Total CPU time used (sec):      217.557
                            User time (sec):      213.590
                          System time (sec):        3.967
                         Elapsed time (sec):      229.730
  
                   Maximum memory used (kb):       96136.
                   Average memory used (kb):           0.
  
                          Minor page faults:        67376
                          Major page faults:            0
                 Voluntary context switches:         2436
