PROCAR new format
# of k-points:    6         # of bands:   84         # of ions:   26

 k-point     1 :    0.00000000 0.25000000 0.25000000     weight = 0.16666667

band     1 # energy  -10.62338874 # occ.  2.00000000
 
ion      s      p      d    tot
    1  0.000  0.000  0.000  0.000
    2  0.000  0.000  0.000  0.000
    3  0.000  0.000  0.000  0.000
    4  0.000  0.000  0.000  0.000
    5  0.025  0.001  0.000  0.026
    6  0.013  0.001  0.000  0.014
    7  0.008  0.000  0.000  0.008
    8  0.016  0.000  0.000  0.016
    9  0.008  0.000  0.000  0.008
   10  0.025  0.001  0.000  0.026
   11  0.013  0.001  0.000  0.014
   12  0.016  0.000  0.000  0.016
   13  0.056  0.001  0.000  0.056
   14  0.023  0.000  0.000  0.023
   15  0.023  0.000  0.000  0.024
   16  0.046  0.001  0.000  0.047
   17  0.075  0.001  0.000  0.076
   18  0.023  0.000  0.000  0.023
   19  0.018  0.000  0.000  0.019
   20  0.075  0.001  0.000  0.076
   21  0.018  0.000  0.000  0.019
   22  0.010  0.000  0.000  0.010
   23  0.010  0.000  0.000  0.010
   24  0.046  0.001  0.000  0.047
   25  0.023  0.000  0.000  0.024
   26  0.056  0.001  0.000  0.056
tot    0.625  0.013  0.001  0.638
 
band     2 # energy  -10.51185494 # occ.  2.00000000
 
ion      s      p      d    tot
    1  0.000  0.000  0.000  0.000
    2  0.000  0.000  0.000  0.000
    3  0.000  0.000  0.000  0.000
    4  0.000  0.000  0.000  0.000
    5  0.016  0.001  0.000  0.017
    6  0.022  0.001  0.000  0.023
    7  0.005  0.000  0.000  0.006
    8  0.017  0.001  0.000  0.018
    9  0.005  0.000  0.000  0.006
   10  0.016  0.001  0.000  0.017
   11  0.022  0.001  0.000  0.023
   12  0.017  0.001  0.000  0.018
   13  0.053  0.001  0.000  0.054
   14  0.034  0.000  0.000  0.035
   15  0.038  0.001  0.000  0.038
   16  0.021  0.000  0.000  0.021
   17  0.082  0.001  0.000  0.083
   18  0.034  0.000  0.000  0.035
   19  0.009  0.000  0.000  0.010
   20  0.082  0.001  0.000  0.083
   21  0.009  0.000  0.000  0.010
   22  0.017  0.000  0.000  0.018
   23  0.017  0.000  0.000  0.018
   24  0.021  0.000  0.000  0.021
   25  0.038  0.001  0.000  0.038
   26  0.053  0.001  0.000  0.054
tot    0.630  0.014  0.001  0.645
 
band     3 # energy  -10.02424204 # occ.  2.00000000
 
ion      s      p      d    tot
    1  0.000  0.000  0.000  0.000
    2  0.000  0.000  0.000  0.000
    3  0.000  0.000  0.000  0.000
    4  0.000  0.000  0.000  0.000
    5  0.001  0.001  0.000  0.002
    6  0.013  0.001  0.000  0.014
    7  0.028  0.001  0.000  0.029
    8  0.005  0.001  0.000  0.006
    9  0.028  0.001  0.000  0.029
   10  0.001  0.001  0.000  0.002
   11  0.013  0.001  0.000  0.014
   12  0.005  0.001  0.000  0.006
   13  0.018  0.000  0.000  0.018
   14  0.062  0.001  0.000  0.062
   15  0.016  0.000  0.000  0.016
   16  0.002  0.000  0.000  0.002
   17  0.056  0.000  0.000  0.056
   18  0.062  0.001  0.000  0.062
   19  0.069  0.001  0.000  0.070
   20  0.056  0.000  0.000  0.056
   21  0.069  0.001  0.000  0.070
   22  0.056  0.001  0.000  0.057
   23  0.056  0.001  0.000  0.057
   24  0.002  0.000  0.000  0.002
   25  0.016  0.000  0.000  0.016
   26  0.018  0.000  0.000  0.018
tot    0.650  0.017  0.001  0.668
 
band     4 # energy   -9.77805750 # occ.  2.00000000
 
ion      s      p      d    tot
    1  0.000  0.000  0.000  0.000
    2  0.000  0.000  0.000  0.000
    3  0.000  0.000  0.000  0.000
    4  0.000  0.000  0.000  0.000
    5  0.017  0.003  0.000  0.020
    6  0.013  0.001  0.000  0.014
    7  0.002  0.001  0.000  0.003
    8  0.007  0.001  0.000  0.009
    9  0.002  0.001  0.000  0.003
   10  0.017  0.003  0.000  0.020
   11  0.013  0.001  0.000  0.014
   12  0.007  0.001  0.000  0.009
   13  0.021  0.000  0.000  0.021
   14  0.015  0.000  0.000  0.015
   15  0.080  0.001  0.000  0.081
   16  0.128  0.001  0.000  0.130
   17  0.001  0.001  0.000  0.002
   18  0.015  0.000  0.000  0.015
   19  0.005  0.000  0.000  0.005
   20  0.001  0.001  0.000  0.002
   21  0.005  0.000  0.000  0.005
   22  0.040  0.000  0.000  0.040
   23  0.040  0.000  0.000  0.040
   24  0.128  0.001  0.000  0.130
   25  0.080  0.001  0.000  0.081
   26  0.021  0.000  0.000  0.021
tot    0.661  0.019  0.001  0.681
 
band     5 # energy   -9.71457880 # occ.  2.00000000
 
ion      s      p      d    tot
    1  0.000  0.000  0.000  0.000
    2  0.000  0.000  0.000  0.000
    3  0.000  0.000  0.000  0.000
    4  0.000  0.000  0.000  0.000
    5  0.010  0.001  0.000  0.011
    6  0.001  0.002  0.000  0.003
    7  0.021  0.002  0.000  0.023
    8  0.002  0.001  0.000  0.003
    9  0.021  0.002  0.000  0.023
   10  0.010  0.001  0.000  0.011
   11  0.001  0.002  0.000  0.003
   12  0.002  0.001  0.000  0.003
   13  0.035  0.000  0.000  0.035
   14  0.088  0.000  0.000  0.089
   15  0.012  0.000  0.000  0.012
   16  0.010  0.000  0.000  0.010
   17  0.047  0.001  0.000  0.047
   18  0.088  0.000  0.000  0.089
   19  0.045  0.001  0.000  0.046
   20  0.047  0.001  0.000  0.047
   21  0.045  0.001  0.000  0.046
   22  0.063  0.001  0.000  0.064
   23  0.063  0.001  0.000  0.064
   24  0.010  0.000  0.000  0.010
   25  0.012  0.000  0.000  0.012
   26  0.035  0.000  0.000  0.035
tot    0.668  0.018  0.001  0.687
 
band     6 # energy   -9.62679828 # occ.  2.00000000
 
ion      s      p      d    tot
    1  0.000  0.000  0.000  0.000
    2  0.000  0.000  0.000  0.000
    3  0.000  0.000  0.000  0.000
    4  0.000  0.000  0.000  0.000
    5  0.000  0.002  0.000  0.002
    6  0.009  0.002  0.000  0.012
    7  0.000  0.001  0.000  0.001
    8  0.010  0.002  0.000  0.012
    9  0.000  0.001  0.000  0.001
   10  0.000  0.002  0.000  0.002
   11  0.009  0.002  0.000  0.012
   12  0.010  0.002  0.000  0.012
   13  0.097  0.001  0.000  0.097
   14  0.048  0.000  0.000  0.048
   15  0.004  0.000  0.000  0.005
   16  0.008  0.000  0.000  0.008
   17  0.116  0.001  0.000  0.116
   18  0.048  0.000  0.000  0.048
   19  0.009  0.000  0.000  0.009
   20  0.116  0.001  0.000  0.116
   21  0.009  0.000  0.000  0.009
   22  0.040  0.000  0.000  0.040
   23  0.040  0.000  0.000  0.040
   24  0.008  0.000  0.000  0.008
   25  0.004  0.000  0.000  0.005
   26  0.097  0.001  0.000  0.097
tot    0.683  0.019  0.001  0.703
 
band     7 # energy   -9.40262478 # occ.  2.00000000
 
ion      s      p      d    tot
    1  0.000  0.000  0.000  0.000
    2  0.000  0.000  0.000  0.000
    3  0.000  0.000  0.000  0.000
    4  0.000  0.000  0.000  0.000
    5  0.002  0.002  0.000  0.004
    6  0.001  0.001  0.000  0.002
    7  0.004  0.001  0.000  0.005
    8  0.001  0.003  0.000  0.003
    9  0.004  0.001  0.000  0.005
   10  0.002  0.002  0.000  0.004
   11  0.001  0.001  0.000  0.002
   12  0.001  0.003  0.000  0.003
   13  0.179  0.000  0.000  0.179
   14  0.054  0.000  0.000  0.054
   15  0.001  0.000  0.000  0.001
   16  0.015  0.000  0.000  0.015
   17  0.068  0.000  0.000  0.068
   18  0.054  0.000  0.000  0.054
   19  0.024  0.000  0.000  0.024
   20  0.068  0.000  0.000  0.068
   21  0.024  0.000  0.000  0.024
   22  0.001  0.000  0.000  0.002
   23  0.001  0.000  0.000  0.002
   24  0.015  0.000  0.000  0.015
   25  0.001  0.000  0.000  0.001
   26  0.179  0.000  0.000  0.179
tot    0.697  0.018  0.001  0.716
 
band     8 # energy   -9.34425673 # occ.  2.00000000
 
ion      s      p      d    tot
    1  0.000  0.000  0.000  0.000
    2  0.000  0.000  0.000  0.000
    3  0.000  0.000  0.000  0.000
    4  0.000  0.000  0.000  0.000
    5  0.005  0.001  0.000  0.005
    6  0.004  0.002  0.000  0.006
    7  0.005  0.002  0.000  0.007
    8  0.004  0.002  0.000  0.006
    9  0.005  0.002  0.000  0.007
   10  0.005  0.001  0.000  0.005
   11  0.004  0.002  0.000  0.006
   12  0.004  0.002  0.000  0.006
   13  0.007  0.000  0.000  0.007
   14  0.032  0.000  0.000  0.032
   15  0.157  0.001  0.000  0.157
   16  0.004  0.000  0.000  0.004
   17  0.039  0.000  0.000  0.040
   18  0.032  0.000  0.000  0.032
   19  0.072  0.000  0.000  0.073
   20  0.039  0.000  0.000  0.040
   21  0.072  0.000  0.000  0.073
   22  0.017  0.000  0.000  0.017
   23  0.017  0.000  0.000  0.017
   24  0.004  0.000  0.000  0.004
   25  0.157  0.001  0.000  0.157
   26  0.007  0.000  0.000  0.007
tot    0.692  0.017  0.002  0.711
 
band     9 # energy   -9.23790800 # occ.  2.00000000
 
ion      s      p      d    tot
    1  0.000  0.000  0.000  0.000
    2  0.000  0.000  0.000  0.000
    3  0.000  0.000  0.000  0.000
    4  0.000  0.000  0.000  0.000
    5  0.000  0.002  0.000  0.002
    6  0.002  0.001  0.000  0.004
    7  0.000  0.001  0.000  0.002
    8  0.002  0.002  0.000  0.004
    9  0.000  0.001  0.000  0.002
   10  0.000  0.002  0.000  0.002
   11  0.002  0.001  0.000  0.004
   12  0.002  0.002  0.000  0.004
   13  0.038  0.000  0.000  0.039
   14  0.107  0.000  0.000  0.107
   15  0.009  0.000  0.000  0.009
   16  0.034  0.000  0.000  0.035
   17  0.044  0.000  0.000  0.044
   18  0.107  0.000  0.000  0.107
   19  0.012  0.000  0.000  0.012
   20  0.044  0.000  0.000  0.044
   21  0.012  0.000  0.000  0.012
   22  0.102  0.000  0.000  0.103
   23  0.102  0.000  0.000  0.103
   24  0.034  0.000  0.000  0.035
   25  0.009  0.000  0.000  0.009
   26  0.038  0.000  0.000  0.039
tot    0.703  0.016  0.002  0.721
 
band    10 # energy   -9.17991685 # occ.  2.00000000
 
ion      s      p      d    tot
    1  0.000  0.000  0.000  0.000
    2  0.000  0.000  0.000  0.000
    3  0.000  0.000  0.000  0.000
    4  0.000  0.000  0.000  0.000
    5  0.000  0.003  0.000  0.003
    6  0.000  0.002  0.000  0.002
    7  0.000  0.000  0.000  0.001
    8  0.002  0.001  0.000  0.003
    9  0.000  0.000  0.000  0.001
   10  0.000  0.003  0.000  0.003
   11  0.000  0.002  0.000  0.002
   12  0.002  0.001  0.000  0.003
   13  0.068  0.000  0.000  0.068
   14  0.022  0.000  0.000  0.022
   15  0.081  0.000  0.000  0.081
   16  0.073  0.000  0.000  0.073
   17  0.082  0.001  0.000  0.083
   18  0.022  0.000  0.000  0.022
   19  0.015  0.000  0.000  0.015
   20  0.082  0.001  0.000  0.083
   21  0.015  0.000  0.000  0.015
   22  0.011  0.000  0.000  0.011
   23  0.011  0.000  0.000  0.011
   24  0.073  0.000  0.000  0.073
   25  0.081  0.000  0.000  0.081
   26  0.068  0.000  0.000  0.068
tot    0.712  0.014  0.002  0.728
 
band    11 # energy   -9.14671673 # occ.  2.00000000
 
ion      s      p      d    tot
    1  0.000  0.000  0.000  0.000
    2  0.000  0.000  0.000  0.000
    3  0.000  0.000  0.000  0.000
    4  0.000  0.000  0.000  0.000
    5  0.000  0.000  0.000  0.001
    6  0.001  0.002  0.000  0.004
    7  0.002  0.002  0.000  0.004
    8  0.000  0.002  0.000  0.003
    9  0.002  0.002  0.000  0.004
   10  0.000  0.000  0.000  0.001
   11  0.001  0.002  0.000  0.004
   12  0.000  0.002  0.000  0.003
   13  0.005  0.000  0.000  0.005
   14  0.086  0.000  0.000  0.087
   15  0.097  0.000  0.000  0.098
   16  0.007  0.000  0.000  0.007
   17  0.003  0.000  0.000  0.003
   18  0.086  0.000  0.000  0.087
   19  0.087  0.000  0.000  0.087
   20  0.003  0.000  0.000  0.003
   21  0.087  0.000  0.000  0.087
   22  0.064  0.000  0.000  0.064
   23  0.064  0.000  0.000  0.064
   24  0.007  0.000  0.000  0.007
   25  0.097  0.000  0.000  0.098
   26  0.005  0.000  0.000  0.005
tot    0.706  0.016  0.002  0.724
 
band    12 # energy   -9.11235316 # occ.  2.00000000
 
ion      s      p      d    tot
    1  0.000  0.000  0.000  0.000
    2  0.000  0.000  0.000  0.000
    3  0.000  0.000  0.000  0.000
    4  0.000  0.000  0.000  0.000
    5  0.001  0.001  0.000  0.001
    6  0.000  0.002  0.000  0.003
    7  0.000  0.003  0.000  0.004
    8  0.001  0.001  0.000  0.002
    9  0.000  0.003  0.000  0.004
   10  0.001  0.001  0.000  0.001
   11  0.000  0.002  0.000  0.003
   12  0.001  0.001  0.000  0.002
   13  0.002  0.000  0.000  0.002
   14  0.049  0.000  0.000  0.049
   15  0.092  0.000  0.000  0.092
   16  0.015  0.000  0.000  0.015
   17  0.008  0.000  0.000  0.008
   18  0.049  0.000  0.000  0.049
   19  0.097  0.000  0.000  0.097
   20  0.008  0.000  0.000  0.008
   21  0.097  0.000  0.000  0.097
   22  0.088  0.000  0.000  0.089
   23  0.088  0.000  0.000  0.089
   24  0.015  0.000  0.000  0.015
   25  0.092  0.000  0.000  0.092
   26  0.002  0.000  0.000  0.002
tot    0.707  0.015  0.002  0.724
 
band    13 # energy   -9.02065289 # occ.  2.00000000
 
ion      s      p      d    tot
    1  0.000  0.000  0.000  0.000
    2  0.000  0.000  0.000  0.000
    3  0.000  0.000  0.000  0.000
    4  0.000  0.000  0.000  0.000
    5  0.001  0.001  0.000  0.002
    6  0.001  0.001  0.000  0.002
    7  0.000  0.002  0.000  0.003
    8  0.000  0.001  0.000  0.001
    9  0.000  0.002  0.000  0.003
   10  0.001  0.001  0.000  0.002
   11  0.001  0.001  0.000  0.002
   12  0.000  0.001  0.000  0.001
   13  0.020  0.000  0.000  0.020
   14  0.018  0.000  0.000  0.018
   15  0.024  0.000  0.000  0.024
   16  0.044  0.000  0.000  0.044
   17  0.013  0.000  0.000  0.013
   18  0.018  0.000  0.000  0.018
   19  0.126  0.000  0.000  0.126
   20  0.013  0.000  0.000  0.013
   21  0.126  0.000  0.000  0.126
   22  0.112  0.000  0.000  0.112
   23  0.112  0.000  0.000  0.112
   24  0.044  0.000  0.000  0.044
   25  0.024  0.000  0.000  0.024
   26  0.020  0.000  0.000  0.020
tot    0.718  0.012  0.002  0.732
 
band    14 # energy   -8.94774384 # occ.  2.00000000
 
ion      s      p      d    tot
    1  0.000  0.000  0.000  0.000
    2  0.000  0.000  0.000  0.000
    3  0.000  0.000  0.000  0.000
    4  0.000  0.000  0.000  0.000
    5  0.004  0.003  0.001  0.008
    6  0.000  0.000  0.000  0.001
    7  0.000  0.001  0.000  0.001
    8  0.000  0.000  0.000  0.001
    9  0.000  0.001  0.000  0.001
   10  0.004  0.003  0.001  0.008
   11  0.000  0.000  0.000  0.001
   12  0.000  0.000  0.000  0.001
   13  0.053  0.000  0.000  0.053
   14  0.004  0.000  0.000  0.004
   15  0.002  0.000  0.000  0.002
   16  0.229  0.001  0.000  0.230
   17  0.002  0.000  0.000  0.002
   18  0.004  0.000  0.000  0.004
   19  0.051  0.000  0.000  0.051
   20  0.002  0.000  0.000  0.002
   21  0.051  0.000  0.000  0.051
   22  0.018  0.000  0.000  0.018
   23  0.018  0.000  0.000  0.018
   24  0.229  0.001  0.000  0.230
   25  0.002  0.000  0.000  0.002
   26  0.053  0.000  0.000  0.053
tot    0.724  0.013  0.002  0.739
 
band    15 # energy   -6.17671182 # occ.  2.00000000
 
ion      s      p      d    tot
    1  0.000  0.000  0.000  0.000
    2  0.000  0.000  0.000  0.000
    3  0.000  0.000  0.000  0.000
    4  0.000  0.000  0.000  0.000
    5  0.027  0.000  0.000  0.028
    6  0.083  0.000  0.000  0.083
    7  0.044  0.000  0.000  0.045
    8  0.097  0.000  0.000  0.097
    9  0.044  0.000  0.000  0.045
   10  0.027  0.000  0.000  0.028
   11  0.083  0.000  0.000  0.083
   12  0.097  0.000  0.000  0.097
   13  0.004  0.003  0.000  0.007
   14  0.003  0.006  0.000  0.009
   15  0.001  0.006  0.001  0.007
   16  0.003  0.002  0.000  0.005
   17  0.001  0.006  0.000  0.008
   18  0.003  0.006  0.000  0.009
   19  0.001  0.004  0.000  0.004
   20  0.001  0.006  0.000  0.008
   21  0.001  0.004  0.000  0.004
   22  0.010  0.003  0.000  0.014
   23  0.010  0.003  0.000  0.014
   24  0.003  0.002  0.000  0.005
   25  0.001  0.006  0.001  0.007
   26  0.004  0.003  0.000  0.007
tot    0.547  0.062  0.004  0.613
 
band    16 # energy   -6.01960866 # occ.  2.00000000
 
ion      s      p      d    tot
    1  0.000  0.000  0.000  0.000
    2  0.000  0.000  0.000  0.000
    3  0.000  0.000  0.000  0.000
    4  0.000  0.000  0.000  0.000
    5  0.010  0.000  0.000  0.011
    6  0.070  0.000  0.000  0.071
    7  0.037  0.000  0.000  0.037
    8  0.128  0.000  0.000  0.128
    9  0.037  0.000  0.000  0.037
   10  0.010  0.000  0.000  0.011
   11  0.070  0.000  0.000  0.071
   12  0.128  0.000  0.000  0.128
   13  0.003  0.006  0.000  0.010
   14  0.003  0.006  0.000  0.010
   15  0.001  0.007  0.001  0.009
   16  0.000  0.002  0.000  0.002
   17  0.006  0.004  0.000  0.011
   18  0.003  0.006  0.000  0.010
   19  0.011  0.002  0.000  0.013
   20  0.006  0.004  0.000  0.011
   21  0.011  0.002  0.000  0.013
   22  0.006  0.003  0.000  0.010
   23  0.006  0.003  0.000  0.010
   24  0.000  0.002  0.000  0.002
   25  0.001  0.007  0.001  0.009
   26  0.003  0.006  0.000  0.010
tot    0.555  0.062  0.004  0.621
 
band    17 # energy   -5.91061612 # occ.  2.00000000
 
ion      s      p      d    tot
    1  0.000  0.000  0.000  0.000
    2  0.000  0.000  0.000  0.000
    3  0.000  0.000  0.000  0.000
    4  0.000  0.000  0.000  0.000
    5  0.098  0.000  0.000  0.098
    6  0.013  0.001  0.000  0.014
    7  0.071  0.000  0.000  0.072
    8  0.068  0.000  0.000  0.068
    9  0.071  0.000  0.000  0.072
   10  0.098  0.000  0.000  0.098
   11  0.013  0.001  0.000  0.014
   12  0.068  0.000  0.000  0.068
   13  0.000  0.006  0.000  0.007
   14  0.004  0.005  0.000  0.009
   15  0.011  0.002  0.000  0.013
   16  0.006  0.003  0.001  0.010
   17  0.003  0.005  0.000  0.008
   18  0.004  0.005  0.000  0.009
   19  0.006  0.004  0.000  0.010
   20  0.003  0.005  0.000  0.008
   21  0.006  0.004  0.000  0.010
   22  0.003  0.003  0.000  0.006
   23  0.003  0.003  0.000  0.006
   24  0.006  0.003  0.001  0.010
   25  0.011  0.002  0.000  0.013
   26  0.000  0.006  0.000  0.007
tot    0.567  0.060  0.005  0.633
 
band    18 # energy   -5.72103315 # occ.  2.00000000
 
ion      s      p      d    tot
    1  0.000  0.000  0.000  0.000
    2  0.000  0.000  0.000  0.000
    3  0.000  0.000  0.000  0.000
    4  0.000  0.000  0.000  0.000
    5  0.131  0.000  0.000  0.131
    6  0.071  0.000  0.000  0.072
    7  0.006  0.000  0.000  0.006
    8  0.017  0.000  0.000  0.018
    9  0.006  0.000  0.000  0.006
   10  0.131  0.000  0.000  0.131
   11  0.071  0.000  0.000  0.072
   12  0.017  0.000  0.000  0.018
   13  0.000  0.004  0.000  0.005
   14  0.002  0.001  0.000  0.004
   15  0.018  0.002  0.000  0.020
   16  0.035  0.011  0.000  0.046
   17  0.001  0.009  0.001  0.011
   18  0.002  0.001  0.000  0.004
   19  0.002  0.001  0.000  0.003
   20  0.001  0.009  0.001  0.011
   21  0.002  0.001  0.000  0.003
   22  0.005  0.003  0.000  0.008
   23  0.005  0.003  0.000  0.008
   24  0.035  0.011  0.000  0.046
   25  0.018  0.002  0.000  0.020
   26  0.000  0.004  0.000  0.005
tot    0.578  0.065  0.004  0.647
 
band    19 # energy   -5.58399247 # occ.  2.00000000
 
ion      s      p      d    tot
    1  0.000  0.000  0.000  0.000
    2  0.000  0.000  0.000  0.000
    3  0.000  0.000  0.000  0.000
    4  0.000  0.000  0.000  0.000
    5  0.094  0.000  0.000  0.094
    6  0.025  0.000  0.000  0.025
    7  0.113  0.000  0.000  0.113
    8  0.004  0.000  0.000  0.005
    9  0.113  0.000  0.000  0.113
   10  0.094  0.000  0.000  0.094
   11  0.025  0.000  0.000  0.025
   12  0.004  0.000  0.000  0.005
   13  0.003  0.004  0.000  0.007
   14  0.008  0.003  0.000  0.012
   15  0.004  0.001  0.000  0.005
   16  0.006  0.004  0.000  0.011
   17  0.020  0.003  0.000  0.023
   18  0.008  0.003  0.000  0.012
   19  0.012  0.006  0.000  0.019
   20  0.020  0.003  0.000  0.023
   21  0.012  0.006  0.000  0.019
   22  0.005  0.004  0.000  0.009
   23  0.005  0.004  0.000  0.009
   24  0.006  0.004  0.000  0.011
   25  0.004  0.001  0.000  0.005
   26  0.003  0.004  0.000  0.007
tot    0.588  0.054  0.004  0.646
 
band    20 # energy   -5.26935734 # occ.  2.00000000
 
ion      s      p      d    tot
    1  0.000  0.000  0.000  0.000
    2  0.000  0.000  0.000  0.000
    3  0.000  0.000  0.000  0.000
    4  0.000  0.000  0.000  0.000
    5  0.005  0.000  0.000  0.005
    6  0.070  0.000  0.000  0.071
    7  0.113  0.000  0.000  0.113
    8  0.040  0.001  0.000  0.041
    9  0.113  0.000  0.000  0.113
   10  0.005  0.000  0.000  0.005
   11  0.070  0.000  0.000  0.071
   12  0.040  0.001  0.000  0.041
   13  0.000  0.003  0.000  0.004
   14  0.025  0.003  0.000  0.029
   15  0.008  0.004  0.000  0.013
   16  0.000  0.000  0.000  0.001
   17  0.005  0.004  0.000  0.009
   18  0.025  0.003  0.000  0.029
   19  0.012  0.006  0.000  0.019
   20  0.005  0.004  0.000  0.009
   21  0.012  0.006  0.000  0.019
   22  0.025  0.004  0.000  0.030
   23  0.025  0.004  0.000  0.030
   24  0.000  0.000  0.000  0.001
   25  0.008  0.004  0.000  0.013
   26  0.000  0.003  0.000  0.004
tot    0.610  0.054  0.004  0.668
 
band    21 # energy   -4.91145908 # occ.  2.00000000
 
ion      s      p      d    tot
    1  0.000  0.000  0.000  0.000
    2  0.000  0.000  0.000  0.000
    3  0.000  0.000  0.000  0.000
    4  0.000  0.000  0.000  0.000
    5  0.065  0.000  0.000  0.065
    6  0.078  0.000  0.000  0.078
    7  0.004  0.001  0.000  0.005
    8  0.061  0.000  0.000  0.061
    9  0.004  0.001  0.000  0.005
   10  0.065  0.000  0.000  0.065
   11  0.078  0.000  0.000  0.078
   12  0.061  0.000  0.000  0.061
   13  0.025  0.004  0.000  0.029
   14  0.003  0.005  0.000  0.008
   15  0.022  0.005  0.000  0.026
   16  0.016  0.006  0.000  0.021
   17  0.030  0.004  0.000  0.034
   18  0.003  0.005  0.000  0.008
   19  0.004  0.001  0.000  0.005
   20  0.030  0.004  0.000  0.034
   21  0.004  0.001  0.000  0.005
   22  0.006  0.003  0.000  0.010
   23  0.006  0.003  0.000  0.010
   24  0.016  0.006  0.000  0.021
   25  0.022  0.005  0.000  0.026
   26  0.025  0.004  0.000  0.029
tot    0.626  0.060  0.002  0.688
 
band    22 # energy   -4.55615093 # occ.  2.00000000
 
ion      s      p      d    tot
    1  0.000  0.000  0.000  0.000
    2  0.000  0.000  0.000  0.000
    3  0.000  0.000  0.000  0.000
    4  0.000  0.000  0.000  0.000
    5  0.024  0.000  0.000  0.024
    6  0.049  0.000  0.000  0.049
    7  0.080  0.000  0.000  0.080
    8  0.062  0.000  0.000  0.062
    9  0.080  0.000  0.000  0.080
   10  0.024  0.000  0.000  0.024
   11  0.049  0.000  0.000  0.049
   12  0.062  0.000  0.000  0.062
   13  0.024  0.002  0.000  0.026
   14  0.021  0.004  0.000  0.025
   15  0.012  0.004  0.000  0.017
   16  0.005  0.003  0.000  0.008
   17  0.014  0.003  0.000  0.017
   18  0.021  0.004  0.000  0.025
   19  0.026  0.004  0.000  0.030
   20  0.014  0.003  0.000  0.017
   21  0.026  0.004  0.000  0.030
   22  0.011  0.004  0.000  0.016
   23  0.011  0.004  0.000  0.016
   24  0.005  0.003  0.000  0.008
   25  0.012  0.004  0.000  0.017
   26  0.024  0.002  0.000  0.026
tot    0.657  0.050  0.002  0.709
 
band    23 # energy   -1.72233872 # occ.  2.00000000
 
ion      s      p      d    tot
    1  0.000  0.000  0.000  0.000
    2  0.000  0.000  0.000  0.000
    3  0.000  0.000  0.000  0.000
    4  0.000  0.000  0.000  0.000
    5  0.001  0.025  0.000  0.026
    6  0.001  0.006  0.000  0.007
    7  0.001  0.018  0.000  0.019
    8  0.000  0.022  0.000  0.023
    9  0.001  0.018  0.000  0.019
   10  0.001  0.025  0.000  0.026
   11  0.001  0.006  0.000  0.007
   12  0.000  0.022  0.000  0.023
   13  0.000  0.035  0.000  0.036
   14  0.000  0.010  0.000  0.010
   15  0.000  0.006  0.000  0.006
   16  0.001  0.029  0.000  0.030
   17  0.001  0.016  0.000  0.017
   18  0.000  0.010  0.000  0.010
   19  0.000  0.027  0.000  0.027
   20  0.001  0.016  0.000  0.017
   21  0.000  0.027  0.000  0.027
   22  0.000  0.003  0.000  0.004
   23  0.000  0.003  0.000  0.004
   24  0.001  0.029  0.000  0.030
   25  0.000  0.006  0.000  0.006
   26  0.000  0.035  0.000  0.036
tot    0.012  0.396  0.003  0.411
 
band    24 # energy   -1.62478266 # occ.  2.00000000
 
ion      s      p      d    tot
    1  0.000  0.000  0.000  0.000
    2  0.000  0.000  0.000  0.000
    3  0.000  0.000  0.000  0.000
    4  0.000  0.000  0.000  0.000
    5  0.002  0.033  0.000  0.035
    6  0.000  0.015  0.000  0.015
    7  0.000  0.007  0.000  0.008
    8  0.001  0.014  0.000  0.015
    9  0.000  0.007  0.000  0.008
   10  0.002  0.033  0.000  0.035
   11  0.000  0.015  0.000  0.015
   12  0.001  0.014  0.000  0.015
   13  0.002  0.037  0.000  0.040
   14  0.000  0.019  0.000  0.019
   15  0.000  0.006  0.000  0.006
   16  0.000  0.036  0.000  0.037
   17  0.001  0.019  0.000  0.020
   18  0.000  0.019  0.000  0.019
   19  0.000  0.005  0.000  0.006
   20  0.001  0.019  0.000  0.020
   21  0.000  0.005  0.000  0.006
   22  0.001  0.009  0.000  0.010
   23  0.001  0.009  0.000  0.010
   24  0.000  0.036  0.000  0.037
   25  0.000  0.006  0.000  0.006
   26  0.002  0.037  0.000  0.040
tot    0.015  0.403  0.004  0.422
 
band    25 # energy   -1.41171781 # occ.  2.00000000
 
ion      s      p      d    tot
    1  0.000  0.000  0.000  0.001
    2  0.000  0.000  0.000  0.000
    3  0.000  0.000  0.000  0.000
    4  0.000  0.000  0.000  0.001
    5  0.000  0.004  0.000  0.004
    6  0.000  0.018  0.000  0.019
    7  0.000  0.020  0.000  0.021
    8  0.000  0.025  0.000  0.026
    9  0.000  0.020  0.000  0.021
   10  0.000  0.004  0.000  0.004
   11  0.000  0.018  0.000  0.019
   12  0.000  0.025  0.000  0.026
   13  0.001  0.038  0.000  0.039
   14  0.001  0.031  0.000  0.031
   15  0.000  0.022  0.000  0.023
   16  0.000  0.004  0.000  0.005
   17  0.001  0.009  0.000  0.011
   18  0.001  0.031  0.000  0.031
   19  0.000  0.019  0.000  0.020
   20  0.001  0.009  0.000  0.011
   21  0.000  0.019  0.000  0.020
   22  0.000  0.011  0.000  0.012
   23  0.000  0.011  0.000  0.012
   24  0.000  0.004  0.000  0.005
   25  0.000  0.022  0.000  0.023
   26  0.001  0.038  0.000  0.039
tot    0.011  0.406  0.005  0.421
 
band    26 # energy   -1.32647949 # occ.  2.00000000
 
ion      s      p      d    tot
    1  0.000  0.000  0.000  0.000
    2  0.000  0.000  0.000  0.000
    3  0.000  0.000  0.000  0.000
    4  0.000  0.000  0.000  0.000
    5  0.001  0.023  0.000  0.024
    6  0.001  0.022  0.000  0.024
    7  0.000  0.008  0.000  0.008
    8  0.000  0.017  0.000  0.017
    9  0.000  0.008  0.000  0.008
   10  0.001  0.023  0.000  0.024
   11  0.001  0.022  0.000  0.024
   12  0.000  0.017  0.000  0.017
   13  0.001  0.024  0.000  0.025
   14  0.001  0.021  0.000  0.022
   15  0.001  0.011  0.000  0.013
   16  0.000  0.023  0.000  0.023
   17  0.000  0.038  0.000  0.038
   18  0.001  0.021  0.000  0.022
   19  0.001  0.007  0.000  0.008
   20  0.000  0.038  0.000  0.038
   21  0.001  0.007  0.000  0.008
   22  0.000  0.013  0.000  0.013
   23  0.000  0.013  0.000  0.013
   24  0.000  0.023  0.000  0.023
   25  0.001  0.011  0.000  0.013
   26  0.001  0.024  0.000  0.025
tot    0.013  0.414  0.006  0.433
 
band    27 # energy   -1.20473263 # occ.  2.00000000
 
ion      s      p      d    tot
    1  0.000  0.000  0.000  0.000
    2  0.000  0.000  0.000  0.000
    3  0.000  0.000  0.000  0.000
    4  0.000  0.000  0.000  0.000
    5  0.002  0.011  0.000  0.012
    6  0.000  0.032  0.000  0.032
    7  0.000  0.014  0.000  0.014
    8  0.001  0.012  0.000  0.013
    9  0.000  0.014  0.000  0.014
   10  0.002  0.011  0.000  0.012
   11  0.000  0.032  0.000  0.032
   12  0.001  0.012  0.000  0.013
   13  0.001  0.037  0.000  0.038
   14  0.001  0.019  0.000  0.020
   15  0.001  0.017  0.000  0.018
   16  0.001  0.004  0.000  0.005
   17  0.000  0.023  0.000  0.024
   18  0.001  0.019  0.000  0.020
   19  0.001  0.003  0.000  0.004
   20  0.000  0.023  0.000  0.024
   21  0.001  0.003  0.000  0.004
   22  0.001  0.031  0.000  0.033
   23  0.001  0.031  0.000  0.033
   24  0.001  0.004  0.000  0.005
   25  0.001  0.017  0.000  0.018
   26  0.001  0.037  0.000  0.038
tot    0.019  0.407  0.005  0.431
 
band    28 # energy   -1.12319963 # occ.  2.00000000
 
ion      s      p      d    tot
    1  0.000  0.000  0.000  0.000
    2  0.000  0.000  0.000  0.000
    3  0.000  0.000  0.000  0.000
    4  0.000  0.000  0.000  0.000
    5  0.001  0.009  0.000  0.010
    6  0.001  0.026  0.000  0.028
    7  0.000  0.019  0.000  0.020
    8  0.001  0.016  0.000  0.017
    9  0.000  0.019  0.000  0.020
   10  0.001  0.009  0.000  0.010
   11  0.001  0.026  0.000  0.028
   12  0.001  0.016  0.000  0.017
   13  0.001  0.010  0.000  0.011
   14  0.000  0.035  0.000  0.036
   15  0.000  0.007  0.000  0.007
   16  0.001  0.013  0.000  0.014
   17  0.001  0.029  0.000  0.029
   18  0.000  0.035  0.000  0.036
   19  0.001  0.015  0.000  0.016
   20  0.001  0.029  0.000  0.029
   21  0.001  0.015  0.000  0.016
   22  0.002  0.025  0.000  0.027
   23  0.002  0.025  0.000  0.027
   24  0.001  0.013  0.000  0.014
   25  0.000  0.007  0.000  0.007
   26  0.001  0.010  0.000  0.011
tot    0.019  0.409  0.005  0.433
 
band    29 # energy   -0.81715810 # occ.  2.00000000
 
ion      s      p      d    tot
    1  0.000  0.000  0.000  0.000
    2  0.000  0.000  0.000  0.000
    3  0.000  0.000  0.000  0.000
    4  0.000  0.000  0.000  0.000
    5  0.001  0.012  0.000  0.013
    6  0.000  0.021  0.000  0.022
    7  0.001  0.001  0.000  0.002
    8  0.000  0.034  0.000  0.035
    9  0.001  0.001  0.000  0.002
   10  0.001  0.012  0.000  0.013
   11  0.000  0.021  0.000  0.022
   12  0.000  0.034  0.000  0.035
   13  0.001  0.024  0.000  0.025
   14  0.001  0.011  0.000  0.011
   15  0.000  0.047  0.000  0.048
   16  0.000  0.016  0.000  0.017
   17  0.001  0.019  0.000  0.020
   18  0.001  0.011  0.000  0.011
   19  0.002  0.015  0.000  0.017
   20  0.001  0.019  0.000  0.020
   21  0.002  0.015  0.000  0.017
   22  0.001  0.013  0.000  0.014
   23  0.001  0.013  0.000  0.014
   24  0.000  0.016  0.000  0.017
   25  0.000  0.047  0.000  0.048
   26  0.001  0.024  0.000  0.025
tot    0.016  0.427  0.006  0.449
 
band    30 # energy   -0.69794805 # occ.  2.00000000
 
ion      s      p      d    tot
    1  0.000  0.000  0.000  0.001
    2  0.001  0.000  0.000  0.001
    3  0.001  0.000  0.000  0.001
    4  0.000  0.000  0.000  0.001
    5  0.000  0.030  0.001  0.031
    6  0.002  0.007  0.001  0.010
    7  0.001  0.024  0.000  0.025
    8  0.000  0.006  0.000  0.007
    9  0.001  0.024  0.000  0.025
   10  0.000  0.030  0.001  0.031
   11  0.002  0.007  0.001  0.010
   12  0.000  0.006  0.000  0.007
   13  0.000  0.024  0.000  0.024
   14  0.000  0.010  0.000  0.011
   15  0.000  0.006  0.000  0.006
   16  0.002  0.025  0.000  0.028