 running on   14 total cores
 distrk:  each k-point on   14 cores,    1 groups
 distr:  one band on    1 cores,   14 groups
 using from now: INCAR     
 vasp.5.4.4.18Apr17-6-g9f103f2a35 (build Oct 27 2022 13:04:57) complex          
  
 POSCAR found type information on POSCAR  Na Sb Se
 POSCAR found :  3 types and      26 ions
 scaLAPACK will be used

 ----------------------------------------------------------------------------- 
|                                                                             |
|           W    W    AA    RRRRR   N    N  II  N    N   GGGG   !!!           |
|           W    W   A  A   R    R  NN   N  II  NN   N  G    G  !!!           |
|           W    W  A    A  R    R  N N  N  II  N N  N  G       !!!           |
|           W WW W  AAAAAA  RRRRR   N  N N  II  N  N N  G  GGG   !            |
|           WW  WW  A    A  R   R   N   NN  II  N   NN  G    G                |
|           W    W  A    A  R    R  N    N  II  N    N   GGGG   !!!           |
|                                                                             |
|      For optimal performance we recommend to set                            |
|        NCORE= 4 - approx SQRT( number of cores)                             |
|      NCORE specifies how many cores store one orbital (NPAR=cpu/NCORE).     |
|      This setting can  greatly improve the performance of VASP for DFT.     |
|      The default,   NCORE=1            might be grossly inefficient         |
|      on modern multi-core architectures or massively parallel machines.     |
|      Do your own testing !!!!                                               |
|      Unfortunately you need to use the default for GW and RPA calculations. |
|      (for HF NCORE is supported but not extensively tested yet)             |
|                                                                             |
 ----------------------------------------------------------------------------- 

 LDA part: xc-table for Pade appr. of Perdew
 POSCAR, INCAR and KPOINTS ok, starting setup
 FFT: planning ...
 WAVECAR not read
 entering main loop
       N       E                     dE             d eps       ncg     rms          rms(c)
DAV:   1     0.564762847395E+03    0.56476E+03   -0.33966E+04  1008   0.789E+02
DAV:   2    -0.389362073063E+02   -0.60370E+03   -0.58631E+03  1288   0.173E+02
DAV:   3    -0.101732312376E+03   -0.62796E+02   -0.61821E+02  1204   0.614E+01
DAV:   4    -0.103929893795E+03   -0.21976E+01   -0.21842E+01  1400   0.126E+01
DAV:   5    -0.103980093652E+03   -0.50200E-01   -0.50164E-01  1302   0.194E+00    0.127E+01
DAV:   6    -0.100191933170E+03    0.37882E+01   -0.74518E+00  1176   0.681E+00    0.866E+00
DAV:   7    -0.100191336781E+03    0.59639E-03   -0.26222E+00  1246   0.361E+00    0.340E+00
DAV:   8    -0.100181986106E+03    0.93507E-02   -0.14825E-01  1274   0.119E+00    0.155E+00
DAV:   9    -0.100189965353E+03   -0.79792E-02   -0.43569E-02  1176   0.660E-01    0.311E-01
DAV:  10    -0.100191106998E+03   -0.11416E-02   -0.38583E-03  1330   0.176E-01    0.168E-01
DAV:  11    -0.100192341109E+03   -0.12341E-02   -0.13150E-03  1176   0.110E-01    0.631E-02
DAV:  12    -0.100192638022E+03   -0.29691E-03   -0.29765E-04  1092   0.490E-02    0.287E-02
DAV:  13    -0.100192755447E+03   -0.11743E-03   -0.15576E-04   924   0.360E-02    0.148E-02
DAV:  14    -0.100192765880E+03   -0.10433E-04   -0.15512E-05   756   0.123E-02
   1 F= -.10019277E+03 E0= -.10019277E+03  d E =-.100193E+03
 curvature:   0.00 expect dE= 0.000E+00 dE for cont linesearch  0.000E+00
 trial: gam= 0.00000 g(F)=  0.303E-02 g(S)=  0.662E-03 ort = 0.000E+00 (trialstep = 0.100E+01)
 search vector abs. value=  0.370E-02
 bond charge predicted
       N       E                     dE             d eps       ncg     rms          rms(c)
DAV:   1    -0.100196122261E+03   -0.33668E-02   -0.14517E-02  1176   0.311E-01    0.581E-02
DAV:   2    -0.100196132006E+03   -0.97450E-05   -0.80333E-04  1260   0.723E-02
   2 F= -.10019613E+03 E0= -.10019613E+03  d E =-.336613E-02
 ZBRENT: can't locate minimum, use default step
 trial-energy change:   -0.003366  1 .order   -0.003561   -0.003695   -0.003427
 step:   4.0000(harm= 13.7617)  dis= 0.00811  next Energy=  -100.218191 (dE=-0.254E-01)
 bond charge predicted
       N       E                     dE             d eps       ncg     rms          rms(c)
DAV:   1    -0.100203428461E+03   -0.73062E-02   -0.12825E-01  1120   0.927E-01    0.178E-01
DAV:   2    -0.100203408004E+03    0.20457E-04   -0.71474E-03  1260   0.215E-01    0.875E-02
DAV:   3    -0.100203220553E+03    0.18745E-03   -0.49970E-04  1232   0.591E-02    0.485E-02
DAV:   4    -0.100203154635E+03    0.65918E-04   -0.10692E-04   756   0.299E-02
   3 F= -.10020315E+03 E0= -.10020315E+03  d E =-.103888E-01
 curvature:  -2.85 expect dE=-0.419E-02 dE for cont linesearch -0.157E-02
 ZBRENT: increasing intervall
 opt :  10.0000  next Energy=  -100.199720 (dE=-0.695E-02)
 bond charge predicted
       N       E                     dE             d eps       ncg     rms          rms(c)
DAV:   1    -0.100202898025E+03    0.32253E-03   -0.51677E-01  1050   0.186E+00    0.349E-01
DAV:   2    -0.100203186185E+03   -0.28816E-03   -0.28701E-02  1260   0.431E-01    0.163E-01
DAV:   3    -0.100202589354E+03    0.59683E-03   -0.19229E-03  1288   0.115E-01    0.894E-02
DAV:   4    -0.100202367338E+03    0.22202E-03   -0.36554E-04  1092   0.532E-02    0.356E-02
DAV:   5    -0.100202349135E+03    0.18203E-04   -0.11888E-04   742   0.319E-02
   4 F= -.10020235E+03 E0= -.10020235E+03  d E =-.958326E-02
 curvature:   6.23 expect dE= 0.171E-01 dE for cont linesearch  0.270E-02
 ZBRENT: bracketing found
 ZBRENT: interpolating
 opt :   7.1795  next Energy=  -100.204134 (dE=-0.114E-01)
 bond charge predicted
       N       E                     dE             d eps       ncg     rms          rms(c)
DAV:   1    -0.100204965594E+03   -0.25983E-02   -0.11516E-01  1064   0.877E-01    0.163E-01
DAV:   2    -0.100205026596E+03   -0.61002E-04   -0.63329E-03  1260   0.204E-01    0.789E-02
DAV:   3    -0.100204887983E+03    0.13861E-03   -0.42011E-04  1232   0.540E-02    0.441E-02
DAV:   4    -0.100204830952E+03    0.57031E-04   -0.74117E-05   714   0.255E-02
   5 F= -.10020483E+03 E0= -.10020483E+03  d E =-.120651E-01
 curvature:  -4.12 expect dE=-0.758E-02 dE for cont linesearch -0.358E-03
 ZBRENT: interpolating
 opt :   5.5419  next Energy=  -100.205427 (dE=-0.127E-01)
 bond charge predicted
       N       E                     dE             d eps       ncg     rms          rms(c)
DAV:   1    -0.100204735879E+03    0.15210E-03   -0.37898E-02  1092   0.504E-01    0.959E-02
DAV:   2    -0.100204750280E+03   -0.14401E-04   -0.21082E-03  1274   0.117E-01    0.447E-02
DAV:   3    -0.100204703109E+03    0.47171E-04   -0.12982E-04   770   0.321E-02
   6 F= -.10020470E+03 E0= -.10020470E+03  d E =-.119372E-01
 curvature:  -6.85 expect dE=-0.111E-01 dE for cont linesearch -0.421E-03
 ZBRENT: interpolating
 opt :   6.2896  next Energy=  -100.204881 (dE=-0.121E-01)
 bond charge predicted
       N       E                     dE             d eps       ncg     rms          rms(c)
DAV:   1    -0.100205097578E+03   -0.34730E-03   -0.86758E-03  1092   0.241E-01    0.443E-02
DAV:   2    -0.100205115498E+03   -0.17920E-04   -0.49145E-04  1204   0.572E-02
   7 F= -.10020512E+03 E0= -.10020512E+03  d E =-.123496E-01
 curvature:  -2.90 expect dE=-0.478E-02 dE for cont linesearch -0.106E-03
 ZBRENT: bisectioning
 opt :   6.7345  next Energy=  -100.205265 (dE=-0.125E-01)
 bond charge predicted
       N       E                     dE             d eps       ncg     rms          rms(c)
DAV:   1    -0.100205098294E+03   -0.71583E-06   -0.27431E-03  1092   0.136E-01    0.305E-02
DAV:   2    -0.100205087038E+03    0.11256E-04   -0.14290E-04   840   0.322E-02
   8 F= -.10020509E+03 E0= -.10020509E+03  d E =-.123212E-01
 curvature:  -4.08 expect dE=-0.662E-02 dE for cont linesearch -0.227E-03
 ZBRENT: interpolating
 opt :   6.4888  next Energy=  -100.205152 (dE=-0.124E-01)
 bond charge predicted
       N       E                     dE             d eps       ncg     rms          rms(c)
DAV:   1    -0.100205139391E+03   -0.41097E-04   -0.99072E-04  1092   0.820E-02    0.152E-02
DAV:   2    -0.100205141848E+03   -0.24577E-05   -0.46176E-05   672   0.190E-02
   9 F= -.10020514E+03 E0= -.10020514E+03  d E =-.123760E-01
 curvature:  -0.66 expect dE=-0.132E-02 dE for cont linesearch -0.899E-06
 trial: gam= 0.52430 g(F)=  0.158E-02 g(S)=  0.428E-03 ort = 0.710E-04 (trialstep = 0.210E+01)
 search vector abs. value=  0.310E-02
 bond charge predicted
       N       E                     dE             d eps       ncg     rms          rms(c)
DAV:   1    -0.100207735028E+03   -0.25956E-02   -0.66458E-02  1036   0.664E-01    0.137E-01
DAV:   2    -0.100207781770E+03   -0.46742E-04   -0.43620E-03  1246   0.165E-01    0.642E-02
DAV:   3    -0.100207701818E+03    0.79952E-04   -0.21743E-04   896   0.389E-02
  10 F= -.10020770E+03 E0= -.10020770E+03  d E =-.255997E-02
 trial-energy change:   -0.002560  1 .order   -0.003126   -0.004291   -0.001960
 step:   3.8617(harm=  3.8617)  dis= 0.00751  next Energy=  -100.209092 (dE=-0.395E-02)
 bond charge predicted
       N       E                     dE             d eps       ncg     rms          rms(c)
DAV:   1    -0.100208543603E+03   -0.76183E-03   -0.45691E-02  1036   0.550E-01    0.114E-01
DAV:   2    -0.100208534509E+03    0.90943E-05   -0.29679E-03  1260   0.136E-01    0.563E-02
DAV:   3    -0.100208466559E+03    0.67951E-04   -0.15703E-04   770   0.332E-02
  11 F= -.10020847E+03 E0= -.10020847E+03  d E =-.332471E-02
 curvature:  -2.92 expect dE=-0.533E-02 dE for cont linesearch -0.126E-04
 trial: gam= 0.60981 g(F)=  0.160E-02 g(S)=  0.224E-03 ort = 0.116E-03 (trialstep = 0.244E+01)
 search vector abs. value=  0.312E-02
 bond charge predicted
       N       E                     dE             d eps       ncg     rms          rms(c)
DAV:   1    -0.100210930690E+03   -0.23962E-02   -0.10195E-01  1036   0.816E-01    0.136E-01
DAV:   2    -0.100211358338E+03   -0.42765E-03   -0.68058E-03  1260   0.203E-01    0.587E-02
DAV:   3    -0.100211309688E+03    0.48650E-04   -0.15950E-04   882   0.375E-02
  12 F= -.10021131E+03 E0= -.10021131E+03  d E =-.284313E-02
 trial-energy change:   -0.002843  1 .order   -0.002969   -0.004614   -0.001324
 step:   3.4168(harm=  3.4168)  dis= 0.00553  next Energy=  -100.211702 (dE=-0.324E-02)
 bond charge predicted
       N       E                     dE             d eps       ncg     rms          rms(c)
DAV:   1    -0.100211614761E+03   -0.25642E-03   -0.15778E-02  1064   0.321E-01    0.527E-02
DAV:   2    -0.100211665084E+03   -0.50323E-04   -0.10135E-03  1274   0.783E-02    0.275E-02
DAV:   3    -0.100211654137E+03    0.10947E-04   -0.27679E-05   714   0.158E-02
  13 F= -.10021165E+03 E0= -.10021165E+03  d E =-.318758E-02
 curvature:  -2.81 expect dE=-0.411E-02 dE for cont linesearch -0.631E-04
 trial: gam= 0.62798 g(F)=  0.890E-03 g(S)=  0.570E-03 ort = 0.265E-03 (trialstep = 0.263E+01)
 search vector abs. value=  0.302E-02
 bond charge predicted
       N       E                     dE             d eps       ncg     rms          rms(c)
DAV:   1    -0.100214289988E+03   -0.26249E-02   -0.12666E-01  1022   0.906E-01    0.200E-01
DAV:   2    -0.100214127585E+03    0.16240E-03   -0.81190E-03  1246   0.229E-01    0.942E-02
DAV:   3    -0.100213940459E+03    0.18713E-03   -0.59925E-04  1232   0.607E-02    0.483E-02
DAV:   4    -0.100213880479E+03    0.59980E-04   -0.87948E-05   756   0.267E-02
  14 F= -.10021388E+03 E0= -.10021388E+03  d E =-.222634E-02
 trial-energy change:   -0.002226  1 .order   -0.002316   -0.004282   -0.000349
 step:   2.8662(harm=  2.8662)  dis= 0.00431  next Energy=  -100.213985 (dE=-0.233E-02)
 bond charge predicted
       N       E                     dE             d eps       ncg     rms          rms(c)
DAV:   1    -0.100213890829E+03    0.49630E-04   -0.86260E-04  1050   0.756E-02    0.190E-02
DAV:   2    -0.100213887493E+03    0.33360E-05   -0.48892E-05   714   0.195E-02
  15 F= -.10021389E+03 E0= -.10021389E+03  d E =-.223336E-02
 curvature:  -2.66 expect dE=-0.178E-02 dE for cont linesearch -0.750E-05
 trial: gam= 0.34450 g(F)=  0.586E-03 g(S)=  0.841E-04 ort = 0.923E-04 (trialstep = 0.268E+01)
 search vector abs. value=  0.109E-02
 bond charge predicted
       N       E                     dE             d eps       ncg     rms          rms(c)
DAV:   1    -0.100215224132E+03   -0.13333E-02   -0.45871E-02  1022   0.545E-01    0.125E-01
DAV:   2    -0.100215126320E+03    0.97811E-04   -0.28467E-03  1260   0.137E-01    0.569E-02
DAV:   3    -0.100215031684E+03    0.94636E-04   -0.19164E-04   742   0.368E-02
  16 F= -.10021503E+03 E0= -.10021503E+03  d E =-.114419E-02
 trial-energy change:   -0.001144  1 .order   -0.001496   -0.001880   -0.001111
 step:   6.5518(harm=  6.5518)  dis= 0.00453  next Energy=  -100.216186 (dE=-0.230E-02)
 bond charge predicted
       N       E                     dE             d eps       ncg     rms          rms(c)
DAV:   1    -0.100215601843E+03   -0.47552E-03   -0.93307E-02  1008   0.777E-01    0.179E-01
DAV:   2    -0.100215359893E+03    0.24195E-03   -0.57061E-03  1260   0.194E-01    0.815E-02
DAV:   3    -0.100215161071E+03    0.19882E-03   -0.47121E-04  1176   0.530E-02    0.427E-02
DAV:   4    -0.100215105305E+03    0.55766E-04   -0.78419E-05   756   0.248E-02
  17 F= -.10021511E+03 E0= -.10021511E+03  d E =-.121781E-02
 curvature:  -5.10 expect dE=-0.521E-02 dE for cont linesearch -0.324E-03
 ZBRENT: interpolating
 opt :   5.0472  next Energy=  -100.215304 (dE=-0.142E-02)
 bond charge predicted
       N       E                     dE             d eps       ncg     rms          rms(c)
DAV:   1    -0.100215458052E+03   -0.29698E-03   -0.15368E-02  1078   0.315E-01    0.740E-02
DAV:   2    -0.100215431185E+03    0.26867E-04   -0.95197E-04  1190   0.800E-02
  18 F= -.10021543E+03 E0= -.10021543E+03  d E =-.154369E-02
 curvature:  -3.12 expect dE=-0.454E-02 dE for cont linesearch -0.913E-04
 ZBRENT: bisectioning
 opt :   3.8632  next Energy=  -100.215603 (dE=-0.172E-02)
 bond charge predicted
       N       E                     dE             d eps       ncg     rms          rms(c)
DAV:   1    -0.100215449975E+03    0.80770E-05   -0.84720E-03  1036   0.234E-01    0.606E-02
DAV:   2    -0.100215382679E+03    0.67296E-04   -0.54602E-04  1176   0.604E-02
  19 F= -.10021538E+03 E0= -.10021538E+03  d E =-.149519E-02
 curvature:  -5.88 expect dE=-0.773E-02 dE for cont linesearch -0.526E-04
 trial: gam= 1.47828 g(F)=  0.706E-03 g(S)=  0.608E-03 ort = 0.988E-04 (trialstep = 0.798E+00)
 search vector abs. value=  0.399E-02
 bond charge predicted
       N       E                     dE             d eps       ncg     rms          rms(c)
DAV:   1    -0.100215926228E+03   -0.47625E-03   -0.12678E-02  1036   0.291E-01    0.580E-02
DAV:   2    -0.100215972026E+03   -0.45798E-04   -0.86756E-04  1176   0.731E-02
  20 F= -.10021597E+03 E0= -.10021597E+03  d E =-.589347E-03
 trial-energy change:   -0.000589  1 .order   -0.000777   -0.001165   -0.000389
 step:   1.1979(harm=  1.1979)  dis= 0.00191  next Energy=  -100.216257 (dE=-0.875E-03)
 bond charge predicted
       N       E                     dE             d eps       ncg     rms          rms(c)
DAV:   1    -0.100216093825E+03   -0.16760E-03   -0.30681E-03  1064   0.143E-01    0.271E-02
DAV:   2    -0.100216094900E+03   -0.10744E-05   -0.18063E-04   840   0.361E-02
  21 F= -.10021609E+03 E0= -.10021609E+03  d E =-.712221E-03
 curvature:  -1.64 expect dE=-0.106E-02 dE for cont linesearch -0.353E-04
 ZBRENT: increasing intervall
 opt :   1.9987  next Energy=  -100.216174 (dE=-0.791E-03)
 bond charge predicted
       N       E                     dE             d eps       ncg     rms          rms(c)
DAV:   1    -0.100216064234E+03    0.29591E-04   -0.12578E-02  1036   0.288E-01    0.500E-02
DAV:   2    -0.100216106761E+03   -0.42526E-04   -0.80064E-04  1274   0.708E-02
  22 F= -.10021611E+03 E0= -.10021611E+03  d E =-.724082E-03
 curvature:  -3.66 expect dE=-0.413E-02 dE for cont linesearch -0.862E-07
 trial: gam= 0.59704 g(F)=  0.962E-03 g(S)=  0.165E-03 ort = 0.969E-05 (trialstep = 0.104E+01)
 search vector abs. value=  0.256E-02
 bond charge predicted
       N       E                     dE             d eps       ncg     rms          rms(c)
DAV:   1    -0.100216782065E+03   -0.71783E-03   -0.12536E-02  1036   0.290E-01    0.581E-02
DAV:   2    -0.100216761927E+03    0.20138E-04   -0.73677E-04  1260   0.706E-02
  23 F= -.10021676E+03 E0= -.10021676E+03  d E =-.655166E-03
 trial-energy change:   -0.000655  1 .order   -0.000881   -0.001175   -0.000587
 step:   2.0719(harm=  2.0719)  dis= 0.00231  next Energy=  -100.217280 (dE=-0.117E-02)
 bond charge predicted
       N       E                     dE             d eps       ncg     rms          rms(c)
DAV:   1    -0.100216814751E+03   -0.32685E-04   -0.12245E-02  1050   0.287E-01    0.599E-02
DAV:   2    -0.100216774808E+03    0.39943E-04   -0.74131E-04  1260   0.705E-02
  24 F= -.10021677E+03 E0= -.10021677E+03  d E =-.668047E-03
 curvature:  -2.34 expect dE=-0.140E-02 dE for cont linesearch -0.317E-05
 trial: gam= 0.40157 g(F)=  0.544E-03 g(S)=  0.518E-04 ort =-0.589E-04 (trialstep = 0.124E+01)
 search vector abs. value=  0.962E-03
 bond charge predicted
       N       E                     dE             d eps       ncg     rms          rms(c)
DAV:   1    -0.100217324264E+03   -0.50951E-03   -0.71650E-03  1050   0.215E-01    0.385E-02
DAV:   2    -0.100217332693E+03   -0.84294E-05   -0.44638E-04  1204   0.541E-02
  25 F= -.10021733E+03 E0= -.10021733E+03  d E =-.557886E-03
 trial-energy change:   -0.000558  1 .order   -0.000602   -0.000712   -0.000491
 step:   3.9983(harm=  3.9983)  dis= 0.00307  next Energy=  -100.217919 (dE=-0.114E-02)
 bond charge predicted
       N       E                     dE             d eps       ncg     rms          rms(c)
DAV:   1    -0.100217506575E+03   -0.18231E-03   -0.35708E-02  1022   0.480E-01    0.798E-02
DAV:   2    -0.100217634436E+03   -0.12786E-03   -0.22339E-03  1316   0.120E-01    0.430E-02
DAV:   3    -0.100217609459E+03    0.24977E-04   -0.55267E-05   742   0.236E-02
  26 F= -.10021761E+03 E0= -.10021761E+03  d E =-.834651E-03
 curvature:  -3.36 expect dE=-0.288E-02 dE for cont linesearch -0.915E-04
 ZBRENT: interpolating
 opt :   3.1970  next Energy=  -100.217674 (dE=-0.899E-03)
 bond charge predicted
       N       E                     dE             d eps       ncg     rms          rms(c)
DAV:   1    -0.100217678778E+03   -0.44342E-04   -0.35885E-03  1036   0.153E-01    0.272E-02
DAV:   2    -0.100217696333E+03   -0.17554E-04   -0.23121E-04   756   0.408E-02
  27 F= -.10021770E+03 E0= -.10021770E+03  d E =-.921525E-03
 curvature:  -2.38 expect dE=-0.223E-02 dE for cont linesearch -0.771E-05
 trial: gam= 1.34100 g(F)=  0.772E-03 g(S)=  0.165E-03 ort =-0.558E-04 (trialstep = 0.625E+00)
 search vector abs. value=  0.252E-02
 bond charge predicted
       N       E                     dE             d eps       ncg     rms          rms(c)
DAV:   1    -0.100218010330E+03   -0.33155E-03   -0.51242E-03  1050   0.183E-01    0.368E-02
DAV:   2    -0.100218024284E+03   -0.13954E-04   -0.33389E-04   980   0.476E-02
  28 F= -.10021802E+03 E0= -.10021802E+03  d E =-.327951E-03
 trial-energy change:   -0.000328  1 .order   -0.000378   -0.000539   -0.000217
 step:   1.0452(harm=  1.0452)  dis= 0.00133  next Energy=  -100.218147 (dE=-0.451E-03)
 bond charge predicted
       N       E                     dE             d eps       ncg     rms          rms(c)
DAV:   1    -0.100218116855E+03   -0.10653E-03   -0.23411E-03  1064   0.122E-01    0.245E-02
DAV:   2    -0.100218117285E+03   -0.42976E-06   -0.13207E-04   630   0.318E-02
  29 F= -.10021812E+03 E0= -.10021812E+03  d E =-.420952E-03
 curvature:  -1.52 expect dE=-0.760E-03 dE for cont linesearch -0.158E-05
 trial: gam= 0.24022 g(F)=  0.441E-03 g(S)=  0.569E-04 ort = 0.510E-04 (trialstep = 0.709E+00)
 search vector abs. value=  0.668E-03
 bond charge predicted
       N       E                     dE             d eps       ncg     rms          rms(c)
DAV:   1    -0.100218376254E+03   -0.25940E-03   -0.13284E-03  1050   0.948E-02    0.191E-02
DAV:   2    -0.100218378634E+03   -0.23805E-05   -0.78443E-05   588   0.245E-02
  30 F= -.10021838E+03 E0= -.10021838E+03  d E =-.261349E-03
 trial-energy change:   -0.000261  1 .order   -0.000224   -0.000362   -0.000087
 step:   0.9331(harm=  0.9331)  dis= 0.00081  next Energy=  -100.218355 (dE=-0.238E-03)
 bond charge predicted
       N       E                     dE             d eps       ncg     rms          rms(c)
DAV:   1    -0.100218404946E+03   -0.28693E-04   -0.12542E-04   686   0.305E-02    0.815E-03
DAV:   2    -0.100218405739E+03   -0.79224E-06   -0.20446E-05   574   0.138E-02
  31 F= -.10021841E+03 E0= -.10021841E+03  d E =-.288454E-03
 curvature:  -0.61 expect dE=-0.110E-03 dE for cont linesearch -0.136E-04
 ZBRENT: increasing intervall
 opt :   1.3819  next Energy=  -100.218460 (dE=-0.343E-03)
 bond charge predicted
       N       E                     dE             d eps       ncg     rms          rms(c)
DAV:   1    -0.100218461618E+03   -0.56672E-04   -0.56009E-04  1008   0.609E-02    0.109E-02
DAV:   2    -0.100218463052E+03   -0.14338E-05   -0.32036E-05   616   0.159E-02
  32 F= -.10021846E+03 E0= -.10021846E+03  d E =-.345767E-03
 curvature:  -2.44 expect dE=-0.621E-03 dE for cont linesearch -0.601E-04
 ZBRENT: increasing intervall
 opt :   2.2794  next Energy=  -100.218584 (dE=-0.467E-03)
 bond charge predicted
       N       E                     dE             d eps       ncg     rms          rms(c)
DAV:   1    -0.100218402407E+03    0.59211E-04   -0.21169E-03  1036   0.120E-01    0.225E-02
DAV:   2    -0.100218407209E+03   -0.48021E-05   -0.12161E-04   756   0.299E-02
  33 F= -.10021841E+03 E0= -.10021841E+03  d E =-.289924E-03
 curvature:  -4.90 expect dE=-0.217E-02 dE for cont linesearch -0.286E-03
 ZBRENT: bracketing found
 ZBRENT: interpolating
 opt :   1.7356  next Energy=  -100.218486 (dE=-0.368E-03)
 bond charge predicted
       N       E                     dE             d eps       ncg     rms          rms(c)
DAV:   1    -0.100218468910E+03   -0.66503E-04   -0.80901E-04   966   0.760E-02    0.147E-02
DAV:   2    -0.100218472193E+03   -0.32834E-05   -0.46241E-05   560   0.188E-02
  34 F= -.10021847E+03 E0= -.10021847E+03  d E =-.354909E-03
 curvature:  -0.39 expect dE=-0.963E-04 dE for cont linesearch -0.216E-05
 ZBRENT: interpolating
 opt :   1.6218  next Energy=  -100.218476 (dE=-0.358E-03)
 bond charge predicted
       N       E                     dE             d eps       ncg     rms          rms(c)
DAV:   1    -0.100218479035E+03   -0.10125E-04   -0.41142E-05   532   0.179E-02    0.329E-03
DAV:   2    -0.100218479612E+03   -0.57704E-06   -0.72017E-06   546   0.850E-03
  35 F= -.10021848E+03 E0= -.10021848E+03  d E =-.362327E-03
 curvature:  -0.62 expect dE=-0.157E-03 dE for cont linesearch -0.341E-05
 ZBRENT: bisectioning
 opt :   1.5018  next Energy=  -100.218487 (dE=-0.370E-03)
 bond charge predicted
       N       E                     dE             d eps       ncg     rms          rms(c)
DAV:   1    -0.100218474556E+03    0.44793E-05   -0.41808E-05   532   0.172E-02    0.278E-03
DAV:   2    -0.100218475008E+03   -0.45187E-06   -0.56277E-06   504   0.726E-03
  36 F= -.10021848E+03 E0= -.10021848E+03  d E =-.357723E-03
 curvature:  -1.32 expect dE=-0.298E-03 dE for cont linesearch -0.600E-05
 ZBRENT: interpolating
 opt :   1.5591  next Energy=  -100.218477 (dE=-0.359E-03)
 bond charge predicted
       N       E                     dE             d eps       ncg     rms          rms(c)
DAV:   1    -0.100218477922E+03   -0.33657E-05   -0.68381E-06   504   0.772E-03    0.144E-03
DAV:   2    -0.100218477947E+03   -0.25420E-07   -0.93533E-07   504   0.292E-03
  37 F= -.10021848E+03 E0= -.10021848E+03  d E =-.360662E-03
 curvature:  -0.35 expect dE=-0.773E-04 dE for cont linesearch -0.882E-06
 trial: gam= 0.36508 g(F)=  0.207E-03 g(S)=  0.159E-04 ort = 0.412E-04 (trialstep = 0.879E+00)
 search vector abs. value=  0.342E-03
 bond charge predicted
       N       E                     dE             d eps       ncg     rms          rms(c)
DAV:   1    -0.100218598749E+03   -0.12083E-03   -0.10694E-03  1008   0.851E-02    0.157E-02
DAV:   2    -0.100218600912E+03   -0.21631E-05   -0.61134E-05   504   0.213E-02
  38 F= -.10021860E+03 E0= -.10021860E+03  d E =-.122965E-03
 trial-energy change:   -0.000123  1 .order   -0.000152   -0.000209   -0.000096
 step:   1.6239(harm=  1.6239)  dis= 0.00062  next Energy=  -100.218671 (dE=-0.193E-03)
 bond charge predicted
       N       E                     dE             d eps       ncg     rms          rms(c)
DAV:   1    -0.100218585389E+03    0.13360E-04   -0.75889E-04  1022   0.712E-02    0.138E-02
DAV:   2    -0.100218585616E+03   -0.22745E-06   -0.45804E-05   560   0.186E-02
  39 F= -.10021859E+03 E0= -.10021859E+03  d E =-.107669E-03
 curvature:  -1.17 expect dE=-0.408E-03 dE for cont linesearch -0.487E-05
 trial: gam= 1.64100 g(F)=  0.318E-03 g(S)=  0.316E-04 ort =-0.378E-04 (trialstep = 0.306E+00)
 search vector abs. value=  0.115E-02
 bond charge predicted
       N       E                     dE             d eps       ncg     rms          rms(c)
DAV:   1    -0.100218647870E+03   -0.62481E-04   -0.39059E-04   980   0.512E-02    0.111E-02
DAV:   2    -0.100218646900E+03    0.97000E-06   -0.23996E-05   560   0.141E-02
  40 F= -.10021865E+03 E0= -.10021865E+03  d E =-.612840E-04
 trial-energy change:   -0.000061  1 .order   -0.000069   -0.000088   -0.000051
 step:   0.7173(harm=  0.7173)  dis= 0.00059  next Energy=  -100.218689 (dE=-0.103E-03)
 bond charge predicted
       N       E                     dE             d eps       ncg     rms          rms(c)
DAV:   1    -0.100218701340E+03   -0.53470E-04   -0.69931E-04  1036   0.683E-02    0.135E-02
DAV:   2    -0.100218700783E+03    0.55709E-06   -0.41551E-05   644   0.181E-02
  41 F= -.10021870E+03 E0= -.10021870E+03  d E =-.115167E-03
 curvature:  -1.43 expect dE=-0.707E-03 dE for cont linesearch -0.212E-04
 ZBRENT: increasing intervall
 opt :   1.5390  next Energy=  -100.218780 (dE=-0.194E-03)
 bond charge predicted
       N       E                     dE             d eps       ncg     rms          rms(c)
DAV:   1    -0.100218759049E+03   -0.57709E-04   -0.28457E-03  1022   0.138E-01    0.287E-02
DAV:   2    -0.100218755059E+03    0.39899E-05   -0.15692E-04   756   0.349E-02
  42 F= -.10021876E+03 E0= -.10021876E+03  d E =-.169443E-03
 curvature:  -5.32 expect dE=-0.202E-02 dE for cont linesearch -0.464E-06
 trial: gam= 0.51791 g(F)=  0.294E-03 g(S)=  0.855E-04 ort = 0.100E-04 (trialstep = 0.553E+00)
 search vector abs. value=  0.698E-03
 bond charge predicted
       N       E                     dE             d eps       ncg     rms          rms(c)
DAV:   1    -0.100218931701E+03   -0.17265E-03   -0.80400E-04  1190   0.726E-02    0.226E-02
DAV:   2    -0.100218921632E+03    0.10069E-04   -0.46848E-05   602   0.191E-02
  43 F= -.10021892E+03 E0= -.10021892E+03  d E =-.166573E-03
 ZBRENT: can't locate minimum, use default step
 trial-energy change:   -0.000167  1 .order   -0.000195   -0.000213   -0.000177
 step:   2.2120(harm=  3.2852)  dis= 0.00138  next Energy=  -100.219387 (dE=-0.632E-03)
 bond charge predicted
       N       E                     dE             d eps       ncg     rms          rms(c)
DAV:   1    -0.100219055487E+03   -0.12379E-03   -0.72775E-03  1022   0.219E-01    0.587E-02
DAV:   2    -0.100218993560E+03    0.61927E-04   -0.42811E-04  1176   0.560E-02
  44 F= -.10021899E+03 E0= -.10021899E+03  d E =-.238501E-03
 curvature:  -2.52 expect dE=-0.138E-02 dE for cont linesearch -0.197E-04
 trial: gam= 1.38972 g(F)=  0.469E-03 g(S)=  0.772E-04 ort =-0.738E-04 (trialstep = 0.366E+00)
 search vector abs. value=  0.169E-02
 bond charge predicted
       N       E                     dE             d eps       ncg     rms          rms(c)
DAV:   1    -0.100219029714E+03    0.25774E-04   -0.79025E-04  1050   0.723E-02    0.230E-02
DAV:   2    -0.100219017433E+03    0.12281E-04   -0.57648E-05   644   0.211E-02
  45 F= -.10021902E+03 E0= -.10021902E+03  d E =-.238727E-04
 trial-energy change:   -0.000024  1 .order   -0.000075   -0.000162    0.000013
 step:   0.3392(harm=  0.3392)  dis= 0.00036  next Energy=  -100.219069 (dE=-0.753E-04)
 bond charge predicted
       N       E                     dE             d eps       ncg     rms          rms(c)
DAV:   1    -0.100219014655E+03    0.15059E-04   -0.33467E-05   560   0.159E-02    0.587E-03
DAV:   2    -0.100219015454E+03   -0.79905E-06   -0.63557E-06   546   0.791E-03
  46 F= -.10021902E+03 E0= -.10021902E+03  d E =-.218943E-04
 curvature:  -0.65 expect dE=-0.589E-03 dE for cont linesearch -0.100E-05
 trial: gam= 1.01331 g(F)=  0.629E-03 g(S)=  0.283E-03 ort =-0.512E-04 (trialstep = 0.239E+00)
 search vector abs. value=  0.254E-02
 bond charge predicted
       N       E                     dE             d eps       ncg     rms          rms(c)
DAV:   1    -0.100219141955E+03   -0.12730E-03   -0.62261E-04   938   0.643E-02    0.133E-02
DAV:   2    -0.100219144136E+03   -0.21810E-05   -0.40068E-05   504   0.175E-02
  47 F= -.10021914E+03 E0= -.10021914E+03  d E =-.128682E-03
 trial-energy change:   -0.000129  1 .order   -0.000150   -0.000206   -0.000094
 step:   0.4402(harm=  0.4402)  dis= 0.00056  next Energy=  -100.219205 (dE=-0.189E-03)
 bond charge predicted
       N       E                     dE             d eps       ncg     rms          rms(c)
DAV:   1    -0.100219197496E+03   -0.55541E-04   -0.45387E-04   980   0.543E-02    0.119E-02
DAV:   2    -0.100219198096E+03   -0.59927E-06   -0.29507E-05   518   0.153E-02
  48 F= -.10021920E+03 E0= -.10021920E+03  d E =-.182641E-03
 curvature:  -0.65 expect dE=-0.339E-03 dE for cont linesearch -0.481E-05
 ZBRENT: increasing intervall
 opt :   0.8419  next Energy=  -100.219151 (dE=-0.135E-03)
 bond charge predicted
       N       E                     dE             d eps       ncg     rms          rms(c)
DAV:   1    -0.100219226730E+03   -0.29234E-04   -0.17830E-03  1106   0.108E-01    0.233E-02
DAV:   2    -0.100219230330E+03   -0.35997E-05   -0.11050E-04   672   0.291E-02
  49 F= -.10021923E+03 E0= -.10021923E+03  d E =-.214876E-03
 curvature:   6.43 expect dE= 0.347E-02 dE for cont linesearch  0.331E-06
 trial: gam= 0.23697 g(F)=  0.326E-03 g(S)=  0.214E-03 ort =-0.114E-04 (trialstep = 0.360E+00)
 search vector abs. value=  0.678E-03
 bond charge predicted
       N       E                     dE             d eps       ncg     rms          rms(c)
DAV:   1    -0.100219397886E+03   -0.17116E-03   -0.42615E-04  1064   0.530E-02    0.174E-02
DAV:   2    -0.100219389406E+03    0.84796E-05   -0.29759E-05   560   0.156E-02
  50 F= -.10021939E+03 E0= -.10021939E+03  d E =-.159077E-03
 trial-energy change:   -0.000159  1 .order   -0.000161   -0.000193   -0.000128
 step:   1.0633(harm=  1.0633)  dis= 0.00082  next Energy=  -100.219516 (dE=-0.286E-03)
 bond charge predicted
       N       E                     dE             d eps       ncg     rms          rms(c)
DAV:   1    -0.100219548215E+03   -0.15033E-03   -0.14603E-03  1106   0.984E-02    0.358E-02
DAV:   2    -0.100219518290E+03    0.29925E-04   -0.91826E-05   588   0.264E-02
  51 F= -.10021952E+03 E0= -.10021952E+03  d E =-.287961E-03
 curvature:  -0.67 expect dE=-0.279E-03 dE for cont linesearch -0.153E-04
 ZBRENT: increasing intervall
 opt :   2.4703  next Energy=  -100.219367 (dE=-0.137E-03)
 bond charge predicted
       N       E                     dE             d eps       ncg     rms          rms(c)
DAV:   1    -0.100219397345E+03    0.15087E-03   -0.58557E-03  1120   0.196E-01    0.694E-02
DAV:   2    -0.100219283174E+03    0.11417E-03   -0.39432E-04  1036   0.522E-02    0.306E-02
DAV:   3    -0.100219242026E+03    0.41147E-04   -0.11350E-04   686   0.257E-02
  52 F= -.10021924E+03 E0= -.10021924E+03  d E =-.116967E-04
 curvature:   6.63 expect dE= 0.477E-02 dE for cont linesearch  0.739E-03
 ZBRENT: bracketing found
 ZBRENT: interpolating
 opt :   1.5013  next Energy=  -100.219545 (dE=-0.315E-03)
 bond charge predicted
       N       E                     dE             d eps       ncg     rms          rms(c)
DAV:   1    -0.100219540121E+03   -0.25695E-03   -0.33288E-03  1092   0.147E-01    0.535E-02
DAV:   2    -0.100219496151E+03    0.43970E-04   -0.18986E-04   672   0.378E-02
  53 F= -.10021950E+03 E0= -.10021950E+03  d E =-.265821E-03
 curvature:  -0.24 expect dE=-0.111E-03 dE for cont linesearch -0.154E-04
 ZBRENT: interpolating
 opt :   1.2276  next Energy=  -100.219528 (dE=-0.298E-03)
 bond charge predicted
       N       E                     dE             d eps       ncg     rms          rms(c)
DAV:   1    -0.100219508691E+03    0.31430E-04   -0.15825E-04   616   0.344E-02    0.135E-02
DAV:   2    -0.100219504435E+03    0.42561E-05   -0.29970E-05   504   0.157E-02
  54 F= -.10021950E+03 E0= -.10021950E+03  d E =-.274106E-03
 curvature:  -0.16 expect dE=-0.612E-04 dE for cont linesearch -0.215E-06
 trial: gam= 0.73080 g(F)=  0.332E-03 g(S)=  0.475E-04 ort =-0.301E-04 (trialstep = 0.518E+00)
 search vector abs. value=  0.697E-03
 bond charge predicted
       N       E                     dE             d eps       ncg     rms          rms(c)
DAV:   1    -0.100219592577E+03   -0.83886E-04   -0.89885E-04  1036   0.760E-02    0.222E-02
DAV:   2    -0.100219584743E+03    0.78345E-05   -0.43659E-05   504   0.187E-02
  55 F= -.10021958E+03 E0= -.10021958E+03  d E =-.803076E-04
 trial-energy change:   -0.000080  1 .order   -0.000107   -0.000185   -0.000028
 step:   0.6107(harm=  0.6107)  dis= 0.00036  next Energy=  -100.219614 (dE=-0.109E-03)
 bond charge predicted
       N       E                     dE             d eps       ncg     rms          rms(c)
DAV:   1    -0.100219584438E+03    0.81391E-05   -0.23641E-05   504   0.133E-02    0.488E-03
DAV:   2    -0.100219583619E+03    0.81960E-06   -0.55508E-06   504   0.697E-03
  56 F= -.10021958E+03 E0= -.10021958E+03  d E =-.791835E-04
 curvature:  -0.60 expect dE=-0.197E-03 dE for cont linesearch -0.840E-06
 trial: gam= 0.45373 g(F)=  0.305E-03 g(S)=  0.248E-04 ort = 0.313E-04 (trialstep = 0.537E+00)
 search vector abs. value=  0.502E-03
 bond charge predicted
       N       E                     dE             d eps       ncg     rms          rms(c)
DAV:   1    -0.100219694822E+03   -0.11038E-03   -0.40766E-04  1022   0.532E-02    0.865E-03
DAV:   2    -0.100219695439E+03   -0.61685E-06   -0.22899E-05   546   0.134E-02
  57 F= -.10021970E+03 E0= -.10021970E+03  d E =-.111820E-03
 trial-energy change:   -0.000112  1 .order   -0.000127   -0.000185   -0.000070
 step:   0.8639(harm=  0.8639)  dis= 0.00057  next Energy=  -100.219732 (dE=-0.149E-03)
 reached required accuracy - stopping structural energy minimisation
