<?xml version="1.0" encoding="ISO-8859-1"?>
<modeling>
 <generator>
  <i name="program" type="string">vasp </i>
  <i name="version" type="string">5.4.4.18Apr17-6-g9f103f2a35  </i>
  <i name="subversion" type="string">(build Oct 27 2022 13:04:57) complex            parallel </i>
  <i name="platform" type="string">LinuxIFC </i>
  <i name="date" type="string">2024 06 30 </i>
  <i name="time" type="string">09:05:57 </i>
 </generator>
 <incar>
  <i type="string" name="SYSTEM"> CIS</i>
  <i type="int" name="ISTART">     0</i>
  <i type="string" name="PREC">medium</i>
  <i type="int" name="ICHARG">     2</i>
  <i type="int" name="IBRION">     2</i>
  <i name="EDIFF">      0.00010000</i>
  <i name="EDIFFG">     -0.05000000</i>
  <i type="int" name="NSW">    99</i>
  <i type="int" name="ISIF">     3</i>
  <i name="ENCUT">    300.00000000</i>
  <i name="POTIM">      0.10000000</i>
  <i type="string" name="LREAL"> Auto</i>
  <i type="int" name="ISMEAR">     0</i>
  <i name="SIGMA">      0.05000000</i>
  <i type="int" name="LMAXMIX">     4</i>
  <i type="logical" name="LWAVE"> F  </i>
  <i type="logical" name="LCHARG"> F  </i>
  <i type="int" name="LORBIT">    10</i>
  <i type="logical" name="LASPH"> T  </i>
  <v type="int" name="KPOINT_BSE">    -1     0     0     0</v>
  <i type="logical" name="LASPH"> T  </i>
 </incar>
 <structure name="primitive_cell" >
  <crystal>
   <varray name="basis" >
    <v>      -7.35245325       0.01086646      -0.32052226 </v>
    <v>       2.07951075       9.39229189      -0.09512266 </v>
    <v>      -0.86829295      -1.83116444     -11.29333369 </v>
   </varray>
   <i name="volume">    780.02018549 </i>
   <varray name="rec_basis" >
    <v>      -0.13620734       0.03021358       0.00557336 </v>
    <v>       0.00090978       0.10609392      -0.01727261 </v>
    <v>       0.00385811      -0.00175113      -0.08856051 </v>
   </varray>
  </crystal>
  <varray name="positions" >
   <v>       0.31115542       0.34441321       0.12071091 </v>
   <v>       0.42301706       0.07924352       0.17006298 </v>
   <v>      -0.47426548      -0.45746856       0.31148529 </v>
   <v>      -0.08370173       0.30258862       0.23972447 </v>
   <v>      -0.32533499       0.35492854      -0.04602311 </v>
   <v>       0.32533499      -0.35492854       0.04602311 </v>
   <v>       0.17793773       0.15051906      -0.12911662 </v>
   <v>      -0.25023893       0.13058205       0.04997949 </v>
   <v>      -0.14199245      -0.44665643       0.19086302 </v>
   <v>       0.14199245       0.44665643      -0.19086302 </v>
   <v>       0.47338219      -0.20611778       0.24322551 </v>
   <v>      -0.42984391       0.24290718       0.41223152 </v>
   <v>      -0.47338219       0.20611778      -0.24322551 </v>
   <v>       0.25023893      -0.13058205      -0.04997949 </v>
   <v>       0.05620988      -0.29889206       0.36589446 </v>
   <v>      -0.31115542      -0.34441321      -0.12071091 </v>
   <v>       0.02315420      -0.04009593       0.33147171 </v>
   <v>       0.47426548       0.45746856      -0.31148529 </v>
   <v>      -0.17793773      -0.15051906       0.12911662 </v>
   <v>      -0.42301706      -0.07924352      -0.17006298 </v>
   <v>       0.27615276       0.01784078      -0.47174724 </v>
   <v>      -0.02315420       0.04009593      -0.33147171 </v>
   <v>       0.42984391      -0.24290718      -0.41223152 </v>
   <v>      -0.05620988       0.29889206      -0.36589446 </v>
   <v>       0.08370173      -0.30258862      -0.23972447 </v>
   <v>      -0.27615276      -0.01784078       0.47174724 </v>
  </varray>
 </structure>
 <varray name="primitive_index" >
  <v type="int" >        1 </v>
  <v type="int" >       19 </v>
  <v type="int" >       25 </v>
  <v type="int" >       22 </v>
  <v type="int" >       14 </v>
  <v type="int" >       18 </v>
  <v type="int" >       26 </v>
  <v type="int" >        7 </v>
  <v type="int" >       11 </v>
  <v type="int" >        6 </v>
  <v type="int" >       12 </v>
  <v type="int" >        3 </v>
  <v type="int" >        8 </v>
  <v type="int" >        9 </v>
  <v type="int" >       17 </v>
  <v type="int" >        4 </v>
  <v type="int" >        5 </v>
  <v type="int" >       15 </v>
  <v type="int" >       13 </v>
  <v type="int" >       21 </v>
  <v type="int" >       16 </v>
  <v type="int" >       10 </v>
  <v type="int" >        2 </v>
  <v type="int" >       20 </v>
  <v type="int" >       23 </v>
  <v type="int" >       24 </v>
 </varray>
 <kpoints>
  <generation param="Monkhorst-Pack">
   <v type="int" name="divisions">       3        2        2 </v>
   <v name="usershift">      0.00000000       0.00000000       0.00000000 </v>
   <v name="genvec1">      0.33333333       0.00000000      -0.00000000 </v>
   <v name="genvec2">      0.00000000       0.50000000       0.00000000 </v>
   <v name="genvec3">      0.00000000       0.00000000       0.50000000 </v>
   <v name="shift">      0.00000000       0.50000000       0.50000000 </v>
  </generation>
  <varray name="kpointlist" >
   <v>       0.00000000       0.25000000       0.25000000 </v>
   <v>       0.33333333       0.25000000       0.25000000 </v>
   <v>      -0.33333333       0.25000000       0.25000000 </v>
   <v>       0.00000000      -0.25000000       0.25000000 </v>
   <v>       0.33333333      -0.25000000       0.25000000 </v>
   <v>      -0.33333333      -0.25000000       0.25000000 </v>
  </varray>
  <varray name="weights" >
   <v>       0.16666667 </v>
   <v>       0.16666667 </v>
   <v>       0.16666667 </v>
   <v>       0.16666667 </v>
   <v>       0.16666667 </v>
   <v>       0.16666667 </v>
  </varray>
 </kpoints>
 <parameters>
  <separator name="general" >
   <i type="string" name="SYSTEM">CIS</i>
   <i type="logical" name="LCOMPAT"> F  </i>
  </separator>
  <separator name="electronic" >
   <i type="string" name="PREC">medium</i>
   <i name="ENMAX">    300.00000000</i>
   <i name="ENAUG">    446.84200000</i>
   <i name="EDIFF">      0.00010000</i>
   <i type="int" name="IALGO">    38</i>
   <i type="int" name="IWAVPR">    11</i>
   <i type="int" name="NBANDS">    84</i>
   <i name="NELECT">    128.00000000</i>
   <i type="int" name="TURBO">     0</i>
   <i type="int" name="IRESTART">     0</i>
   <i type="int" name="NREBOOT">     0</i>
   <i type="int" name="NMIN">     0</i>
   <i name="EREF">      0.00000000</i>
   <separator name="electronic smearing" >
    <i type="int" name="ISMEAR">     0</i>
    <i name="SIGMA">      0.05000000</i>
    <i name="KSPACING">      0.50000000</i>
    <i type="logical" name="KGAMMA"> T  </i>
   </separator>
   <separator name="electronic projectors" >
    <i type="logical" name="LREAL"> T  </i>
    <v name="ROPT">     -0.00200000     -0.00200000     -0.00200000</v>
    <i type="int" name="LMAXPAW">  -100</i>
    <i type="int" name="LMAXMIX">     4</i>
    <i type="logical" name="NLSPLINE"> F  </i>
   </separator>
   <separator name="electronic startup" >
    <i type="int" name="ISTART">     0</i>
    <i type="int" name="ICHARG">     2</i>
    <i type="int" name="INIWAV">     1</i>
   </separator>
   <separator name="electronic spin" >
    <i type="int" name="ISPIN">     1</i>
    <i type="logical" name="LNONCOLLINEAR"> F  </i>
    <v name="MAGMOM">      1.00000000      1.00000000      1.00000000      1.00000000      1.00000000      1.00000000      1.00000000      1.00000000      1.00000000      1.00000000      1.00000000      1.00000000      1.00000000      1.00000000      1.00000000      1.00000000      1.00000000      1.00000000      1.00000000      1.00000000
      1.00000000      1.00000000      1.00000000      1.00000000      1.00000000      1.00000000</v>
    <i name="NUPDOWN">     -1.00000000</i>
    <i type="logical" name="LSORBIT"> F  </i>
    <v name="SAXIS">      0.00000000      0.00000000      1.00000000</v>
    <i type="logical" name="LSPIRAL"> F  </i>
    <v name="QSPIRAL">      0.00000000      0.00000000      0.00000000</v>
    <i type="logical" name="LZEROZ"> F  </i>
   </separator>
   <separator name="electronic exchange-correlation" >
    <i type="logical" name="LASPH"> T  </i>
    <i type="logical" name="LMETAGGA"> F  </i>
   </separator>
   <separator name="electronic convergence" >
    <i type="int" name="NELM">    60</i>
    <i type="int" name="NELMDL">    -5</i>
    <i type="int" name="NELMIN">     2</i>
    <i name="ENINI">    300.00000000</i>
    <separator name="electronic convergence detail" >
     <i type="logical" name="LDIAG"> T  </i>
     <i type="logical" name="LSUBROT"> F  </i>
     <i name="WEIMIN">      0.00100000</i>
     <i name="EBREAK">      0.00000030</i>
     <i name="DEPER">      0.30000000</i>
     <i type="int" name="NRMM">     4</i>
     <i name="TIME">      0.40000000</i>
    </separator>
   </separator>
   <separator name="electronic mixer" >
    <i name="AMIX">      0.40000000</i>
    <i name="BMIX">      1.00000000</i>
    <i name="AMIN">      0.10000000</i>
    <i name="AMIX_MAG">      1.60000000</i>
    <i name="BMIX_MAG">      1.00000000</i>
    <separator name="electronic mixer details" >
     <i type="int" name="IMIX">     4</i>
     <i type="logical" name="MIXFIRST"> F  </i>
     <i type="int" name="MAXMIX">   -45</i>
     <i name="WC">    100.00000000</i>
     <i type="int" name="INIMIX">     1</i>
     <i type="int" name="MIXPRE">     1</i>
     <i type="int" name="MREMOVE">     5</i>
    </separator>
   </separator>
   <separator name="electronic dipolcorrection" >
    <i type="logical" name="LDIPOL"> F  </i>
    <i type="logical" name="LMONO"> F  </i>
    <i type="int" name="IDIPOL">     0</i>
    <i name="EPSILON">      1.00000000</i>
    <v name="DIPOL">   -100.00000000   -100.00000000   -100.00000000</v>
    <i name="EFIELD">      0.00000000</i>
   </separator>
  </separator>
  <separator name="grids" >
   <i type="int" name="NGX">    32</i>
   <i type="int" name="NGY">    42</i>
   <i type="int" name="NGZ">    50</i>
   <i type="int" name="NGXF">    50</i>
   <i type="int" name="NGYF">    70</i>
   <i type="int" name="NGZF">    80</i>
   <i type="logical" name="ADDGRID"> F  </i>
  </separator>
  <separator name="ionic" >
   <i type="int" name="NSW">    99</i>
   <i type="int" name="IBRION">     2</i>
   <i type="int" name="MDALGO">     0</i>
   <i type="int" name="ISIF">     3</i>
   <i name="PSTRESS">      0.00000000</i>
   <i name="EDIFFG">     -0.05000000</i>
   <i type="int" name="NFREE">     1</i>
   <i name="POTIM">      0.10000000</i>
   <i name="SMASS">     -3.00000000</i>
   <i name="SCALEE">      1.00000000</i>
  </separator>
  <separator name="ionic md" >
   <i name="TEBEG">      0.00010000</i>
   <i name="TEEND">      0.00010000</i>
   <i type="int" name="NBLOCK">     1</i>
   <i type="int" name="KBLOCK">    99</i>
   <i type="int" name="NPACO">   256</i>
   <i name="APACO">     16.00000000</i>
  </separator>
  <separator name="symmetry" >
   <i type="int" name="ISYM">     2</i>
   <i name="SYMPREC">      0.00001000</i>
  </separator>
  <separator name="dos" >
   <i type="int" name="LORBIT">    10</i>
   <v name="RWIGS">     -1.00000000     -1.00000000     -1.00000000</v>
   <i type="int" name="NEDOS">   301</i>
   <i name="EMIN">     10.00000000</i>
   <i name="EMAX">    -10.00000000</i>
   <i name="EFERMI">      0.00000000</i>
  </separator>
  <separator name="writing" >
   <i type="int" name="NWRITE">     2</i>
   <i type="logical" name="LWAVE"> F  </i>
   <i type="logical" name="LDOWNSAMPLE"> F  </i>
   <i type="logical" name="LCHARG"> F  </i>
   <i type="logical" name="LPARD"> F  </i>
   <i type="logical" name="LVTOT"> F  </i>
   <i type="logical" name="LVHAR"> F  </i>
   <i type="logical" name="LELF"> F  </i>
   <i type="logical" name="LOPTICS"> F  </i>
   <v name="STM">      0.00000000      0.00000000      0.00000000      0.00000000      0.00000000      0.00000000      0.00000000</v>
  </separator>
  <separator name="performance" >
   <i type="int" name="NPAR">    14</i>
   <i type="int" name="NSIM">     4</i>
   <i type="int" name="NBLK">    -1</i>
   <i type="logical" name="LPLANE"> T  </i>
   <i type="logical" name="LSCALAPACK"> T  </i>
   <i type="logical" name="LSCAAWARE"> F  </i>
   <i type="logical" name="LSCALU"> F  </i>
   <i type="logical" name="LASYNC"> F  </i>
   <i type="logical" name="LORBITALREAL"> F  </i>
  </separator>
  <separator name="miscellaneous" >
   <i type="int" name="IDIOT">     3</i>
   <i type="int" name="ISPECIAL">     0</i>
   <i type="logical" name="LMUSIC"> F  </i>
   <v name="POMASS">     22.99000000    121.75000000     78.96000000</v>
   <v name="DARWINR">      0.00000000      0.00000000      0.00000000</v>
   <v name="DARWINV">      1.00000000      1.00000000      1.00000000</v>
   <i type="logical" name="LCORR"> T  </i>
  </separator>
  <i type="logical" name="GGA_COMPAT"> T  </i>
  <i type="logical" name="LBERRY"> F  </i>
  <i type="int" name="ICORELEVEL">     0</i>
  <i type="logical" name="LDAU"> F  </i>
  <i type="int" name="I_CONSTRAINED_M">     0</i>
  <separator name="electronic exchange-correlation" >
   <i type="string" name="GGA">--</i>
   <i type="int" name="VOSKOWN">     0</i>
   <i type="logical" name="LHFCALC"> F  </i>
   <i type="string" name="PRECFOCK"></i>
   <i type="logical" name="LSYMGRAD"> F  </i>
   <i type="logical" name="LHFONE"> F  </i>
   <i type="logical" name="LRHFCALC"> F  </i>
   <i type="logical" name="LTHOMAS"> F  </i>
   <i type="logical" name="LMODELHF"> F  </i>
   <i name="ENCUT4O">     -1.00000000</i>
   <i type="int" name="EXXOEP">     0</i>
   <i type="int" name="FOURORBIT">     0</i>
   <i name="AEXX">      0.00000000</i>
   <i name="HFALPHA">      0.00000000</i>
   <i name="MCALPHA">      0.00000000</i>
   <i name="ALDAX">      1.00000000</i>
   <i name="AGGAX">      1.00000000</i>
   <i name="ALDAC">      1.00000000</i>
   <i name="AGGAC">      1.00000000</i>
   <i type="int" name="NKREDX">     1</i>
   <i type="int" name="NKREDY">     1</i>
   <i type="int" name="NKREDZ">     1</i>
   <i type="logical" name="SHIFTRED"> F  </i>
   <i type="logical" name="ODDONLY"> F  </i>
   <i type="logical" name="EVENONLY"> F  </i>
   <i type="int" name="LMAXFOCK">     0</i>
   <i type="int" name="NMAXFOCKAE">     0</i>
   <i type="logical" name="LFOCKAEDFT"> F  </i>
   <i name="HFSCREEN">      0.00000000</i>
   <i name="HFSCREENC">      0.00000000</i>
   <i type="int" name="NBANDSGWLOW">     0</i>
  </separator>
  <separator name="vdW DFT" >
   <i type="logical" name="LUSE_VDW"> F  </i>
   <i name="Zab_VDW">     -0.84910000</i>
   <i name="PARAM1">      0.12340000</i>
   <i name="PARAM2">      1.00000000</i>
   <i name="PARAM3">      0.00000000</i>
  </separator>
  <separator name="model GW" >
   <i type="int" name="MODEL_GW">     0</i>
   <i name="MODEL_EPS0">     18.00046582</i>
   <i name="MODEL_ALPHA">      1.00000000</i>
  </separator>
  <separator name="linear response parameters" >
   <i type="logical" name="LEPSILON"> F  </i>
   <i type="logical" name="LRPA"> F  </i>
   <i type="logical" name="LNABLA"> F  </i>
   <i type="logical" name="LVEL"> F  </i>
   <i type="int" name="KINTER">     0</i>
   <i name="CSHIFT">      0.10000000</i>
   <i name="OMEGAMAX">     -1.00000000</i>
   <i name="DEG_THRESHOLD">      0.00200000</i>
   <i name="RTIME">     -0.10000000</i>
   <i name="WPLASMAI">      0.00000000</i>
   <v name="DFIELD">      0.00000000      0.00000000      0.00000000</v>
   <v name="WPLASMA">      0.00000000      0.00000000      0.00000000      0.00000000      0.00000000      0.00000000      0.00000000      0.00000000      0.00000000</v>
  </separator>
  <separator name="orbital magnetization" >
   <i type="logical" name="NUCIND"> F  </i>
   <v name="MAGPOS">      0.00000000      0.00000000      0.00000000</v>
   <i type="logical" name="LNICSALL"> T  </i>
   <i type="logical" name="ORBITALMAG"> F  </i>
   <i type="logical" name="LMAGBLOCH"> F  </i>
   <i type="logical" name="LCHIMAG"> F  </i>
   <i type="logical" name="LGAUGE"> T  </i>
   <i type="int" name="MAGATOM">     0</i>
   <v name="MAGDIPOL">      0.00000000      0.00000000      0.00000000</v>
   <v name="AVECCONST">      0.00000000      0.00000000      0.00000000</v>
  </separator>
  <separator name="response functions" >
   <i type="logical" name="LADDER"> F  </i>
   <i type="logical" name="LRPAFORCE"> F  </i>
   <i type="logical" name="LFXC"> F  </i>
   <i type="logical" name="LHARTREE"> T  </i>
   <i type="int" name="IBSE">     0</i>
   <v type="int" name="KPOINT">    -1     0     0     0</v>
   <i type="logical" name="LTCTE"> F  </i>
   <i type="logical" name="LTETE"> F  </i>
   <i type="logical" name="LTRIPLET"> F  </i>
   <i type="logical" name="LFXCEPS"> F  </i>
   <i type="logical" name="LFXHEG"> F  </i>
   <i type="int" name="NATURALO">     2</i>
   <i type="logical" name="L2ORDER"> F  </i>
   <i type="logical" name="LMP2LT"> F  </i>
   <i type="logical" name="LUSEW"> F  </i>
   <i name="ENCUTGW">     -2.00000000</i>
   <i name="ENCUTGWSOFT">     -2.00000000</i>
   <i name="ENCUTLF">     -1.00000000</i>
   <i type="int" name="LMAXMP2">    -1</i>
   <i name="SCISSOR">      0.00000000</i>
   <i type="int" name="NOMEGA">     0</i>
   <i type="int" name="NOMEGAR">     0</i>
   <i type="int" name="NBANDSGW">    -1</i>
   <i type="int" name="NBANDSO">    -1</i>
   <i type="int" name="NBANDSV">    -1</i>
   <i type="int" name="NELM">     1</i>
   <i type="int" name="NELMHF">     1</i>
   <i type="int" name="DIM">     3</i>
   <i type="int" name="ANTIRES">     0</i>
   <i name="OMEGAMAX">    -30.00000000</i>
   <i name="OMEGAMIN">    -30.00000000</i>
   <i name="OMEGATL">   -200.00000000</i>
   <i type="int" name="OMEGAGRID">   140</i>
   <i name="CSHIFT">     -0.10000000</i>
   <i type="logical" name="SELFENERGY"> F  </i>
   <i type="logical" name="LSPECTRAL"> F  </i>
   <i type="logical" name="LSPECTRALGW"> F  </i>
   <i type="logical" name="LSINGLES"> F  </i>
   <i type="logical" name="LFERMIGW"> F  </i>
   <i type="logical" name="ODDONLYGW"> F  </i>
   <i type="logical" name="EVENONLYGW"> F  </i>
   <i type="int" name="NKREDLFX">     1</i>
   <i type="int" name="NKREDLFY">     1</i>
   <i type="int" name="NKREDLFZ">     1</i>
   <i type="int" name="MAXMEM">  2800</i>
   <i type="int" name="TELESCOPE">     0</i>
   <i type="int" name="TAUPAR">     1</i>
   <i type="int" name="OMEGAPAR">    -1</i>
   <i name="LAMBDA">      1.00000000</i>
  </separator>
  <separator name="External order field" >
   <i name="OFIELD_KAPPA">      0.00000000</i>
   <v name="OFIELD_K">      0.00000000      0.00000000      0.00000000</v>
   <i name="OFIELD_Q6_NEAR">      0.00000000</i>
   <i name="OFIELD_Q6_FAR">      0.00000000</i>
   <i name="OFIELD_A">      0.00000000</i>
  </separator>
 </parameters>
 <atominfo>
  <atoms>      26 </atoms>
  <types>       3 </types>
  <array name="atoms" >
   <dimension dim="1">ion</dimension>
   <field type="string">element</field>
   <field type="int">atomtype</field>
   <set>
    <rc><c>Na</c><c>   1</c></rc>
    <rc><c>Na</c><c>   1</c></rc>
    <rc><c>Na</c><c>   1</c></rc>
    <rc><c>Na</c><c>   1</c></rc>
    <rc><c>Sb</c><c>   2</c></rc>
    <rc><c>Sb</c><c>   2</c></rc>
    <rc><c>Sb</c><c>   2</c></rc>
    <rc><c>Sb</c><c>   2</c></rc>
    <rc><c>Sb</c><c>   2</c></rc>
    <rc><c>Sb</c><c>   2</c></rc>
    <rc><c>Sb</c><c>   2</c></rc>
    <rc><c>Sb</c><c>   2</c></rc>
    <rc><c>Se</c><c>   3</c></rc>
    <rc><c>Se</c><c>   3</c></rc>
    <rc><c>Se</c><c>   3</c></rc>
    <rc><c>Se</c><c>   3</c></rc>
    <rc><c>Se</c><c>   3</c></rc>
    <rc><c>Se</c><c>   3</c></rc>
    <rc><c>Se</c><c>   3</c></rc>
    <rc><c>Se</c><c>   3</c></rc>
    <rc><c>Se</c><c>   3</c></rc>
    <rc><c>Se</c><c>   3</c></rc>
    <rc><c>Se</c><c>   3</c></rc>
    <rc><c>Se</c><c>   3</c></rc>
    <rc><c>Se</c><c>   3</c></rc>
    <rc><c>Se</c><c>   3</c></rc>
   </set>
  </array>
  <array name="atomtypes" >
   <dimension dim="1">type</dimension>
   <field type="int">atomspertype</field>
   <field type="string">element</field>
   <field>mass</field>
   <field>valence</field>
   <field type="string">pseudopotential</field>
   <set>
    <rc><c>   4</c><c>Na</c><c>     22.99000000</c><c>      1.00000000</c><c>  PAW_PBE Na 08Apr2002                  </c></rc>
    <rc><c>   8</c><c>Sb</c><c>    121.75000000</c><c>      5.00000000</c><c>  PAW_PBE Sb 06Sep2000                  </c></rc>
    <rc><c>  14</c><c>Se</c><c>     78.96000000</c><c>      6.00000000</c><c>  PAW_PBE Se 06Sep2000                  </c></rc>
   </set>
  </array>
 </atominfo>
 <structure name="initialpos" >
  <crystal>
   <varray name="basis" >
    <v>      -7.35245325       0.01086646      -0.32052226 </v>
    <v>       2.07951075       9.39229189      -0.09512266 </v>
    <v>      -0.86829295      -1.83116444     -11.29333369 </v>
   </varray>
   <i name="volume">    780.02018549 </i>
   <varray name="rec_basis" >
    <v>      -0.13620734       0.03021358       0.00557336 </v>
    <v>       0.00090978       0.10609392      -0.01727261 </v>
    <v>       0.00385811      -0.00175113      -0.08856051 </v>
   </varray>
  </crystal>
  <varray name="positions" >
   <v>       0.31115542       0.34441321       0.12071091 </v>
   <v>       0.42984391       0.75709282       0.58776848 </v>
   <v>       0.57015609       0.24290718       0.41223152 </v>
   <v>       0.68884458       0.65558679       0.87928909 </v>
   <v>       0.02315420       0.95990407       0.33147171 </v>
   <v>       0.14199245       0.44665643       0.80913698 </v>
   <v>       0.74976107       0.13058205       0.04997949 </v>
   <v>       0.52661781       0.20611778       0.75677449 </v>
   <v>       0.25023893       0.86941795       0.95002051 </v>
   <v>       0.97684580       0.04009593       0.66852829 </v>
   <v>       0.85800755       0.55334357       0.19086302 </v>
   <v>       0.47338219       0.79388222       0.24322551 </v>
   <v>       0.82206227       0.84948094       0.12911662 </v>
   <v>       0.67466501       0.35492854       0.95397689 </v>
   <v>       0.47426548       0.45746856       0.68851471 </v>
   <v>       0.27615276       0.01784078       0.52825276 </v>
   <v>       0.05620988       0.70110794       0.36589446 </v>
   <v>       0.32533499       0.64507146       0.04602311 </v>
   <v>       0.42301706       0.07924352       0.17006298 </v>
   <v>       0.94379012       0.29889206       0.63410554 </v>
   <v>       0.57698294       0.92075648       0.82993702 </v>
   <v>       0.91629827       0.30258862       0.23972447 </v>
   <v>       0.08370173       0.69741138       0.76027553 </v>
   <v>       0.72384724       0.98215922       0.47174724 </v>
   <v>       0.52573452       0.54253144       0.31148529 </v>
   <v>       0.17793773       0.15051906       0.87088338 </v>
  </varray>
 </structure>
 <calculation>
  <scstep>
   <time name="dav">    0.61    0.62</time>
   <time name="total">    0.88    0.95</time>
   <energy>
    <i name="alphaZ">    105.85194096 </i>
    <i name="ewald">  -4063.77726744 </i>
    <i name="hartreedc">   -871.07048363 </i>
    <i name="XCdc">   -524.97805931 </i>
    <i name="pawpsdc">   4413.14680164 </i>
    <i name="pawaedc">  -3638.63163603 </i>
    <i name="eentropy">     -0.01870063 </i>
    <i name="bandstr">    324.26659068 </i>
    <i name="atom">   4819.97366116 </i>
    <i name="e_fr_energy">    564.76284739 </i>
    <i name="e_wo_entrp">    564.78154802 </i>
    <i name="e_0_energy">    564.77219771 </i>
   </energy>
  </scstep>
  <scstep>
   <time name="dav">    0.90    0.90</time>
   <time name="total">    0.90    0.90</time>
   <energy>
    <i name="e_fr_energy">    -38.93620731 </i>
    <i name="e_wo_entrp">    -38.93620731 </i>
    <i name="e_0_energy">    -38.93620731 </i>
   </energy>
  </scstep>
  <scstep>
   <time name="dav">    0.93    0.93</time>
   <time name="total">    0.93    0.93</time>
   <energy>
    <i name="e_fr_energy">   -101.73231238 </i>
    <i name="e_wo_entrp">   -101.73231238 </i>
    <i name="e_0_energy">   -101.73231238 </i>
   </energy>
  </scstep>
  <scstep>
   <time name="dav">    0.97    0.97</time>
   <time name="total">    0.97    0.97</time>
   <energy>
    <i name="e_fr_energy">   -103.92989379 </i>
    <i name="e_wo_entrp">   -103.92989379 </i>
    <i name="e_0_energy">   -103.92989379 </i>
   </energy>
  </scstep>
  <scstep>
   <time name="dav">    1.03    1.03</time>
   <time name="total">    1.06    1.06</time>
   <energy>
    <i name="e_fr_energy">   -103.98009365 </i>
    <i name="e_wo_entrp">   -103.98009365 </i>
    <i name="e_0_energy">   -103.98009365 </i>
   </energy>
  </scstep>
  <scstep>
   <time name="dav">    0.80    0.80</time>
   <time name="total">    1.08    1.08</time>
   <energy>
    <i name="e_fr_energy">   -100.19193317 </i>
    <i name="e_wo_entrp">   -100.19193317 </i>
    <i name="e_0_energy">   -100.19193317 </i>
   </energy>
  </scstep>
  <scstep>
   <time name="dav">    0.94    0.94</time>
   <time name="total">    1.22    1.22</time>
   <energy>
    <i name="e_fr_energy">   -100.19133678 </i>
    <i name="e_wo_entrp">   -100.19133678 </i>
    <i name="e_0_energy">   -100.19133678 </i>
   </energy>
  </scstep>
  <scstep>
   <time name="dav">    0.70    0.70</time>
   <time name="total">    0.98    0.98</time>
   <energy>
    <i name="e_fr_energy">   -100.18198611 </i>
    <i name="e_wo_entrp">   -100.18198611 </i>
    <i name="e_0_energy">   -100.18198611 </i>
   </energy>
  </scstep>
  <scstep>
   <time name="dav">    0.88    0.88</time>
   <time name="total">    1.15    1.15</time>
   <energy>
    <i name="e_fr_energy">   -100.18996535 </i>
    <i name="e_wo_entrp">   -100.18996535 </i>
    <i name="e_0_energy">   -100.18996535 </i>
   </energy>
  </scstep>
  <scstep>
   <time name="dav">    0.94    0.94</time>
   <time name="total">    1.21    1.21</time>
   <energy>
    <i name="e_fr_energy">   -100.19110700 </i>
    <i name="e_wo_entrp">   -100.19110700 </i>
    <i name="e_0_energy">   -100.19110700 </i>
   </energy>
  </scstep>
  <scstep>
   <time name="dav">    0.92    0.92</time>
   <time name="total">    1.20    1.20</time>
   <energy>
    <i name="e_fr_energy">   -100.19234111 </i>
    <i name="e_wo_entrp">   -100.19234111 </i>
    <i name="e_0_energy">   -100.19234111 </i>
   </energy>
  </scstep>
  <scstep>
   <time name="dav">    0.87    0.87</time>
   <time name="total">    1.15    1.15</time>
   <energy>
    <i name="e_fr_energy">   -100.19263802 </i>
    <i name="e_wo_entrp">   -100.19263802 </i>
    <i name="e_0_energy">   -100.19263802 </i>
   </energy>
  </scstep>
  <scstep>
   <time name="dav">    0.78    0.78</time>
   <time name="total">    1.06    1.06</time>
   <energy>
    <i name="e_fr_energy">   -100.19275545 </i>
    <i name="e_wo_entrp">   -100.19275545 </i>
    <i name="e_0_energy">   -100.19275545 </i>
   </energy>
  </scstep>
  <scstep>
   <time name="dav">    0.54    0.54</time>
   <time name="total">    0.79    0.79</time>
   <energy>
    <i name="alphaZ">    105.85194096 </i>
    <i name="ewald">  -4063.77726744 </i>
    <i name="hartreedc">   -916.34027231 </i>
    <i name="XCdc">   -519.36724983 </i>
    <i name="pawpsdc">   7009.46275807 </i>
    <i name="pawaedc">  -6236.63492568 </i>
    <i name="eentropy">     -0.00000000 </i>
    <i name="bandstr">   -299.36141081 </i>
    <i name="atom">   4819.97366116 </i>
    <i name="e_fr_energy">   -100.19276588 </i>
    <i name="e_wo_entrp">   -100.19276588 </i>
    <i name="e_0_energy">   -100.19276588 </i>
   </energy>
  </scstep>
  <structure>
   <crystal>
    <varray name="basis" >
     <v>      -7.35245325       0.01086646      -0.32052226 </v>
     <v>       2.07951075       9.39229189      -0.09512266 </v>
     <v>      -0.86829295      -1.83116444     -11.29333369 </v>
    </varray>
    <i name="volume">    780.02018549 </i>
    <varray name="rec_basis" >
     <v>      -0.13620734       0.03021358       0.00557336 </v>
     <v>       0.00090978       0.10609392      -0.01727261 </v>
     <v>       0.00385811      -0.00175113      -0.08856051 </v>
    </varray>
   </crystal>
   <varray name="positions" >
    <v>       0.31115542       0.34441321       0.12071091 </v>
    <v>       0.42984391       0.75709282       0.58776848 </v>
    <v>       0.57015609       0.24290718       0.41223152 </v>
    <v>       0.68884458       0.65558679       0.87928909 </v>
    <v>       0.02315420       0.95990407       0.33147171 </v>
    <v>       0.14199245       0.44665643       0.80913698 </v>
    <v>       0.74976107       0.13058205       0.04997949 </v>
    <v>       0.52661781       0.20611778       0.75677449 </v>
    <v>       0.25023893       0.86941795       0.95002051 </v>
    <v>       0.97684580       0.04009593       0.66852829 </v>
    <v>       0.85800755       0.55334357       0.19086302 </v>
    <v>       0.47338219       0.79388222       0.24322551 </v>
    <v>       0.82206227       0.84948094       0.12911662 </v>
    <v>       0.67466501       0.35492854       0.95397689 </v>
    <v>       0.47426548       0.45746856       0.68851471 </v>
    <v>       0.27615276       0.01784078       0.52825276 </v>
    <v>       0.05620988       0.70110794       0.36589446 </v>
    <v>       0.32533499       0.64507146       0.04602311 </v>
    <v>       0.42301706       0.07924352       0.17006298 </v>
    <v>       0.94379012       0.29889206       0.63410554 </v>
    <v>       0.57698294       0.92075648       0.82993702 </v>
    <v>       0.91629827       0.30258862       0.23972447 </v>
    <v>       0.08370173       0.69741138       0.76027553 </v>
    <v>       0.72384724       0.98215922       0.47174724 </v>
    <v>       0.52573452       0.54253144       0.31148529 </v>
    <v>       0.17793773       0.15051906       0.87088338 </v>
   </varray>
  </structure>
  <varray name="forces" >
   <v>       0.00581736      -0.01182139       0.02167005 </v>
   <v>       0.00844859       0.00787422      -0.01559498 </v>
   <v>      -0.00844859      -0.00787422       0.01559498 </v>
   <v>      -0.00581736       0.01182139      -0.02167005 </v>
   <v>       0.11056391       0.16340722      -0.08838467 </v>
   <v>       0.13443012       0.02329914       0.09098283 </v>
   <v>       0.01642277       0.00092992      -0.01825341 </v>
   <v>       0.21022915       0.00621934       0.12700961 </v>
   <v>      -0.01642277      -0.00092992       0.01825341 </v>
   <v>      -0.11056391      -0.16340722       0.08838467 </v>
   <v>      -0.13443012      -0.02329914      -0.09098283 </v>
   <v>      -0.21022915      -0.00621934      -0.12700961 </v>
   <v>       0.00363863      -0.01510112       0.01591102 </v>
   <v>       0.01767608       0.01561021       0.00337287 </v>
   <v>       0.00336420      -0.04635645      -0.00171633 </v>
   <v>       0.02027167       0.06683624       0.00871656 </v>
   <v>       0.05734022      -0.02912229      -0.05224940 </v>
   <v>      -0.01767608      -0.01561021      -0.00337287 </v>
   <v>       0.02107853      -0.01628506       0.02395571 </v>
   <v>      -0.05734022       0.02912229       0.05224940 </v>
   <v>      -0.02107853       0.01628506      -0.02395571 </v>
   <v>      -0.05792280      -0.01551993      -0.04046663 </v>
   <v>       0.05792280       0.01551993       0.04046663 </v>
   <v>      -0.02027167      -0.06683624      -0.00871656 </v>
   <v>      -0.00336420       0.04635645       0.00171633 </v>
   <v>      -0.00363863       0.01510112      -0.01591102 </v>
  </varray>
  <varray name="stress" >
   <v>       0.74480729       0.25609056      -0.24844035 </v>
   <v>       0.25609077       0.46731590      -0.56383800 </v>
   <v>      -0.24843689      -0.56383724      -2.42107769 </v>
  </varray>
  <energy>
   <i name="e_fr_energy">   -100.19276588 </i>
   <i name="e_wo_entrp">   -100.19276588 </i>
   <i name="e_0_energy">     -0.00000000 </i>
  </energy>
  <time name="totalsc">   15.75   15.94</time>
 </calculation>
 <calculation>
  <scstep>
   <time name="dav">    0.93    0.95</time>
   <time name="total">    1.22    1.26</time>
   <energy>
    <i name="alphaZ">    105.87507671 </i>
    <i name="ewald">  -4064.49980168 </i>
    <i name="hartreedc">   -916.05453991 </i>
    <i name="XCdc">   -519.35902871 </i>
    <i name="pawpsdc">   7009.79620740 </i>
    <i name="pawaedc">  -6236.96766406 </i>
    <i name="eentropy">     -0.00000000 </i>
    <i name="bandstr">   -298.96003317 </i>
    <i name="atom">   4819.97366116 </i>
    <i name="e_fr_energy">   -100.19612226 </i>
    <i name="e_wo_entrp">   -100.19612226 </i>
    <i name="e_0_energy">   -100.19612226 </i>
   </energy>
  </scstep>
  <scstep>
   <time name="dav">    0.88    0.90</time>
   <time name="total">    1.13    1.15</time>
   <energy>
    <i name="alphaZ">    105.87507671 </i>
    <i name="ewald">  -4064.49980168 </i>
    <i name="hartreedc">   -915.95972751 </i>
    <i name="XCdc">   -519.36033446 </i>
    <i name="pawpsdc">   7010.17045267 </i>
    <i name="pawaedc">  -6237.34171365 </i>
    <i name="eentropy">     -0.00000000 </i>
    <i name="bandstr">   -299.05374525 </i>
    <i name="atom">   4819.97366116 </i>
    <i name="e_fr_energy">   -100.19613201 </i>
    <i name="e_wo_entrp">   -100.19613201 </i>
    <i name="e_0_energy">   -100.19613201 </i>
   </energy>
  </scstep>
  <structure>
   <crystal>
    <varray name="basis" >
     <v>      -7.35342773       0.01055985      -0.32005315 </v>
     <v>       2.08022940       9.39319078      -0.09613116 </v>
     <v>      -0.86798761      -1.83020879     -11.28816832 </v>
    </varray>
    <i name="volume">    779.84973603 </i>
    <varray name="rec_basis" >
     <v>      -0.13619016       0.03021790       0.00557276 </v>
     <v>       0.00090398       0.10608316      -0.01726932 </v>
     <v>       0.00385370      -0.00176018      -0.08859927 </v>
    </varray>
   </crystal>
   <varray name="positions" >
    <v>       0.31114549       0.34439755       0.12069281 </v>
    <v>       0.42983426       0.75710355       0.58778199 </v>
    <v>       0.57016574       0.24289645       0.41221801 </v>
    <v>       0.68885451       0.65560245       0.87930719 </v>
    <v>       0.02305178       0.96008704       0.33154858 </v>
    <v>       0.14182746       0.44666629       0.80906385 </v>
    <v>       0.74973878       0.13058619       0.04999569 </v>
    <v>       0.52635017       0.20610483       0.75667368 </v>
    <v>       0.25026122       0.86941381       0.95000431 </v>
    <v>       0.97694822       0.03991296       0.66845142 </v>
    <v>       0.85817254       0.55333371       0.19093615 </v>
    <v>       0.47364983       0.79389517       0.24332632 </v>
    <v>       0.82205395       0.84946286       0.12910342 </v>
    <v>       0.67464651       0.35494411       0.95397440 </v>
    <v>       0.47424745       0.45742142       0.68851708 </v>
    <v>       0.27614607       0.01790792       0.52824494 </v>
    <v>       0.05612323       0.70108734       0.36594173 </v>
    <v>       0.32535349       0.64505589       0.04602560 </v>
    <v>       0.42298590       0.07922304       0.17004357 </v>
    <v>       0.94387677       0.29891266       0.63405827 </v>
    <v>       0.57701410       0.92077696       0.82995643 </v>
    <v>       0.91636769       0.30257897       0.23975715 </v>
    <v>       0.08363231       0.69742103       0.76024285 </v>
    <v>       0.72385393       0.98209208       0.47175506 </v>
    <v>       0.52575255       0.54257858       0.31148292 </v>
    <v>       0.17794605       0.15053714       0.87089658 </v>
   </varray>
  </structure>
  <varray name="forces" >
   <v>       0.00543271      -0.01178061       0.02059182 </v>
   <v>       0.00856951       0.00656129      -0.01564003 </v>
   <v>      -0.00856951      -0.00656129       0.01564003 </v>
   <v>      -0.00543271       0.01178061      -0.02059182 </v>
   <v>       0.12820169       0.18427603      -0.06287979 </v>
   <v>       0.15227393       0.00608210       0.07539866 </v>
   <v>       0.02139550       0.00228614      -0.01927788 </v>
   <v>       0.14372107       0.02521105       0.12293941 </v>
   <v>      -0.02139550      -0.00228614       0.01927788 </v>
   <v>      -0.12820169      -0.18427603       0.06287979 </v>
   <v>      -0.15227393      -0.00608210      -0.07539866 </v>
   <v>      -0.14372107      -0.02521105      -0.12293941 </v>
   <v>       0.01249057      -0.00701358       0.01436861 </v>
   <v>       0.02494525      -0.00186304      -0.01014743 </v>
   <v>       0.01267442      -0.02384402       0.01267773 </v>
   <v>       0.01231249       0.07039542       0.01367095 </v>
   <v>       0.05998045      -0.02170268      -0.05143468 </v>
   <v>      -0.02494525       0.00186304       0.01014743 </v>
   <v>       0.02139770      -0.01670918       0.02266345 </v>
   <v>      -0.05998045       0.02170268       0.05143468 </v>
   <v>      -0.02139770       0.01670918      -0.02266345 </v>
   <v>      -0.06216798      -0.01730785      -0.04837846 </v>
   <v>       0.06216798       0.01730785       0.04837846 </v>
   <v>      -0.01231249      -0.07039542      -0.01367095 </v>
   <v>      -0.01267442       0.02384402      -0.01267773 </v>
   <v>      -0.01249057       0.00701358      -0.01436861 </v>
  </varray>
  <varray name="stress" >
   <v>       0.88384829       0.32529115      -0.17318658 </v>
   <v>       0.32529012       0.46876189      -0.51385383 </v>
   <v>      -0.17318306      -0.51385212      -2.17314519 </v>
  </varray>
  <energy>
   <i name="e_fr_energy">   -100.19613201 </i>
   <i name="e_wo_entrp">   -100.19613201 </i>
   <i name="e_0_energy">     -0.00000000 </i>
  </energy>
  <time name="totalsc">    3.58    3.81</time>
 </calculation>
 <calculation>
  <scstep>
   <time name="dav">    0.66    0.67</time>
   <time name="total">    0.94    0.98</time>
   <energy>
    <i name="alphaZ">    105.94467063 </i>
    <i name="ewald">  -4066.65585334 </i>
    <i name="hartreedc">   -914.97990876 </i>
    <i name="XCdc">   -519.33745328 </i>
    <i name="pawpsdc">   7010.59251150 </i>
    <i name="pawaedc">  -6237.76405718 </i>
    <i name="eentropy">     -0.00000000 </i>
    <i name="bandstr">   -297.97699920 </i>
    <i name="atom">   4819.97366116 </i>
    <i name="e_fr_energy">   -100.20342846 </i>
    <i name="e_wo_entrp">   -100.20342846 </i>
    <i name="e_0_energy">   -100.20342846 </i>
   </energy>
  </scstep>
  <scstep>
   <time name="dav">    0.89    0.89</time>
   <time name="total">    1.15    1.16</time>
   <energy>
    <i name="e_fr_energy">   -100.20340800 </i>
    <i name="e_wo_entrp">   -100.20340800 </i>
    <i name="e_0_energy">   -100.20340800 </i>
   </energy>
  </scstep>
  <scstep>
   <time name="dav">    0.68    0.68</time>
   <time name="total">    0.94    0.94</time>
   <energy>
    <i name="e_fr_energy">   -100.20322055 </i>
    <i name="e_wo_entrp">   -100.20322055 </i>
    <i name="e_0_energy">   -100.20322055 </i>
   </energy>
  </scstep>
  <scstep>
   <time name="dav">    0.62    0.62</time>
   <time name="total">    0.86    0.86</time>
   <energy>
    <i name="alphaZ">    105.94467063 </i>
    <i name="ewald">  -4066.65585334 </i>
    <i name="hartreedc">   -914.38151840 </i>
    <i name="XCdc">   -519.33869875 </i>
    <i name="pawpsdc">   7013.55519960 </i>
    <i name="pawaedc">  -6240.72932219 </i>
    <i name="eentropy">     -0.00000000 </i>
    <i name="bandstr">   -298.57129333 </i>
    <i name="atom">   4819.97366116 </i>
    <i name="e_fr_energy">   -100.20315464 </i>
    <i name="e_wo_entrp">   -100.20315464 </i>
    <i name="e_0_energy">   -100.20315464 </i>
   </energy>
  </scstep>
  <structure>
   <crystal>
    <varray name="basis" >
     <v>      -7.35635118       0.00964001      -0.31864581 </v>
     <v>       2.08238537       9.39588745      -0.09915668 </v>
     <v>      -0.86707161      -1.82734185     -11.27267223 </v>
    </varray>
    <i name="volume">    779.33746111 </i>
    <varray name="rec_basis" >
     <v>      -0.13613865       0.03023084       0.00557098 </v>
     <v>       0.00088658       0.10605091      -0.01725944 </v>
     <v>       0.00384045      -0.00178738      -0.08871577 </v>
    </varray>
   </crystal>
   <varray name="positions" >
    <v>       0.31111572       0.34435057       0.12063849 </v>
    <v>       0.42980533       0.75713575       0.58782252 </v>
    <v>       0.57019467       0.24286425       0.41217748 </v>
    <v>       0.68888428       0.65564943       0.87936151 </v>
    <v>       0.02274460       0.96063588       0.33177926 </v>
    <v>       0.14133258       0.44669587       0.80884433 </v>
    <v>       0.74967190       0.13059860       0.05004428 </v>
    <v>       0.52554735       0.20606594       0.75637109 </v>
    <v>       0.25032810       0.86940140       0.94995572 </v>
    <v>       0.97725540       0.03936412       0.66822074 </v>
    <v>       0.85866742       0.55330413       0.19115567 </v>
    <v>       0.47445265       0.79393406       0.24362891 </v>
    <v>       0.82202896       0.84940864       0.12906379 </v>
    <v>       0.67459103       0.35499082       0.95396693 </v>
    <v>       0.47419337       0.45728002       0.68852422 </v>
    <v>       0.27612602       0.01810932       0.52822144 </v>
    <v>       0.05586328       0.70102553       0.36608361 </v>
    <v>       0.32540897       0.64500918       0.04603307 </v>
    <v>       0.42289243       0.07916162       0.16998531 </v>
    <v>       0.94413672       0.29897447       0.63391639 </v>
    <v>       0.57710757       0.92083838       0.83001469 </v>
    <v>       0.91657593       0.30255003       0.23985526 </v>
    <v>       0.08342407       0.69744997       0.76014474 </v>
    <v>       0.72387398       0.98189068       0.47177856 </v>
    <v>       0.52580663       0.54271998       0.31147578 </v>
    <v>       0.17797104       0.15059136       0.87093621 </v>
   </varray>
  </structure>
  <varray name="forces" >
   <v>      -0.00056763      -0.01003440       0.02289263 </v>
   <v>       0.00956721       0.00223804      -0.01727536 </v>
   <v>      -0.00956721      -0.00223804       0.01727536 </v>
   <v>       0.00056763       0.01003440      -0.02289263 </v>
   <v>       0.09015393       0.14360117       0.01235880 </v>
   <v>      -0.02924348       0.04683550       0.06701906 </v>
   <v>       0.03945490       0.01037949      -0.01953986 </v>
   <v>       0.04083205       0.04979171       0.01322303 </v>
   <v>      -0.03945490      -0.01037949       0.01953986 </v>
   <v>      -0.09015393      -0.14360117      -0.01235880 </v>
   <v>       0.02924348      -0.04683550      -0.06701906 </v>
   <v>      -0.04083205      -0.04979171      -0.01322303 </v>
   <v>       0.01701318      -0.00453993       0.01326707 </v>
   <v>       0.02735551      -0.01306636      -0.01029983 </v>
   <v>       0.01066663       0.01509342      -0.02393465 </v>
   <v>      -0.01145367       0.07427953       0.01304181 </v>
   <v>       0.04750721       0.00928921      -0.07381795 </v>
   <v>      -0.02735551       0.01306636       0.01029983 </v>
   <v>       0.01672042      -0.01332946       0.02957355 </v>
   <v>      -0.04750721      -0.00928921       0.07381795 </v>
   <v>      -0.01672042       0.01332946      -0.02957355 </v>
   <v>      -0.07397443      -0.02391032      -0.07167196 </v>
   <v>       0.07397443       0.02391032       0.07167196 </v>
   <v>       0.01145367      -0.07427953      -0.01304181 </v>
   <v>      -0.01066663      -0.01509342       0.02393465 </v>
   <v>      -0.01701318       0.00453993      -0.01326707 </v>
  </varray>
  <varray name="stress" >
   <v>       0.08787128       0.49001689       0.10865969 </v>
   <v>       0.49001675       0.21013155      -0.31771339 </v>
   <v>       0.10866220      -0.31771220      -0.23207920 </v>
  </varray>
  <energy>
   <i name="e_fr_energy">   -100.20315464 </i>
   <i name="e_wo_entrp">   -100.20315464 </i>
   <i name="e_0_energy">     -0.00000000 </i>
  </energy>
  <time name="totalsc">    5.22    5.35</time>
 </calculation>
 <calculation>
  <scstep>
   <time name="dav">    0.83    0.84</time>
   <time name="total">    1.12    1.16</time>
   <energy>
    <i name="alphaZ">    106.08470190 </i>
    <i name="ewald">  -4070.91643363 </i>
    <i name="hartreedc">   -912.52446428 </i>
    <i name="XCdc">   -519.29206788 </i>
    <i name="pawpsdc">   7013.18276506 </i>
    <i name="pawaedc">  -6240.35815395 </i>
    <i name="eentropy">     -0.00000000 </i>
    <i name="bandstr">   -296.35290640 </i>
    <i name="atom">   4819.97366116 </i>
    <i name="e_fr_energy">   -100.20289802 </i>
    <i name="e_wo_entrp">   -100.20289802 </i>
    <i name="e_0_energy">   -100.20289802 </i>
   </energy>
  </scstep>
  <scstep>
   <time name="dav">    0.80    0.81</time>
   <time name="total">    1.07    1.08</time>
   <energy>
    <i name="e_fr_energy">   -100.20318618 </i>
    <i name="e_wo_entrp">   -100.20318618 </i>
    <i name="e_0_energy">   -100.20318618 </i>
   </energy>
  </scstep>
  <scstep>
   <time name="dav">    0.99    0.99</time>
   <time name="total">    1.27    1.27</time>
   <energy>
    <i name="e_fr_energy">   -100.20258935 </i>
    <i name="e_wo_entrp">   -100.20258935 </i>
    <i name="e_0_energy">   -100.20258935 </i>
   </energy>
  </scstep>
  <scstep>
   <time name="dav">    0.47    0.47</time>
   <time name="total">    0.74    0.74</time>
   <energy>
    <i name="e_fr_energy">   -100.20236734 </i>
    <i name="e_wo_entrp">   -100.20236734 </i>
    <i name="e_0_energy">   -100.20236734 </i>
   </energy>
  </scstep>
  <scstep>
   <time name="dav">    0.48    0.48</time>
   <time name="total">    0.73    0.73</time>
   <energy>
    <i name="alphaZ">    106.08470190 </i>
    <i name="ewald">  -4070.91643363 </i>
    <i name="hartreedc">   -911.32922740 </i>
    <i name="XCdc">   -519.29667911 </i>
    <i name="pawpsdc">   7020.25678765 </i>
    <i name="pawaedc">  -6247.43932323 </i>
    <i name="eentropy">     -0.00000000 </i>
    <i name="bandstr">   -297.53583648 </i>
    <i name="atom">   4819.97366116 </i>
    <i name="e_fr_energy">   -100.20234914 </i>
    <i name="e_wo_entrp">   -100.20234914 </i>
    <i name="e_0_energy">   -100.20234914 </i>
   </energy>
  </scstep>
  <structure>
   <crystal>
    <varray name="basis" >
     <v>      -7.36219807       0.00780034      -0.31583114 </v>
     <v>       2.08669729       9.40128079      -0.10520771 </v>
     <v>      -0.86523960      -1.82160795     -11.24168006 </v>
    </varray>
    <i name="volume">    778.30873961 </i>
    <varray name="rec_basis" >
     <v>      -0.13603578       0.03025665       0.00556748 </v>
     <v>       0.00085186       0.10598648      -0.01723967 </v>
     <v>       0.00381391      -0.00184195      -0.08894975 </v>
    </varray>
   </crystal>
   <varray name="positions" >
    <v>       0.31105617       0.34425664       0.12052971 </v>
    <v>       0.42974749       0.75720010       0.58790368 </v>
    <v>       0.57025251       0.24279990       0.41209632 </v>
    <v>       0.68894383       0.65574336       0.87947029 </v>
    <v>       0.02213069       0.96173309       0.33224086 </v>
    <v>       0.14034323       0.44675491       0.80840453 </v>
    <v>       0.74953821       0.13062339       0.05014159 </v>
    <v>       0.52394234       0.20598801       0.75576488 </v>
    <v>       0.25046179       0.86937661       0.94985841 </v>
    <v>       0.97786931       0.03826691       0.66775914 </v>
    <v>       0.85965677       0.55324509       0.19159547 </v>
    <v>       0.47605766       0.79401199       0.24423512 </v>
    <v>       0.82197899       0.84930021       0.12898444 </v>
    <v>       0.67448013       0.35508419       0.95395192 </v>
    <v>       0.47408517       0.45699731       0.68853858 </v>
    <v>       0.27608604       0.01851199       0.52817427 </v>
    <v>       0.05534356       0.70090189       0.36636772 </v>
    <v>       0.32551987       0.64491581       0.04604808 </v>
    <v>       0.42270553       0.07903878       0.16986865 </v>
    <v>       0.94465644       0.29909811       0.63363228 </v>
    <v>       0.57729447       0.92096122       0.83013135 </v>
    <v>       0.91699222       0.30249221       0.24005182 </v>
    <v>       0.08300778       0.69750779       0.75994818 </v>
    <v>       0.72391396       0.98148801       0.47182573 </v>
    <v>       0.52591483       0.54300269       0.31146142 </v>
    <v>       0.17802101       0.15069979       0.87101556 </v>
   </varray>
  </structure>
  <varray name="forces" >
   <v>      -0.00550242      -0.00776637       0.02439452 </v>
   <v>       0.01107350      -0.00601649      -0.01592107 </v>
   <v>      -0.01107350       0.00601649       0.01592107 </v>
   <v>       0.00550242       0.00776637      -0.02439452 </v>
   <v>      -0.01491553       0.00145401       0.02465526 </v>
   <v>      -0.13800700       0.01579881      -0.02865508 </v>
   <v>      -0.01863737      -0.02371362       0.01438841 </v>
   <v>      -0.15409415       0.00727938       0.00621982 </v>
   <v>       0.01863737       0.02371362      -0.01438841 </v>
   <v>       0.01491553      -0.00145401      -0.02465526 </v>
   <v>       0.13800700      -0.01579881       0.02865508 </v>
   <v>       0.15409415      -0.00727938      -0.00621982 </v>
   <v>       0.00100834      -0.00220293       0.01604616 </v>
   <v>       0.02713465      -0.02493944       0.00048242 </v>
   <v>       0.06174412       0.06821953       0.00535524 </v>
   <v>      -0.05265722       0.09031150       0.02579708 </v>
   <v>       0.01960578       0.10315250      -0.11598073 </v>
   <v>      -0.02713465       0.02493944      -0.00048242 </v>
   <v>       0.01569572      -0.01602004       0.02241026 </v>
   <v>      -0.01960578      -0.10315250       0.11598073 </v>
   <v>      -0.01569572       0.01602004      -0.02241026 </v>
   <v>      -0.07234358      -0.02718555      -0.09862777 </v>
   <v>       0.07234358       0.02718555       0.09862777 </v>
   <v>       0.05265722      -0.09031150      -0.02579708 </v>
   <v>      -0.06174412      -0.06821953      -0.00535524 </v>
   <v>      -0.00100834       0.00220293      -0.01604616 </v>
  </varray>
  <varray name="stress" >
   <v>       0.42002329      -0.09249389       0.03619156 </v>
   <v>      -0.09249372      -0.25679614      -0.25767240 </v>
   <v>       0.03619464      -0.25767091       2.57746317 </v>
  </varray>
  <energy>
   <i name="e_fr_energy">   -100.20234914 </i>
   <i name="e_wo_entrp">   -100.20234914 </i>
   <i name="e_0_energy">     -0.00000000 </i>
  </energy>
  <time name="totalsc">    6.23    6.41</time>
 </calculation>
 <calculation>
  <scstep>
   <time name="dav">    0.88    0.89</time>
   <time name="total">    1.16    1.21</time>
   <energy>
    <i name="alphaZ">    106.01873437 </i>
    <i name="ewald">  -4068.92079124 </i>
    <i name="hartreedc">   -912.15552801 </i>
    <i name="XCdc">   -519.31944097 </i>
    <i name="pawpsdc">   7019.46588369 </i>
    <i name="pawaedc">  -6246.64916799 </i>
    <i name="eentropy">     -0.00000000 </i>
    <i name="bandstr">   -298.61831660 </i>
    <i name="atom">   4819.97366116 </i>
    <i name="e_fr_energy">   -100.20496559 </i>
    <i name="e_wo_entrp">   -100.20496559 </i>
    <i name="e_0_energy">   -100.20496559 </i>
   </energy>
  </scstep>
  <scstep>
   <time name="dav">    0.99    1.01</time>
   <time name="total">    1.26    1.28</time>
   <energy>
    <i name="e_fr_energy">   -100.20502660 </i>
    <i name="e_wo_entrp">   -100.20502660 </i>
    <i name="e_0_energy">   -100.20502660 </i>
   </energy>
  </scstep>
  <scstep>
   <time name="dav">    0.95    0.97</time>
   <time name="total">    1.22    1.24</time>
   <energy>
    <i name="e_fr_energy">   -100.20488798 </i>
    <i name="e_wo_entrp">   -100.20488798 </i>
    <i name="e_0_energy">   -100.20488798 </i>
   </energy>
  </scstep>
  <scstep>
   <time name="dav">    0.62    0.62</time>
   <time name="total">    0.87    0.87</time>
   <energy>
    <i name="alphaZ">    106.01873437 </i>
    <i name="ewald">  -4068.92079124 </i>
    <i name="hartreedc">   -912.66276930 </i>
    <i name="XCdc">   -519.31853365 </i>
    <i name="pawpsdc">   7013.55414592 </i>
    <i name="pawaedc">  -6240.73604055 </i>
    <i name="eentropy">     -0.00000000 </i>
    <i name="bandstr">   -298.11323766 </i>
    <i name="atom">   4819.97366116 </i>
    <i name="e_fr_energy">   -100.20483095 </i>
    <i name="e_wo_entrp">   -100.20483095 </i>
    <i name="e_0_energy">   -100.20483095 </i>
   </energy>
  </scstep>
  <structure>
   <crystal>
    <varray name="basis" >
     <v>      -7.35944951       0.00866515      -0.31715428 </v>
     <v>       2.08467031       9.39874544      -0.10236319 </v>
     <v>      -0.86610080      -1.82430339     -11.25624913 </v>
    </varray>
    <i name="volume">    778.79302293 </i>
    <varray name="rec_basis" >
     <v>      -0.13608412       0.03024453       0.00556912 </v>
     <v>       0.00086817       0.10601676      -0.01724897 </v>
     <v>       0.00382639      -0.00181627      -0.08883959 </v>
    </varray>
   </crystal>
   <varray name="positions" >
    <v>       0.31108415       0.34430077       0.12058097 </v>
    <v>       0.42977465       0.75716988       0.58786545 </v>
    <v>       0.57022535       0.24283012       0.41213455 </v>
    <v>       0.68891585       0.65569923       0.87941903 </v>
    <v>       0.02241885       0.96121774       0.33202363 </v>
    <v>       0.14080793       0.44672728       0.80861199 </v>
    <v>       0.74960101       0.13061176       0.05009574 </v>
    <v>       0.52469625       0.20602478       0.75605082 </v>
    <v>       0.25039899       0.86938824       0.94990426 </v>
    <v>       0.97758115       0.03878226       0.66797637 </v>
    <v>       0.85919207       0.55327272       0.19138801 </v>
    <v>       0.47530375       0.79397522       0.24394918 </v>
    <v>       0.82200248       0.84935115       0.12902182 </v>
    <v>       0.67453220       0.35504034       0.95395903 </v>
    <v>       0.47413606       0.45713013       0.68853176 </v>
    <v>       0.27610473       0.01832283       0.52819661 </v>
    <v>       0.05558773       0.70096004       0.36623383 </v>
    <v>       0.32546780       0.64495966       0.04604097 </v>
    <v>       0.42279334       0.07909650       0.16992364 </v>
    <v>       0.94441227       0.29903996       0.63376617 </v>
    <v>       0.57720666       0.92090350       0.83007636 </v>
    <v>       0.91679669       0.30251933       0.23995910 </v>
    <v>       0.08320331       0.69748067       0.76004090 </v>
    <v>       0.72389527       0.98167717       0.47180339 </v>
    <v>       0.52586394       0.54286987       0.31146824 </v>
    <v>       0.17799752       0.15064885       0.87097818 </v>
   </varray>
  </structure>
  <varray name="forces" >
   <v>      -0.00326614      -0.00866690       0.02346050 </v>
   <v>       0.01052715      -0.00239566      -0.01562151 </v>
   <v>      -0.01052715       0.00239566       0.01562151 </v>
   <v>       0.00326614       0.00866690      -0.02346050 </v>
   <v>       0.07440326       0.02108466       0.03122301 </v>
   <v>      -0.10805356       0.03381389      -0.01964183 </v>
   <v>       0.03491306       0.02648786      -0.04105331 </v>
   <v>      -0.09487167      -0.00069226      -0.01549830 </v>
   <v>      -0.03491306      -0.02648786       0.04105331 </v>
   <v>      -0.07440326      -0.02108466      -0.03122301 </v>
   <v>       0.10805356      -0.03381389       0.01964183 </v>
   <v>       0.09487167       0.00069226       0.01549830 </v>
   <v>       0.00634196      -0.00232527       0.00897790 </v>
   <v>       0.01899401      -0.02632601       0.00373505 </v>
   <v>       0.02390519       0.03509187      -0.02497874 </v>
   <v>      -0.02643125       0.08436654       0.01953435 </v>
   <v>       0.01511450       0.06101994      -0.10345825 </v>
   <v>      -0.01899401       0.02632601      -0.00373505 </v>
   <v>       0.01521983      -0.01473263       0.02536124 </v>
   <v>      -0.01511450      -0.06101994       0.10345825 </v>
   <v>      -0.01521983       0.01473263      -0.02536124 </v>
   <v>      -0.07173100      -0.01519382      -0.06881591 </v>
   <v>       0.07173100       0.01519382       0.06881591 </v>
   <v>       0.02643125      -0.08436654      -0.01953435 </v>
   <v>      -0.02390519      -0.03509187       0.02497874 </v>
   <v>      -0.00634196       0.00232527      -0.00897790 </v>
  </varray>
  <varray name="stress" >
   <v>       0.52714089       0.27384020      -0.21069090 </v>
   <v>       0.27384020       0.19661772      -0.11502574 </v>
   <v>      -0.21068961      -0.11502490       2.15675104 </v>
  </varray>
  <energy>
   <i name="e_fr_energy">   -100.20483095 </i>
   <i name="e_wo_entrp">   -100.20483095 </i>
   <i name="e_0_energy">     -0.00000000 </i>
  </energy>
  <time name="totalsc">    5.81    6.05</time>
 </calculation>
 <calculation>
  <scstep>
   <time name="dav">    0.40    0.40</time>
   <time name="total">    0.68    0.71</time>
   <energy>
    <i name="alphaZ">    105.98054945 </i>
    <i name="ewald">  -4067.75541520 </i>
    <i name="hartreedc">   -913.20698709 </i>
    <i name="XCdc">   -519.33164053 </i>
    <i name="pawpsdc">   7013.24556390 </i>
    <i name="pawaedc">  -6240.42636013 </i>
    <i name="eentropy">     -0.00000000 </i>
    <i name="bandstr">   -298.68410746 </i>
    <i name="atom">   4819.97366116 </i>
    <i name="e_fr_energy">   -100.20473588 </i>
    <i name="e_wo_entrp">   -100.20473588 </i>
    <i name="e_0_energy">   -100.20473588 </i>
   </energy>
  </scstep>
  <scstep>
   <time name="dav">    1.04    1.05</time>
   <time name="total">    1.31    1.32</time>
   <energy>
    <i name="e_fr_energy">   -100.20475028 </i>
    <i name="e_wo_entrp">   -100.20475028 </i>
    <i name="e_0_energy">   -100.20475028 </i>
   </energy>
  </scstep>
  <scstep>
   <time name="dav">    0.73    0.74</time>
   <time name="total">    0.98    0.99</time>
   <energy>
    <i name="alphaZ">    105.98054945 </i>
    <i name="ewald">  -4067.75541520 </i>
    <i name="hartreedc">   -913.45245828 </i>
    <i name="XCdc">   -519.32938164 </i>
    <i name="pawpsdc">   7012.13677238 </i>
    <i name="pawaedc">  -6239.31685822 </i>
    <i name="eentropy">     -0.00000000 </i>
    <i name="bandstr">   -298.44157276 </i>
    <i name="atom">   4819.97366116 </i>
    <i name="e_fr_energy">   -100.20470311 </i>
    <i name="e_wo_entrp">   -100.20470311 </i>
    <i name="e_0_energy">   -100.20470311 </i>
   </energy>
  </scstep>
  <structure>
   <crystal>
    <varray name="basis" >
     <v>      -7.35785376       0.00916724      -0.31792247 </v>
     <v>       2.08349348       9.39727347      -0.10071172 </v>
     <v>      -0.86660080      -1.82586830     -11.26470761 </v>
    </varray>
    <i name="volume">    779.07362297 </i>
    <varray name="rec_basis" >
     <v>      -0.13611220       0.03023748       0.00557008 </v>
     <v>       0.00087765       0.10603434      -0.01725436 </v>
     <v>       0.00383363      -0.00180138      -0.08877577 </v>
    </varray>
   </crystal>
   <varray name="positions" >
    <v>       0.31110040       0.34432640       0.12061070 </v>
    <v>       0.42979042       0.75715232       0.58784327 </v>
    <v>       0.57020958       0.24284768       0.41215673 </v>
    <v>       0.68889960       0.65567360       0.87938930 </v>
    <v>       0.02258627       0.96091842       0.33189757 </v>
    <v>       0.14107783       0.44671120       0.80873224 </v>
    <v>       0.74963748       0.13060501       0.05006915 </v>
    <v>       0.52513412       0.20604610       0.75621657 </v>
    <v>       0.25036252       0.86939499       0.94993085 </v>
    <v>       0.97741373       0.03908158       0.66810243 </v>
    <v>       0.85892217       0.55328880       0.19126776 </v>
    <v>       0.47486588       0.79395390       0.24378343 </v>
    <v>       0.82201612       0.84938073       0.12904350 </v>
    <v>       0.67456245       0.35501487       0.95396315 </v>
    <v>       0.47416559       0.45720727       0.68852781 </v>
    <v>       0.27611561       0.01821297       0.52820954 </v>
    <v>       0.05572953       0.70099380       0.36615619 </v>
    <v>       0.32543755       0.64498513       0.04603685 </v>
    <v>       0.42284434       0.07913002       0.16995552 </v>
    <v>       0.94427047       0.29900620       0.63384381 </v>
    <v>       0.57715566       0.92086998       0.83004448 </v>
    <v>       0.91668313       0.30253509       0.23990535 </v>
    <v>       0.08331687       0.69746491       0.76009465 </v>
    <v>       0.72388439       0.98178703       0.47179046 </v>
    <v>       0.52583441       0.54279273       0.31147219 </v>
    <v>       0.17798388       0.15061927       0.87095650 </v>
   </varray>
  </structure>
  <varray name="forces" >
   <v>      -0.00208228      -0.00912988       0.02300359 </v>
   <v>       0.00988255       0.00037693      -0.01714499 </v>
   <v>      -0.00988255      -0.00037693       0.01714499 </v>
   <v>       0.00208228       0.00912988      -0.02300359 </v>
   <v>       0.09104075       0.08935958       0.03339337 </v>
   <v>      -0.02984566       0.03330979      -0.04615761 </v>
   <v>       0.05214433       0.01930650       0.02013354 </v>
   <v>       0.02495233       0.05551696       0.00794952 </v>
   <v>      -0.05214433      -0.01930650      -0.02013354 </v>
   <v>      -0.09104075      -0.08935958      -0.03339337 </v>
   <v>       0.02984566      -0.03330979       0.04615761 </v>
   <v>      -0.02495233      -0.05551696      -0.00794952 </v>
   <v>       0.01501739      -0.00451732       0.01612851 </v>
   <v>       0.01629060      -0.02240257      -0.00293960 </v>
   <v>       0.02071610       0.02237906      -0.03179229 </v>
   <v>      -0.02131119       0.07990517       0.02070740 </v>
   <v>       0.03683855       0.03126905      -0.08939582 </v>
   <v>      -0.01629060       0.02240257       0.00293960 </v>
   <v>       0.01529842      -0.01370373       0.02732639 </v>
   <v>      -0.03683855      -0.03126905       0.08939582 </v>
   <v>      -0.01529842       0.01370373      -0.02732639 </v>
   <v>      -0.06521413      -0.01213914      -0.05681322 </v>
   <v>       0.06521413       0.01213914       0.05681322 </v>
   <v>       0.02131119      -0.07990517      -0.02070740 </v>
   <v>      -0.02071610      -0.02237906       0.03179229 </v>
   <v>      -0.01501739       0.00451732      -0.01612851 </v>
  </varray>
  <varray name="stress" >
   <v>       0.79735708       0.20108354      -0.23793163 </v>
   <v>       0.20108444       0.69960715      -0.25610320 </v>
   <v>      -0.23793013      -0.25610193       1.99468145 </v>
  </varray>
  <energy>
   <i name="e_fr_energy">   -100.20470311 </i>
   <i name="e_wo_entrp">   -100.20470311 </i>
   <i name="e_0_energy">     -0.00000000 </i>
  </energy>
  <time name="totalsc">    4.27    4.43</time>
 </calculation>
 <calculation>
  <scstep>
   <time name="dav">    0.65    0.66</time>
   <time name="total">    0.94    1.01</time>
   <energy>
    <i name="alphaZ">    105.99797260 </i>
    <i name="ewald">  -4068.28801236 </i>
    <i name="hartreedc">   -913.29451561 </i>
    <i name="XCdc">   -519.32421068 </i>
    <i name="pawpsdc">   7011.80584777 </i>
    <i name="pawaedc">  -6238.98492425 </i>
    <i name="eentropy">     -0.00000000 </i>
    <i name="bandstr">   -298.09091621 </i>
    <i name="atom">   4819.97366116 </i>
    <i name="e_fr_energy">   -100.20509758 </i>
    <i name="e_wo_entrp">   -100.20509758 </i>
    <i name="e_0_energy">   -100.20509758 </i>
   </energy>
  </scstep>
  <scstep>
   <time name="dav">    0.94    0.95</time>
   <time name="total">    1.18    1.20</time>
   <energy>
    <i name="alphaZ">    105.99797260 </i>
    <i name="ewald">  -4068.28801236 </i>
    <i name="hartreedc">   -913.23007948 </i>
    <i name="XCdc">   -519.32521066 </i>
    <i name="pawpsdc">   7012.48855806 </i>
    <i name="pawaedc">  -6239.66711979 </i>
    <i name="eentropy">     -0.00000000 </i>
    <i name="bandstr">   -298.15488503 </i>
    <i name="atom">   4819.97366116 </i>
    <i name="e_fr_energy">   -100.20511550 </i>
    <i name="e_wo_entrp">   -100.20511550 </i>
    <i name="e_0_energy">   -100.20511550 </i>
   </energy>
  </scstep>
  <structure>
   <crystal>
    <varray name="basis" >
     <v>      -7.35858231       0.00893801      -0.31757175 </v>
     <v>       2.08403077       9.39794551      -0.10146571 </v>
     <v>      -0.86637252      -1.82515383     -11.26084584 </v>
    </varray>
    <i name="volume">    778.94556472 </i>
    <varray name="rec_basis" >
     <v>      -0.13609938       0.03024070       0.00556964 </v>
     <v>       0.00087332       0.10602631      -0.01725190 </v>
     <v>       0.00383033      -0.00180818      -0.08880490 </v>
    </varray>
   </crystal>
   <varray name="positions" >
    <v>       0.31109299       0.34431470       0.12059714 </v>
    <v>       0.42978322       0.75716034       0.58785339 </v>
    <v>       0.57021678       0.24283966       0.41214661 </v>
    <v>       0.68890701       0.65568530       0.87940286 </v>
    <v>       0.02250980       0.96105511       0.33195511 </v>
    <v>       0.14095457       0.44671855       0.80867739 </v>
    <v>       0.74962083       0.13060809       0.05008129 </v>
    <v>       0.52493417       0.20603638       0.75614097 </v>
    <v>       0.25037917       0.86939191       0.94991871 </v>
    <v>       0.97749020       0.03894489       0.66804489 </v>
    <v>       0.85904543       0.55328145       0.19132261 </v>
    <v>       0.47506583       0.79396362       0.24385903 </v>
    <v>       0.82200989       0.84936722       0.12903361 </v>
    <v>       0.67454864       0.35502650       0.95396127 </v>
    <v>       0.47415211       0.45717205       0.68852961 </v>
    <v>       0.27611064       0.01826314       0.52820365 </v>
    <v>       0.05566478       0.70097839       0.36619161 </v>
    <v>       0.32545136       0.64497350       0.04603873 </v>
    <v>       0.42282105       0.07911472       0.16994097 </v>
    <v>       0.94433522       0.29902161       0.63380839 </v>
    <v>       0.57717895       0.92088528       0.83005903 </v>
    <v>       0.91673499       0.30252789       0.23992987 </v>
    <v>       0.08326501       0.69747211       0.76007013 </v>
    <v>       0.72388936       0.98173686       0.47179635 </v>
    <v>       0.52584789       0.54282795       0.31147039 </v>
    <v>       0.17799011       0.15063278       0.87096639 </v>
   </varray>
  </structure>
  <varray name="forces" >
   <v>      -0.00253367      -0.00905851       0.02327065 </v>
   <v>       0.01032935      -0.00130983      -0.01570302 </v>
   <v>      -0.01032935       0.00130983       0.01570302 </v>
   <v>       0.00253367       0.00905851      -0.02327065 </v>
   <v>       0.10315039       0.11011046       0.02408313 </v>
   <v>      -0.05353407       0.04821654      -0.04950937 </v>
   <v>       0.05528384       0.01972570       0.01865650 </v>
   <v>      -0.02799257      -0.01147838      -0.00823362 </v>
   <v>      -0.05528384      -0.01972570      -0.01865650 </v>
   <v>      -0.10315039      -0.11011046      -0.02408313 </v>
   <v>       0.05353407      -0.04821654       0.04950937 </v>
   <v>       0.02799257       0.01147838       0.00823362 </v>
   <v>       0.01321263      -0.00439817       0.01824295 </v>
   <v>       0.01785318      -0.02353953       0.00030731 </v>
   <v>       0.02187537       0.02453490      -0.02967169 </v>
   <v>      -0.02791581       0.08248575       0.02444045 </v>
   <v>       0.02296711       0.04393762      -0.09635441 </v>
   <v>      -0.01785318       0.02353953      -0.00030731 </v>
   <v>       0.01597165      -0.01398149       0.02646008 </v>
   <v>      -0.02296711      -0.04393762       0.09635441 </v>
   <v>      -0.01597165       0.01398149      -0.02646008 </v>
   <v>      -0.06811717      -0.01377618      -0.06223270 </v>
   <v>       0.06811717       0.01377618       0.06223270 </v>
   <v>       0.02791581      -0.08248575      -0.02444045 </v>
   <v>      -0.02187537      -0.02453490       0.02967169 </v>
   <v>      -0.01321263       0.00439817      -0.01824295 </v>
  </varray>
  <varray name="stress" >
   <v>       0.81078714       0.44148195      -0.23646416 </v>
   <v>       0.44148332       0.54024238      -0.06798714 </v>
   <v>      -0.23646257      -0.06798509       1.39729180 </v>
  </varray>
  <energy>
   <i name="e_fr_energy">   -100.20511550 </i>
   <i name="e_wo_entrp">   -100.20511550 </i>
   <i name="e_0_energy">     -0.00000000 </i>
  </energy>
  <time name="totalsc">    3.46    3.65</time>
 </calculation>
 <calculation>
  <scstep>
   <time name="dav">    0.74    0.76</time>
   <time name="total">    1.03    1.13</time>
   <energy>
    <i name="alphaZ">    106.00835038 </i>
    <i name="ewald">  -4068.60450015 </i>
    <i name="hartreedc">   -913.06170056 </i>
    <i name="XCdc">   -519.32153996 </i>
    <i name="pawpsdc">   7013.16356173 </i>
    <i name="pawaedc">  -6240.34205654 </i>
    <i name="eentropy">     -0.00000000 </i>
    <i name="bandstr">   -298.02087436 </i>
    <i name="atom">   4819.97366116 </i>
    <i name="e_fr_energy">   -100.20509829 </i>
    <i name="e_wo_entrp">   -100.20509829 </i>
    <i name="e_0_energy">   -100.20509829 </i>
   </energy>
  </scstep>
  <scstep>
   <time name="dav">    0.41    0.42</time>
   <time name="total">    0.65    0.66</time>
   <energy>
    <i name="alphaZ">    106.00835038 </i>
    <i name="ewald">  -4068.60450015 </i>
    <i name="hartreedc">   -913.00273010 </i>
    <i name="XCdc">   -519.32186326 </i>
    <i name="pawpsdc">   7013.81387535 </i>
    <i name="pawaedc">  -6240.99235276 </i>
    <i name="eentropy">     -0.00000000 </i>
    <i name="bandstr">   -298.07952766 </i>
    <i name="atom">   4819.97366116 </i>
    <i name="e_fr_energy">   -100.20508704 </i>
    <i name="e_wo_entrp">   -100.20508704 </i>
    <i name="e_0_energy">   -100.20508704 </i>
   </energy>
  </scstep>
  <structure>
   <crystal>
    <varray name="basis" >
     <v>      -7.35901591       0.00880158      -0.31736302 </v>
     <v>       2.08435054       9.39834548      -0.10191445 </v>
     <v>      -0.86623666      -1.82472861     -11.25854748 </v>
    </varray>
    <i name="volume">    778.86930913 </i>
    <varray name="rec_basis" >
     <v>      -0.13609175       0.03024261       0.00556938 </v>
     <v>       0.00087074       0.10602153      -0.01725043 </v>
     <v>       0.00382836      -0.00181222      -0.08882224 </v>
    </varray>
   </crystal>
   <varray name="positions" >
    <v>       0.31108857       0.34430773       0.12058906 </v>
    <v>       0.42977893       0.75716511       0.58785941 </v>
    <v>       0.57022107       0.24283489       0.41214059 </v>
    <v>       0.68891143       0.65569227       0.87941094 </v>
    <v>       0.02246430       0.96113645       0.33198935 </v>
    <v>       0.14088123       0.44672292       0.80864473 </v>
    <v>       0.74961092       0.13060993       0.05008851 </v>
    <v>       0.52481518       0.20603059       0.75609595 </v>
    <v>       0.25038908       0.86939007       0.94991149 </v>
    <v>       0.97753570       0.03886355       0.66801065 </v>
    <v>       0.85911877       0.55327708       0.19135527 </v>
    <v>       0.47518482       0.79396941       0.24390405 </v>
    <v>       0.82200619       0.84935918       0.12902772 </v>
    <v>       0.67454042       0.35503343       0.95396016 </v>
    <v>       0.47414408       0.45715108       0.68853068 </v>
    <v>       0.27610768       0.01829299       0.52820014 </v>
    <v>       0.05562625       0.70096922       0.36621270 </v>
    <v>       0.32545958       0.64496657       0.04603984 </v>
    <v>       0.42280719       0.07910561       0.16993231 </v>
    <v>       0.94437375       0.29903078       0.63378730 </v>
    <v>       0.57719281       0.92089439       0.83006769 </v>
    <v>       0.91676585       0.30252361       0.23994446 </v>
    <v>       0.08323415       0.69747639       0.76005554 </v>
    <v>       0.72389232       0.98170701       0.47179986 </v>
    <v>       0.52585592       0.54284892       0.31146932 </v>
    <v>       0.17799381       0.15064082       0.87097228 </v>
   </varray>
  </structure>
  <varray name="forces" >
   <v>      -0.00274859      -0.00909221       0.02359187 </v>
   <v>       0.01042393      -0.00177363      -0.01579553 </v>
   <v>      -0.01042393       0.00177363       0.01579553 </v>
   <v>       0.00274859       0.00909221      -0.02359187 </v>
   <v>       0.04944637       0.04687638      -0.00704579 </v>
   <v>      -0.09165129       0.05276187      -0.04115072 </v>
   <v>       0.05588032       0.01809450      -0.01932402 </v>
   <v>      -0.11251534      -0.00345480      -0.02410508 </v>
   <v>      -0.05588032      -0.01809450       0.01932402 </v>
   <v>      -0.04944637      -0.04687638       0.00704579 </v>
   <v>       0.09165129      -0.05276187       0.04115072 </v>
   <v>       0.11251534       0.00345480       0.02410508 </v>
   <v>       0.01209869      -0.00415062       0.01943942 </v>
   <v>       0.01851347      -0.02485282       0.00231904 </v>
   <v>       0.02301877       0.02537905      -0.02794469 </v>
   <v>      -0.02463666       0.08127927       0.01732735 </v>
   <v>       0.01250922       0.05544672      -0.09761586 </v>
   <v>      -0.01851347       0.02485282      -0.00231904 </v>
   <v>       0.01601943      -0.01434033       0.02595630 </v>
   <v>      -0.01250922      -0.05544672       0.09761586 </v>
   <v>      -0.01601943       0.01434033      -0.02595630 </v>
   <v>      -0.06936052      -0.01494955      -0.06548770 </v>
   <v>       0.06936052       0.01494955       0.06548770 </v>
   <v>       0.02463666      -0.08127927      -0.01732735 </v>
   <v>      -0.02301877      -0.02537905       0.02794469 </v>
   <v>      -0.01209869       0.00415062      -0.01943942 </v>
  </varray>
  <varray name="stress" >
   <v>       0.30209296       0.23710181      -0.33125008 </v>
   <v>       0.23710242       0.21050127      -0.11626388 </v>
   <v>      -0.33124837      -0.11626256       1.62863300 </v>
  </varray>
  <energy>
   <i name="e_fr_energy">   -100.20508704 </i>
   <i name="e_wo_entrp">   -100.20508704 </i>
   <i name="e_0_energy">     -0.00000000 </i>
  </energy>
  <time name="totalsc">    2.96    3.25</time>
 </calculation>
 <calculation>
  <scstep>
   <time name="dav">    0.89    0.91</time>
   <time name="total">    1.18    1.24</time>
   <energy>
    <i name="alphaZ">    106.00261904 </i>
    <i name="ewald">  -4068.42977472 </i>
    <i name="hartreedc">   -913.03489322 </i>
    <i name="XCdc">   -519.32342855 </i>
    <i name="pawpsdc">   7014.35123772 </i>
    <i name="pawaedc">  -6241.52999048 </i>
    <i name="eentropy">     -0.00000000 </i>
    <i name="bandstr">   -298.21457034 </i>
    <i name="atom">   4819.97366116 </i>
    <i name="e_fr_energy">   -100.20513939 </i>
    <i name="e_wo_entrp">   -100.20513939 </i>
    <i name="e_0_energy">   -100.20513939 </i>
   </energy>
  </scstep>
  <scstep>
   <time name="dav">    0.57    0.58</time>
   <time name="total">    0.82    0.83</time>
   <energy>
    <i name="alphaZ">    106.00261904 </i>
    <i name="ewald">  -4068.42977472 </i>
    <i name="hartreedc">   -913.04870619 </i>
    <i name="XCdc">   -519.32289008 </i>
    <i name="pawpsdc">   7014.23824355 </i>
    <i name="pawaedc">  -6241.41726588 </i>
    <i name="eentropy">     -0.00000000 </i>
    <i name="bandstr">   -298.20102874 </i>
    <i name="atom">   4819.97366116 </i>
    <i name="e_fr_energy">   -100.20514185 </i>
    <i name="e_wo_entrp">   -100.20514185 </i>
    <i name="e_0_energy">   -100.20514185 </i>
   </energy>
  </scstep>
  <structure>
   <crystal>
    <varray name="basis" >
     <v>      -7.35877648       0.00887692      -0.31747828 </v>
     <v>       2.08417396       9.39812462      -0.10166666 </v>
     <v>      -0.86631169      -1.82496342     -11.25981663 </v>
    </varray>
    <i name="volume">    778.91142098 </i>
    <varray name="rec_basis" >
     <v>      -0.13609596       0.03024155       0.00556952 </v>
     <v>       0.00087216       0.10602417      -0.01725124 </v>
     <v>       0.00382944      -0.00180999      -0.08881267 </v>
    </varray>
   </crystal>
   <varray name="positions" >
    <v>       0.31109101       0.34431158       0.12059352 </v>
    <v>       0.42978130       0.75716248       0.58785609 </v>
    <v>       0.57021870       0.24283752       0.41214391 </v>
    <v>       0.68890899       0.65568842       0.87940648 </v>
    <v>       0.02248942       0.96109154       0.33197044 </v>
    <v>       0.14092173       0.44672051       0.80866277 </v>
    <v>       0.74961639       0.13060892       0.05008452 </v>
    <v>       0.52488088       0.20603379       0.75612082 </v>
    <v>       0.25038361       0.86939108       0.94991548 </v>
    <v>       0.97751058       0.03890846       0.66802956 </v>
    <v>       0.85907827       0.55327949       0.19133723 </v>
    <v>       0.47511912       0.79396621       0.24387918 </v>
    <v>       0.82200823       0.84936362       0.12903097 </v>
    <v>       0.67454495       0.35502960       0.95396077 </v>
    <v>       0.47414852       0.45716266       0.68853009 </v>
    <v>       0.27610931       0.01827651       0.52820208 </v>
    <v>       0.05564752       0.70097428       0.36620105 </v>
    <v>       0.32545505       0.64497040       0.04603923 </v>
    <v>       0.42281485       0.07911064       0.16993710 </v>
    <v>       0.94435248       0.29902572       0.63379895 </v>
    <v>       0.57718515       0.92088936       0.83006290 </v>
    <v>       0.91674881       0.30252597       0.23993640 </v>
    <v>       0.08325119       0.69747403       0.76006360 </v>
    <v>       0.72389069       0.98172349       0.47179792 </v>
    <v>       0.52585148       0.54283734       0.31146991 </v>
    <v>       0.17799177       0.15063638       0.87096903 </v>
   </varray>
  </structure>
  <varray name="forces" >
   <v>      -0.00273627      -0.00890668       0.02323819 </v>
   <v>       0.01035691      -0.00161946      -0.01565203 </v>
   <v>      -0.01035691       0.00161946       0.01565203 </v>
   <v>       0.00273627       0.00890668      -0.02323819 </v>
   <v>       0.10672564       0.11579743       0.02178906 </v>
   <v>      -0.09866323       0.05138470      -0.04553032 </v>
   <v>       0.05715422       0.02097346       0.01953873 </v>
   <v>      -0.05363878      -0.01459066      -0.01740746 </v>
   <v>      -0.05715422      -0.02097346      -0.01953873 </v>
   <v>      -0.10672564      -0.11579743      -0.02178906 </v>
   <v>       0.09866323      -0.05138470       0.04553032 </v>
   <v>       0.05363878       0.01459066       0.01740746 </v>
   <v>       0.01321502      -0.00482464       0.01876819 </v>
   <v>       0.01867472      -0.02352423       0.00087155 </v>
   <v>       0.02330031       0.02279147      -0.02836553 </v>
   <v>      -0.02105388       0.08272190       0.01603992 </v>
   <v>       0.01477077       0.05127216      -0.09735187 </v>
   <v>      -0.01867472       0.02352423      -0.00087155 </v>
   <v>       0.01606852      -0.01446227       0.02639270 </v>
   <v>      -0.01477077      -0.05127216       0.09735187 </v>
   <v>      -0.01606852       0.01446227      -0.02639270 </v>
   <v>      -0.06995381      -0.01449288      -0.06511613 </v>
   <v>       0.06995381       0.01449288       0.06511613 </v>
   <v>       0.02105388      -0.08272190      -0.01603992 </v>
   <v>      -0.02330031      -0.02279147       0.02836553 </v>
   <v>      -0.01321502       0.00482464      -0.01876819 </v>
  </varray>
  <varray name="stress" >
   <v>       0.88142633       0.40342438      -0.15740810 </v>
   <v>       0.40342543       0.65074075      -0.05054900 </v>
[...]
        <r>  0.0000  0.0002  0.0000 </r>
        <r>  0.0052  0.0495  0.0016 </r>
        <r>  0.0058  0.0275  0.0011 </r>
        <r>  0.0000  0.0229  0.0006 </r>
        <r>  0.0012  0.0145  0.0002 </r>
        <r>  0.0000  0.0229  0.0006 </r>
        <r>  0.0052  0.0495  0.0016 </r>
        <r>  0.0058  0.0275  0.0011 </r>
        <r>  0.0012  0.0145  0.0002 </r>
        <r>  0.0001  0.0132  0.0013 </r>
        <r>  0.0017  0.0057  0.0005 </r>
        <r>  0.0001  0.0053  0.0009 </r>
        <r>  0.0003  0.0038  0.0014 </r>
        <r>  0.0079  0.0363  0.0019 </r>
        <r>  0.0017  0.0057  0.0005 </r>
        <r>  0.0005  0.0073  0.0009 </r>
        <r>  0.0079  0.0363  0.0019 </r>
        <r>  0.0005  0.0073  0.0009 </r>
        <r>  0.0076  0.0104  0.0020 </r>
        <r>  0.0076  0.0104  0.0020 </r>
        <r>  0.0003  0.0038  0.0014 </r>
        <r>  0.0001  0.0053  0.0009 </r>
        <r>  0.0001  0.0132  0.0013 </r>
       </set>
       <set comment="band 70">
        <r>  0.0004  0.0014  0.0000 </r>
        <r>  0.0005  0.0003  0.0000 </r>
        <r>  0.0005  0.0003  0.0000 </r>
        <r>  0.0004  0.0014  0.0000 </r>
        <r>  0.0016  0.0055  0.0012 </r>
        <r>  0.0011  0.0304  0.0021 </r>
        <r>  0.0015  0.0485  0.0009 </r>
        <r>  0.0000  0.0319  0.0006 </r>
        <r>  0.0015  0.0485  0.0009 </r>
        <r>  0.0016  0.0055  0.0012 </r>
        <r>  0.0011  0.0304  0.0021 </r>
        <r>  0.0000  0.0319  0.0006 </r>
        <r>  0.0012  0.0065  0.0023 </r>
        <r>  0.0092  0.0202  0.0022 </r>
        <r>  0.0009  0.0100  0.0010 </r>
        <r>  0.0004  0.0154  0.0006 </r>
        <r>  0.0011  0.0185  0.0008 </r>
        <r>  0.0092  0.0202  0.0022 </r>
        <r>  0.0036  0.0060  0.0013 </r>
        <r>  0.0011  0.0185  0.0008 </r>
        <r>  0.0036  0.0060  0.0013 </r>
        <r>  0.0007  0.0110  0.0016 </r>
        <r>  0.0007  0.0110  0.0016 </r>
        <r>  0.0004  0.0154  0.0006 </r>
        <r>  0.0009  0.0100  0.0010 </r>
        <r>  0.0012  0.0065  0.0023 </r>
       </set>
       <set comment="band 71">
        <r>  0.0016  0.0008  0.0000 </r>
        <r>  0.0000  0.0005  0.0000 </r>
        <r>  0.0000  0.0005  0.0000 </r>
        <r>  0.0016  0.0008  0.0000 </r>
        <r>  0.0085  0.0587  0.0009 </r>
        <r>  0.0014  0.0301  0.0007 </r>
        <r>  0.0007  0.0216  0.0006 </r>
        <r>  0.0002  0.0119  0.0004 </r>
        <r>  0.0007  0.0216  0.0006 </r>
        <r>  0.0085  0.0587  0.0009 </r>
        <r>  0.0014  0.0301  0.0007 </r>
        <r>  0.0002  0.0119  0.0004 </r>
        <r>  0.0017  0.0125  0.0031 </r>
        <r>  0.0001  0.0053  0.0012 </r>
        <r>  0.0006  0.0033  0.0012 </r>
        <r>  0.0038  0.0172  0.0009 </r>
        <r>  0.0014  0.0213  0.0020 </r>
        <r>  0.0001  0.0053  0.0012 </r>
        <r>  0.0009  0.0082  0.0019 </r>
        <r>  0.0014  0.0213  0.0020 </r>
        <r>  0.0009  0.0082  0.0019 </r>
        <r>  0.0027  0.0137  0.0008 </r>
        <r>  0.0027  0.0137  0.0008 </r>
        <r>  0.0038  0.0172  0.0009 </r>
        <r>  0.0006  0.0033  0.0012 </r>
        <r>  0.0017  0.0125  0.0031 </r>
       </set>
       <set comment="band 72">
        <r>  0.0001  0.0007  0.0000 </r>
        <r>  0.0016  0.0005  0.0000 </r>
        <r>  0.0016  0.0005  0.0000 </r>
        <r>  0.0001  0.0007  0.0000 </r>
        <r>  0.0003  0.0217  0.0012 </r>
        <r>  0.0041  0.0213  0.0003 </r>
        <r>  0.0007  0.0253  0.0010 </r>
        <r>  0.0005  0.0388  0.0005 </r>
        <r>  0.0007  0.0253  0.0010 </r>
        <r>  0.0003  0.0217  0.0012 </r>
        <r>  0.0041  0.0213  0.0003 </r>
        <r>  0.0005  0.0388  0.0005 </r>
        <r>  0.0067  0.0121  0.0012 </r>
        <r>  0.0019  0.0120  0.0019 </r>
        <r>  0.0050  0.0129  0.0012 </r>
        <r>  0.0007  0.0114  0.0012 </r>
        <r>  0.0014  0.0235  0.0013 </r>
        <r>  0.0019  0.0120  0.0019 </r>
        <r>  0.0018  0.0149  0.0011 </r>
        <r>  0.0014  0.0235  0.0013 </r>
        <r>  0.0018  0.0149  0.0011 </r>
        <r>  0.0027  0.0145  0.0009 </r>
        <r>  0.0027  0.0145  0.0009 </r>
        <r>  0.0007  0.0114  0.0012 </r>
        <r>  0.0050  0.0129  0.0012 </r>
        <r>  0.0067  0.0121  0.0012 </r>
       </set>
       <set comment="band 73">
        <r>  0.0022  0.0006  0.0000 </r>
        <r>  0.0002  0.0001  0.0000 </r>
        <r>  0.0002  0.0001  0.0000 </r>
        <r>  0.0022  0.0006  0.0000 </r>
        <r>  0.0015  0.0474  0.0013 </r>
        <r>  0.0009  0.0135  0.0011 </r>
        <r>  0.0011  0.0423  0.0005 </r>
        <r>  0.0003  0.0239  0.0009 </r>
        <r>  0.0011  0.0423  0.0005 </r>
        <r>  0.0015  0.0474  0.0013 </r>
        <r>  0.0009  0.0135  0.0011 </r>
        <r>  0.0003  0.0239  0.0009 </r>
        <r>  0.0053  0.0126  0.0011 </r>
        <r>  0.0012  0.0212  0.0026 </r>
        <r>  0.0009  0.0087  0.0005 </r>
        <r>  0.0003  0.0149  0.0023 </r>
        <r>  0.0005  0.0216  0.0019 </r>
        <r>  0.0012  0.0212  0.0026 </r>
        <r>  0.0025  0.0061  0.0010 </r>
        <r>  0.0005  0.0216  0.0019 </r>
        <r>  0.0025  0.0061  0.0010 </r>
        <r>  0.0002  0.0077  0.0008 </r>
        <r>  0.0002  0.0077  0.0008 </r>
        <r>  0.0003  0.0149  0.0023 </r>
        <r>  0.0009  0.0087  0.0005 </r>
        <r>  0.0053  0.0126  0.0011 </r>
       </set>
       <set comment="band 74">
        <r>  0.0000  0.0003  0.0000 </r>
        <r>  0.0022  0.0007  0.0000 </r>
        <r>  0.0022  0.0007  0.0000 </r>
        <r>  0.0000  0.0003  0.0000 </r>
        <r>  0.0002  0.0272  0.0006 </r>
        <r>  0.0003  0.0578  0.0019 </r>
        <r>  0.0006  0.0198  0.0003 </r>
        <r>  0.0004  0.0207  0.0006 </r>
        <r>  0.0006  0.0198  0.0003 </r>
        <r>  0.0002  0.0272  0.0006 </r>
        <r>  0.0003  0.0578  0.0019 </r>
        <r>  0.0004  0.0207  0.0006 </r>
        <r>  0.0001  0.0117  0.0019 </r>
        <r>  0.0000  0.0186  0.0019 </r>
        <r>  0.0043  0.0188  0.0019 </r>
        <r>  0.0005  0.0157  0.0007 </r>
        <r>  0.0020  0.0106  0.0009 </r>
        <r>  0.0000  0.0186  0.0019 </r>
        <r>  0.0003  0.0099  0.0012 </r>
        <r>  0.0020  0.0106  0.0009 </r>
        <r>  0.0003  0.0099  0.0012 </r>
        <r>  0.0004  0.0148  0.0016 </r>
        <r>  0.0004  0.0148  0.0016 </r>
        <r>  0.0005  0.0157  0.0007 </r>
        <r>  0.0043  0.0188  0.0019 </r>
        <r>  0.0001  0.0117  0.0019 </r>
       </set>
       <set comment="band 75">
        <r>  0.0002  0.0003  0.0000 </r>
        <r>  0.0002  0.0004  0.0000 </r>
        <r>  0.0002  0.0004  0.0000 </r>
        <r>  0.0002  0.0003  0.0000 </r>
        <r>  0.0040  0.0212  0.0015 </r>
        <r>  0.0041  0.0347  0.0008 </r>
        <r>  0.0002  0.0377  0.0014 </r>
        <r>  0.0002  0.0198  0.0005 </r>
        <r>  0.0002  0.0377  0.0014 </r>
        <r>  0.0040  0.0212  0.0015 </r>
        <r>  0.0041  0.0347  0.0008 </r>
        <r>  0.0002  0.0198  0.0005 </r>
        <r>  0.0017  0.0018  0.0012 </r>
        <r>  0.0012  0.0160  0.0018 </r>
        <r>  0.0008  0.0194  0.0022 </r>
        <r>  0.0001  0.0123  0.0005 </r>
        <r>  0.0014  0.0324  0.0018 </r>
        <r>  0.0012  0.0160  0.0018 </r>
        <r>  0.0014  0.0069  0.0014 </r>
        <r>  0.0014  0.0324  0.0018 </r>
        <r>  0.0014  0.0069  0.0014 </r>
        <r>  0.0005  0.0195  0.0022 </r>
        <r>  0.0005  0.0195  0.0022 </r>
        <r>  0.0001  0.0123  0.0005 </r>
        <r>  0.0008  0.0194  0.0022 </r>
        <r>  0.0017  0.0018  0.0012 </r>
       </set>
       <set comment="band 76">
        <r>  0.0020  0.0006  0.0000 </r>
        <r>  0.0044  0.0007  0.0000 </r>
        <r>  0.0044  0.0007  0.0000 </r>
        <r>  0.0020  0.0006  0.0000 </r>
        <r>  0.0005  0.0267  0.0008 </r>
        <r>  0.0009  0.0212  0.0013 </r>
        <r>  0.0011  0.0321  0.0005 </r>
        <r>  0.0004  0.0512  0.0004 </r>
        <r>  0.0011  0.0321  0.0005 </r>
        <r>  0.0005  0.0267  0.0008 </r>
        <r>  0.0009  0.0212  0.0013 </r>
        <r>  0.0004  0.0512  0.0004 </r>
        <r>  0.0004  0.0095  0.0019 </r>
        <r>  0.0000  0.0053  0.0010 </r>
        <r>  0.0028  0.0200  0.0027 </r>
        <r>  0.0005  0.0032  0.0013 </r>
        <r>  0.0010  0.0159  0.0010 </r>
        <r>  0.0000  0.0053  0.0010 </r>
        <r>  0.0002  0.0187  0.0028 </r>
        <r>  0.0010  0.0159  0.0010 </r>
        <r>  0.0002  0.0187  0.0028 </r>
        <r>  0.0005  0.0186  0.0010 </r>
        <r>  0.0005  0.0186  0.0010 </r>
        <r>  0.0005  0.0032  0.0013 </r>
        <r>  0.0028  0.0200  0.0027 </r>
        <r>  0.0004  0.0095  0.0019 </r>
       </set>
       <set comment="band 77">
        <r>  0.0008  0.0002  0.0000 </r>
        <r>  0.0009  0.0001  0.0000 </r>
        <r>  0.0009  0.0001  0.0000 </r>
        <r>  0.0008  0.0002  0.0000 </r>
        <r>  0.0007  0.0239  0.0016 </r>
        <r>  0.0066  0.0346  0.0004 </r>
        <r>  0.0011  0.0400  0.0013 </r>
        <r>  0.0005  0.0234  0.0007 </r>
        <r>  0.0011  0.0400  0.0013 </r>
        <r>  0.0007  0.0239  0.0016 </r>
        <r>  0.0066  0.0346  0.0004 </r>
        <r>  0.0005  0.0234  0.0007 </r>
        <r>  0.0003  0.0090  0.0009 </r>
        <r>  0.0004  0.0056  0.0019 </r>
        <r>  0.0020  0.0217  0.0023 </r>
        <r>  0.0005  0.0141  0.0005 </r>
        <r>  0.0008  0.0246  0.0011 </r>
        <r>  0.0004  0.0056  0.0019 </r>
        <r>  0.0001  0.0093  0.0019 </r>
        <r>  0.0008  0.0246  0.0011 </r>
        <r>  0.0001  0.0093  0.0019 </r>
        <r>  0.0002  0.0296  0.0023 </r>
        <r>  0.0002  0.0296  0.0023 </r>
        <r>  0.0005  0.0141  0.0005 </r>
        <r>  0.0020  0.0217  0.0023 </r>
        <r>  0.0003  0.0090  0.0009 </r>
       </set>
       <set comment="band 78">
        <r>  0.0002  0.0013  0.0000 </r>
        <r>  0.0020  0.0008  0.0000 </r>
        <r>  0.0020  0.0008  0.0000 </r>
        <r>  0.0002  0.0013  0.0000 </r>
        <r>  0.0008  0.0089  0.0007 </r>
        <r>  0.0030  0.0260  0.0012 </r>
        <r>  0.0051  0.0164  0.0016 </r>
        <r>  0.0006  0.0605  0.0010 </r>
        <r>  0.0051  0.0164  0.0016 </r>
        <r>  0.0008  0.0089  0.0007 </r>
        <r>  0.0030  0.0260  0.0012 </r>
        <r>  0.0006  0.0605  0.0010 </r>
        <r>  0.0004  0.0188  0.0037 </r>
        <r>  0.0025  0.0130  0.0010 </r>
        <r>  0.0017  0.0254  0.0025 </r>
        <r>  0.0005  0.0024  0.0008 </r>
        <r>  0.0008  0.0073  0.0016 </r>
        <r>  0.0025  0.0130  0.0010 </r>
        <r>  0.0048  0.0233  0.0005 </r>
        <r>  0.0008  0.0073  0.0016 </r>
        <r>  0.0048  0.0233  0.0005 </r>
        <r>  0.0001  0.0089  0.0011 </r>
        <r>  0.0001  0.0089  0.0011 </r>
        <r>  0.0005  0.0024  0.0008 </r>
        <r>  0.0017  0.0254  0.0025 </r>
        <r>  0.0004  0.0188  0.0037 </r>
       </set>
       <set comment="band 79">
        <r>  0.0010  0.0008  0.0000 </r>
        <r>  0.0031  0.0010  0.0000 </r>
        <r>  0.0031  0.0010  0.0000 </r>
        <r>  0.0010  0.0008  0.0000 </r>
        <r>  0.0016  0.0205  0.0010 </r>
        <r>  0.0040  0.0399  0.0016 </r>
        <r>  0.0009  0.0211  0.0008 </r>
        <r>  0.0016  0.0319  0.0004 </r>
        <r>  0.0009  0.0211  0.0008 </r>
        <r>  0.0016  0.0205  0.0010 </r>
        <r>  0.0040  0.0399  0.0016 </r>
        <r>  0.0016  0.0319  0.0004 </r>
        <r>  0.0031  0.0088  0.0008 </r>
        <r>  0.0000  0.0056  0.0017 </r>
        <r>  0.0050  0.0305  0.0030 </r>
        <r>  0.0002  0.0108  0.0016 </r>
        <r>  0.0008  0.0164  0.0015 </r>
        <r>  0.0000  0.0056  0.0017 </r>
        <r>  0.0001  0.0204  0.0021 </r>
        <r>  0.0008  0.0164  0.0015 </r>
        <r>  0.0001  0.0204  0.0021 </r>
        <r>  0.0003  0.0060  0.0013 </r>
        <r>  0.0003  0.0060  0.0013 </r>
        <r>  0.0002  0.0108  0.0016 </r>
        <r>  0.0050  0.0305  0.0030 </r>
        <r>  0.0031  0.0088  0.0008 </r>
       </set>
       <set comment="band 80">
        <r>  0.0012  0.0004  0.0000 </r>
        <r>  0.0002  0.0012  0.0000 </r>
        <r>  0.0002  0.0012  0.0000 </r>
        <r>  0.0012  0.0004  0.0000 </r>
        <r>  0.0002  0.0339  0.0003 </r>
        <r>  0.0008  0.0445  0.0014 </r>
        <r>  0.0004  0.0275  0.0006 </r>
        <r>  0.0007  0.0148  0.0015 </r>
        <r>  0.0004  0.0275  0.0006 </r>
        <r>  0.0002  0.0339  0.0003 </r>
        <r>  0.0008  0.0445  0.0014 </r>
        <r>  0.0007  0.0148  0.0015 </r>
        <r>  0.0013  0.0064  0.0018 </r>
        <r>  0.0004  0.0215  0.0017 </r>
        <r>  0.0002  0.0114  0.0017 </r>
        <r>  0.0007  0.0311  0.0019 </r>
        <r>  0.0012  0.0159  0.0019 </r>
        <r>  0.0004  0.0215  0.0017 </r>
        <r>  0.0021  0.0148  0.0013 </r>
        <r>  0.0012  0.0159  0.0019 </r>
        <r>  0.0021  0.0148  0.0013 </r>
        <r>  0.0009  0.0134  0.0015 </r>
        <r>  0.0009  0.0134  0.0015 </r>
        <r>  0.0007  0.0311  0.0019 </r>
        <r>  0.0002  0.0114  0.0017 </r>
        <r>  0.0013  0.0064  0.0018 </r>
       </set>
       <set comment="band 81">
        <r>  0.0024  0.0007  0.0000 </r>
        <r>  0.0005  0.0009  0.0000 </r>
        <r>  0.0005  0.0009  0.0000 </r>
        <r>  0.0024  0.0007  0.0000 </r>
        <r>  0.0007  0.0352  0.0012 </r>
        <r>  0.0023  0.0126  0.0010 </r>
        <r>  0.0009  0.0536  0.0004 </r>
        <r>  0.0004  0.0262  0.0003 </r>
        <r>  0.0009  0.0536  0.0004 </r>
        <r>  0.0007  0.0352  0.0012 </r>
        <r>  0.0023  0.0126  0.0010 </r>
        <r>  0.0004  0.0262  0.0003 </r>
        <r>  0.0007  0.0115  0.0014 </r>
        <r>  0.0006  0.0059  0.0008 </r>
        <r>  0.0002  0.0167  0.0015 </r>
        <r>  0.0003  0.0040  0.0011 </r>
        <r>  0.0008  0.0229  0.0009 </r>
        <r>  0.0006  0.0059  0.0008 </r>
        <r>  0.0021  0.0262  0.0031 </r>
        <r>  0.0008  0.0229  0.0009 </r>
        <r>  0.0021  0.0262  0.0031 </r>
        <r>  0.0023  0.0285  0.0017 </r>
        <r>  0.0023  0.0285  0.0017 </r>
        <r>  0.0003  0.0040  0.0011 </r>
        <r>  0.0002  0.0167  0.0015 </r>
        <r>  0.0007  0.0115  0.0014 </r>
       </set>
       <set comment="band 82">
        <r>  0.0001  0.0004  0.0000 </r>
        <r>  0.0019  0.0002  0.0000 </r>
        <r>  0.0019  0.0002  0.0000 </r>
        <r>  0.0001  0.0004  0.0000 </r>
        <r>  0.0022  0.0216  0.0014 </r>
        <r>  0.0016  0.0105  0.0008 </r>
        <r>  0.0000  0.0242  0.0005 </r>
        <r>  0.0033  0.0624  0.0020 </r>
        <r>  0.0000  0.0242  0.0005 </r>
        <r>  0.0022  0.0216  0.0014 </r>
        <r>  0.0016  0.0105  0.0008 </r>
        <r>  0.0033  0.0624  0.0020 </r>
        <r>  0.0023  0.0649  0.0013 </r>
        <r>  0.0000  0.0043  0.0024 </r>
        <r>  0.0010  0.0129  0.0012 </r>
        <r>  0.0040  0.0208  0.0013 </r>
        <r>  0.0009  0.0094  0.0018 </r>
        <r>  0.0000  0.0043  0.0024 </r>
        <r>  0.0023  0.0054  0.0021 </r>
        <r>  0.0009  0.0094  0.0018 </r>
        <r>  0.0023  0.0054  0.0021 </r>
        <r>  0.0003  0.0020  0.0008 </r>
        <r>  0.0003  0.0020  0.0008 </r>
        <r>  0.0040  0.0208  0.0013 </r>
        <r>  0.0010  0.0129  0.0012 </r>
        <r>  0.0023  0.0649  0.0013 </r>
       </set>
       <set comment="band 83">
        <r>  0.0003  0.0001  0.0000 </r>
        <r>  0.0024  0.0018  0.0000 </r>
        <r>  0.0024  0.0018  0.0000 </r>
        <r>  0.0003  0.0001  0.0000 </r>
        <r>  0.0001  0.0126  0.0005 </r>
        <r>  0.0002  0.0355  0.0008 </r>
        <r>  0.0005  0.0278  0.0010 </r>
        <r>  0.0026  0.0358  0.0030 </r>
        <r>  0.0005  0.0278  0.0010 </r>
        <r>  0.0001  0.0126  0.0005 </r>
        <r>  0.0002  0.0355  0.0008 </r>
        <r>  0.0026  0.0358  0.0030 </r>
        <r>  0.0005  0.0075  0.0012 </r>
        <r>  0.0004  0.0549  0.0005 </r>
        <r>  0.0001  0.0010  0.0025 </r>
        <r>  0.0014  0.0172  0.0015 </r>
        <r>  0.0022  0.0128  0.0030 </r>
        <r>  0.0004  0.0549  0.0005 </r>
        <r>  0.0006  0.0118  0.0017 </r>
        <r>  0.0022  0.0128  0.0030 </r>
        <r>  0.0006  0.0118  0.0017 </r>
        <r>  0.0013  0.0181  0.0007 </r>
        <r>  0.0013  0.0181  0.0007 </r>
        <r>  0.0014  0.0172  0.0015 </r>
        <r>  0.0001  0.0010  0.0025 </r>
        <r>  0.0005  0.0075  0.0012 </r>
       </set>
       <set comment="band 84">
        <r>  0.0025  0.0005  0.0000 </r>
        <r>  0.0001  0.0008  0.0000 </r>
        <r>  0.0001  0.0008  0.0000 </r>
        <r>  0.0025  0.0005  0.0000 </r>
        <r>  0.0000  0.0278  0.0007 </r>
        <r>  0.0006  0.0553  0.0007 </r>
        <r>  0.0003  0.0353  0.0008 </r>
        <r>  0.0002  0.0090  0.0005 </r>
        <r>  0.0003  0.0353  0.0008 </r>
        <r>  0.0000  0.0278  0.0007 </r>
        <r>  0.0006  0.0553  0.0007 </r>
        <r>  0.0002  0.0090  0.0005 </r>
        <r>  0.0004  0.0478  0.0007 </r>
        <r>  0.0012  0.0112  0.0030 </r>
        <r>  0.0008  0.0051  0.0010 </r>
        <r>  0.0004  0.0091  0.0009 </r>
        <r>  0.0013  0.0106  0.0027 </r>
        <r>  0.0012  0.0112  0.0030 </r>
        <r>  0.0003  0.0036  0.0007 </r>
        <r>  0.0013  0.0106  0.0027 </r>
        <r>  0.0003  0.0036  0.0007 </r>
        <r>  0.0024  0.0336  0.0022 </r>
        <r>  0.0024  0.0336  0.0022 </r>
        <r>  0.0004  0.0091  0.0009 </r>
        <r>  0.0008  0.0051  0.0010 </r>
        <r>  0.0004  0.0478  0.0007 </r>
       </set>
      </set>
     </set>
    </set>
   </array>
  </projected>
 </calculation>
 <structure name="finalpos" >
  <crystal>
   <varray name="basis" >
    <v>      -7.34719069       0.00505034      -0.30109596 </v>
    <v>       2.08618759       9.39632876      -0.10648822 </v>
    <v>      -0.83999900      -1.82509705     -11.27884764 </v>
   </varray>
   <i name="volume">    778.97062997 </i>
   <varray name="rec_basis" >
    <v>      -0.13630053       0.03032109       0.00524463 </v>
    <v>       0.00077858       0.10605653      -0.01721962 </v>
    <v>       0.00363128      -0.00181076      -0.08863897 </v>
   </varray>
  </crystal>
  <varray name="positions" >
   <v>       0.31134428       0.34361570       0.11924743 </v>
   <v>       0.42788399       0.75729081       0.58928436 </v>
   <v>       0.57211601       0.24270919       0.41071564 </v>
   <v>       0.68865572       0.65638430       0.88075257 </v>
   <v>       0.02136420       0.96269091       0.33241500 </v>
   <v>       0.14135720       0.44738908       0.80854697 </v>
   <v>       0.74905713       0.13017596       0.05012279 </v>
   <v>       0.52531742       0.20661205       0.75490757 </v>
   <v>       0.25094287       0.86982404       0.94987721 </v>
   <v>       0.97863580       0.03730909       0.66758500 </v>
   <v>       0.85864280       0.55261092       0.19145303 </v>
   <v>       0.47468258       0.79338795       0.24509243 </v>
   <v>       0.82117918       0.84899992       0.12921128 </v>
   <v>       0.67455846       0.35474430       0.95376557 </v>
   <v>       0.47395896       0.45794005       0.68833512 </v>
   <v>       0.27775379       0.01972573       0.52845126 </v>
   <v>       0.05533793       0.70265316       0.36655683 </v>
   <v>       0.32544154       0.64525570       0.04623443 </v>
   <v>       0.42150872       0.07795737       0.16946199 </v>
   <v>       0.94466207       0.29734684       0.63344317 </v>
   <v>       0.57849128       0.92204263       0.83053801 </v>
   <v>       0.91952327       0.30267687       0.24080812 </v>
   <v>       0.08047673       0.69732313       0.75919188 </v>
   <v>       0.72224621       0.98027427       0.47154874 </v>
   <v>       0.52604104       0.54205995       0.31166488 </v>
   <v>       0.17882082       0.15100008       0.87078872 </v>
  </varray>
 </structure>
</modeling>
