/etc/profile: 第 79 行:ulimit: stack size: 无法修改 limit 值: 不允许的操作
/home/customer/.bashrc: 第 12 行:ulimit: stack size: 无法修改 limit 值: 不允许的操作
Intel(R) Parallel Studio XE 2018 Update 3 for Linux*
Copyright (C) 2009-2018 Intel Corporation. All rights reserved.
 running on   14 total cores
 distrk:  each k-point on   14 cores,    1 groups
 distr:  one band on    1 cores,   14 groups
 using from now: INCAR     
 vasp.5.4.4.18Apr17-6-g9f103f2a35 (build Oct 27 2022 13:04:57) complex          
  
 POSCAR found type information on POSCAR  Na Sb Se
 POSCAR found :  3 types and      26 ions
 scaLAPACK will be used

 ----------------------------------------------------------------------------- 
|                                                                             |
|           W    W    AA    RRRRR   N    N  II  N    N   GGGG   !!!           |
|           W    W   A  A   R    R  NN   N  II  NN   N  G    G  !!!           |
|           W    W  A    A  R    R  N N  N  II  N N  N  G       !!!           |
|           W WW W  AAAAAA  RRRRR   N  N N  II  N  N N  G  GGG   !            |
|           WW  WW  A    A  R   R   N   NN  II  N   NN  G    G                |
|           W    W  A    A  R    R  N    N  II  N    N   GGGG   !!!           |
|                                                                             |
|      For optimal performance we recommend to set                            |
|        NCORE= 4 - approx SQRT( number of cores)                             |
|      NCORE specifies how many cores store one orbital (NPAR=cpu/NCORE).     |
|      This setting can  greatly improve the performance of VASP for DFT.     |
|      The default,   NCORE=1            might be grossly inefficient         |
|      on modern multi-core architectures or massively parallel machines.     |
|      Do your own testing !!!!                                               |
|      Unfortunately you need to use the default for GW and RPA calculations. |
|      (for HF NCORE is supported but not extensively tested yet)             |
|                                                                             |
 ----------------------------------------------------------------------------- 

 LDA part: xc-table for Pade appr. of Perdew
 POSCAR, INCAR and KPOINTS ok, starting setup
 FFT: planning ...
 WAVECAR not read
 entering main loop
       N       E                     dE             d eps       ncg     rms          rms(c)
DAV:   1     0.611600003380E+03    0.61160E+03   -0.33755E+04  1008   0.783E+02
DAV:   2    -0.257680807736E+02   -0.63737E+03   -0.61754E+03  1274   0.176E+02
DAV:   3    -0.965198393620E+02   -0.70752E+02   -0.69868E+02  1204   0.646E+01
DAV:   4    -0.991031428693E+02   -0.25833E+01   -0.25692E+01  1372   0.136E+01
DAV:   5    -0.991706189260E+02   -0.67476E-01   -0.67433E-01  1302   0.222E+00    0.160E+01
DAV:   6    -0.960469491159E+02    0.31237E+01   -0.55869E+00  1176   0.551E+00    0.108E+01
DAV:   7    -0.957736328294E+02    0.27332E+00   -0.31817E+00  1274   0.374E+00    0.275E+00
DAV:   8    -0.957279326939E+02    0.45700E-01   -0.26879E-01  1260   0.149E+00    0.134E+00
DAV:   9    -0.957384990356E+02   -0.10566E-01   -0.68758E-02  1176   0.729E-01    0.348E-01
DAV:  10    -0.957393790373E+02   -0.88000E-03   -0.21852E-03  1386   0.143E-01    0.148E-01
DAV:  11    -0.957418477562E+02   -0.24687E-02   -0.42405E-03  1162   0.169E-01    0.546E-02
DAV:  12    -0.957420709460E+02   -0.22319E-03   -0.38638E-04  1176   0.576E-02    0.479E-02
DAV:  13    -0.957421341566E+02   -0.63211E-04   -0.80556E-05   840   0.274E-02
   1 F= -.95742134E+02 E0= -.95742134E+02  d E =-.957421E+02
 curvature:   0.00 expect dE= 0.000E+00 dE for cont linesearch  0.000E+00
 trial: gam= 0.00000 g(F)=  0.118E+01 g(S)=  0.138E+01 ort = 0.000E+00 (trialstep = 0.100E+01)
 search vector abs. value=  0.256E+01
 bond charge predicted
       N       E                     dE             d eps       ncg     rms          rms(c)
DAV:   1    -0.981280400384E+02   -0.23860E+01   -0.17036E+01  1176   0.106E+01    0.451E+00
DAV:   2    -0.978089642994E+02    0.31908E+00   -0.13566E+00  1204   0.298E+00    0.183E+00
DAV:   3    -0.977116896424E+02    0.97275E-01   -0.31715E-01  1218   0.120E+00    0.549E-01
DAV:   4    -0.976988692024E+02    0.12820E-01   -0.13019E-02  1344   0.342E-01    0.327E-01
DAV:   5    -0.976958822373E+02    0.29870E-02   -0.94321E-03  1260   0.221E-01    0.161E-01
DAV:   6    -0.976960296538E+02   -0.14742E-03   -0.65658E-04  1260   0.706E-02    0.787E-02
DAV:   7    -0.976959988418E+02    0.30812E-04   -0.32420E-04   980   0.468E-02
   2 F= -.97695999E+02 E0= -.97695999E+02  d E =-.195386E+01
 trial-energy change:   -1.953865  1 .order   -1.974135   -2.557945   -1.390326
 step:   2.6431(harm=  2.1907)  dis= 0.06308  next Energy=   -98.748302 (dE=-0.301E+01)
 bond charge predicted
       N       E                     dE             d eps       ncg     rms          rms(c)
DAV:   1    -0.998157121667E+02   -0.21197E+01   -0.45336E+01  1176   0.168E+01    0.674E+00
DAV:   2    -0.989638301600E+02    0.85188E+00   -0.35908E+00  1274   0.480E+00    0.280E+00
DAV:   3    -0.987191624981E+02    0.24467E+00   -0.78525E-01  1176   0.188E+00    0.928E-01
DAV:   4    -0.986802643617E+02    0.38898E-01   -0.40786E-02  1358   0.576E-01    0.498E-01
DAV:   5    -0.986730775120E+02    0.71868E-02   -0.23346E-02  1260   0.340E-01    0.259E-01
DAV:   6    -0.986734474864E+02   -0.36997E-03   -0.13407E-03  1260   0.996E-02    0.130E-01
DAV:   7    -0.986734200299E+02    0.27456E-04   -0.97563E-04  1190   0.793E-02
   3 F= -.98673420E+02 E0= -.98673420E+02  d E =-.293129E+01
 curvature:  -0.94 expect dE=-0.544E-01 dE for cont linesearch -0.407E-02
 ZBRENT: interpolating
 opt :   2.5274  next Energy=   -98.679517 (dE=-0.294E+01)
 bond charge predicted
       N       E                     dE             d eps       ncg     rms          rms(c)
DAV:   1    -0.986859099732E+02   -0.12462E-01   -0.23168E-01  1162   0.121E+00    0.509E-01
DAV:   2    -0.986816685008E+02    0.42415E-02   -0.17096E-02  1190   0.334E-01    0.192E-01
DAV:   3    -0.986805316223E+02    0.11369E-02   -0.39206E-03  1246   0.132E-01    0.673E-02
DAV:   4    -0.986803634994E+02    0.16812E-03   -0.15452E-04   854   0.394E-02    0.379E-02
DAV:   5    -0.986803350445E+02    0.28455E-04   -0.18968E-04   756   0.324E-02
   4 F= -.98680335E+02 E0= -.98680335E+02  d E =-.293820E+01
 curvature:  -1.41 expect dE=-0.733E-01 dE for cont linesearch -0.378E-03
 ZBRENT: interpolating
 opt :   2.4897  next Energy=   -98.680837 (dE=-0.294E+01)
 bond charge predicted
       N       E                     dE             d eps       ncg     rms          rms(c)
DAV:   1    -0.986812724153E+02   -0.90892E-03   -0.24619E-02  1176   0.395E-01    0.156E-01
DAV:   2    -0.986808191384E+02    0.45328E-03   -0.17989E-03  1204   0.108E-01    0.586E-02
DAV:   3    -0.986807001649E+02    0.11897E-03   -0.42059E-04  1176   0.436E-02    0.222E-02
DAV:   4    -0.986806857290E+02    0.14436E-04   -0.15831E-05   756   0.129E-02
   5 F= -.98680686E+02 E0= -.98680686E+02  d E =-.293855E+01
 curvature:  -1.87 expect dE=-0.973E-01 dE for cont linesearch -0.144E-05
 trial: gam= 0.02089 g(F)=  0.258E-01 g(S)=  0.262E-01 ort =-0.140E-02 (trialstep = 0.130E+01)
 search vector abs. value=  0.531E-01
 bond charge predicted
       N       E                     dE             d eps       ncg     rms          rms(c)
DAV:   1    -0.987522271771E+02   -0.71527E-01   -0.78386E-01  1036   0.217E+00    0.509E-01
DAV:   2    -0.987486371379E+02    0.35900E-02   -0.42761E-02  1176   0.540E-01    0.231E-01
DAV:   3    -0.987462782306E+02    0.23589E-02   -0.42296E-03  1274   0.157E-01    0.131E-01
DAV:   4    -0.987455752667E+02    0.70296E-03   -0.14799E-03  1288   0.971E-02    0.522E-02
DAV:   5    -0.987455464174E+02    0.28849E-04   -0.20171E-04   742   0.390E-02
   6 F= -.98745546E+02 E0= -.98745546E+02  d E =-.648607E-01
 ZBRENT: can't locate minimum, use default step
 trial-energy change:   -0.064861  1 .order   -0.065193   -0.067483   -0.062903
 step:   5.1918(harm= 19.1258)  dis= 0.02456  next Energy=   -99.177880 (dE=-0.497E+00)
 bond charge predicted
       N       E                     dE             d eps       ncg     rms          rms(c)
DAV:   1    -0.989685774646E+02   -0.22300E+00   -0.71210E+00  1008   0.656E+00    0.154E+00
DAV:   2    -0.989360920615E+02    0.32485E-01   -0.38913E-01  1176   0.162E+00    0.696E-01
DAV:   3    -0.989147880482E+02    0.21304E-01   -0.38696E-02  1274   0.477E-01    0.393E-01
DAV:   4    -0.989085770041E+02    0.62110E-02   -0.13127E-02  1288   0.291E-01    0.160E-01
DAV:   5    -0.989083292154E+02    0.24779E-03   -0.20719E-03  1288   0.116E-01    0.852E-02
DAV:   6    -0.989083555530E+02   -0.26338E-04   -0.14906E-04   784   0.366E-02
   7 F= -.98908356E+02 E0= -.98908356E+02  d E =-.227670E+00
 curvature:  -3.80 expect dE=-0.135E+00 dE for cont linesearch -0.855E-01
 ZBRENT: increasing intervall
 opt :  12.9794  next Energy=   -99.069215 (dE=-0.389E+00)
 bond charge predicted
       N       E                     dE             d eps       ncg     rms          rms(c)
DAV:   1    -0.993278811183E+02   -0.41955E+00   -0.28878E+01  1008   0.132E+01    0.316E+00
DAV:   2    -0.991965070650E+02    0.13137E+00   -0.15972E+00  1190   0.327E+00    0.141E+00
DAV:   3    -0.991112085489E+02    0.85299E-01   -0.15646E-01  1288   0.967E-01    0.804E-01
DAV:   4    -0.990866134108E+02    0.24595E-01   -0.52028E-02  1288   0.583E-01    0.333E-01
DAV:   5    -0.990855816122E+02    0.10318E-02   -0.81569E-03  1302   0.232E-01    0.175E-01
DAV:   6    -0.990856665187E+02   -0.84907E-04   -0.72835E-04  1246   0.730E-02
   8 F= -.99085667E+02 E0= -.99085667E+02  d E =-.404981E+00
 curvature:  -7.15 expect dE=-0.484E+00 dE for cont linesearch -0.171E-01
 trial: gam= 1.10245 g(F)=  0.556E-01 g(S)=  0.122E-01 ort = 0.113E-01 (trialstep = 0.123E+01)
 search vector abs. value=  0.157E+00
 bond charge predicted
       N       E                     dE             d eps       ncg     rms          rms(c)
DAV:   1    -0.991882277438E+02   -0.10265E+00   -0.19530E+00  1008   0.340E+00    0.761E-01
DAV:   2    -0.991829272075E+02    0.53005E-02   -0.11683E-01  1176   0.850E-01    0.330E-01
DAV:   3    -0.991790003833E+02    0.39268E-02   -0.93422E-03  1274   0.231E-01    0.186E-01
DAV:   4    -0.991778737203E+02    0.11267E-02   -0.23608E-03  1260   0.116E-01    0.822E-02
DAV:   5    -0.991777758787E+02    0.97842E-04   -0.41201E-04  1218   0.503E-02
   9 F= -.99177776E+02 E0= -.99177776E+02  d E =-.921094E-01
 ZBRENT: can't locate minimum, use default step
 trial-energy change:   -0.092109  1 .order   -0.092850   -0.098443   -0.087256
 step:   4.9109(harm= 10.8037)  dis= 0.04985  next Energy=   -99.518810 (dE=-0.433E+00)
 bond charge predicted
       N       E                     dE             d eps       ncg     rms          rms(c)
DAV:   1    -0.994967859771E+02   -0.31891E+00   -0.17657E+01  1008   0.102E+01    0.230E+00
DAV:   2    -0.994455877042E+02    0.51198E-01   -0.10651E+00  1176   0.256E+00    0.962E-01
DAV:   3    -0.994097491867E+02    0.35839E-01   -0.89053E-02  1260   0.715E-01    0.535E-01
DAV:   4    -0.994006569042E+02    0.90923E-02   -0.19362E-02  1260   0.339E-01    0.264E-01
DAV:   5    -0.993997473465E+02    0.90956E-03   -0.32470E-03  1288   0.141E-01    0.144E-01
DAV:   6    -0.993997222167E+02    0.25130E-04   -0.52623E-04  1218   0.573E-02
  10 F= -.99399722E+02 E0= -.99399722E+02  d E =-.314056E+00
 curvature:  -6.58 expect dE=-0.195E+00 dE for cont linesearch -0.123E+00
 ZBRENT: increasing intervall
 opt :  12.2771  next Energy=   -99.674069 (dE=-0.588E+00)
 bond charge predicted
       N       E                     dE             d eps       ncg     rms          rms(c)
DAV:   1    -0.100024815419E+03   -0.62507E+00   -0.71069E+01  1008   0.206E+01    0.484E+00
DAV:   2    -0.998073865695E+02    0.21743E+00   -0.44243E+00  1190   0.519E+00    0.192E+00
DAV:   3    -0.996652990278E+02    0.14209E+00   -0.37482E-01  1260   0.148E+00    0.109E+00
DAV:   4    -0.996325089231E+02    0.32790E-01   -0.71607E-02  1260   0.665E-01    0.592E-01
DAV:   5    -0.996288069606E+02    0.37020E-02   -0.11740E-02  1274   0.268E-01    0.305E-01
DAV:   6    -0.996284930380E+02    0.31392E-03   -0.20916E-03  1330   0.115E-01    0.145E-01
DAV:   7    -0.996285466353E+02   -0.53597E-04   -0.27780E-04   994   0.568E-02
  11 F= -.99628547E+02 E0= -.99628547E+02  d E =-.542880E+00
 curvature: -14.70 expect dE=-0.558E+00 dE for cont linesearch -0.999E-02
 ZBRENT: extrapolating
 opt :  14.0140  next Energy=   -99.637521 (dE=-0.552E+00)
 bond charge predicted
       N       E                     dE             d eps       ncg     rms          rms(c)
DAV:   1    -0.996633912541E+02   -0.34898E-01   -0.38858E+00  1036   0.480E+00    0.106E+00
DAV:   2    -0.996516581017E+02    0.11733E-01   -0.22703E-01  1190   0.120E+00    0.478E-01
DAV:   3    -0.996437316357E+02    0.79265E-02   -0.19813E-02  1260   0.336E-01    0.255E-01
DAV:   4    -0.996416101558E+02    0.21215E-02   -0.41215E-03  1260   0.158E-01    0.114E-01
DAV:   5    -0.996414001409E+02    0.21001E-03   -0.82339E-04  1274   0.698E-02    0.621E-02
DAV:   6    -0.996414006158E+02   -0.47497E-06   -0.71488E-05   756   0.249E-02
  12 F= -.99641401E+02 E0= -.99641401E+02  d E =-.555734E+00
 curvature: -13.20 expect dE=-0.640E+00 dE for cont linesearch -0.130E-02
 trial: gam= 0.94453 g(F)=  0.284E-01 g(S)=  0.201E-01 ort = 0.393E-02 (trialstep = 0.303E+01)
 search vector abs. value=  0.196E+00
 bond charge predicted
       N       E                     dE             d eps       ncg     rms          rms(c)
DAV:   1    -0.998386414950E+02   -0.19724E+00   -0.14906E+01  1008   0.948E+00    0.207E+00
DAV:   2    -0.998030701059E+02    0.35571E-01   -0.86420E-01  1176   0.238E+00    0.921E-01
DAV:   3    -0.997704113920E+02    0.32659E-01   -0.67657E-02  1260   0.649E-01    0.532E-01
DAV:   4    -0.997604939025E+02    0.99175E-02   -0.19075E-02  1260   0.360E-01    0.237E-01
DAV:   5    -0.997597900696E+02    0.70383E-03   -0.39154E-03  1288   0.159E-01    0.119E-01
DAV:   6    -0.997598099853E+02   -0.19916E-04   -0.28424E-04   994   0.494E-02
  13 F= -.99759810E+02 E0= -.99759810E+02  d E =-.118409E+00
 trial-energy change:   -0.118409  1 .order   -0.124447   -0.158288   -0.090605
 step:   7.0934(harm=  7.0934)  dis= 0.06913  next Energy=   -99.826492 (dE=-0.185E+00)
 bond charge predicted
       N       E                     dE             d eps       ncg     rms          rms(c)
DAV:   1    -0.999501203669E+02   -0.19033E+00   -0.26889E+01  1008   0.128E+01    0.282E+00
DAV:   2    -0.998873015953E+02    0.62819E-01   -0.15794E+00  1176   0.321E+00    0.124E+00
DAV:   3    -0.998293471849E+02    0.57954E-01   -0.12246E-01  1260   0.880E-01    0.720E-01
DAV:   4    -0.998118537118E+02    0.17493E-01   -0.33524E-02  1260   0.482E-01    0.326E-01
DAV:   5    -0.998105834762E+02    0.12702E-02   -0.69760E-03  1274   0.214E-01    0.162E-01
DAV:   6    -0.998106162237E+02   -0.32748E-04   -0.53849E-04  1134   0.659E-02
  14 F= -.99810616E+02 E0= -.99810616E+02  d E =-.169216E+00
 curvature: -13.33 expect dE=-0.174E+00 dE for cont linesearch -0.134E-02
 ZBRENT: interpolating
 opt :   6.5674  next Energy=   -99.811786 (dE=-0.170E+00)
 bond charge predicted
       N       E                     dE             d eps       ncg     rms          rms(c)
DAV:   1    -0.998145326213E+02   -0.39491E-02   -0.45355E-01  1050   0.165E+00    0.358E-01
DAV:   2    -0.998134061084E+02    0.11265E-02   -0.25601E-02  1176   0.416E-01    0.172E-01
DAV:   3    -0.998123981273E+02    0.10080E-02   -0.21088E-03  1218   0.115E-01    0.948E-02
DAV:   4    -0.998120610818E+02    0.33705E-03   -0.57748E-04  1246   0.634E-02    0.378E-02
DAV:   5    -0.998120326324E+02    0.28449E-04   -0.11581E-04   728   0.290E-02
  15 F= -.99812033E+02 E0= -.99812033E+02  d E =-.170632E+00
 curvature: -11.60 expect dE=-0.151E+00 dE for cont linesearch -0.129E-03
 trial: gam= 0.12080 g(F)=  0.922E-02 g(S)=  0.382E-02 ort = 0.148E-02 (trialstep = 0.374E+01)
 search vector abs. value=  0.163E-01
 bond charge predicted
       N       E                     dE             d eps       ncg     rms          rms(c)
DAV:   1    -0.998625310761E+02   -0.50470E-01   -0.12729E+00  1008   0.287E+00    0.782E-01
DAV:   2    -0.998527149002E+02    0.98162E-02   -0.72993E-02  1274   0.711E-01    0.352E-01
DAV:   3    -0.998489454008E+02    0.37695E-02   -0.11246E-02  1246   0.249E-01    0.158E-01
DAV:   4    -0.998482128591E+02    0.73254E-03   -0.10726E-03  1260   0.942E-02    0.822E-02
DAV:   5    -0.998481097794E+02    0.10308E-03   -0.43719E-04  1176   0.515E-02    0.406E-02
DAV:   6    -0.998481139186E+02   -0.41392E-05   -0.27533E-05   756   0.164E-02
  16 F= -.99848114E+02 E0= -.99848114E+02  d E =-.360813E-01
 trial-energy change:   -0.036081  1 .order   -0.037108   -0.049436   -0.024779
 step:   7.4985(harm=  7.4985)  dis= 0.01914  next Energy=   -99.861592 (dE=-0.496E-01)
 bond charge predicted
       N       E                     dE             d eps       ncg     rms          rms(c)
DAV:   1    -0.998744716056E+02   -0.26362E-01   -0.12852E+00  1008   0.289E+00    0.787E-01
DAV:   2    -0.998645819633E+02    0.98896E-02   -0.73817E-02  1288   0.714E-01    0.352E-01
DAV:   3    -0.998607485920E+02    0.38334E-02   -0.11309E-02  1246   0.249E-01    0.159E-01
DAV:   4    -0.998600109817E+02    0.73761E-03   -0.10853E-03  1260   0.944E-02    0.832E-02
DAV:   5    -0.998599088692E+02    0.10211E-03   -0.43798E-04  1176   0.515E-02    0.407E-02
DAV:   6    -0.998599135073E+02   -0.46380E-05   -0.27774E-05   756   0.165E-02
  17 F= -.99859914E+02 E0= -.99859914E+02  d E =-.478809E-01
 curvature:  -4.61 expect dE=-0.479E-01 dE for cont linesearch -0.248E-04
 trial: gam= 0.72982 g(F)=  0.483E-02 g(S)=  0.556E-02 ort = 0.296E-03 (trialstep = 0.375E+01)
 search vector abs. value=  0.195E-01
 bond charge predicted
       N       E                     dE             d eps       ncg     rms          rms(c)
DAV:   1    -0.998891264192E+02   -0.29218E-01   -0.15194E+00  1008   0.314E+00    0.642E-01
DAV:   2    -0.998925154624E+02   -0.33890E-02   -0.96365E-02  1260   0.785E-01    0.280E-01
DAV:   3    -0.998909529313E+02    0.15625E-02   -0.35569E-03  1316   0.162E-01    0.168E-01
DAV:   4    -0.998902270580E+02    0.72587E-03   -0.13080E-03  1260   0.954E-02    0.490E-02
DAV:   5    -0.998901947188E+02    0.32339E-04   -0.22132E-04   770   0.421E-02
  18 F= -.99890195E+02 E0= -.99890195E+02  d E =-.302812E-01
 trial-energy change:   -0.030281  1 .order   -0.033575   -0.039756   -0.027394
 step:  12.0556(harm= 12.0556)  dis= 0.03636  next Energy=   -99.923843 (dE=-0.639E-01)
 bond charge predicted
       N       E                     dE             d eps       ncg     rms          rms(c)
DAV:   1    -0.998961850333E+02   -0.59580E-02   -0.74208E+00  1008   0.693E+00    0.140E+00
DAV:   2    -0.999137169032E+02   -0.17532E-01   -0.47487E-01  1260   0.174E+00    0.626E-01
DAV:   3    -0.999062791298E+02    0.74378E-02   -0.17151E-02  1316   0.354E-01    0.380E-01
DAV:   4    -0.999027208181E+02    0.35583E-02   -0.65446E-03  1260   0.212E-01    0.110E-01
DAV:   5    -0.999025997591E+02    0.12106E-03   -0.13093E-03  1302   0.953E-02    0.559E-02
DAV:   6    -0.999026189293E+02   -0.19170E-04   -0.13064E-04   756   0.318E-02
  19 F= -.99902619E+02 E0= -.99902619E+02  d E =-.427054E-01
 curvature: -11.07 expect dE=-0.131E+00 dE for cont linesearch -0.374E-02
 ZBRENT: interpolating
 opt :   9.8971  next Energy=   -99.905388 (dE=-0.455E-01)
 bond charge predicted
       N       E                     dE             d eps       ncg     rms          rms(c)
DAV:   1    -0.999066890831E+02   -0.40893E-02   -0.50198E-01  1008   0.181E+00    0.369E-01
DAV:   2    -0.999078379653E+02   -0.11489E-02   -0.31778E-02  1260   0.451E-01    0.157E-01
DAV:   3    -0.999073566800E+02    0.48129E-03   -0.11854E-03  1316   0.935E-02    0.946E-02
DAV:   4    -0.999071466195E+02    0.21006E-03   -0.39792E-04  1134   0.536E-02    0.286E-02
DAV:   5    -0.999071433826E+02    0.32369E-05   -0.77704E-05   756   0.253E-02
  20 F= -.99907143E+02 E0= -.99907143E+02  d E =-.472299E-01
 curvature:  -8.20 expect dE=-0.692E-01 dE for cont linesearch -0.562E-03
 trial: gam= 0.93241 g(F)=  0.725E-02 g(S)=  0.120E-02 ort =-0.116E-02 (trialstep = 0.418E+01)
 search vector abs. value=  0.232E-01
 bond charge predicted
       N       E                     dE             d eps       ncg     rms          rms(c)
DAV:   1    -0.999267138739E+02   -0.19567E-01   -0.21249E+00  1008   0.369E+00    0.636E-01
DAV:   2    -0.999339003681E+02   -0.71865E-02   -0.12308E-01  1260   0.888E-01    0.287E-01
DAV:   3    -0.999327324371E+02    0.11679E-02   -0.30206E-03  1372   0.160E-01    0.197E-01
DAV:   4    -0.999320519465E+02    0.68049E-03   -0.16394E-03  1260   0.114E-01    0.508E-02
DAV:   5    -0.999320756673E+02   -0.23721E-04   -0.33742E-04  1036   0.495E-02
  21 F= -.99932076E+02 E0= -.99932076E+02  d E =-.249323E-01
 trial-energy change:   -0.024932  1 .order   -0.024413   -0.030767   -0.018058
 step:   8.1813(harm= 10.1074)  dis= 0.02953  next Energy=   -99.941198 (dE=-0.341E-01)
 bond charge predicted
       N       E                     dE             d eps       ncg     rms          rms(c)
DAV:   1    -0.999431201605E+02   -0.11068E-01   -0.19578E+00  1008   0.355E+00    0.621E-01
DAV:   2    -0.999497537654E+02   -0.66336E-02   -0.11406E-01  1260   0.854E-01    0.272E-01
DAV:   3    -0.999486866453E+02    0.10671E-02   -0.28067E-03  1372   0.155E-01    0.185E-01
DAV:   4    -0.999480888368E+02    0.59781E-03   -0.15151E-03  1260   0.109E-01    0.482E-02
DAV:   5    -0.999481127178E+02   -0.23881E-04   -0.29545E-04   966   0.471E-02
  22 F= -.99948113E+02 E0= -.99948113E+02  d E =-.409693E-01
 curvature: -14.25 expect dE=-0.882E-01 dE for cont linesearch -0.986E-02
 ZBRENT: increasing intervall
 opt :  16.1935  next Energy=   -99.977709 (dE=-0.706E-01)
 bond charge predicted
       N       E                     dE             d eps       ncg     rms          rms(c)
DAV:   1    -0.999478128323E+02    0.27600E-03   -0.78241E+00  1008   0.710E+00    0.126E+00
DAV:   2    -0.999740279677E+02   -0.26215E-01   -0.45664E-01  1260   0.171E+00    0.544E-01
DAV:   3    -0.999697152039E+02    0.43128E-02   -0.11303E-02  1386   0.310E-01    0.371E-01
DAV:   4    -0.999672741924E+02    0.24410E-02   -0.60658E-03  1218   0.219E-01    0.982E-02
DAV:   5    -0.999673673482E+02   -0.93156E-04   -0.12674E-03  1260   0.944E-02    0.559E-02
DAV:   6    -0.999673752774E+02   -0.79292E-05   -0.82089E-05   756   0.252E-02
  23 F= -.99967375E+02 E0= -.99967375E+02  d E =-.602319E-01
 curvature: -42.77 expect dE=-0.513E+00 dE for cont linesearch -0.219E-02
 trial: gam= 1.37894 g(F)=  0.739E-02 g(S)=  0.462E-02 ort =-0.109E-02 (trialstep = 0.287E+01)
 search vector abs. value=  0.532E-01
 bond charge predicted
       N       E                     dE             d eps       ncg     rms          rms(c)
DAV:   1    -0.999832302778E+02   -0.15863E-01   -0.23117E+00  1008   0.387E+00    0.686E-01
DAV:   2    -0.999924822514E+02   -0.92520E-02   -0.15123E-01  1246   0.982E-01    0.316E-01
DAV:   3    -0.999912249248E+02    0.12573E-02   -0.42003E-03  1372   0.176E-01    0.205E-01
DAV:   4    -0.999904957089E+02    0.72922E-03   -0.12731E-03  1204   0.929E-02    0.738E-02
DAV:   5    -0.999904386350E+02    0.57074E-04   -0.35834E-04  1050   0.481E-02
  24 F= -.99990439E+02 E0= -.99990439E+02  d E =-.230634E-01
 trial-energy change:   -0.023063  1 .order   -0.023576   -0.030186   -0.016966
 step:   6.5634(harm=  6.5634)  dis= 0.03503  next Energy=  -100.001838 (dE=-0.345E-01)
 bond charge predicted
       N       E                     dE             d eps       ncg     rms          rms(c)
DAV:   1    -0.999896719884E+02    0.82372E-03   -0.37911E+00  1008   0.496E+00    0.880E-01
DAV:   2    -0.100004816250E+03   -0.15144E-01   -0.24724E-01  1260   0.125E+00    0.401E-01
DAV:   3    -0.100002747787E+03    0.20685E-02   -0.66806E-03  1358   0.222E-01    0.262E-01
DAV:   4    -0.100001562502E+03    0.11853E-02   -0.20839E-03  1218   0.118E-01    0.941E-02
DAV:   5    -0.100001474649E+03    0.87853E-04   -0.60681E-04  1232   0.616E-02
  25 F= -.10000147E+03 E0= -.10000147E+03  d E =-.340994E-01
 curvature: -16.61 expect dE=-0.114E+00 dE for cont linesearch -0.700E-05
 trial: gam= 0.31160 g(F)=  0.496E-02 g(S)=  0.188E-02 ort =-0.150E-03 (trialstep = 0.361E+01)
 search vector abs. value=  0.119E-01
 bond charge predicted
       N       E                     dE             d eps       ncg     rms          rms(c)
DAV:   1    -0.100019516732E+03   -0.17954E-01   -0.73999E-01  1008   0.222E+00    0.361E-01
DAV:   2    -0.100023041922E+03   -0.35252E-02   -0.49829E-02  1288   0.564E-01    0.147E-01
DAV:   3    -0.100022742979E+03    0.29894E-03   -0.12060E-03  1400   0.991E-02    0.105E-01
DAV:   4    -0.100022550868E+03    0.19211E-03   -0.37032E-04  1050   0.545E-02    0.364E-02
DAV:   5    -0.100022547510E+03    0.33586E-05   -0.12212E-04   756   0.308E-02
  26 F= -.10002255E+03 E0= -.10002255E+03  d E =-.210729E-01
 trial-energy change:   -0.021073  1 .order   -0.020345   -0.024524   -0.016166
 step:   7.0676(harm= 10.5986)  dis= 0.01933  next Energy=  -100.030916 (dE=-0.294E-01)
 bond charge predicted
       N       E                     dE             d eps       ncg     rms          rms(c)
DAV:   1    -0.100032958065E+03   -0.10407E-01   -0.67534E-01  1022   0.212E+00    0.346E-01
DAV:   2    -0.100036175026E+03   -0.32170E-02   -0.45516E-02  1288   0.539E-01    0.138E-01
DAV:   3    -0.100035899574E+03    0.27545E-03   -0.10958E-03  1386   0.947E-02    0.994E-02
DAV:   4    -0.100035723387E+03    0.17619E-03   -0.33608E-04   938   0.524E-02    0.344E-02
DAV:   5    -0.100035721946E+03    0.14417E-05   -0.12547E-04   756   0.313E-02
  27 F= -.10003572E+03 E0= -.10003572E+03  d E =-.342473E-01
 curvature:  -6.92 expect dE=-0.263E-01 dE for cont linesearch -0.426E-02
 ZBRENT: increasing intervall
 opt :  13.9783  next Energy=  -100.042199 (dE=-0.407E-01)
 bond charge predicted
       N       E                     dE             d eps       ncg     rms          rms(c)
DAV:   1    -0.100033547109E+03    0.21763E-02   -0.27014E+00  1008   0.424E+00    0.691E-01
DAV:   2    -0.100046431334E+03   -0.12884E-01   -0.18214E-01  1288   0.108E+00    0.277E-01
DAV:   3    -0.100045329491E+03    0.11018E-02   -0.43926E-03  1400   0.190E-01    0.199E-01
DAV:   4    -0.100044625258E+03    0.70423E-03   -0.14147E-03  1302   0.104E-01    0.704E-02
DAV:   5    -0.100044611617E+03    0.13641E-04   -0.43435E-04  1148   0.541E-02
  28 F= -.10004461E+03 E0= -.10004461E+03  d E =-.431370E-01
 curvature: -10.53 expect dE=-0.574E-01 dE for cont linesearch -0.441E-05
 trial: gam= 0.69387 g(F)=  0.337E-02 g(S)=  0.208E-02 ort = 0.707E-04 (trialstep = 0.569E+01)
 search vector abs. value=  0.113E-01
 bond charge predicted
       N       E                     dE             d eps       ncg     rms          rms(c)
DAV:   1    -0.100074681615E+03   -0.30056E-01   -0.18782E+00  1008   0.350E+00    0.743E-01
DAV:   2    -0.100070385356E+03    0.42963E-02   -0.11075E-01  1232   0.863E-01    0.347E-01
DAV:   3    -0.100066366209E+03    0.40191E-02   -0.79528E-03  1274   0.227E-01    0.185E-01
DAV:   4    -0.100065160353E+03    0.12059E-02   -0.24100E-03  1246   0.127E-01    0.752E-02
DAV:   5    -0.100065115591E+03    0.44763E-04   -0.34930E-04  1092   0.513E-02
  29 F= -.10006512E+03 E0= -.10006512E+03  d E =-.205040E-01
 trial-energy change:   -0.020504  1 .order   -0.020269   -0.031281   -0.009256
 step:   8.0747(harm=  8.0747)  dis= 0.01842  next Energy=  -100.066825 (dE=-0.222E-01)
 bond charge predicted
       N       E                     dE             d eps       ncg     rms          rms(c)
DAV:   1    -0.100069599564E+03   -0.44392E-02   -0.33031E-01  1064   0.147E+00    0.309E-01
DAV:   2    -0.100068828679E+03    0.77088E-03   -0.19468E-02  1246   0.362E-01    0.145E-01
DAV:   3    -0.100068105799E+03    0.72288E-03   -0.13876E-03  1274   0.951E-02    0.787E-02
DAV:   4    -0.100067891006E+03    0.21479E-03   -0.44902E-04  1190   0.544E-02    0.324E-02
DAV:   5    -0.100067886309E+03    0.46973E-05   -0.58147E-05   756   0.221E-02
  30 F= -.10006789E+03 E0= -.10006789E+03  d E =-.232747E-01
 curvature:  -8.28 expect dE=-0.372E-01 dE for cont linesearch -0.142E-03
 trial: gam= 0.70742 g(F)=  0.328E-02 g(S)=  0.121E-02 ort = 0.440E-03 (trialstep = 0.616E+01)
 search vector abs. value=  0.108E-01
 bond charge predicted
       N       E                     dE             d eps       ncg     rms          rms(c)
DAV:   1    -0.100077948391E+03   -0.10057E-01   -0.21675E+00  1008   0.375E+00    0.654E-01
DAV:   2    -0.100087616943E+03   -0.96686E-02   -0.14428E-01  1260   0.959E-01    0.259E-01
DAV:   3    -0.100086343854E+03    0.12731E-02   -0.35903E-03  1414   0.176E-01    0.178E-01
DAV:   4    -0.100085647137E+03    0.69672E-03   -0.14284E-03  1232   0.104E-01    0.577E-02
DAV:   5    -0.100085627293E+03    0.19844E-04   -0.31037E-04   994   0.482E-02
  31 F= -.10008563E+03 E0= -.10008563E+03  d E =-.177410E-01
 trial-energy change:   -0.017741  1 .order   -0.019019   -0.029600   -0.008438
 step:   8.6206(harm=  8.6206)  dis= 0.01887  next Energy=  -100.088587 (dE=-0.207E-01)
 bond charge predicted
       N       E                     dE             d eps       ncg     rms          rms(c)
DAV:   1    -0.100086305474E+03   -0.65834E-03   -0.34584E-01  1008   0.150E+00    0.273E-01
DAV:   2    -0.100087855202E+03   -0.15497E-02   -0.23046E-02  1260   0.383E-01    0.984E-02
DAV:   3    -0.100087653780E+03    0.20142E-03   -0.55838E-04  1316   0.704E-02    0.663E-02
DAV:   4    -0.100087547186E+03    0.10659E-03   -0.19751E-04   756   0.412E-02    0.208E-02
DAV:   5    -0.100087546601E+03    0.58473E-06   -0.75197E-05   756   0.249E-02
  32 F= -.10008755E+03 E0= -.10008755E+03  d E =-.196603E-01
 curvature:  -9.66 expect dE=-0.320E-01 dE for cont linesearch -0.640E-03
 ZBRENT: increasing intervall
 opt :  13.5353  next Energy=  -100.089116 (dE=-0.212E-01)
 bond charge predicted
       N       E                     dE             d eps       ncg     rms          rms(c)
DAV:   1    -0.100078721956E+03    0.88252E-02   -0.13813E+00  1008   0.299E+00    0.519E-01
DAV:   2    -0.100084868349E+03   -0.61464E-02   -0.91455E-02  1260   0.764E-01    0.203E-01
DAV:   3    -0.100084066178E+03    0.80217E-03   -0.22573E-03  1442   0.140E-01    0.139E-01
DAV:   4    -0.100083626524E+03    0.43965E-03   -0.90848E-04  1232   0.826E-02    0.450E-02
DAV:   5    -0.100083612763E+03    0.13761E-04   -0.17991E-04   756   0.381E-02
  33 F= -.10008361E+03 E0= -.10008361E+03  d E =-.157265E-01
 curvature: -23.70 expect dE=-0.216E+00 dE for cont linesearch -0.107E-01
 ZBRENT: bracketing found
 ZBRENT: interpolating
 opt :   9.9805  next Energy=  -100.088121 (dE=-0.202E-01)
 bond charge predicted
       N       E                     dE             d eps       ncg     rms          rms(c)
DAV:   1    -0.100085416051E+03   -0.17895E-02   -0.72298E-01  1008   0.216E+00    0.371E-01
DAV:   2    -0.100088573803E+03   -0.31578E-02   -0.46974E-02  1260   0.550E-01    0.151E-01
DAV:   3    -0.100088156864E+03    0.41694E-03   -0.11669E-03  1414   0.100E-01    0.105E-01
DAV:   4    -0.100087924653E+03    0.23221E-03   -0.47677E-04  1176   0.602E-02    0.327E-02
DAV:   5    -0.100087921655E+03    0.29982E-05   -0.99781E-05   756   0.281E-02
  34 F= -.10008792E+03 E0= -.10008792E+03  d E =-.200353E-01
 curvature:  -1.27 expect dE=-0.581E-02 dE for cont linesearch -0.290E-05
 trial: gam= 1.15535 g(F)=  0.328E-02 g(S)=  0.130E-02 ort =-0.157E-03 (trialstep = 0.401E+01)
 search vector abs. value=  0.186E-01
 bond charge predicted
       N       E                     dE             d eps       ncg     rms          rms(c)
DAV:   1    -0.100096978807E+03   -0.90542E-02   -0.14891E+00  1008   0.310E+00    0.500E-01
DAV:   2    -0.100101939615E+03   -0.49608E-02   -0.91584E-02  1246   0.763E-01    0.226E-01
DAV:   3    -0.100101058152E+03    0.88146E-03   -0.26094E-03  1288   0.142E-01    0.148E-01
DAV:   4    -0.100100588900E+03    0.46925E-03   -0.10592E-03  1232   0.846E-02    0.583E-02
DAV:   5    -0.100100580016E+03    0.88837E-05   -0.18850E-04   812   0.373E-02
  35 F= -.10010058E+03 E0= -.10010058E+03  d E =-.126584E-01
 trial-energy change:   -0.012658  1 .order   -0.012378   -0.017652   -0.007104
 step:   6.7124(harm=  6.7124)  dis= 0.02150  next Energy=  -100.102692 (dE=-0.148E-01)
 bond charge predicted
       N       E                     dE             d eps       ncg     rms          rms(c)
DAV:   1    -0.100101664818E+03   -0.10759E-02   -0.67415E-01  1008   0.209E+00    0.343E-01
DAV:   2    -0.100103914775E+03   -0.22500E-02   -0.41515E-02  1246   0.513E-01    0.147E-01
DAV:   3    -0.100103515610E+03    0.39916E-03   -0.11766E-03  1302   0.952E-02    0.961E-02
DAV:   4    -0.100103312565E+03    0.20305E-03   -0.47776E-04  1148   0.567E-02    0.383E-02
DAV:   5    -0.100103311110E+03    0.14546E-05   -0.81754E-05   756   0.251E-02
  36 F= -.10010331E+03 E0= -.10010331E+03  d E =-.153895E-01
 curvature: -14.17 expect dE=-0.558E-01 dE for cont linesearch -0.214E-03
 trial: gam= 0.26159 g(F)=  0.301E-02 g(S)=  0.925E-03 ort = 0.530E-03 (trialstep = 0.455E+01)
 search vector abs. value=  0.549E-02
 bond charge predicted
       N       E                     dE             d eps       ncg     rms          rms(c)
DAV:   1    -0.100118868203E+03   -0.15556E-01   -0.59897E-01  1008   0.199E+00    0.454E-01
DAV:   2    -0.100118201864E+03    0.66634E-03   -0.37839E-02  1260   0.500E-01    0.201E-01
DAV:   3    -0.100116988286E+03    0.12136E-02   -0.24313E-03  1274   0.130E-01    0.103E-01
DAV:   4    -0.100116618276E+03    0.37001E-03   -0.76865E-04  1190   0.720E-02    0.413E-02
DAV:   5    -0.100116596068E+03    0.22207E-04   -0.95321E-05   756   0.298E-02
  37 F= -.10011660E+03 E0= -.10011660E+03  d E =-.132850E-01
 trial-energy change:   -0.013285  1 .order   -0.013255   -0.018550   -0.007959
 step:   7.9718(harm=  7.9718)  dis= 0.01370  next Energy=  -100.119557 (dE=-0.162E-01)
 bond charge predicted
       N       E                     dE             d eps       ncg     rms          rms(c)
DAV:   1    -0.100120011790E+03   -0.33935E-02   -0.33801E-01  1064   0.150E+00    0.341E-01
DAV:   2    -0.100119651837E+03    0.35995E-03   -0.21398E-02  1260   0.375E-01    0.151E-01
DAV:   3    -0.100118966278E+03    0.68556E-03   -0.13656E-03  1288   0.973E-02    0.773E-02
DAV:   4    -0.100118760501E+03    0.20578E-03   -0.43933E-04  1176   0.544E-02    0.315E-02
DAV:   5    -0.100118749900E+03    0.10601E-04   -0.53742E-05   756   0.224E-02
  38 F= -.10011875E+03 E0= -.10011875E+03  d E =-.154388E-01
 curvature:  -5.36 expect dE=-0.191E-01 dE for cont linesearch -0.274E-03
 trial: gam= 1.09075 g(F)=  0.273E-02 g(S)=  0.836E-03 ort =-0.530E-03 (trialstep = 0.321E+01)
 search vector abs. value=  0.894E-02
 bond charge predicted
       N       E                     dE             d eps       ncg     rms          rms(c)
DAV:   1    -0.100126224565E+03   -0.74641E-02   -0.45510E-01  1008   0.172E+00    0.275E-01
DAV:   2    -0.100128298076E+03   -0.20735E-02   -0.29586E-02  1260   0.430E-01    0.118E-01
DAV:   3    -0.100128152870E+03    0.14521E-03   -0.83236E-04  1344   0.833E-02    0.792E-02
DAV:   4    -0.100128056142E+03    0.96729E-04   -0.17525E-04   756   0.387E-02
  39 F= -.10012806E+03 E0= -.10012806E+03  d E =-.930624E-02
 ZBRENT: can't locate minimum, use default step
 trial-energy change:   -0.009306  1 .order   -0.009339   -0.009600   -0.009077
 step:  12.8563(harm= 59.0755)  dis= 0.02763  next Energy=  -100.206972 (dE=-0.882E-01)
 bond charge predicted
       N       E                     dE             d eps       ncg     rms          rms(c)
DAV:   1    -0.100117710941E+03    0.10442E-01   -0.40806E+00  1008   0.516E+00    0.840E-01
DAV:   2    -0.100136154136E+03   -0.18443E-01   -0.26498E-01  1260   0.129E+00    0.355E-01
DAV:   3    -0.100134876961E+03    0.12772E-02   -0.77401E-03  1372   0.253E-01    0.239E-01
DAV:   4    -0.100134046842E+03    0.83012E-03   -0.18021E-03  1288   0.116E-01    0.101E-01
DAV:   5    -0.100133929622E+03    0.11722E-03   -0.56986E-04  1176   0.690E-02    0.452E-02
DAV:   6    -0.100133934594E+03   -0.49721E-05   -0.93974E-05   756   0.270E-02
  40 F= -.10013393E+03 E0= -.10013393E+03  d E =-.151847E-01
 curvature: -27.88 expect dE=-0.265E+00 dE for cont linesearch -0.807E-02
 ZBRENT: interpolating
 opt :   9.3581  next Energy=  -100.136747 (dE=-0.180E-01)
 bond charge predicted
       N       E                     dE             d eps       ncg     rms          rms(c)
DAV:   1    -0.100134554985E+03   -0.62536E-03   -0.53704E-01  1008   0.187E+00    0.294E-01
DAV:   2    -0.100136966961E+03   -0.24120E-02   -0.34530E-02  1260   0.466E-01    0.128E-01
DAV:   3    -0.100136800712E+03    0.16625E-03   -0.99407E-04  1344   0.904E-02    0.850E-02
DAV:   4    -0.100136689280E+03    0.11143E-03   -0.18809E-04   756   0.405E-02    0.367E-02
DAV:   5    -0.100136676220E+03    0.13060E-04   -0.11269E-04   756   0.311E-02
  41 F= -.10013668E+03 E0= -.10013668E+03  d E =-.179263E-01
 curvature:  -9.72 expect dE=-0.778E-01 dE for cont linesearch -0.248E-03
 trial: gam= 1.60069 g(F)=  0.734E-02 g(S)=  0.668E-03 ort =-0.478E-03 (trialstep = 0.135E+01)
 search vector abs. value=  0.294E-01
 bond charge predicted
       N       E                     dE             d eps       ncg     rms          rms(c)
DAV:   1    -0.100145450493E+03   -0.87612E-02   -0.26982E-01  1008   0.133E+00    0.204E-01
DAV:   2    -0.100146784558E+03   -0.13341E-02   -0.17499E-02  1260   0.330E-01    0.925E-02
DAV:   3    -0.100146706497E+03    0.78061E-04   -0.36049E-04  1092   0.560E-02
  42 F= -.10014671E+03 E0= -.10014671E+03  d E =-.100303E-01
 ZBRENT: can't locate minimum, use default step
 trial-energy change:   -0.010030  1 .order   -0.009241   -0.009787   -0.008696
 step:   5.4067(harm= 12.1298)  dis= 0.02303  next Energy=  -100.180588 (dE=-0.439E-01)
 bond charge predicted
       N       E                     dE             d eps       ncg     rms          rms(c)
DAV:   1    -0.100147110619E+03   -0.32606E-03   -0.24055E+00  1008   0.396E+00    0.605E-01
DAV:   2    -0.100158794368E+03   -0.11684E-01   -0.15518E-01  1260   0.983E-01    0.282E-01
DAV:   3    -0.100158149478E+03    0.64489E-03   -0.36168E-03  1358   0.170E-01    0.195E-01
DAV:   4    -0.100157701820E+03    0.44766E-03   -0.93676E-04  1246   0.832E-02    0.775E-02
DAV:   5    -0.100157669102E+03    0.32717E-04   -0.27253E-04   854   0.459E-02
  43 F= -.10015767E+03 E0= -.10015767E+03  d E =-.209929E-01
 curvature: -15.03 expect dE=-0.998E-01 dE for cont linesearch -0.146E-03
 trial: gam= 0.28052 g(F)=  0.601E-02 g(S)=  0.625E-03 ort = 0.534E-03 (trialstep = 0.216E+01)
 search vector abs. value=  0.925E-02
 bond charge predicted
       N       E                     dE             d eps       ncg     rms          rms(c)
DAV:   1    -0.100168189509E+03   -0.10488E-01   -0.20789E-01  1022   0.118E+00    0.235E-01
DAV:   2    -0.100168928238E+03   -0.73873E-03   -0.14506E-02  1260   0.305E-01    0.885E-02
DAV:   3    -0.100168818321E+03    0.10992E-03   -0.65079E-04  1260   0.678E-02    0.517E-02
DAV:   4    -0.100168762170E+03    0.56152E-04   -0.90191E-05   756   0.277E-02
  44 F= -.10016876E+03 E0= -.10016876E+03  d E =-.110931E-01
 trial-energy change:   -0.011093  1 .order   -0.011032   -0.014678   -0.007386
 step:   4.3531(harm=  4.3531)  dis= 0.01168  next Energy=  -100.172441 (dE=-0.148E-01)
 bond charge predicted
       N       E                     dE             d eps       ncg     rms          rms(c)
DAV:   1    -0.100172731538E+03   -0.39132E-02   -0.21007E-01  1050   0.119E+00    0.234E-01
DAV:   2    -0.100173446119E+03   -0.71458E-03   -0.14520E-02  1260   0.306E-01    0.903E-02
DAV:   3    -0.100173338654E+03    0.10747E-03   -0.69450E-04  1260   0.697E-02    0.519E-02
DAV:   4    -0.100173282073E+03    0.56581E-04   -0.87802E-05   756   0.276E-02
  45 F= -.10017328E+03 E0= -.10017328E+03  d E =-.156130E-01
 curvature:  -2.97 expect dE=-0.550E-02 dE for cont linesearch -0.322E-03
 ZBRENT: extrapolating
 opt :   5.2623  next Energy=  -100.173737 (dE=-0.161E-01)
 bond charge predicted
       N       E                     dE             d eps       ncg     rms          rms(c)
DAV:   1    -0.100173548197E+03   -0.20954E-03   -0.35437E-02  1050   0.488E-01    0.981E-02
DAV:   2    -0.100173657649E+03   -0.10945E-03   -0.24267E-03  1260   0.125E-01    0.384E-02
DAV:   3    -0.100173640068E+03    0.17581E-04   -0.11340E-04   742   0.302E-02
  46 F= -.10017364E+03 E0= -.10017364E+03  d E =-.159710E-01
 curvature:  -4.20 expect dE=-0.701E-02 dE for cont linesearch -0.329E-06
 trial: gam= 0.28273 g(F)=  0.150E-02 g(S)=  0.173E-03 ort = 0.269E-04 (trialstep = 0.278E+01)
 search vector abs. value=  0.242E-02
 bond charge predicted
       N       E                     dE             d eps       ncg     rms          rms(c)
DAV:   1    -0.100177250351E+03   -0.35927E-02   -0.10351E-01  1036   0.826E-01    0.165E-01
DAV:   2    -0.100177338604E+03   -0.88253E-04   -0.67833E-03  1260   0.207E-01    0.746E-02
DAV:   3    -0.100177215242E+03    0.12336E-03   -0.28340E-04   938   0.452E-02    0.426E-02
DAV:   4    -0.100177168994E+03    0.46248E-04   -0.13822E-04   756   0.308E-02
  47 F= -.10017717E+03 E0= -.10017717E+03  d E =-.352893E-02
 trial-energy change:   -0.003529  1 .order   -0.003504   -0.004667   -0.002341
 step:   5.5822(harm=  5.5822)  dis= 0.00606  next Energy=  -100.178322 (dE=-0.468E-02)
 bond charge predicted
       N       E                     dE             d eps       ncg     rms          rms(c)
DAV:   1    -0.100178558270E+03   -0.13430E-02   -0.10453E-01  1036   0.830E-01    0.165E-01
DAV:   2    -0.100178677956E+03   -0.11969E-03   -0.69304E-03  1260   0.210E-01    0.726E-02
DAV:   3    -0.100178562599E+03    0.11536E-03   -0.29331E-04   966   0.462E-02    0.409E-02
DAV:   4    -0.100178519255E+03    0.43344E-04   -0.12348E-04   728   0.296E-02
  48 F= -.10017852E+03 E0= -.10017852E+03  d E =-.487919E-02
 curvature:  -4.03 expect dE=-0.783E-02 dE for cont linesearch -0.631E-04
 trial: gam= 0.85007 g(F)=  0.150E-02 g(S)=  0.442E-03 ort = 0.195E-03 (trialstep = 0.201E+01)
 search vector abs. value=  0.402E-02
 bond charge predicted
       N       E                     dE             d eps       ncg     rms          rms(c)
DAV:   1    -0.100181433739E+03   -0.28711E-02   -0.91276E-02  1022   0.778E-01    0.142E-01
DAV:   2    -0.100181831664E+03   -0.39793E-03   -0.62940E-03  1260   0.198E-01    0.607E-02
DAV:   3    -0.100181779783E+03    0.51881E-04   -0.14123E-04   812   0.369E-02
  49 F= -.10018178E+03 E0= -.10018178E+03  d E =-.326053E-02
 trial-energy change:   -0.003261  1 .order   -0.003508   -0.004242   -0.002773
 step:   5.8162(harm=  5.8162)  dis= 0.00909  next Energy=  -100.184645 (dE=-0.613E-02)
 bond charge predicted
       N       E                     dE             d eps       ncg     rms          rms(c)
DAV:   1    -0.100180729061E+03    0.11026E-02   -0.32164E-01  1022   0.146E+00    0.259E-01
DAV:   2    -0.100182100966E+03   -0.13719E-02   -0.21921E-02  1260   0.369E-01    0.111E-01
DAV:   3    -0.100181927126E+03    0.17384E-03   -0.59132E-04  1288   0.682E-02    0.726E-02
DAV:   4    -0.100181818951E+03    0.10817E-03   -0.15736E-04   756   0.357E-02    0.257E-02
DAV:   5    -0.100181808874E+03    0.10077E-04   -0.73486E-05   742   0.244E-02
  50 F= -.10018181E+03 E0= -.10018181E+03  d E =-.328962E-02
 curvature:  -5.56 expect dE=-0.161E-01 dE for cont linesearch -0.154E-02
 ZBRENT: interpolating
 opt :   4.1666  next Energy=  -100.182679 (dE=-0.416E-02)
 bond charge predicted
       N       E                     dE             d eps       ncg     rms          rms(c)
DAV:   1    -0.100182664766E+03   -0.84581E-03   -0.61480E-02  1008   0.637E-01    0.111E-01
DAV:   2    -0.100182940669E+03   -0.27590E-03   -0.41830E-03  1260   0.162E-01    0.485E-02
DAV:   3    -0.100182910375E+03    0.30295E-04   -0.87585E-05   742   0.293E-02
  51 F= -.10018291E+03 E0= -.10018291E+03  d E =-.439112E-02
 curvature:  -3.15 expect dE=-0.642E-02 dE for cont linesearch -0.843E-04
 trial: gam= 1.00394 g(F)=  0.178E-02 g(S)=  0.257E-03 ort =-0.328E-03 (trialstep = 0.181E+01)
 search vector abs. value=  0.544E-02
 bond charge predicted
       N       E                     dE             d eps       ncg     rms          rms(c)
DAV:   1    -0.100184497109E+03   -0.15564E-02   -0.10449E-01  1008   0.820E-01    0.136E-01
DAV:   2    -0.100185060778E+03   -0.56367E-03   -0.70488E-03  1232   0.209E-01    0.447E-02
DAV:   3    -0.100185037090E+03    0.23688E-04   -0.13433E-04   826   0.371E-02
  52 F= -.10018504E+03 E0= -.10018504E+03  d E =-.212671E-02
 trial-energy change:   -0.002127  1 .order   -0.002198   -0.003095   -0.001300
 step:   3.1191(harm=  3.1191)  dis= 0.00742  next Energy=  -100.185579 (dE=-0.267E-02)
 bond charge predicted
       N       E                     dE             d eps       ncg     rms          rms(c)
DAV:   1    -0.100185370311E+03   -0.30953E-03   -0.52167E-02  1036   0.578E-01    0.896E-02
DAV:   2    -0.100185627861E+03   -0.25755E-03   -0.33459E-03  1274   0.143E-01    0.372E-02
DAV:   3    -0.100185615333E+03    0.12528E-04   -0.65469E-05   742   0.259E-02
  53 F= -.10018562E+03 E0= -.10018562E+03  d E =-.270496E-02
 curvature:  -4.96 expect dE=-0.905E-02 dE for cont linesearch -0.255E-04
 trial: gam= 0.40176 g(F)=  0.150E-02 g(S)=  0.326E-03 ort = 0.167E-03 (trialstep = 0.207E+01)
 search vector abs. value=  0.284E-02
 bond charge predicted
       N       E                     dE             d eps       ncg     rms          rms(c)
DAV:   1    -0.100187734969E+03   -0.21071E-02   -0.63515E-02  1008   0.649E-01    0.152E-01
DAV:   2    -0.100187616402E+03    0.11857E-03   -0.43341E-03  1260   0.169E-01    0.693E-02
DAV:   3    -0.100187508770E+03    0.10763E-03   -0.30737E-04   966   0.453E-02    0.362E-02
DAV:   4    -0.100187475017E+03    0.33753E-04   -0.96906E-05   756   0.268E-02
  54 F= -.10018748E+03 E0= -.10018748E+03  d E =-.185968E-02
 trial-energy change:   -0.001860  1 .order   -0.002262   -0.003923   -0.000600
 step:   2.4452(harm=  2.4452)  dis= 0.00471  next Energy=  -100.187931 (dE=-0.232E-02)
 bond charge predicted
       N       E                     dE             d eps       ncg     rms          rms(c)
DAV:   1    -0.100187534493E+03   -0.25724E-04   -0.19247E-03  1162   0.115E-01    0.274E-02
DAV:   2    -0.100187530508E+03    0.39849E-05   -0.12231E-04   756   0.308E-02
  55 F= -.10018753E+03 E0= -.10018753E+03  d E =-.191518E-02
 curvature:  -1.83 expect dE=-0.148E-02 dE for cont linesearch -0.157E-04
 trial: gam= 0.31139 g(F)=  0.768E-03 g(S)=  0.390E-04 ort = 0.156E-03 (trialstep = 0.215E+01)
 search vector abs. value=  0.118E-02
 bond charge predicted
       N       E                     dE             d eps       ncg     rms          rms(c)
DAV:   1    -0.100188579618E+03   -0.10451E-02   -0.25668E-02  1008   0.408E-01    0.781E-02
DAV:   2    -0.100188617927E+03   -0.38309E-04   -0.16769E-03  1260   0.103E-01    0.340E-02
DAV:   3    -0.100188587635E+03    0.30291E-04   -0.58835E-05   742   0.223E-02
  56 F= -.10018859E+03 E0= -.10018859E+03  d E =-.105713E-02
 trial-energy change:   -0.001057  1 .order   -0.001291   -0.001837   -0.000746
 step:   3.6135(harm=  3.6135)  dis= 0.00479  next Energy=  -100.189077 (dE=-0.155E-02)
 bond charge predicted
       N       E                     dE             d eps       ncg     rms          rms(c)
DAV:   1    -0.100189007200E+03   -0.38927E-03   -0.11356E-02  1036   0.273E-01    0.520E-02
DAV:   2    -0.100189018834E+03   -0.11634E-04   -0.73523E-04  1288   0.678E-02
  57 F= -.10018902E+03 E0= -.10018902E+03  d E =-.148833E-02
 curvature:  -2.49 expect dE=-0.123E-02 dE for cont linesearch -0.907E-04
 ZBRENT: increasing intervall
 opt :   6.5489  next Energy=  -100.189215 (dE=-0.168E-02)
 bond charge predicted
       N       E                     dE             d eps       ncg     rms          rms(c)
DAV:   1    -0.100188823700E+03    0.18350E-03   -0.47311E-02  1008   0.556E-01    0.108E-01
DAV:   2    -0.100188857821E+03   -0.34122E-04   -0.30831E-03  1260   0.140E-01    0.498E-02
DAV:   3    -0.100188790525E+03    0.67296E-04   -0.12552E-04   770   0.320E-02
  58 F= -.10018879E+03 E0= -.10018879E+03  d E =-.126002E-02
 curvature:  -5.39 expect dE=-0.310E-02 dE for cont linesearch -0.175E-06
 trial: gam= 0.75638 g(F)=  0.412E-03 g(S)=  0.165E-03 ort =-0.620E-05 (trialstep = 0.288E+01)
 search vector abs. value=  0.124E-02
 bond charge predicted
       N       E                     dE             d eps       ncg     rms          rms(c)
DAV:   1    -0.100189672690E+03   -0.81487E-03   -0.55224E-02  1008   0.597E-01    0.119E-01
DAV:   2    -0.100189672089E+03    0.60127E-06   -0.33443E-03  1274   0.149E-01    0.552E-02
DAV:   3    -0.100189576858E+03    0.95231E-04   -0.15394E-04   784   0.366E-02
  59 F= -.10018958E+03 E0= -.10018958E+03  d E =-.786333E-03
 trial-energy change:   -0.000786  1 .order   -0.001181   -0.001643   -0.000720
 step:   5.1157(harm=  5.1157)  dis= 0.00415  next Energy=  -100.190252 (dE=-0.146E-02)
 bond charge predicted
       N       E                     dE             d eps       ncg     rms          rms(c)
DAV:   1    -0.100189561680E+03    0.11041E-03   -0.32752E-02  1050   0.458E-01    0.938E-02
DAV:   2    -0.100189550680E+03    0.11000E-04   -0.19819E-03  1288   0.114E-01    0.429E-02
DAV:   3    -0.100189489183E+03    0.61496E-04   -0.91201E-05   742   0.284E-02
  60 F= -.10018949E+03 E0= -.10018949E+03  d E =-.698658E-03
 curvature:  -5.56 expect dE=-0.907E-02 dE for cont linesearch -0.381E-04
 trial: gam= 2.32635 g(F)=  0.156E-02 g(S)=  0.764E-04 ort =-0.923E-04 (trialstep = 0.521E+00)
 search vector abs. value=  0.792E-02
 bond charge predicted
       N       E                     dE             d eps       ncg     rms          rms(c)
DAV:   1    -0.100190031849E+03   -0.48117E-03   -0.11948E-02  1092   0.276E-01    0.577E-02
DAV:   2    -0.100190030504E+03    0.13451E-05   -0.71567E-04  1204   0.685E-02
  61 F= -.10019003E+03 E0= -.10019003E+03  d E =-.541320E-03
 trial-energy change:   -0.000541  1 .order   -0.000609   -0.000739   -0.000480
 step:   1.4895(harm=  1.4895)  dis= 0.00330  next Energy=  -100.190545 (dE=-0.106E-02)
 bond charge predicted
       N       E                     dE             d eps       ncg     rms          rms(c)
DAV:   1    -0.100190660879E+03   -0.62903E-03   -0.43876E-02  1064   0.528E-01    0.111E-01
DAV:   2    -0.100190616109E+03    0.44770E-04   -0.26643E-03  1288   0.134E-01    0.550E-02
DAV:   3    -0.100190519803E+03    0.96306E-04   -0.12861E-04   728   0.341E-02
  62 F= -.10019052E+03 E0= -.10019052E+03  d E =-.103062E-02
 curvature:  -4.16 expect dE=-0.506E-02 dE for cont linesearch -0.156E-03
 ZBRENT: increasing intervall
 opt :   3.4267  next Energy=  -100.190843 (dE=-0.135E-02)
 bond charge predicted
       N       E                     dE             d eps       ncg     rms          rms(c)
DAV:   1    -0.100190073115E+03    0.54299E-03   -0.17372E-01  1036   0.105E+00    0.213E-01
DAV:   2    -0.100190153879E+03   -0.80764E-04   -0.10507E-02  1260   0.264E-01    0.958E-02
DAV:   3    -0.100189878827E+03    0.27505E-03   -0.49753E-04  1260   0.621E-02    0.581E-02
DAV:   4    -0.100189766765E+03    0.11206E-03   -0.18979E-04   756   0.398E-02    0.179E-02
DAV:   5    -0.100189767003E+03   -0.23778E-06   -0.61261E-05   756   0.231E-02
  63 F= -.10018977E+03 E0= -.10018977E+03  d E =-.277820E-03
 curvature:  -8.63 expect dE=-0.177E-01 dE for cont linesearch -0.510E-03
 ZBRENT: bracketing found
 ZBRENT: interpolating
 opt :   2.3479  next Energy=  -100.190753 (dE=-0.126E-02)
 bond charge predicted
       N       E                     dE             d eps       ncg     rms          rms(c)
DAV:   1    -0.100190512178E+03   -0.74541E-03   -0.55389E-02  1022   0.594E-01    0.117E-01
DAV:   2    -0.100190546858E+03   -0.34680E-04   -0.33193E-03  1218   0.149E-01    0.560E-02
DAV:   3    -0.100190459660E+03    0.87197E-04   -0.13240E-04   742   0.349E-02
  64 F= -.10019046E+03 E0= -.10019046E+03  d E =-.970477E-03
 curvature:  -3.96 expect dE=-0.831E-02 dE for cont linesearch -0.320E-03
 ZBRENT: interpolating
 opt :   1.8370  next Energy=  -100.190614 (dE=-0.113E-02)
 bond charge predicted
       N       E                     dE             d eps       ncg     rms          rms(c)
DAV:   1    -0.100190589484E+03   -0.42626E-04   -0.11255E-02  1064   0.267E-01    0.561E-02
DAV:   2    -0.100190582977E+03    0.65064E-05   -0.66851E-04  1260   0.659E-02
  65 F= -.10019058E+03 E0= -.10019058E+03  d E =-.109379E-02
 curvature:  -1.17 expect dE=-0.176E-02 dE for cont linesearch -0.730E-07
 trial: gam= 0.40690 g(F)=  0.109E-02 g(S)=  0.412E-03 ort =-0.222E-04 (trialstep = 0.784E+00)
 search vector abs. value=  0.280E-02
 bond charge predicted
       N       E                     dE             d eps       ncg     rms          rms(c)
DAV:   1    -0.100191527696E+03   -0.93821E-03   -0.86600E-03  1036   0.238E-01    0.464E-02
DAV:   2    -0.100191557818E+03   -0.30122E-04   -0.58180E-04  1176   0.610E-02
  66 F= -.10019156E+03 E0= -.10019156E+03  d E =-.974841E-03
 trial-energy change:   -0.000975  1 .order   -0.001003   -0.001174   -0.000832
 step:   2.6928(harm=  2.6928)  dis= 0.00332  next Energy=  -100.192599 (dE=-0.202E-02)
 bond charge predicted
       N       E                     dE             d eps       ncg     rms          rms(c)
DAV:   1    -0.100192880172E+03   -0.13525E-02   -0.50244E-02  1008   0.571E-01    0.991E-02
DAV:   2    -0.100193065287E+03   -0.18512E-03   -0.32749E-03  1288   0.146E-01    0.449E-02
DAV:   3    -0.100193027062E+03    0.38225E-04   -0.78269E-05   756   0.286E-02
  67 F= -.10019303E+03 E0= -.10019303E+03  d E =-.244408E-02
 curvature:  -2.52 expect dE=-0.219E-02 dE for cont linesearch -0.271E-03
 ZBRENT: increasing intervall
 opt :   6.5103  next Energy=  -100.193169 (dE=-0.259E-02)
 bond charge predicted
       N       E                     dE             d eps       ncg     rms          rms(c)
DAV:   1    -0.100193284710E+03   -0.21942E-03   -0.19852E-01  1008   0.114E+00    0.194E-01
DAV:   2    -0.100194062919E+03   -0.77821E-03   -0.12882E-02  1274   0.287E-01    0.824E-02
DAV:   3    -0.100193948652E+03    0.11427E-03   -0.34793E-04  1064   0.560E-02    0.536E-02
DAV:   4    -0.100193881993E+03    0.66659E-04   -0.14318E-04   756   0.367E-02
  68 F= -.10019388E+03 E0= -.10019388E+03  d E =-.329902E-02
 curvature:  -1.31 expect dE=-0.217E-02 dE for cont linesearch -0.174E-05
 trial: gam= 1.28394 g(F)=  0.158E-02 g(S)=  0.753E-04 ort =-0.610E-04 (trialstep = 0.884E+00)
 search vector abs. value=  0.611E-02
 bond charge predicted
       N       E                     dE             d eps       ncg     rms          rms(c)
DAV:   1    -0.100195061921E+03   -0.11133E-02   -0.22198E-02  1036   0.380E-01    0.621E-02
DAV:   2    -0.100195155507E+03   -0.93586E-04   -0.13749E-03  1232   0.936E-02    0.251E-02
DAV:   3    -0.100195147378E+03    0.81289E-05   -0.30952E-05   756   0.180E-02
  69 F= -.10019515E+03 E0= -.10019515E+03  d E =-.126538E-02
 ZBRENT: can't locate minimum, use default step
 trial-energy change:   -0.001265  1 .order   -0.001298   -0.001391   -0.001204
 step:   3.5359(harm=  6.5905)  dis= 0.00720  next Energy=  -100.199067 (dE=-0.518E-02)
 bond charge predicted
       N       E                     dE             d eps       ncg     rms          rms(c)
DAV:   1    -0.100197129214E+03   -0.19737E-02   -0.20203E-01  1008   0.114E+00    0.179E-01
DAV:   2    -0.100198012486E+03   -0.88327E-03   -0.12543E-02  1246   0.283E-01    0.767E-02
DAV:   3    -0.100197930547E+03    0.81939E-04   -0.26681E-04  1036   0.500E-02
  70 F= -.10019793E+03 E0= -.10019793E+03  d E =-.404855E-02
 curvature:  -9.13 expect dE=-0.180E-01 dE for cont linesearch -0.125E-02
 ZBRENT: increasing intervall
 opt :   8.8398  next Energy=  -100.200417 (dE=-0.654E-02)
 bond charge predicted
       N       E                     dE             d eps       ncg     rms          rms(c)
DAV:   1    -0.100191460958E+03    0.65515E-02   -0.80413E-01  1008   0.228E+00    0.354E-01
DAV:   2    -0.100194893314E+03   -0.34324E-02   -0.49522E-02  1246   0.563E-01    0.156E-01
DAV:   3    -0.100194571529E+03    0.32178E-03   -0.11910E-03  1400   0.999E-02    0.108E-01
DAV:   4    -0.100194344516E+03    0.22701E-03   -0.51602E-04  1176   0.646E-02    0.348E-02
DAV:   5    -0.100194342910E+03    0.16060E-05   -0.12782E-04   756   0.325E-02
  71 F= -.10019434E+03 E0= -.10019434E+03  d E =-.460916E-03
 curvature: -18.12 expect dE=-0.809E-01 dE for cont linesearch -0.120E-01
 ZBRENT: bracketing found
 ZBRENT: interpolating
 opt :   5.1935  next Energy=  -100.198689 (dE=-0.481E-02)
 bond charge predicted
       N       E                     dE             d eps       ncg     rms          rms(c)
DAV:   1    -0.100196958666E+03   -0.26142E-02   -0.38572E-01  1008   0.158E+00    0.241E-01
DAV:   2    -0.100198677908E+03   -0.17192E-02   -0.23875E-02  1232   0.393E-01    0.108E-01
DAV:   3    -0.100198529813E+03    0.14809E-03   -0.54843E-04  1302   0.687E-02    0.752E-02
DAV:   4    -0.100198416212E+03    0.11360E-03   -0.22039E-04   756   0.452E-02    0.234E-02
DAV:   5    -0.100198419744E+03   -0.35320E-05   -0.97339E-05   742   0.279E-02
  72 F= -.10019842E+03 E0= -.10019842E+03  d E =-.453775E-02
 curvature:  -1.14 expect dE=-0.257E-02 dE for cont linesearch -0.113E-06
 trial: gam= 1.12631 g(F)=  0.159E-02 g(S)=  0.665E-03 ort =-0.246E-04 (trialstep = 0.107E+01)
 search vector abs. value=  0.995E-02
 bond charge predicted
       N       E                     dE             d eps       ncg     rms          rms(c)
DAV:   1    -0.100199973124E+03   -0.15569E-02   -0.53728E-02  1008   0.589E-01    0.893E-02
DAV:   2    -0.100200165835E+03   -0.19271E-03   -0.31075E-03  1204   0.142E-01    0.432E-02
DAV:   3    -0.100200138655E+03    0.27179E-04   -0.63024E-05   756   0.257E-02
  73 F= -.10020014E+03 E0= -.10020014E+03  d E =-.171891E-02
 trial-energy change:   -0.001719  1 .order   -0.001776   -0.002386   -0.001167
 step:   2.0985(harm=  2.0985)  dis= 0.00605  next Energy=  -100.200754 (dE=-0.233E-02)
 bond charge predicted
       N       E                     dE             d eps       ncg     rms          rms(c)
DAV:   1    -0.100200661347E+03   -0.49551E-03   -0.47186E-02  1008   0.552E-01    0.843E-02
DAV:   2    -0.100200819978E+03   -0.15863E-03   -0.27223E-03  1246   0.132E-01    0.395E-02
DAV:   3    -0.100200797102E+03    0.22877E-04   -0.56960E-05   756   0.242E-02
  74 F= -.10020080E+03 E0= -.10020080E+03  d E =-.237736E-02
 curvature:  -4.69 expect dE=-0.989E-02 dE for cont linesearch -0.492E-04
 trial: gam= 0.25899 g(F)=  0.164E-02 g(S)=  0.472E-03 ort = 0.323E-03 (trialstep = 0.128E+01)
 search vector abs. value=  0.294E-02
 bond charge predicted
       N       E                     dE             d eps       ncg     rms          rms(c)
DAV:   1    -0.100202998332E+03   -0.21784E-02   -0.27271E-02  1064   0.424E-01    0.985E-02
DAV:   2    -0.100202977084E+03    0.21248E-04   -0.17196E-03  1302   0.106E-01    0.411E-02
DAV:   3    -0.100202917389E+03    0.59695E-04   -0.84506E-05   756   0.267E-02
  75 F= -.10020292E+03 E0= -.10020292E+03  d E =-.212029E-02
 trial-energy change:   -0.002120  1 .order   -0.002256   -0.002800   -0.001712
 step:   3.2882(harm=  3.2882)  dis= 0.00504  next Energy=  -100.204401 (dE=-0.360E-02)
 bond charge predicted
       N       E                     dE             d eps       ncg     rms          rms(c)
DAV:   1    -0.100204232458E+03   -0.12554E-02   -0.68759E-02  1036   0.673E-01    0.156E-01
DAV:   2    -0.100204175565E+03    0.56893E-04   -0.43320E-03  1288   0.169E-01    0.657E-02
DAV:   3    -0.100204022932E+03    0.15263E-03   -0.22205E-04   812   0.429E-02    0.358E-02
DAV:   4    -0.100203974127E+03    0.48805E-04   -0.16267E-04   742   0.357E-02
  76 F= -.10020397E+03 E0= -.10020397E+03  d E =-.317703E-02
 curvature:  -2.21 expect dE=-0.310E-02 dE for cont linesearch -0.664E-05
 trial: gam= 0.65288 g(F)=  0.119E-02 g(S)=  0.212E-03 ort = 0.941E-04 (trialstep = 0.168E+01)
 search vector abs. value=  0.278E-02
 bond charge predicted
       N       E                     dE             d eps       ncg     rms          rms(c)
DAV:   1    -0.100205140690E+03   -0.11178E-02   -0.44285E-02  1078   0.538E-01    0.131E-01
DAV:   2    -0.100204997323E+03    0.14337E-03   -0.28860E-03  1260   0.139E-01    0.584E-02
DAV:   3    -0.100204902992E+03    0.94331E-04   -0.22793E-04   770   0.396E-02
  77 F= -.10020490E+03 E0= -.10020490E+03  d E =-.928865E-03
 trial-energy change:   -0.000929  1 .order   -0.001300   -0.002462   -0.000138
 step:   1.7793(harm=  1.7793)  dis= 0.00212  next Energy=  -100.205278 (dE=-0.130E-02)
 bond charge predicted
       N       E                     dE             d eps       ncg     rms          rms(c)
DAV:   1    -0.100204865334E+03    0.13199E-03   -0.12669E-04   728   0.321E-02    0.138E-02
DAV:   2    -0.100204863329E+03    0.20052E-05   -0.28963E-05   714   0.156E-02
  78 F= -.10020486E+03 E0= -.10020486E+03  d E =-.889202E-03
 curvature:  -1.69 expect dE=-0.198E-02 dE for cont linesearch -0.279E-04
 trial: gam= 0.74431 g(F)=  0.955E-03 g(S)=  0.215E-03 ort =-0.214E-03 (trialstep = 0.170E+01)
 search vector abs. value=  0.239E-02
 bond charge predicted
       N       E                     dE             d eps       ncg     rms          rms(c)
DAV:   1    -0.100205895954E+03   -0.10306E-02   -0.37106E-02  1050   0.492E-01    0.857E-02
DAV:   2    -0.100206060124E+03   -0.16417E-03   -0.25758E-03  1260   0.128E-01    0.345E-02
DAV:   3    -0.100206045938E+03    0.14186E-04   -0.73326E-05   756   0.262E-02
  79 F= -.10020605E+03 E0= -.10020605E+03  d E =-.118261E-02
 trial-energy change:   -0.001183  1 .order   -0.001166   -0.001717   -0.000614
 step:   2.6455(harm=  2.6455)  dis= 0.00332  next Energy=  -100.206200 (dE=-0.134E-02)
 bond charge predicted
       N       E                     dE             d eps       ncg     rms          rms(c)
DAV:   1    -0.100206248950E+03   -0.18883E-03   -0.10880E-02  1106   0.267E-01    0.461E-02
DAV:   2    -0.100206286888E+03   -0.37938E-04   -0.73111E-04  1246   0.682E-02
  80 F= -.10020629E+03 E0= -.10020629E+03  d E =-.142356E-02
 curvature:  -3.13 expect dE=-0.266E-02 dE for cont linesearch -0.708E-04
 ZBRENT: increasing intervall
 opt :   4.5374  next Energy=  -100.206483 (dE=-0.162E-02)
 bond charge predicted
       N       E                     dE             d eps       ncg     rms          rms(c)
DAV:   1    -0.100205675910E+03    0.57304E-03   -0.45111E-02  1022   0.544E-01    0.946E-02
DAV:   2    -0.100205851376E+03   -0.17547E-03   -0.31198E-03  1260   0.141E-01    0.452E-02
DAV:   3    -0.100205826485E+03    0.24890E-04   -0.93175E-05   742   0.294E-02
  81 F= -.10020583E+03 E0= -.10020583E+03  d E =-.963156E-03
 curvature:  -8.69 expect dE=-0.117E-01 dE for cont linesearch -0.623E-03
 ZBRENT: bracketing found
 ZBRENT: interpolating
 opt :   3.3257  next Energy=  -100.206366 (dE=-0.150E-02)
 bond charge predicted
       N       E                     dE             d eps       ncg     rms          rms(c)
DAV:   1    -0.100206200495E+03   -0.34912E-03   -0.19730E-02  1036   0.360E-01    0.654E-02
DAV:   2    -0.100206302652E+03   -0.10216E-03   -0.14273E-03  1260   0.952E-02    0.232E-02
DAV:   3    -0.100206295651E+03    0.70014E-05   -0.35348E-05   644   0.185E-02
  82 F= -.10020630E+03 E0= -.10020630E+03  d E =-.143232E-02
 curvature:  -1.10 expect dE=-0.140E-02 dE for cont linesearch -0.143E-04
 trial: gam= 0.70828 g(F)=  0.831E-03 g(S)=  0.440E-03 ort =-0.176E-03 (trialstep = 0.202E+01)
 search vector abs. value=  0.222E-02
 bond charge predicted
       N       E                     dE             d eps       ncg     rms          rms(c)
DAV:   1    -0.100207878771E+03   -0.15761E-02   -0.54402E-02  1036   0.596E-01    0.143E-01
DAV:   2    -0.100207773061E+03    0.10571E-03   -0.37285E-03  1260   0.155E-01    0.650E-02
DAV:   3    -0.100207667397E+03    0.10566E-03   -0.23190E-04   756   0.395E-02    0.320E-02
DAV:   4    -0.100207631222E+03    0.36175E-04   -0.10494E-04   756   0.282E-02
  83 F= -.10020763E+03 E0= -.10020763E+03  d E =-.133557E-02
 trial-energy change:   -0.001336  1 .order   -0.001505   -0.002322   -0.000689
 step:   2.8786(harm=  2.8786)  dis= 0.00358  next Energy=  -100.207946 (dE=-0.165E-02)
 bond charge predicted
       N       E                     dE             d eps       ncg     rms          rms(c)
DAV:   1    -0.100207833538E+03   -0.16614E-03   -0.92505E-03  1064   0.247E-01    0.558E-02
DAV:   2    -0.100207813665E+03    0.19874E-04   -0.64331E-04  1176   0.649E-02
  84 F= -.10020781E+03 E0= -.10020781E+03  d E =-.151801E-02
 curvature:  -2.79 expect dE=-0.178E-02 dE for cont linesearch -0.102E-04
 trial: gam= 0.31750 g(F)=  0.450E-03 g(S)=  0.188E-03 ort = 0.903E-04 (trialstep = 0.220E+01)
 search vector abs. value=  0.919E-03
 bond charge predicted
       N       E                     dE             d eps       ncg     rms          rms(c)
DAV:   1    -0.100208939446E+03   -0.11059E-02   -0.28151E-02  1078   0.421E-01    0.127E-01
DAV:   2    -0.100208589048E+03    0.35040E-03   -0.17940E-03  1274   0.108E-01    0.590E-02
DAV:   3    -0.100208456513E+03    0.13254E-03   -0.29394E-04   896   0.407E-02    0.254E-02
DAV:   4    -0.100208430418E+03    0.26095E-04   -0.56472E-05   714   0.221E-02
  85 F= -.10020843E+03 E0= -.10020843E+03  d E =-.616753E-03
 trial-energy change:   -0.000617  1 .order   -0.000987   -0.001464   -0.000511
 step:   3.3734(harm=  3.3734)  dis= 0.00269  next Energy=  -100.208938 (dE=-0.112E-02)
 bond charge predicted
       N       E                     dE             d eps       ncg     rms          rms(c)
DAV:   1    -0.100208597224E+03   -0.14071E-03   -0.79858E-03  1078   0.225E-01    0.622E-02
DAV:   2    -0.100208514081E+03    0.83142E-04   -0.49652E-04  1148   0.578E-02
  86 F= -.10020851E+03 E0= -.10020851E+03  d E =-.700417E-03
 curvature:  -2.33 expect dE=-0.117E-02 dE for cont linesearch -0.705E-05
 trial: gam= 0.66339 g(F)=  0.402E-03 g(S)=  0.997E-04 ort = 0.528E-04 (trialstep = 0.229E+01)
 search vector abs. value=  0.976E-03
 bond charge predicted
       N       E                     dE             d eps       ncg     rms          rms(c)
DAV:   1    -0.100209041076E+03   -0.44385E-03   -0.31817E-02  1050   0.446E-01    0.858E-02
DAV:   2    -0.100209060266E+03   -0.19190E-04   -0.19248E-03  1274   0.111E-01    0.423E-02
DAV:   3    -0.100209013847E+03    0.46419E-04   -0.77574E-05   742   0.263E-02
  87 F= -.10020901E+03 E0= -.10020901E+03  d E =-.499766E-03
 trial-energy change:   -0.000500  1 .order   -0.000787   -0.001228   -0.000345
 step:   3.1847(harm=  3.1847)  dis= 0.00235  next Energy=  -100.209368 (dE=-0.854E-03)
 bond charge predicted
       N       E                     dE             d eps       ncg     rms          rms(c)
DAV:   1    -0.100209064789E+03   -0.45227E-05   -0.44379E-03  1106   0.166E-01    0.321E-02
DAV:   2    -0.100209064139E+03    0.65043E-06   -0.23579E-04   854   0.405E-02
  88 F= -.10020906E+03 E0= -.10020906E+03  d E =-.550057E-03
 curvature:  -2.90 expect dE=-0.284E-02 dE for cont linesearch -0.241E-04
 trial: gam= 1.40163 g(F)=  0.565E-03 g(S)=  0.414E-03 ort = 0.901E-04 (trialstep = 0.765E+00)
 search vector abs. value=  0.315E-02
 bond charge predicted
       N       E                     dE             d eps       ncg     rms          rms(c)
DAV:   1    -0.100209790034E+03   -0.72524E-03   -0.12059E-02  1078   0.275E-01    0.571E-02
DAV:   2    -0.100209802820E+03   -0.12787E-04   -0.71816E-04  1246   0.695E-02
  89 F= -.10020980E+03 E0= -.10020980E+03  d E =-.738682E-03
 ZBRENT: can't locate minimum, use default step
 trial-energy change:   -0.000739  1 .order   -0.000764   -0.000846   -0.000682
 step:   3.0610(harm=  3.9591)  dis= 0.00374  next Energy=  -100.211252 (dE=-0.219E-02)
 bond charge predicted
       N       E                     dE             d eps       ncg     rms          rms(c)
DAV:   1    -0.100211089729E+03   -0.12997E-02   -0.10694E-01  1036   0.821E-01    0.172E-01
DAV:   2    -0.100211168206E+03   -0.78477E-04   -0.64307E-03  1260   0.207E-01    0.849E-02
DAV:   3    -0.100211041768E+03    0.12644E-03   -0.33288E-04  1008   0.501E-02    0.489E-02
DAV:   4    -0.100210995563E+03    0.46205E-04   -0.94663E-05   756   0.297E-02
  90 F= -.10021100E+03 E0= -.10021100E+03  d E =-.193142E-02
 curvature:  -5.19 expect dE=-0.370E-02 dE for cont linesearch -0.110E-03
 ZBRENT: extrapolating
 opt :   3.9946  next Energy=  -100.211116 (dE=-0.205E-02)
 bond charge predicted
       N       E                     dE             d eps       ncg     rms          rms(c)
DAV:   1    -0.100211011204E+03    0.30564E-04   -0.17206E-02  1064   0.330E-01    0.676E-02
DAV:   2    -0.100211037232E+03   -0.26028E-04   -0.10376E-03  1302   0.829E-02    0.292E-02
DAV:   3    -0.100211023818E+03    0.13414E-04   -0.48177E-05   756   0.201E-02
  91 F= -.10021102E+03 E0= -.10021102E+03  d E =-.195968E-02
 curvature:  -5.70 expect dE=-0.518E-02 dE for cont linesearch -0.692E-04
 ZBRENT: bracketing found
 ZBRENT: interpolating
 opt :   3.5921  next Energy=  -100.211063 (dE=-0.200E-02)
 bond charge predicted
       N       E                     dE             d eps       ncg     rms          rms(c)
DAV:   1    -0.100211068668E+03   -0.31436E-04   -0.35591E-03  1092   0.151E-01    0.310E-02
DAV:   2    -0.100211075681E+03   -0.70131E-05   -0.20756E-04   798   0.390E-02
  92 F= -.10021108E+03 E0= -.10021108E+03  d E =-.201154E-02
 curvature:  -3.24 expect dE=-0.298E-02 dE for cont linesearch -0.693E-07
 trial: gam= 1.00900 g(F)=  0.695E-03 g(S)=  0.222E-03 ort =-0.820E-05 (trialstep = 0.102E+01)
 search vector abs. value=  0.411E-02
 bond charge predicted
       N       E                     dE             d eps       ncg     rms          rms(c)
DAV:   1    -0.100211554460E+03   -0.48579E-03   -0.26373E-02  1064   0.407E-01    0.698E-02
DAV:   2    -0.100211651070E+03   -0.96610E-04   -0.15951E-03  1232   0.101E-01    0.277E-02
DAV:   3    -0.100211636597E+03    0.14473E-04   -0.37687E-05   728   0.202E-02
  93 F= -.10021164E+03 E0= -.10021164E+03  d E =-.560916E-03
 trial-energy change:   -0.000561  1 .order   -0.000744   -0.000928   -0.000561
 step:   2.5799(harm=  2.5799)  dis= 0.00392  next Energy=  -100.212249 (dE=-0.117E-02)
 bond charge predicted
       N       E                     dE             d eps       ncg     rms          rms(c)
DAV:   1    -0.100211866595E+03   -0.21553E-03   -0.60459E-02  1036   0.613E-01    0.103E-01
DAV:   2    -0.100212058073E+03   -0.19148E-03   -0.35064E-03  1274   0.149E-01    0.475E-02
DAV:   3    -0.100212018133E+03    0.39940E-04   -0.84302E-05   756   0.298E-02
  94 F= -.10021202E+03 E0= -.10021202E+03  d E =-.942452E-03
 curvature:  -5.83 expect dE=-0.731E-02 dE for cont linesearch -0.674E-05
 trial: gam= 1.01677 g(F)=  0.102E-02 g(S)=  0.237E-03 ort = 0.690E-04 (trialstep = 0.970E+00)
 search vector abs. value=  0.564E-02
 bond charge predicted
       N       E                     dE             d eps       ncg     rms          rms(c)
DAV:   1    -0.100213087670E+03   -0.10296E-02   -0.32425E-02  1064   0.446E-01    0.870E-02
DAV:   2    -0.100213115122E+03   -0.27452E-04   -0.18083E-03  1246   0.107E-01    0.421E-02
DAV:   3    -0.100213072930E+03    0.42192E-04   -0.63647E-05   756   0.238E-02
  95 F= -.10021307E+03 E0= -.10021307E+03  d E =-.105480E-02
 trial-energy change:   -0.001055  1 .order   -0.001110   -0.001285   -0.000935
 step:   3.5518(harm=  3.5518)  dis= 0.00575  next Energy=  -100.214372 (dE=-0.235E-02)
 bond charge predicted
       N       E                     dE             d eps       ncg     rms          rms(c)
DAV:   1    -0.100212941177E+03    0.17394E-03   -0.23827E-01  1036   0.121E+00    0.234E-01
DAV:   2    -0.100213261671E+03   -0.32049E-03   -0.13588E-02  1218   0.295E-01    0.110E-01
DAV:   3    -0.100212983477E+03    0.27819E-03   -0.54191E-04  1274   0.643E-02    0.678E-02
DAV:   4    -0.100212846174E+03    0.13730E-03   -0.25743E-04   840   0.453E-02    0.209E-02
DAV:   5    -0.100212845862E+03    0.31211E-06   -0.70560E-05   756   0.245E-02
  96 F= -.10021285E+03 E0= -.10021285E+03  d E =-.827729E-03
 curvature:  -7.56 expect dE=-0.115E-01 dE for cont linesearch -0.772E-03
 ZBRENT: interpolating
 opt :   2.4140  next Energy=  -100.213278 (dE=-0.126E-02)
 bond charge predicted
       N       E                     dE             d eps       ncg     rms          rms(c)
DAV:   1    -0.100213370322E+03   -0.52415E-03   -0.47430E-02  1064   0.540E-01    0.103E-01
DAV:   2    -0.100213434314E+03   -0.63992E-04   -0.26894E-03  1204   0.132E-01    0.513E-02
DAV:   3    -0.100213379335E+03    0.54979E-04   -0.88485E-05   728   0.285E-02
  97 F= -.10021338E+03 E0= -.10021338E+03  d E =-.136120E-02
 curvature:  -4.23 expect dE=-0.664E-02 dE for cont linesearch -0.615E-04
 trial: gam= 0.89285 g(F)=  0.122E-02 g(S)=  0.354E-03 ort =-0.287E-03 (trialstep = 0.126E+01)
 search vector abs. value=  0.556E-02
 bond charge predicted
       N       E                     dE             d eps       ncg     rms          rms(c)
DAV:   1    -0.100213848335E+03   -0.41402E-03   -0.52821E-02  1050   0.580E-01    0.107E-01
DAV:   2    -0.100214042379E+03   -0.19404E-03   -0.34498E-03  1274   0.148E-01    0.490E-02
DAV:   3    -0.100214005224E+03    0.37156E-04   -0.90885E-05   728   0.290E-02
  98 F= -.10021401E+03 E0= -.10021401E+03  d E =-.625889E-03
 trial-energy change:   -0.000626  1 .order   -0.000881   -0.001655   -0.000108
 step:   1.3464(harm=  1.3464)  dis= 0.00247  next Energy=  -100.214264 (dE=-0.885E-03)
 bond charge predicted
       N       E                     dE             d eps       ncg     rms          rms(c)
DAV:   1    -0.100213978860E+03    0.63519E-04   -0.17331E-04   686   0.359E-02    0.990E-03
DAV:   2    -0.100213978491E+03    0.36936E-06   -0.27394E-05   644   0.159E-02
  99 F= -.10021398E+03 E0= -.10021398E+03  d E =-.599156E-03
 curvature:  -2.84 expect dE=-0.322E-02 dE for cont linesearch -0.413E-05
 trial: gam= 0.40152 g(F)=  0.104E-02 g(S)=  0.881E-04 ort =-0.898E-04 (trialstep = 0.128E+01)
 search vector abs. value=  0.196E-02
