CIS                                     
           1
    -7.352453    0.010866   -0.320522
     2.079511    9.392292   -0.095123
    -0.868293   -1.831164  -11.293334
   Na   Sb   Se
   4   8  14
Direct configuration=     1
   0.31115542  0.34441321  0.12071091
   0.42984391  0.75709282  0.58776848
   0.57015609  0.24290718  0.41223152
   0.68884458  0.65558679  0.87928909
   0.02315420  0.95990407  0.33147171
   0.14199245  0.44665643  0.80913698
   0.74976107  0.13058205  0.04997949
   0.52661781  0.20611778  0.75677449
   0.25023893  0.86941795  0.95002051
   0.97684580  0.04009593  0.66852829
   0.85800755  0.55334357  0.19086302
   0.47338219  0.79388222  0.24322551
   0.82206227  0.84948094  0.12911662
   0.67466501  0.35492854  0.95397689
   0.47426548  0.45746856  0.68851471
   0.27615276  0.01784078  0.52825276
   0.05620988  0.70110794  0.36589446
   0.32533499  0.64507146  0.04602311
   0.42301706  0.07924352  0.17006298
   0.94379012  0.29889206  0.63410554
   0.57698294  0.92075648  0.82993702
   0.91629827  0.30258862  0.23972447
   0.08370173  0.69741138  0.76027553
   0.72384724  0.98215922  0.47174724
   0.52573452  0.54253144  0.31148529
   0.17793773  0.15051906  0.87088338
CIS                                     
           1
    -7.353428    0.010560   -0.320053
     2.080229    9.393191   -0.096131
    -0.867988   -1.830209  -11.288168
   Na   Sb   Se
   4   8  14
Direct configuration=     2
   0.31114549  0.34439755  0.12069281
   0.42983426  0.75710355  0.58778199
   0.57016574  0.24289645  0.41221801
   0.68885451  0.65560245  0.87930719
   0.02305178  0.96008704  0.33154858
   0.14182746  0.44666629  0.80906385
   0.74973878  0.13058619  0.04999569
   0.52635017  0.20610483  0.75667368
   0.25026122  0.86941381  0.95000431
   0.97694822  0.03991296  0.66845142
   0.85817254  0.55333371  0.19093615
   0.47364983  0.79389517  0.24332632
   0.82205395  0.84946286  0.12910342
   0.67464651  0.35494411  0.95397440
   0.47424745  0.45742142  0.68851708
   0.27614607  0.01790792  0.52824494
   0.05612323  0.70108734  0.36594173
   0.32535349  0.64505589  0.04602560
   0.42298590  0.07922304  0.17004357
   0.94387677  0.29891266  0.63405827
   0.57701410  0.92077696  0.82995643
   0.91636769  0.30257897  0.23975715
   0.08363231  0.69742103  0.76024285
   0.72385393  0.98209208  0.47175506
   0.52575255  0.54257858  0.31148292
   0.17794605  0.15053714  0.87089658
CIS                                     
           1
    -7.356351    0.009640   -0.318646
     2.082385    9.395887   -0.099157
    -0.867072   -1.827342  -11.272672
   Na   Sb   Se
   4   8  14
Direct configuration=     3
   0.31111572  0.34435057  0.12063849
   0.42980533  0.75713575  0.58782252
   0.57019467  0.24286425  0.41217748
   0.68888428  0.65564943  0.87936151
   0.02274460  0.96063588  0.33177926
   0.14133258  0.44669587  0.80884433
   0.74967190  0.13059860  0.05004428
   0.52554735  0.20606594  0.75637109
   0.25032810  0.86940140  0.94995572
   0.97725540  0.03936412  0.66822074
   0.85866742  0.55330413  0.19115567
   0.47445265  0.79393406  0.24362891
   0.82202896  0.84940864  0.12906379
   0.67459103  0.35499082  0.95396693
   0.47419337  0.45728002  0.68852422
   0.27612602  0.01810932  0.52822144
   0.05586328  0.70102553  0.36608361
   0.32540897  0.64500918  0.04603307
   0.42289243  0.07916162  0.16998531
   0.94413672  0.29897447  0.63391639
   0.57710757  0.92083838  0.83001469
   0.91657593  0.30255003  0.23985526
   0.08342407  0.69744997  0.76014474
   0.72387398  0.98189068  0.47177856
   0.52580663  0.54271998  0.31147578
   0.17797104  0.15059136  0.87093621
CIS                                     
           1
    -7.362198    0.007800   -0.315831
     2.086697    9.401281   -0.105208
    -0.865240   -1.821608  -11.241680
   Na   Sb   Se
   4   8  14
Direct configuration=     4
   0.31105617  0.34425664  0.12052971
   0.42974749  0.75720010  0.58790368
   0.57025251  0.24279990  0.41209632
   0.68894383  0.65574336  0.87947029
   0.02213069  0.96173309  0.33224086
   0.14034323  0.44675491  0.80840453
   0.74953821  0.13062339  0.05014159
   0.52394234  0.20598801  0.75576488
   0.25046179  0.86937661  0.94985841
   0.97786931  0.03826691  0.66775914
   0.85965677  0.55324509  0.19159547
   0.47605766  0.79401199  0.24423512
   0.82197899  0.84930021  0.12898444
   0.67448013  0.35508419  0.95395192
   0.47408517  0.45699731  0.68853858
   0.27608604  0.01851199  0.52817427
   0.05534356  0.70090189  0.36636772
   0.32551987  0.64491581  0.04604808
   0.42270553  0.07903878  0.16986865
   0.94465644  0.29909811  0.63363228
   0.57729447  0.92096122  0.83013135
   0.91699222  0.30249221  0.24005182
   0.08300778  0.69750779  0.75994818
   0.72391396  0.98148801  0.47182573
   0.52591483  0.54300269  0.31146142
   0.17802101  0.15069979  0.87101556
CIS                                     
           1
    -7.359450    0.008665   -0.317154
     2.084670    9.398745   -0.102363
    -0.866101   -1.824303  -11.256249
   Na   Sb   Se
   4   8  14
Direct configuration=     5
   0.31108415  0.34430077  0.12058097
   0.42977465  0.75716988  0.58786545
   0.57022535  0.24283012  0.41213455
   0.68891585  0.65569923  0.87941903
   0.02241885  0.96121774  0.33202363
   0.14080793  0.44672728  0.80861199
   0.74960101  0.13061176  0.05009574
   0.52469625  0.20602478  0.75605082
   0.25039899  0.86938824  0.94990426
   0.97758115  0.03878226  0.66797637
   0.85919207  0.55327272  0.19138801
   0.47530375  0.79397522  0.24394918
   0.82200248  0.84935115  0.12902182
   0.67453220  0.35504034  0.95395903
   0.47413606  0.45713013  0.68853176
   0.27610473  0.01832283  0.52819661
   0.05558773  0.70096004  0.36623383
   0.32546780  0.64495966  0.04604097
   0.42279334  0.07909650  0.16992364
   0.94441227  0.29903996  0.63376617
   0.57720666  0.92090350  0.83007636
   0.91679669  0.30251933  0.23995910
   0.08320331  0.69748067  0.76004090
   0.72389527  0.98167717  0.47180339
   0.52586394  0.54286987  0.31146824
   0.17799752  0.15064885  0.87097818
CIS                                     
           1
    -7.357854    0.009167   -0.317922
     2.083493    9.397273   -0.100712
    -0.866601   -1.825868  -11.264708
   Na   Sb   Se
   4   8  14
Direct configuration=     6
   0.31110040  0.34432640  0.12061070
   0.42979042  0.75715232  0.58784327
   0.57020958  0.24284768  0.41215673
   0.68889960  0.65567360  0.87938930
   0.02258627  0.96091842  0.33189757
   0.14107783  0.44671120  0.80873224
   0.74963748  0.13060501  0.05006915
   0.52513412  0.20604610  0.75621657
   0.25036252  0.86939499  0.94993085
   0.97741373  0.03908158  0.66810243
   0.85892217  0.55328880  0.19126776
   0.47486588  0.79395390  0.24378343
   0.82201612  0.84938073  0.12904350
   0.67456245  0.35501487  0.95396315
   0.47416559  0.45720727  0.68852781
   0.27611561  0.01821297  0.52820954
   0.05572953  0.70099380  0.36615619
   0.32543755  0.64498513  0.04603685
   0.42284434  0.07913002  0.16995552
   0.94427047  0.29900620  0.63384381
   0.57715566  0.92086998  0.83004448
   0.91668313  0.30253509  0.23990535
   0.08331687  0.69746491  0.76009465
   0.72388439  0.98178703  0.47179046
   0.52583441  0.54279273  0.31147219
   0.17798388  0.15061927  0.87095650
CIS                                     
           1
    -7.358582    0.008938   -0.317572
     2.084031    9.397946   -0.101466
    -0.866373   -1.825154  -11.260846
   Na   Sb   Se
   4   8  14
Direct configuration=     7
   0.31109299  0.34431470  0.12059714
   0.42978322  0.75716034  0.58785339
   0.57021678  0.24283966  0.41214661
   0.68890701  0.65568530  0.87940286
   0.02250980  0.96105511  0.33195511
   0.14095457  0.44671855  0.80867739
   0.74962083  0.13060809  0.05008129
   0.52493417  0.20603638  0.75614097
   0.25037917  0.86939191  0.94991871
   0.97749020  0.03894489  0.66804489
   0.85904543  0.55328145  0.19132261
   0.47506583  0.79396362  0.24385903
   0.82200989  0.84936722  0.12903361
   0.67454864  0.35502650  0.95396127
   0.47415211  0.45717205  0.68852961
   0.27611064  0.01826314  0.52820365
   0.05566478  0.70097839  0.36619161
   0.32545136  0.64497350  0.04603873
   0.42282105  0.07911472  0.16994097
   0.94433522  0.29902161  0.63380839
   0.57717895  0.92088528  0.83005903
   0.91673499  0.30252789  0.23992987
   0.08326501  0.69747211  0.76007013
   0.72388936  0.98173686  0.47179635
   0.52584789  0.54282795  0.31147039
   0.17799011  0.15063278  0.87096639
CIS                                     
           1
    -7.359016    0.008802   -0.317363
     2.084351    9.398345   -0.101914
    -0.866237   -1.824729  -11.258547
   Na   Sb   Se
   4   8  14
Direct configuration=     8
   0.31108857  0.34430773  0.12058906
   0.42977893  0.75716511  0.58785941
   0.57022107  0.24283489  0.41214059
   0.68891143  0.65569227  0.87941094
   0.02246430  0.96113645  0.33198935
   0.14088123  0.44672292  0.80864473
   0.74961092  0.13060993  0.05008851
   0.52481518  0.20603059  0.75609595
   0.25038908  0.86939007  0.94991149
   0.97753570  0.03886355  0.66801065
   0.85911877  0.55327708  0.19135527
   0.47518482  0.79396941  0.24390405
   0.82200619  0.84935918  0.12902772
   0.67454042  0.35503343  0.95396016
   0.47414408  0.45715108  0.68853068
   0.27610768  0.01829299  0.52820014
   0.05562625  0.70096922  0.36621270
   0.32545958  0.64496657  0.04603984
   0.42280719  0.07910561  0.16993231
   0.94437375  0.29903078  0.63378730
   0.57719281  0.92089439  0.83006769
   0.91676585  0.30252361  0.23994446
   0.08323415  0.69747639  0.76005554
   0.72389232  0.98170701  0.47179986
   0.52585592  0.54284892  0.31146932
   0.17799381  0.15064082  0.87097228
CIS                                     
           1
    -7.358776    0.008877   -0.317478
     2.084174    9.398125   -0.101667
    -0.866312   -1.824963  -11.259817
   Na   Sb   Se
   4   8  14
Direct configuration=     9
   0.31109101  0.34431158  0.12059352
   0.42978130  0.75716248  0.58785609
   0.57021870  0.24283752  0.41214391
   0.68890899  0.65568842  0.87940648
   0.02248942  0.96109154  0.33197044
   0.14092173  0.44672051  0.80866277
   0.74961639  0.13060892  0.05008452
   0.52488088  0.20603379  0.75612082
   0.25038361  0.86939108  0.94991548
   0.97751058  0.03890846  0.66802956
   0.85907827  0.55327949  0.19133723
   0.47511912  0.79396621  0.24387918
   0.82200823  0.84936362  0.12903097
   0.67454495  0.35502960  0.95396077
   0.47414852  0.45716266  0.68853009
   0.27610931  0.01827651  0.52820208
   0.05564752  0.70097428  0.36620105
   0.32545505  0.64497040  0.04603923
   0.42281485  0.07911064  0.16993710
   0.94435248  0.29902572  0.63379895
   0.57718515  0.92088936  0.83006290
   0.91674881  0.30252597  0.23993640
   0.08325119  0.69747403  0.76006360
   0.72389069  0.98172349  0.47179792
   0.52585148  0.54283734  0.31146991
   0.17799177  0.15063638  0.87096903
CIS                                     
           1
    -7.362284    0.007424   -0.316743
     2.087102    9.401750   -0.103147
    -0.865874   -1.824282  -11.261810
   Na   Sb   Se
   4   8  14
Direct configuration=    10
   0.31108480  0.34426709  0.12053190
   0.42973942  0.75717644  0.58789997
   0.57026058  0.24282356  0.41210003
   0.68891520  0.65573291  0.87946810
   0.02215630  0.96153537  0.33201996
   0.14103853  0.44685574  0.80865435
   0.74944949  0.13065265  0.05007091
   0.52472362  0.20599330  0.75603721
   0.25055051  0.86934735  0.94992909
   0.97784370  0.03846463  0.66798004
   0.85896147  0.55314426  0.19134565
   0.47527638  0.79400670  0.24396279
   0.82196183  0.84932708  0.12898388
   0.67445889  0.35499626  0.95395876
   0.47407525  0.45717007  0.68858469
   0.27621244  0.01852185  0.52815991
   0.05553200  0.70109589  0.36642745
   0.32554111  0.64500374  0.04604124
   0.42273045  0.07904816  0.16987002
   0.94446800  0.29890411  0.63357255
   0.57726955  0.92095184  0.83012998
   0.91700158  0.30250578  0.24008465
   0.08299842  0.69749422  0.75991535
   0.72378756  0.98147815  0.47184009
   0.52592475  0.54282993  0.31141531
   0.17803817  0.15067292  0.87101612
CIS                                     
           1
    -7.365233    0.006201   -0.316125
     2.089564    9.404798   -0.104393
    -0.865506   -1.823709  -11.263487
   Na   Sb   Se
   4   8  14
Direct configuration=    11
   0.31107957  0.34422970  0.12048010
   0.42970422  0.75718817  0.58793687
   0.57029578  0.24281183  0.41206313
   0.68892043  0.65577030  0.87951990
   0.02187643  0.96190836  0.33206152
   0.14113674  0.44696941  0.80864726
   0.74930923  0.13068939  0.05005945
   0.52459143  0.20595925  0.75596691
   0.25069077  0.86931061  0.94994055
   0.97812357  0.03809164  0.66793848
   0.85886326  0.55303059  0.19135274
   0.47540857  0.79404075  0.24403309
   0.82192282  0.84929636  0.12894429
   0.67438655  0.35496822  0.95395706
   0.47401367  0.45717629  0.68863059
   0.27629917  0.01872807  0.52812443
   0.05543494  0.70119807  0.36661777
   0.32561345  0.64503178  0.04604294
   0.42265950  0.07899564  0.16981363
   0.94456506  0.29880193  0.63338223
   0.57734050  0.92100436  0.83018637
   0.91721403  0.30248883  0.24020930
   0.08278597  0.69751117  0.75979070
   0.72370083  0.98127193  0.47187557
   0.52598633  0.54282371  0.31136941
   0.17807718  0.15070364  0.87105571
CIS                                     
           1
    -7.365704    0.005463   -0.316056
     2.090618    9.403778   -0.103892
    -0.865336   -1.824324  -11.270527
   Na   Sb   Se
   4   8  14
Direct configuration=    12
   0.31107878  0.34417048  0.12040028
   0.42962663  0.75720010  0.58800343
   0.57037337  0.24279990  0.41199657
   0.68892122  0.65582952  0.87959972
   0.02158841  0.96205873  0.33217856
   0.14122516  0.44730992  0.80873600
   0.74920445  0.13053686  0.05004288
   0.52504528  0.20601340  0.75586561
   0.25079555  0.86946314  0.94995712
   0.97841159  0.03794127  0.66782144
   0.85877484  0.55269008  0.19126400
   0.47495472  0.79398660  0.24413439
   0.82189097  0.84925485  0.12889970
   0.67428030  0.35493713  0.95392907
   0.47393778  0.45721756  0.68866750
   0.27655991  0.01912704  0.52802079
   0.05533561  0.70152682  0.36681791
   0.32571970  0.64506287  0.04607093
   0.42249325  0.07890359  0.16972419
   0.94466439  0.29847318  0.63318209
   0.57750675  0.92109641  0.83027581
   0.91749330  0.30243184  0.24043001
   0.08250670  0.69756816  0.75956999
   0.72344009  0.98087296  0.47197921
   0.52606222  0.54278244  0.31133250
   0.17810903  0.15074515  0.87110030
CIS                                     
           1
    -7.365893    0.005166   -0.316029
     2.091043    9.403367   -0.103690
    -0.865268   -1.824571  -11.273360
   Na   Sb   Se
   4   8  14
Direct configuration=    13
   0.31107846  0.34414664  0.12036817
   0.42959541  0.75720490  0.58803020
   0.57040459  0.24279510  0.41196980
   0.68892154  0.65585336  0.87963183
   0.02147250  0.96211925  0.33222563
   0.14126077  0.44744698  0.80877170
   0.74916227  0.13047546  0.05003621
   0.52522793  0.20603521  0.75582487
   0.25083773  0.86952454  0.94996379
   0.97852750  0.03788075  0.66777437
   0.85873923  0.55255302  0.19122830
   0.47477207  0.79396479  0.24417513
   0.82187814  0.84923814  0.12888177
   0.67423753  0.35492461  0.95391781
   0.47390725  0.45723417  0.68868234
   0.27666487  0.01928764  0.52797911
   0.05529566  0.70165914  0.36689841
   0.32576247  0.64507539  0.04608219
   0.42242633  0.07886654  0.16968821
   0.94470434  0.29834086  0.63310159
   0.57757367  0.92113346  0.83031179
   0.91760569  0.30240891  0.24051878
   0.08239431  0.69759109  0.75948122
   0.72333513  0.98071236  0.47202089
   0.52609275  0.54276583  0.31131766
   0.17812186  0.15076186  0.87111823
CIS                                     
           1
    -7.361172    0.004650   -0.314925
     2.090387    9.394222   -0.104066
    -0.863147   -1.822759  -11.273468
   Na   Sb   Se
   4   8  14
Direct configuration=    14
   0.31108160  0.34407893  0.12027358
   0.42948175  0.75721417  0.58811711
   0.57051825  0.24278583  0.41188289
   0.68891840  0.65592107  0.87972642
   0.02142434  0.96226583  0.33240015
   0.14172035  0.44767699  0.80865945
   0.74904130  0.13021745  0.05001158
   0.52539505  0.20618833  0.75568880
   0.25095870  0.86978255  0.94998842
   0.97857566  0.03773417  0.66759985
   0.85827965  0.55232301  0.19134055
   0.47460495  0.79381167  0.24431120
   0.82181910  0.84919017  0.12887330
   0.67418651  0.35492451  0.95386179
   0.47380245  0.45726514  0.68869765
   0.27700184  0.01963722  0.52788192
   0.05520648  0.70209536  0.36697753
   0.32581349  0.64507549  0.04613821
   0.42219390  0.07871648  0.16958338
   0.94479352  0.29790464  0.63302247
   0.57780610  0.92128352  0.83041662
   0.91786975  0.30243237  0.24065077
   0.08213025  0.69756763  0.75934923
   0.72299816  0.98036278  0.47211808
   0.52619755  0.54273486  0.31130235
   0.17818090  0.15080983  0.87112670
CIS                                     
           1
    -7.360752    0.004604   -0.314827
     2.090329    9.393409   -0.104099
    -0.862958   -1.822598  -11.273477
   Na   Sb   Se
   4   8  14
Direct configuration=    15
   0.31108188  0.34407292  0.12026518
   0.42947165  0.75721500  0.58812483
   0.57052835  0.24278500  0.41187517
   0.68891812  0.65592708  0.87973482
   0.02142007  0.96227886  0.33241565
   0.14176121  0.44769745  0.80864948
   0.74903054  0.13019450  0.05000939
   0.52540991  0.20620195  0.75567671
   0.25096946  0.86980550  0.94999061
   0.97857993  0.03772114  0.66758435
   0.85823879  0.55230255  0.19135052
   0.47459009  0.79379805  0.24432329
   0.82181385  0.84918590  0.12887255
   0.67418197  0.35492450  0.95385681
   0.47379314  0.45726790  0.68869900
   0.27703181  0.01966831  0.52787329
   0.05519857  0.70213415  0.36698456
   0.32581803  0.64507550  0.04614319
   0.42217323  0.07870314  0.16957406
   0.94480143  0.29786585  0.63301544
   0.57782677  0.92129686  0.83042594
   0.91789323  0.30243446  0.24066250
   0.08210677  0.69756554  0.75933750
   0.72296819  0.98033169  0.47212671
   0.52620686  0.54273210  0.31130100
   0.17818615  0.15081410  0.87112745
CIS                                     
           1
    -7.358406    0.003975   -0.312878
     2.090438    9.388391   -0.102888
    -0.859903   -1.823755  -11.272352
   Na   Sb   Se
   4   8  14
Direct configuration=    16
   0.31108325  0.34402686  0.12018469
   0.42936052  0.75721675  0.58820073
   0.57063948  0.24278325  0.41179927
   0.68891675  0.65597314  0.87981531
   0.02147379  0.96237603  0.33239668
   0.14161914  0.44756622  0.80861300
   0.74898832  0.13008251  0.04991593
   0.52552097  0.20636636  0.75550834
   0.25101168  0.86991749  0.95008407
   0.97852621  0.03762397  0.66760332
   0.85838086  0.55243378  0.19138700
   0.47447903  0.79363364  0.24449166
   0.82175915  0.84915373  0.12889169
   0.67416125  0.35489532  0.95384770
   0.47382992  0.45736763  0.68865699
   0.27721734  0.01972648  0.52788626
   0.05515418  0.70231859  0.36692200
   0.32583875  0.64510468  0.04615230
   0.42191118  0.07854557  0.16948968
   0.94484582  0.29768141  0.63307800
   0.57808882  0.92145443  0.83051032
   0.91806358  0.30247232  0.24070338
   0.08193642  0.69752768  0.75929662
   0.72278266  0.98027352  0.47211374
   0.52617008  0.54263237  0.31134301
   0.17824085  0.15084627  0.87110831
CIS                                     
           1
    -7.355015    0.003066   -0.310061
     2.090595    9.381138   -0.101138
    -0.855487   -1.825427  -11.270725
   Na   Sb   Se
   4   8  14
Direct configuration=    17
   0.31108517  0.34396024  0.12006833
   0.42919988  0.75721930  0.58831043
   0.57080012  0.24278070  0.41168957
   0.68891483  0.65603976  0.87993167
   0.02155147  0.96251656  0.33236929
   0.14141365  0.44737638  0.80856021
   0.74892718  0.12992051  0.04978078
   0.52568149  0.20660412  0.75526499
   0.25107282  0.87007949  0.95021922
   0.97844853  0.03748344  0.66763071
   0.85858635  0.55262362  0.19143979
   0.47431851  0.79339588  0.24473501
   0.82168007  0.84910720  0.12891936
   0.67413128  0.35485312  0.95383453
   0.47388311  0.45751186  0.68859627
   0.27748564  0.01981064  0.52790506
   0.05509000  0.70258531  0.36683158
   0.32586872  0.64514688  0.04616547
   0.42153217  0.07831762  0.16936761
   0.94491000  0.29741469  0.63316842
   0.57846783  0.92168238  0.83063239
   0.91830993  0.30252710  0.24076252
   0.08169007  0.69747290  0.75923748
   0.72251436  0.98018936  0.47209494
   0.52611689  0.54248814  0.31140373
   0.17831993  0.15089280  0.87108064
CIS                                     
           1
    -7.356333    0.003419   -0.311156
     2.090534    9.383956   -0.101818
    -0.857203   -1.824777  -11.271357
   Na   Sb   Se
   4   8  14
Direct configuration=    18
   0.31108446  0.34398615  0.12011355
   0.42926229  0.75721831  0.58826782
   0.57073771  0.24278169  0.41173218
   0.68891554  0.65601385  0.87988645
   0.02152127  0.96246191  0.33237992
   0.14149355  0.44745021  0.80858075
   0.74895099  0.12998351  0.04983331
   0.52561914  0.20651168  0.75535952
   0.25104901  0.87001649  0.95016669
   0.97847873  0.03753809  0.66762008
   0.85850645  0.55254979  0.19141925
   0.47438086  0.79348832  0.24464048
   0.82171081  0.84912529  0.12890862
   0.67414294  0.35486953  0.95383965
   0.47386244  0.45745578  0.68861985
   0.27738134  0.01977790  0.52789772
   0.05511495  0.70248161  0.36686671
   0.32585706  0.64513047  0.04616035
   0.42167954  0.07840628  0.16941509
   0.94488505  0.29751839  0.63313329
   0.57832046  0.92159372  0.83058491
   0.91821415  0.30250578  0.24073951
   0.08178585  0.69749422  0.75926049
   0.72261866  0.98022210  0.47210228
   0.52613756  0.54254422  0.31138015
   0.17828919  0.15087471  0.87109138
CIS                                     
           1
    -7.357369    0.003697   -0.312017
     2.090486    9.386174   -0.102353
    -0.858553   -1.824266  -11.271855
   Na   Sb   Se
   4   8  14
Direct configuration=    19
   0.31108389  0.34400654  0.12014913
   0.42931141  0.75721753  0.58823429
   0.57068859  0.24278247  0.41176571
   0.68891611  0.65599346  0.87985087
   0.02149751  0.96241893  0.33238828
   0.14155641  0.44750829  0.80859691
   0.74896971  0.13003307  0.04987464
   0.52557006  0.20643896  0.75543391
   0.25103029  0.86996693  0.95012536
   0.97850249  0.03758107  0.66761172
   0.85844359  0.55249171  0.19140309
   0.47442994  0.79356104  0.24456609
   0.82173499  0.84913953  0.12890017
   0.67415211  0.35488244  0.95384368
   0.47384617  0.45741166  0.68863841
   0.27729928  0.01975215  0.52789196
   0.05513457  0.70240003  0.36689435
   0.32584789  0.64511756  0.04615632
   0.42179548  0.07847602  0.16945244
   0.94486543  0.29759997  0.63310565
   0.57820452  0.92152398  0.83054756
   0.91813880  0.30248902  0.24072141
   0.08186120  0.69751098  0.75927859
   0.72270072  0.98024785  0.47210804
   0.52615383  0.54258834  0.31136159
   0.17826501  0.15086047  0.87109983
CIS                                     
           1
    -7.357143    0.003427   -0.311286
     2.090756    9.386719   -0.101870
    -0.857394   -1.825256  -11.273762
   Na   Sb   Se
   4   8  14
Direct configuration=    20
   0.31108343  0.34397880  0.12009893
   0.42923979  0.75721747  0.58828250
   0.57076021  0.24278253  0.41171750
   0.68891657  0.65602120  0.87990107
   0.02153976  0.96249123  0.33234614
   0.14140561  0.44743267  0.80863073
   0.74896293  0.13003683  0.04985338
   0.52559991  0.20653075  0.75531919
   0.25103707  0.86996317  0.95014662
   0.97846024  0.03750877  0.66765386
   0.85859439  0.55256733  0.19136927
   0.47440009  0.79346925  0.24468081
   0.82169372  0.84911915  0.12891611
   0.67414881  0.35485410  0.95384828
   0.47387481  0.45747842  0.68860244
   0.27741086  0.01976781  0.52791774
   0.05513048  0.70249193  0.36684472
   0.32585119  0.64514590  0.04615172
   0.42164240  0.07838542  0.16942582
   0.94486952  0.29750807  0.63315528
   0.57835760  0.92161458  0.83057418
   0.91824833  0.30251747  0.24074409
   0.08175167  0.69748253  0.75925591
   0.72258914  0.98023219  0.47208226
   0.52612519  0.54252158  0.31139756
   0.17830628  0.15088085  0.87108389
CIS                                     
           1
    -7.357029    0.003291   -0.310919
     2.090892    9.386993   -0.101627
    -0.856812   -1.825753  -11.274720
   Na   Sb   Se
   4   8  14
Direct configuration=    21
   0.31108320  0.34396488  0.12007373
   0.42920384  0.75721744  0.58830671
   0.57079616  0.24278256  0.41169329
   0.68891680  0.65603512  0.87992627
   0.02156097  0.96252753  0.33232499
   0.14132990  0.44739471  0.80864770
   0.74895952  0.13003871  0.04984270
   0.52561489  0.20657683  0.75526161
   0.25104048  0.86996129  0.95015730
   0.97843903  0.03747247  0.66767501
   0.85867010  0.55260529  0.19135230
   0.47438511  0.79342317  0.24473839
   0.82167299  0.84910893  0.12892411
   0.67414715  0.35483987  0.95385059
   0.47388919  0.45751193  0.68858439
   0.27746688  0.01977567  0.52793068
   0.05512842  0.70253806  0.36681980
   0.32585285  0.64516013  0.04614941
   0.42156553  0.07833994  0.16941246
   0.94487158  0.29746194  0.63318020
   0.57843447  0.92166006  0.83058754
   0.91830332  0.30253176  0.24075547
   0.08169668  0.69746824  0.75924453
   0.72253312  0.98022433  0.47206932
   0.52611081  0.54248807  0.31141561
   0.17832701  0.15089107  0.87107589
CIS                                     
           1
    -7.356801    0.003020   -0.310186
     2.091164    9.387541   -0.101142
    -0.855647   -1.826748  -11.276635
   Na   Sb   Se
   4   8  14
Direct configuration=    22
   0.31108272  0.34393703  0.12002333
   0.42913195  0.75721738  0.58835510
   0.57086805  0.24278262  0.41164490
   0.68891728  0.65606297  0.87997667
   0.02160338  0.96260013  0.33228269
   0.14117848  0.44731878  0.80868164
   0.74895270  0.13004248  0.04982136
   0.52564483  0.20666898  0.75514646
   0.25104730  0.86995752  0.95017864
   0.97839662  0.03739987  0.66771731
   0.85882152  0.55268122  0.19131836
   0.47435517  0.79333102  0.24485354
   0.82163155  0.84908847  0.12894010
   0.67414384  0.35481141  0.95385521
   0.47391794  0.45757895  0.68854828
   0.27757894  0.01979141  0.52795657
   0.05512430  0.70263032  0.36676999
   0.32585616  0.64518859  0.04614479
   0.42141180  0.07824896  0.16938572
   0.94487570  0.29736968  0.63323001
   0.57858820  0.92175104  0.83061428
   0.91841331  0.30256034  0.24077825
   0.08158669  0.69743966  0.75922175
   0.72242106  0.98020859  0.47204343
   0.52608206  0.54242105  0.31145172
   0.17836845  0.15091153  0.87105990
CIS                                     
           1
    -7.356652    0.002619   -0.309402
     2.091622    9.390334   -0.100618
    -0.854481   -1.828234  -11.277769
   Na   Sb   Se
   4   8  14
Direct configuration=    23
   0.31108447  0.34390621  0.11996671
   0.42904847  0.75721733  0.58841266
   0.57095153  0.24278267  0.41158734
   0.68891553  0.65609379  0.88003329
   0.02158646  0.96272287  0.33228026
   0.14117817  0.44723797  0.80866258
   0.74898729  0.13014916  0.04991073
   0.52558030  0.20674184  0.75506857
   0.25101271  0.86985084  0.95008927
   0.97841354  0.03727713  0.66771974
   0.85882183  0.55276203  0.19133742
   0.47441970  0.79325816  0.24493143
   0.82156986  0.84906204  0.12896700
   0.67418216  0.35479452  0.95385656
   0.47394500  0.45763091  0.68850828
   0.27763332  0.01977537  0.52800598
   0.05515196  0.70268520  0.36671313
   0.32581784  0.64520548  0.04614344
   0.42128573  0.07816309  0.16937304
   0.94484804  0.29731480  0.63328687
   0.57871427  0.92183691  0.83062696
   0.91854171  0.30259943  0.24080684
   0.08145829  0.69740057  0.75919316
   0.72236668  0.98022463  0.47199402
   0.52605500  0.54236909  0.31149172
   0.17843014  0.15093796  0.87103300
CIS                                     
           1
    -7.356503    0.002220   -0.308621
     2.092079    9.393117   -0.100097
    -0.853319   -1.829715  -11.278898
   Na   Sb   Se
   4   8  14
Direct configuration=    24
   0.31108619  0.34387550  0.11991029
   0.42896530  0.75721729  0.58847001
   0.57103470  0.24278271  0.41152999
   0.68891381  0.65612450  0.88008971
   0.02156960  0.96284516  0.33227785
   0.14117786  0.44715745  0.80864359
   0.74902177  0.13025545  0.04999979
   0.52551598  0.20681442  0.75499096
   0.25097823  0.86974455  0.95000021
   0.97843040  0.03715484  0.66772215
   0.85882214  0.55284255  0.19135641
   0.47448402  0.79318558  0.24500904
   0.82150839  0.84903571  0.12899379
   0.67422034  0.35477769  0.95385792
   0.47397196  0.45768268  0.68846842
   0.27768752  0.01975940  0.52805521
   0.05517952  0.70273986  0.36665647
   0.32577966  0.64522231  0.04614208
   0.42116010  0.07807754  0.16936040
   0.94482048  0.29726014  0.63334353
   0.57883990  0.92192246  0.83063960
   0.91866967  0.30263837  0.24083535
   0.08133033  0.69736163  0.75916465
   0.72231248  0.98024060  0.47194479
   0.52602804  0.54231732  0.31153158
   0.17849161  0.15096429  0.87100621
CIS                                     
           1
    -7.355508    0.002502   -0.307929
     2.091447    9.394493   -0.100121
    -0.852074   -1.830174  -11.278885
   Na   Sb   Se
   4   8  14
Direct configuration=    25
   0.31109130  0.34384903  0.11986332
   0.42889194  0.75721941  0.58852377
   0.57110806  0.24278059  0.41147623
   0.68890870  0.65615097  0.88013668
   0.02144679  0.96288628  0.33231835
   0.14125371  0.44721795  0.80862245
   0.74898769  0.13030605  0.05002042
   0.52549902  0.20675771  0.75494356
   0.25101231  0.86969395  0.94997958
   0.97855321  0.03711372  0.66768165
   0.85874629  0.55278205  0.19137755
   0.47450098  0.79324229  0.24505644
   0.82144009  0.84900569  0.12902860
   0.67426618  0.35477861  0.95383777
   0.47399214  0.45770620  0.68844996
   0.27767991  0.01971632  0.52812079
   0.05521824  0.70276700  0.36660748