  26  26   1   0
  0.3395270E+02  0.4244012E-09  0.1341347E-08  0.1555955E-08  0.1000000E-15
  1.000000000000000E-004
  CAR 
 CIS                                     
      8.01582592    -12.08510946  301      2.86077354      1.00000000
    -12.085  0.0000E+00  0.0000E+00
    -12.018  0.0000E+00  0.0000E+00
    -11.951  0.0000E+00  0.0000E+00
    -11.884  0.0000E+00  0.0000E+00
    -11.817  0.0000E+00  0.0000E+00
    -11.750  0.0000E+00  0.0000E+00
    -11.683  0.0000E+00  0.0000E+00
    -11.616  0.0000E+00  0.0000E+00
    -11.549  0.0000E+00  0.0000E+00
    -11.482  0.0000E+00  0.0000E+00
    -11.415  0.8344E-13  0.5591E-14
    -11.348  0.8889E-08  0.5956E-09
    -11.281  0.3025E-04  0.2027E-05
    -11.214  0.4010E-02  0.2707E-03
    -11.147  0.3195E-01  0.2412E-02
    -11.080  0.2713E-01  0.4230E-02
    -11.013  0.2215E-01  0.5714E-02
    -10.946  0.4709E-01  0.8869E-02
    -10.879  0.1133E+00  0.1646E-01
    -10.812  0.1224E+00  0.2466E-01
    -10.745  0.4384E+00  0.5404E-01
    -10.678  0.8043E+00  0.1079E+00
    -10.611  0.1133E+01  0.1838E+00
    -10.544  0.8732E+00  0.2423E+00
    -10.477  0.2910E+00  0.2618E+00
    -10.410  0.1083E+00  0.2691E+00
    -10.343  0.7218E-01  0.2739E+00
    -10.276  0.3787E-01  0.2765E+00
    -10.209  0.6163E-01  0.2806E+00
    -10.142  0.6065E-01  0.2847E+00
    -10.075  0.9037E-01  0.2907E+00
    -10.008  0.1914E+00  0.3035E+00
     -9.941  0.1343E+00  0.3125E+00
     -9.874  0.9046E-01  0.3186E+00
     -9.807  0.5339E-01  0.3222E+00
     -9.740  0.1249E+00  0.3305E+00
     -9.673  0.1324E+00  0.3394E+00
     -9.606  0.5409E-01  0.3430E+00
     -9.539  0.7355E-01  0.3480E+00
     -9.472  0.1203E+00  0.3560E+00
     -9.405  0.7761E-01  0.3612E+00
     -9.338  0.6482E-01  0.3656E+00
     -9.271  0.8704E-01  0.3714E+00
     -9.204  0.1481E+00  0.3813E+00
     -9.137  0.2670E+00  0.3992E+00
     -9.070  0.2568E+00  0.4164E+00
     -9.003  0.3067E+00  0.4370E+00
     -8.936  0.3304E+00  0.4591E+00
     -8.869  0.3841E+00  0.4849E+00
     -8.802  0.2969E+00  0.5047E+00
     -8.735  0.1737E+00  0.5164E+00
     -8.668  0.8097E-01  0.5218E+00
     -8.601  0.4918E-01  0.5251E+00
     -8.534  0.2263E-02  0.5253E+00
     -8.467  0.4314E-05  0.5253E+00
     -8.400  0.2739E-09  0.5253E+00
     -8.333  0.5289E-15  0.5253E+00
     -8.266  0.0000E+00  0.5253E+00
     -8.199  0.0000E+00  0.5253E+00
     -8.132  0.0000E+00  0.5253E+00
     -8.065  0.0000E+00  0.5253E+00
     -7.998  0.2457E-13  0.5253E+00
     -7.931  0.4262E-08  0.5253E+00
     -7.864  0.2280E-04  0.5253E+00
     -7.797  0.4220E-02  0.5255E+00
     -7.730  0.3614E-01  0.5280E+00
     -7.663  0.3706E-01  0.5304E+00
     -7.596  0.1009E+00  0.5372E+00
     -7.529  0.1979E+00  0.5505E+00
     -7.462  0.6714E-01  0.5550E+00
     -7.395  0.4225E-01  0.5578E+00
     -7.328  0.8215E-01  0.5633E+00
     -7.261  0.1183E+00  0.5712E+00
     -7.194  0.1063E+00  0.5783E+00
     -7.127  0.1313E+00  0.5871E+00
     -7.060  0.4493E-01  0.5901E+00
     -6.993  0.8116E-01  0.5956E+00
     -6.926  0.9628E-01  0.6020E+00
     -6.859  0.5135E-01  0.6055E+00
     -6.792  0.8985E-01  0.6115E+00
     -6.725  0.1953E+00  0.6246E+00
     -6.658  0.1775E+00  0.6365E+00
     -6.591  0.9353E-01  0.6427E+00
     -6.524  0.5029E-01  0.6461E+00
     -6.457  0.5674E-01  0.6499E+00
     -6.390  0.2445E-01  0.6516E+00
     -6.323  0.4765E-01  0.6547E+00
     -6.256  0.4589E-01  0.6578E+00
     -6.189  0.1251E-01  0.6587E+00
     -6.122  0.3340E-01  0.6609E+00
     -6.055  0.5089E-01  0.6643E+00
     -5.988  0.1160E-01  0.6651E+00
     -5.921  0.5149E-01  0.6685E+00
     -5.854  0.3737E-01  0.6710E+00
     -5.787  0.4834E-01  0.6743E+00
     -5.720  0.7089E-01  0.6790E+00
     -5.653  0.2817E-01  0.6809E+00
     -5.586  0.1910E-01  0.6822E+00
     -5.519  0.9166E-02  0.6828E+00
     -5.452  0.6909E-03  0.6829E+00
     -5.385  0.1453E-01  0.6838E+00
     -5.318  0.3662E-01  0.6863E+00
     -5.251  0.8580E-02  0.6869E+00
     -5.184  0.1364E-03  0.6869E+00
     -5.117  0.9205E-07  0.6869E+00
     -5.050  0.2051E-11  0.6869E+00
     -4.983  0.0000E+00  0.6869E+00
     -4.916  0.0000E+00  0.6869E+00
     -4.849  0.0000E+00  0.6869E+00
     -4.782  0.0000E+00  0.6869E+00
     -4.715  0.0000E+00  0.6869E+00
     -4.648  0.0000E+00  0.6869E+00
     -4.581  0.0000E+00  0.6869E+00
     -4.514  0.0000E+00  0.6869E+00
     -4.447  0.0000E+00  0.6869E+00
     -4.380  0.0000E+00  0.6869E+00
     -4.313  0.0000E+00  0.6869E+00
     -4.246  0.0000E+00  0.6869E+00
     -4.179  0.0000E+00  0.6869E+00
     -4.112  0.0000E+00  0.6869E+00
     -4.045  0.0000E+00  0.6869E+00
     -3.978  0.0000E+00  0.6869E+00
     -3.911  0.0000E+00  0.6869E+00
     -3.844  0.0000E+00  0.6869E+00
     -3.777  0.0000E+00  0.6869E+00
     -3.710  0.0000E+00  0.6869E+00
     -3.643  0.0000E+00  0.6869E+00
     -3.576  0.0000E+00  0.6869E+00
     -3.509  0.0000E+00  0.6869E+00
     -3.442  0.0000E+00  0.6869E+00
     -3.375  0.0000E+00  0.6869E+00
     -3.308  0.0000E+00  0.6869E+00
     -3.241  0.0000E+00  0.6869E+00
     -3.174  0.0000E+00  0.6869E+00
     -3.107  0.0000E+00  0.6869E+00
     -3.040  0.0000E+00  0.6869E+00
     -2.973  0.0000E+00  0.6869E+00
     -2.906  0.0000E+00  0.6869E+00
     -2.839  0.0000E+00  0.6869E+00
     -2.772  0.0000E+00  0.6869E+00
     -2.705  0.0000E+00  0.6869E+00
     -2.638  0.0000E+00  0.6869E+00
     -2.571  0.0000E+00  0.6869E+00
     -2.504  0.0000E+00  0.6869E+00
     -2.437  0.1490E-15  0.6869E+00
     -2.370  0.7582E-10  0.6869E+00
     -2.303  0.1173E-05  0.6869E+00
     -2.236  0.5987E-03  0.6869E+00
     -2.169  0.1257E-01  0.6878E+00
     -2.102  0.2012E-01  0.6891E+00
     -2.035  0.6151E-01  0.6932E+00
     -1.968  0.8821E-01  0.6991E+00
     -1.901  0.9745E-01  0.7057E+00
     -1.834  0.1373E+00  0.7149E+00
     -1.767  0.4696E-01  0.7180E+00
     -1.700  0.8978E-01  0.7240E+00
     -1.633  0.1195E+00  0.7320E+00
     -1.566  0.7665E-01  0.7372E+00
     -1.499  0.6055E-01  0.7412E+00
     -1.432  0.1122E+00  0.7487E+00
     -1.365  0.1115E+00  0.7562E+00
     -1.298  0.1302E+00  0.7649E+00
     -1.231  0.1600E+00  0.7757E+00
     -1.164  0.1777E+00  0.7876E+00
     -1.097  0.7938E-01  0.7929E+00
     -1.030  0.1408E+00  0.8023E+00
     -0.963  0.1693E+00  0.8137E+00
     -0.896  0.1820E+00  0.8259E+00
     -0.829  0.1118E+00  0.8333E+00
     -0.762  0.1502E+00  0.8434E+00
     -0.695  0.1907E+00  0.8562E+00
     -0.628  0.1070E+00  0.8634E+00
     -0.561  0.1679E+00  0.8746E+00
     -0.494  0.2609E+00  0.8921E+00
     -0.427  0.2372E+00  0.9080E+00
     -0.360  0.2423E+00  0.9242E+00
     -0.293  0.2439E+00  0.9406E+00
     -0.226  0.2405E+00  0.9567E+00
     -0.159  0.2692E+00  0.9747E+00
     -0.092  0.2244E+00  0.9897E+00
     -0.025  0.1632E+00  0.1001E+01
      0.042  0.1504E+00  0.1011E+01
      0.109  0.1550E+00  0.1021E+01
      0.176  0.2308E+00  0.1037E+01
      0.243  0.2397E+00  0.1053E+01
      0.310  0.2603E+00  0.1070E+01
      0.377  0.2468E+00  0.1087E+01
      0.444  0.1798E+00  0.1099E+01
      0.511  0.1873E+00  0.1111E+01
      0.578  0.2151E+00  0.1126E+01
      0.645  0.1529E+00  0.1136E+01
      0.712  0.7727E-01  0.1141E+01
      0.779  0.9024E-01  0.1147E+01
      0.846  0.1939E+00  0.1160E+01
      0.913  0.1773E+00  0.1172E+01
      0.980  0.1509E+00  0.1182E+01
      1.048  0.2671E+00  0.1200E+01
      1.115  0.3097E+00  0.1221E+01
      1.182  0.3317E+00  0.1243E+01
      1.249  0.3414E+00  0.1266E+01
      1.316  0.2921E+00  0.1285E+01
      1.383  0.3603E+00  0.1310E+01
      1.450  0.3689E+00  0.1334E+01
      1.517  0.3167E+00  0.1355E+01
      1.584  0.3385E+00  0.1378E+01
      1.651  0.1943E+00  0.1391E+01
      1.718  0.1102E+00  0.1399E+01
      1.785  0.1971E+00  0.1412E+01
      1.852  0.2412E+00  0.1428E+01
      1.919  0.2320E+00  0.1444E+01
      1.986  0.2172E+00  0.1458E+01
      2.053  0.1386E+00  0.1467E+01
      2.120  0.2871E+00  0.1487E+01
      2.187  0.3322E+00  0.1509E+01
      2.254  0.1520E+00  0.1519E+01
      2.321  0.8932E-01  0.1525E+01
      2.388  0.8028E-01  0.1530E+01
      2.455  0.1368E-01  0.1531E+01
      2.522  0.1867E-02  0.1531E+01
      2.589  0.2743E-01  0.1533E+01
      2.656  0.2902E-01  0.1535E+01
      2.723  0.2091E-02  0.1535E+01
      2.790  0.7187E-05  0.1535E+01
      2.857  0.9023E-09  0.1535E+01
      2.924  0.3629E-14  0.1535E+01
      2.991  0.0000E+00  0.1535E+01
      3.058  0.0000E+00  0.1535E+01
      3.125  0.0000E+00  0.1535E+01
      3.192  0.0000E+00  0.1535E+01
      3.259  0.0000E+00  0.1535E+01
      3.326  0.0000E+00  0.1535E+01
      3.393  0.1724E-15  0.1535E+01
      3.460  0.8494E-10  0.1535E+01
      3.527  0.1269E-05  0.1535E+01
      3.594  0.6266E-03  0.1535E+01
      3.661  0.1275E-01  0.1536E+01
      3.728  0.1558E-01  0.1537E+01
      3.795  0.1240E-02  0.1537E+01
      3.862  0.4211E-02  0.1538E+01
      3.929  0.2085E-01  0.1539E+01
      3.996  0.3093E-01  0.1541E+01
      4.063  0.3425E-01  0.1543E+01
      4.130  0.2105E-01  0.1545E+01
      4.197  0.1487E-01  0.1546E+01
      4.264  0.2024E-01  0.1547E+01
      4.331  0.2473E-01  0.1549E+01
      4.398  0.9625E-01  0.1555E+01
      4.465  0.7343E-01  0.1560E+01
      4.532  0.1134E+00  0.1568E+01
      4.599  0.1174E+00  0.1576E+01
      4.666  0.6667E-01  0.1580E+01
      4.733  0.6236E-01  0.1584E+01
      4.800  0.1511E+00  0.1594E+01
      4.867  0.1855E+00  0.1607E+01
      4.934  0.2176E+00  0.1621E+01
      5.001  0.2102E+00  0.1636E+01
      5.068  0.9798E-01  0.1642E+01
      5.135  0.8320E-01  0.1648E+01
      5.202  0.2067E+00  0.1662E+01
      5.269  0.2042E+00  0.1675E+01
      5.336  0.2286E+00  0.1691E+01
      5.403  0.2604E+00  0.1708E+01
      5.470  0.2580E+00  0.1725E+01
      5.537  0.2666E+00  0.1743E+01
      5.604  0.2022E+00  0.1757E+01
      5.671  0.1753E+00  0.1768E+01
      5.738  0.2076E+00  0.1782E+01
      5.805  0.1892E+00  0.1795E+01
      5.872  0.2063E+00  0.1809E+01
      5.939  0.2274E+00  0.1824E+01
      6.006  0.1241E+00  0.1832E+01
      6.073  0.8693E-01  0.1838E+01
      6.140  0.1637E+00  0.1849E+01
      6.207  0.2187E+00  0.1864E+01
      6.274  0.2028E+00  0.1877E+01
      6.341  0.1696E+00  0.1889E+01
      6.408  0.1616E+00  0.1900E+01
      6.475  0.1152E+00  0.1907E+01
      6.542  0.1814E+00  0.1919E+01
      6.609  0.1232E+00  0.1928E+01
      6.676  0.1413E+00  0.1937E+01
      6.743  0.2310E+00  0.1953E+01
      6.810  0.1769E+00  0.1965E+01
      6.877  0.8729E-01  0.1970E+01
      6.944  0.1982E-01  0.1972E+01
      7.011  0.4211E-02  0.1972E+01
      7.078  0.4886E-01  0.1975E+01
      7.145  0.6027E-01  0.1979E+01
      7.212  0.7602E-02  0.1980E+01
      7.279  0.5927E-04  0.1980E+01
      7.346  0.1768E-07  0.1980E+01
      7.413  0.1667E-12  0.1980E+01
      7.480  0.0000E+00  0.1980E+01
      7.547  0.0000E+00  0.1980E+01
      7.614  0.0000E+00  0.1980E+01
      7.681  0.0000E+00  0.1980E+01
      7.748  0.0000E+00  0.1980E+01
      7.815  0.0000E+00  0.1980E+01
      7.882  0.0000E+00  0.1980E+01
      7.949  0.0000E+00  0.1980E+01
      8.016  0.0000E+00  0.1980E+01
      8.01582592    -12.08510946  301      2.86077354      1.00000000
    -12.085  0.0000E+00  0.0000E+00  0.0000E+00
    -12.018  0.0000E+00  0.0000E+00  0.0000E+00
    -11.951  0.0000E+00  0.0000E+00  0.0000E+00
    -11.884  0.0000E+00  0.0000E+00  0.0000E+00
    -11.817  0.0000E+00  0.0000E+00  0.0000E+00
    -11.750  0.0000E+00  0.0000E+00  0.0000E+00
    -11.683  0.0000E+00  0.0000E+00  0.0000E+00
    -11.616  0.0000E+00  0.0000E+00  0.0000E+00
    -11.549  0.0000E+00  0.0000E+00  0.0000E+00
    -11.482  0.0000E+00  0.0000E+00  0.0000E+00
    -11.415  0.5973E-15  0.1130E-12  0.2681E-16
    -11.348  0.6340E-10  0.1208E-07  0.2854E-11
    -11.281  0.2121E-06  0.4178E-04  0.9671E-08
    -11.214  0.2640E-04  0.5860E-02  0.1263E-05
    -11.147  0.1805E-03  0.5229E-01  0.9749E-05
    -11.080  0.1523E-03  0.4884E-01  0.9294E-05
    -11.013  0.2398E-03  0.3845E-01  0.1308E-04
    -10.946  0.2516E-03  0.2117E+00  0.2223E-04
    -10.879  0.4674E-03  0.6764E+00  0.4964E-04
    -10.812  0.5872E-03  0.2760E+01  0.6256E-04
    -10.745  0.8987E-03  0.1273E+02  0.2016E-03
    -10.678  0.8518E-03  0.2455E+02  0.3803E-03
    -10.611  0.5006E-03  0.3285E+02  0.3927E-03
    -10.544  0.3180E-03  0.9521E+01  0.1317E-03
    -10.477  0.2674E-03  0.1242E+01  0.6185E-04
    -10.410  0.2871E-03  0.6777E+00  0.6722E-04
    -10.343  0.2545E-03  0.3293E+00  0.6584E-04
    -10.276  0.2673E-03  0.2236E+00  0.4025E-04
    -10.209  0.6767E-03  0.2720E+00  0.9084E-04
    -10.142  0.3606E-03  0.1798E+00  0.9728E-04
    -10.075  0.5586E-03  0.1636E+00  0.1188E-03
    -10.008  0.1803E-02  0.3633E+00  0.3300E-03
     -9.941  0.1124E-02  0.2503E+00  0.3790E-03
     -9.874  0.6338E-03  0.1305E+00  0.2683E-03
     -9.807  0.2827E-03  0.5310E-01  0.1387E-03
     -9.740  0.7767E-03  0.1484E+00  0.4943E-03
     -9.673  0.9459E-03  0.1345E+00  0.5347E-03
     -9.606  0.2440E-03  0.2450E-01  0.2033E-03
     -9.539  0.1868E-03  0.1690E-01  0.2061E-03
     -9.472  0.7022E-03  0.5049E-01  0.3428E-03
     -9.405  0.4032E-03  0.3348E-01  0.2857E-03
     -9.338  0.2951E-03  0.1990E-01  0.2628E-03
     -9.271  0.6202E-03  0.3527E-01  0.3412E-03
     -9.204  0.9590E-03  0.4200E-01  0.4393E-03
     -9.137  0.1149E-02  0.5231E-01  0.5659E-03
     -9.070  0.1287E-02  0.5446E-01  0.5493E-03
     -9.003  0.9845E-03  0.8245E-01  0.9505E-03
     -8.936  0.1278E-02  0.8311E-01  0.1354E-02
     -8.869  0.1792E-02  0.7549E-01  0.1599E-02
     -8.802  0.1424E-02  0.6211E-01  0.1676E-02
     -8.735  0.1058E-02  0.5793E-01  0.1792E-02
     -8.668  0.4968E-03  0.3332E-01  0.1140E-02
     -8.601  0.2891E-03  0.2060E-01  0.7125E-03
     -8.534  0.1325E-04  0.9524E-03  0.3270E-04
     -8.467  0.2514E-07  0.1824E-05  0.6213E-07
     -8.400  0.1590E-11  0.1163E-09  0.3933E-11
     -8.333  0.3056E-17  0.2258E-15  0.7569E-17
     -8.266  0.0000E+00  0.0000E+00  0.0000E+00
     -8.199  0.0000E+00  0.0000E+00  0.0000E+00
     -8.132  0.0000E+00  0.0000E+00  0.0000E+00
     -8.065  0.0000E+00  0.0000E+00  0.0000E+00
     -7.998  0.4164E-16  0.1035E-14  0.3328E-16
     -7.931  0.7222E-11  0.1795E-09  0.5772E-11
     -7.864  0.3863E-07  0.9600E-06  0.3088E-07
     -7.797  0.7150E-05  0.1777E-03  0.5715E-05
     -7.730  0.6123E-04  0.1526E-02  0.4925E-04
     -7.663  0.6310E-04  0.1720E-02  0.6373E-04
     -7.596  0.1843E-03  0.3919E-02  0.2027E-03
     -7.529  0.3448E-03  0.5819E-02  0.3817E-03
     -7.462  0.1128E-03  0.2245E-02  0.1512E-03
     -7.395  0.8782E-04  0.1886E-02  0.1446E-03
     -7.328  0.2218E-03  0.2709E-02  0.3825E-03
     -7.261  0.1654E-03  0.3422E-02  0.4965E-03
     -7.194  0.1195E-03  0.3210E-02  0.4006E-03
     -7.127  0.1841E-03  0.2799E-02  0.3989E-03
     -7.060  0.7033E-04  0.8080E-03  0.1286E-03
     -6.993  0.1456E-03  0.2708E-02  0.3313E-03
     -6.926  0.1758E-03  0.3261E-02  0.3534E-03
     -6.859  0.9585E-04  0.8874E-03  0.1754E-03
     -6.792  0.5602E-03  0.3844E-02  0.3696E-03
     -6.725  0.1436E-02  0.8923E-02  0.6892E-03
     -6.658  0.1259E-02  0.7591E-02  0.6062E-03
     -6.591  0.1141E-02  0.5504E-02  0.5146E-03
     -6.524  0.8048E-03  0.3639E-02  0.3267E-03
     -6.457  0.5687E-03  0.3490E-02  0.3751E-03
     -6.390  0.1666E-03  0.1204E-02  0.1423E-03
     -6.323  0.2915E-03  0.1994E-02  0.2214E-03
     -6.256  0.3244E-03  0.1653E-02  0.1754E-03
     -6.189  0.8927E-04  0.4570E-03  0.4717E-04
     -6.122  0.2129E-03  0.1635E-02  0.1562E-03
     -6.055  0.3407E-03  0.2430E-02  0.2330E-03
     -5.988  0.1538E-03  0.6098E-03  0.2885E-04
     -5.921  0.9766E-03  0.2660E-02  0.5345E-04
     -5.854  0.6548E-03  0.1709E-02  0.5148E-04
     -5.787  0.4155E-03  0.1881E-02  0.1234E-03
     -5.720  0.9878E-03  0.2963E-02  0.1704E-03
     -5.653  0.5423E-03  0.1199E-02  0.7639E-04
     -5.586  0.8970E-03  0.6118E-03  0.2134E-04
     -5.519  0.4418E-03  0.2887E-03  0.9297E-05
     -5.452  0.1919E-04  0.3934E-04  0.8954E-06
     -5.385  0.2710E-03  0.1015E-02  0.1884E-04
     -5.318  0.8620E-03  0.2431E-02  0.3771E-04
     -5.251  0.2418E-03  0.5408E-03  0.6651E-05
     -5.184  0.4191E-05  0.8349E-05  0.8681E-07
     -5.117  0.2900E-08  0.5582E-08  0.5463E-10
     -5.050  0.6500E-13  0.1241E-12  0.1196E-14
     -4.983  0.0000E+00  0.0000E+00  0.0000E+00
     -4.916  0.0000E+00  0.0000E+00  0.0000E+00
     -4.849  0.0000E+00  0.0000E+00  0.0000E+00
     -4.782  0.0000E+00  0.0000E+00  0.0000E+00
     -4.715  0.0000E+00  0.0000E+00  0.0000E+00
     -4.648  0.0000E+00  0.0000E+00  0.0000E+00
     -4.581  0.0000E+00  0.0000E+00  0.0000E+00
     -4.514  0.0000E+00  0.0000E+00  0.0000E+00
     -4.447  0.0000E+00  0.0000E+00  0.0000E+00
     -4.380  0.0000E+00  0.0000E+00  0.0000E+00
     -4.313  0.0000E+00  0.0000E+00  0.0000E+00
     -4.246  0.0000E+00  0.0000E+00  0.0000E+00
     -4.179  0.0000E+00  0.0000E+00  0.0000E+00
     -4.112  0.0000E+00  0.0000E+00  0.0000E+00
     -4.045  0.0000E+00  0.0000E+00  0.0000E+00
     -3.978  0.0000E+00  0.0000E+00  0.0000E+00
     -3.911  0.0000E+00  0.0000E+00  0.0000E+00
     -3.844  0.0000E+00  0.0000E+00  0.0000E+00
     -3.777  0.0000E+00  0.0000E+00  0.0000E+00
     -3.710  0.0000E+00  0.0000E+00  0.0000E+00
     -3.643  0.0000E+00  0.0000E+00  0.0000E+00
     -3.576  0.0000E+00  0.0000E+00  0.0000E+00
     -3.509  0.0000E+00  0.0000E+00  0.0000E+00
     -3.442  0.0000E+00  0.0000E+00  0.0000E+00
     -3.375  0.0000E+00  0.0000E+00  0.0000E+00
     -3.308  0.0000E+00  0.0000E+00  0.0000E+00
     -3.241  0.0000E+00  0.0000E+00  0.0000E+00
     -3.174  0.0000E+00  0.0000E+00  0.0000E+00
     -3.107  0.0000E+00  0.0000E+00  0.0000E+00
     -3.040  0.0000E+00  0.0000E+00  0.0000E+00
     -2.973  0.0000E+00  0.0000E+00  0.0000E+00
     -2.906  0.0000E+00  0.0000E+00  0.0000E+00
     -2.839  0.0000E+00  0.0000E+00  0.0000E+00
     -2.772  0.0000E+00  0.0000E+00  0.0000E+00
     -2.705  0.0000E+00  0.0000E+00  0.0000E+00
     -2.638  0.0000E+00  0.0000E+00  0.0000E+00
     -2.571  0.0000E+00  0.0000E+00  0.0000E+00
     -2.504  0.0000E+00  0.0000E+00  0.0000E+00
     -2.437  0.1033E-17  0.6485E-17  0.1796E-17
     -2.370  0.5257E-12  0.3301E-11  0.9143E-12
     -2.303  0.8132E-08  0.5106E-07  0.1414E-07
     -2.236  0.4151E-05  0.2606E-04  0.7219E-05
     -2.169  0.8717E-04  0.5470E-03  0.1515E-03
     -2.102  0.1669E-03  0.9157E-03  0.2424E-03
     -2.035  0.1389E-02  0.5731E-02  0.1224E-02
     -1.968  0.2310E-02  0.9658E-02  0.2080E-02
     -1.901  0.1522E-02  0.4027E-02  0.1635E-02
     -1.834  0.2372E-02  0.4689E-02  0.2177E-02
     -1.767  0.1513E-02  0.2022E-02  0.6300E-03
     -1.700  0.6437E-02  0.6326E-02  0.1546E-02
     -1.633  0.5236E-02  0.9636E-02  0.2207E-02
     -1.566  0.1819E-02  0.5377E-02  0.1179E-02
     -1.499  0.1710E-02  0.4245E-02  0.9012E-03
     -1.432  0.2286E-02  0.7988E-02  0.2006E-02
     -1.365  0.1808E-02  0.5853E-02  0.2146E-02
     -1.298  0.3659E-02  0.7457E-02  0.3194E-02
     -1.231  0.7387E-02  0.1544E-01  0.3813E-02
     -1.164  0.9446E-02  0.1708E-01  0.3508E-02
     -1.097  0.2956E-02  0.3895E-02  0.1435E-02
     -1.030  0.2685E-02  0.4372E-02  0.2867E-02
     -0.963  0.3070E-02  0.1251E-01  0.4056E-02
     -0.896  0.6770E-02  0.1800E-01  0.5593E-02
     -0.829  0.7459E-02  0.1283E-01  0.3384E-02
     -0.762  0.6711E-02  0.1974E-01  0.6542E-02
     -0.695  0.1121E-01  0.2133E-01  0.5726E-02
     -0.628  0.7437E-02  0.1107E-01  0.3044E-02
     -0.561  0.1281E-01  0.1848E-01  0.4623E-02
     -0.494  0.1532E-01  0.2969E-01  0.7527E-02
     -0.427  0.1152E-01  0.2395E-01  0.6632E-02
     -0.360  0.1605E-01  0.2337E-01  0.8943E-02
     -0.293  0.1625E-01  0.2142E-01  0.1152E-01
     -0.226  0.1240E-01  0.2476E-01  0.9817E-02
     -0.159  0.1472E-01  0.2484E-01  0.9470E-02
     -0.092  0.6536E-02  0.2346E-01  0.9164E-02
     -0.025  0.9385E-02  0.2355E-01  0.7540E-02
      0.042  0.2032E-01  0.1770E-01  0.6168E-02
      0.109  0.7896E-02  0.9593E-02  0.6098E-02
      0.176  0.9058E-02  0.1991E-01  0.9915E-02
      0.243  0.1096E-01  0.2863E-01  0.8856E-02
      0.310  0.2984E-01  0.2519E-01  0.7682E-02
      0.377  0.2370E-01  0.2817E-01  0.7746E-02
      0.444  0.1116E-01  0.1941E-01  0.8436E-02
      0.511  0.6741E-02  0.1219E-01  0.7755E-02
      0.578  0.1360E-01  0.1425E-01  0.8758E-02
      0.645  0.1790E-01  0.1529E-01  0.8671E-02
      0.712  0.1452E-01  0.1520E-01  0.6027E-02
      0.779  0.1283E-01  0.1756E-01  0.4073E-02
      0.846  0.3017E-01  0.3618E-01  0.1001E-01
      0.913  0.3080E-01  0.3816E-01  0.1039E-01
      0.980  0.2772E-01  0.3525E-01  0.8832E-02
      1.048  0.2823E-01  0.6146E-01  0.1912E-01
      1.115  0.2819E-01  0.6126E-01  0.2662E-01
      1.182  0.2780E-01  0.6431E-01  0.2904E-01
      1.249  0.2159E-01  0.5860E-01  0.2614E-01
      1.316  0.1737E-01  0.4982E-01  0.1924E-01
      1.383  0.2147E-01  0.5289E-01  0.2339E-01
      1.450  0.1861E-01  0.4604E-01  0.2439E-01
      1.517  0.2445E-01  0.5336E-01  0.2431E-01
      1.584  0.3470E-01  0.9193E-01  0.3862E-01
      1.651  0.1906E-01  0.5184E-01  0.2038E-01
      1.718  0.5774E-02  0.3228E-01  0.2311E-01
      1.785  0.8931E-02  0.4843E-01  0.4377E-01
      1.852  0.1315E-01  0.4472E-01  0.3479E-01
      1.919  0.6963E-02  0.3826E-01  0.3897E-01
      1.986  0.3828E-02  0.2305E-01  0.3098E-01
      2.053  0.3697E-02  0.1408E-01  0.1330E-01
      2.120  0.1081E-01  0.3555E-01  0.2237E-01
      2.187  0.1173E-01  0.4433E-01  0.2608E-01
      2.254  0.3180E-02  0.1856E-01  0.1646E-01
      2.321  0.2136E-02  0.9446E-02  0.8567E-02
      2.388  0.3517E-02  0.4870E-02  0.3936E-02
      2.455  0.6134E-03  0.8146E-03  0.6148E-03
      2.522  0.7933E-04  0.1179E-03  0.1351E-03
      2.589  0.1056E-02  0.1719E-02  0.2049E-02
      2.656  0.1005E-02  0.1799E-02  0.2177E-02
      2.723  0.6435E-04  0.1283E-03  0.1576E-03
      2.790  0.1982E-06  0.4370E-06  0.5437E-06
      2.857  0.2305E-10  0.5455E-10  0.6842E-10
      2.924  0.8882E-16  0.2187E-15  0.2755E-15
      2.991  0.0000E+00  0.0000E+00  0.0000E+00
      3.058  0.0000E+00  0.0000E+00  0.0000E+00
      3.125  0.0000E+00  0.0000E+00  0.0000E+00
      3.192  0.0000E+00  0.0000E+00  0.0000E+00
      3.259  0.0000E+00  0.0000E+00  0.0000E+00
      3.326  0.0000E+00  0.0000E+00  0.0000E+00
      3.393  0.4985E-17  0.4695E-16  0.2573E-16
      3.460  0.2456E-11  0.2313E-10  0.1268E-10
      3.527  0.3670E-07  0.3456E-06  0.1895E-06
      3.594  0.1812E-04  0.1706E-03  0.9354E-04
      3.661  0.3686E-03  0.3471E-02  0.1903E-02
      3.728  0.4505E-03  0.4242E-02  0.2325E-02
      3.795  0.3602E-04  0.3386E-03  0.1833E-03
      3.862  0.1375E-03  0.1230E-02  0.4599E-03
      3.929  0.8723E-03  0.6003E-02  0.2307E-02
      3.996  0.5464E-02  0.6950E-02  0.3955E-02
      4.063  0.7608E-02  0.6713E-02  0.4282E-02
      4.130  0.3984E-02  0.3129E-02  0.1480E-02
      4.197  0.4927E-02  0.1508E-02  0.7257E-03
      4.264  0.1135E-01  0.7746E-03  0.5669E-03
      4.331  0.6870E-02  0.4080E-02  0.1584E-02
      4.398  0.2145E-01  0.2061E-01  0.6485E-02
      4.465  0.1783E-01  0.2046E-01  0.6916E-02
      4.532  0.1881E-01  0.2863E-01  0.1955E-01
      4.599  0.7552E-02  0.3116E-01  0.2778E-01
      4.666  0.3146E-02  0.1516E-01  0.1544E-01
      4.733  0.1832E-01  0.1821E-01  0.1290E-01
      4.800  0.6431E-01  0.5527E-01  0.2716E-01
      4.867  0.5551E-01  0.5624E-01  0.2923E-01
      4.934  0.4019E-01  0.5999E-01  0.3934E-01
      5.001  0.3098E-01  0.7650E-01  0.3426E-01
      5.068  0.6357E-02  0.4550E-01  0.1393E-01
      5.135  0.8961E-02  0.1689E-01  0.1170E-01
      5.202  0.3113E-01  0.3774E-01  0.3793E-01
      5.269  0.4345E-01  0.4259E-01  0.4718E-01
      5.336  0.6476E-01  0.6744E-01  0.4754E-01
      5.403  0.4124E-01  0.4657E-01  0.5444E-01
      5.470  0.3245E-01  0.5170E-01  0.6112E-01
      5.537  0.3152E-01  0.4812E-01  0.6187E-01
      5.604  0.2178E-01  0.3273E-01  0.3645E-01
      5.671  0.2313E-01  0.2914E-01  0.3613E-01
      5.738  0.2159E-01  0.7689E-01  0.5771E-01
      5.805  0.1851E-01  0.7490E-01  0.5922E-01
      5.872  0.2507E-01  0.4325E-01  0.6561E-01
      5.939  0.2822E-01  0.3408E-01  0.5107E-01
      6.006  0.1364E-01  0.1420E-01  0.2589E-01
      6.073  0.8875E-02  0.8553E-02  0.2198E-01
      6.140  0.1882E-01  0.2062E-01  0.5369E-01
      6.207  0.3207E-01  0.3783E-01  0.7436E-01
      6.274  0.5226E-01  0.4023E-01  0.6900E-01
      6.341  0.7633E-01  0.3893E-01  0.7214E-01
      6.408  0.7088E-01  0.3777E-01  0.5202E-01
      6.475  0.1882E-01  0.2396E-01  0.2885E-01
      6.542  0.2246E-01  0.4901E-01  0.5880E-01
      6.609  0.2770E-01  0.3505E-01  0.5014E-01
      6.676  0.3419E-01  0.3747E-01  0.5869E-01
      6.743  0.7930E-01  0.6043E-01  0.1139E+00
      6.810  0.8168E-01  0.4399E-01  0.9880E-01
      6.877  0.4278E-01  0.1805E-01  0.3699E-01
      6.944  0.9149E-02  0.4860E-02  0.7643E-02
      7.011  0.1788E-02  0.2472E-02  0.2360E-02
      7.078  0.1803E-01  0.3132E-01  0.2965E-01
      7.145  0.1724E-01  0.4050E-01  0.3918E-01
      7.212  0.1706E-02  0.5282E-02  0.5184E-02
      7.279  0.1209E-04  0.4163E-04  0.4104E-04
      7.346  0.3537E-08  0.1244E-07  0.1228E-07
      7.413  0.3323E-13  0.1174E-12  0.1158E-12
      7.480  0.0000E+00  0.0000E+00  0.0000E+00
      7.547  0.0000E+00  0.0000E+00  0.0000E+00
      7.614  0.0000E+00  0.0000E+00  0.0000E+00
      7.681  0.0000E+00  0.0000E+00  0.0000E+00
      7.748  0.0000E+00  0.0000E+00  0.0000E+00
      7.815  0.0000E+00  0.0000E+00  0.0000E+00
      7.882  0.0000E+00  0.0000E+00  0.0000E+00
      7.949  0.0000E+00  0.0000E+00  0.0000E+00
      8.016  0.0000E+00  0.0000E+00  0.0000E+00
      8.01582592    -12.08510946  301      2.86077354      1.00000000
    -12.085  0.0000E+00  0.0000E+00  0.0000E+00
    -12.018  0.0000E+00  0.0000E+00  0.0000E+00
    -11.951  0.0000E+00  0.0000E+00  0.0000E+00
    -11.884  0.0000E+00  0.0000E+00  0.0000E+00
    -11.817  0.0000E+00  0.0000E+00  0.0000E+00
    -11.750  0.0000E+00  0.0000E+00  0.0000E+00
    -11.683  0.0000E+00  0.0000E+00  0.0000E+00
    -11.616  0.0000E+00  0.0000E+00  0.0000E+00
    -11.549  0.0000E+00  0.0000E+00  0.0000E+00
    -11.482  0.0000E+00  0.0000E+00  0.0000E+00
    -11.415  0.5973E-15  0.1130E-12  0.2681E-16
    -11.348  0.6340E-10  0.1208E-07  0.2854E-11
    -11.281  0.2121E-06  0.4178E-04  0.9671E-08
    -11.214  0.2640E-04  0.5860E-02  0.1263E-05
    -11.147  0.1805E-03  0.5229E-01  0.9749E-05
    -11.080  0.1523E-03  0.4884E-01  0.9294E-05
    -11.013  0.2398E-03  0.3845E-01  0.1308E-04
    -10.946  0.2516E-03  0.2117E+00  0.2223E-04
    -10.879  0.4674E-03  0.6764E+00  0.4964E-04
    -10.812  0.5872E-03  0.2760E+01  0.6256E-04
    -10.745  0.8987E-03  0.1273E+02  0.2016E-03
    -10.678  0.8518E-03  0.2455E+02  0.3803E-03
    -10.611  0.5006E-03  0.3285E+02  0.3927E-03
    -10.544  0.3180E-03  0.9521E+01  0.1317E-03
    -10.477  0.2674E-03  0.1242E+01  0.6185E-04
    -10.410  0.2871E-03  0.6777E+00  0.6722E-04
    -10.343  0.2545E-03  0.3293E+00  0.6584E-04
    -10.276  0.2673E-03  0.2236E+00  0.4025E-04
    -10.209  0.6767E-03  0.2720E+00  0.9084E-04
    -10.142  0.3606E-03  0.1798E+00  0.9728E-04
    -10.075  0.5586E-03  0.1636E+00  0.1188E-03
    -10.008  0.1803E-02  0.3633E+00  0.3300E-03
     -9.941  0.1124E-02  0.2503E+00  0.3790E-03
     -9.874  0.6338E-03  0.1305E+00  0.2683E-03
     -9.807  0.2827E-03  0.5310E-01  0.1387E-03
     -9.740  0.7767E-03  0.1484E+00  0.4943E-03
     -9.673  0.9459E-03  0.1345E+00  0.5347E-03
     -9.606  0.2440E-03  0.2450E-01  0.2033E-03
     -9.539  0.1868E-03  0.1690E-01  0.2061E-03
     -9.472  0.7022E-03  0.5049E-01  0.3428E-03
     -9.405  0.4032E-03  0.3348E-01  0.2857E-03
     -9.338  0.2951E-03  0.1990E-01  0.2628E-03
     -9.271  0.6202E-03  0.3527E-01  0.3412E-03
     -9.204  0.9590E-03  0.4200E-01  0.4393E-03
     -9.137  0.1149E-02  0.5231E-01  0.5659E-03
     -9.070  0.1287E-02  0.5446E-01  0.5493E-03
     -9.003  0.9845E-03  0.8245E-01  0.9505E-03
     -8.936  0.1278E-02  0.8311E-01  0.1354E-02
     -8.869  0.1792E-02  0.7549E-01  0.1599E-02
     -8.802  0.1424E-02  0.6211E-01  0.1676E-02
     -8.735  0.1058E-02  0.5793E-01  0.1792E-02
     -8.668  0.4968E-03  0.3332E-01  0.1140E-02
     -8.601  0.2891E-03  0.2060E-01  0.7125E-03
     -8.534  0.1325E-04  0.9524E-03  0.3270E-04
     -8.467  0.2514E-07  0.1824E-05  0.6213E-07
     -8.400  0.1590E-11  0.1163E-09  0.3933E-11
     -8.333  0.3056E-17  0.2258E-15  0.7569E-17
     -8.266  0.0000E+00  0.0000E+00  0.0000E+00
     -8.199  0.0000E+00  0.0000E+00  0.0000E+00
     -8.132  0.0000E+00  0.0000E+00  0.0000E+00
     -8.065  0.0000E+00  0.0000E+00  0.0000E+00
     -7.998  0.4164E-16  0.1035E-14  0.3328E-16
     -7.931  0.7222E-11  0.1795E-09  0.5772E-11
     -7.864  0.3863E-07  0.9600E-06  0.3088E-07
     -7.797  0.7150E-05  0.1777E-03  0.5715E-05
     -7.730  0.6123E-04  0.1526E-02  0.4925E-04
     -7.663  0.6310E-04  0.1720E-02  0.6373E-04
     -7.596  0.1843E-03  0.3919E-02  0.2027E-03
     -7.529  0.3448E-03  0.5819E-02  0.3817E-03
     -7.462  0.1128E-03  0.2245E-02  0.1512E-03
     -7.395  0.8782E-04  0.1886E-02  0.1446E-03
     -7.328  0.2218E-03  0.2709E-02  0.3825E-03
     -7.261  0.1654E-03  0.3422E-02  0.4965E-03
     -7.194  0.1195E-03  0.3210E-02  0.4006E-03
     -7.127  0.1841E-03  0.2799E-02  0.3989E-03
     -7.060  0.7033E-04  0.8080E-03  0.1286E-03
     -6.993  0.1456E-03  0.2708E-02  0.3313E-03
     -6.926  0.1758E-03  0.3261E-02  0.3534E-03
     -6.859  0.9585E-04  0.8874E-03  0.1754E-03
     -6.792  0.5602E-03  0.3844E-02  0.3696E-03
     -6.725  0.1436E-02  0.8923E-02  0.6892E-03
     -6.658  0.1259E-02  0.7591E-02  0.6062E-03
     -6.591  0.1141E-02  0.5504E-02  0.5146E-03
     -6.524  0.8048E-03  0.3639E-02  0.3267E-03
     -6.457  0.5687E-03  0.3490E-02  0.3751E-03
     -6.390  0.1666E-03  0.1204E-02  0.1423E-03
     -6.323  0.2915E-03  0.1994E-02  0.2214E-03
     -6.256  0.3244E-03  0.1653E-02  0.1754E-03
     -6.189  0.8927E-04  0.4570E-03  0.4717E-04
     -6.122  0.2129E-03  0.1635E-02  0.1562E-03