 vasp.5.4.4.18Apr17-6-g9f103f2a35 (build Oct 27 2022 13:04:57) complex          
  
 executed on             LinuxIFC date 2024.06.30  00:43:06
 running on   14 total cores
 distrk:  each k-point on   14 cores,    1 groups
 distr:  one band on NCORES_PER_BAND=   1 cores,   14 groups


--------------------------------------------------------------------------------------------------------


 INCAR:
 POTCAR:    PAW_PBE K_pv 17Jan2003                
 POTCAR:    PAW_PBE Bi 08Apr2002                  
 POTCAR:    PAW_PBE S 06Sep2000                   

 ----------------------------------------------------------------------------- 
|                                                                             |
|           W    W    AA    RRRRR   N    N  II  N    N   GGGG   !!!           |
|           W    W   A  A   R    R  NN   N  II  NN   N  G    G  !!!           |
|           W    W  A    A  R    R  N N  N  II  N N  N  G       !!!           |
|           W WW W  AAAAAA  RRRRR   N  N N  II  N  N N  G  GGG   !            |
|           WW  WW  A    A  R   R   N   NN  II  N   NN  G    G                |
|           W    W  A    A  R    R  N    N  II  N    N   GGGG   !!!           |
|                                                                             |
|      For optimal performance we recommend to set                            |
|        NCORE= 4 - approx SQRT( number of cores)                             |
|      NCORE specifies how many cores store one orbital (NPAR=cpu/NCORE).     |
|      This setting can  greatly improve the performance of VASP for DFT.     |
|      The default,   NCORE=1            might be grossly inefficient         |
|      on modern multi-core architectures or massively parallel machines.     |
|      Do your own testing !!!!                                               |
|      Unfortunately you need to use the default for GW and RPA calculations. |
|      (for HF NCORE is supported but not extensively tested yet)             |
|                                                                             |
 ----------------------------------------------------------------------------- 

 POTCAR:    PAW_PBE K_pv 17Jan2003                
   VRHFIN =K:  p6s1                                                             
   LEXCH  = PE                                                                  
   EATOM  =   450.4813 eV,   33.1094 Ry                                         
                                                                                
   TITEL  = PAW_PBE K_pv 17Jan2003                                              
   LULTRA =        F    use ultrasoft PP ?                                      
   IUNSCR =        1    unscreen: 0-lin 1-nonlin 2-no                           
   RPACOR =    2.500    partial core radius                                     
   POMASS =   39.098; ZVAL   =    7.000    mass and valenz                      
   RCORE  =    3.100    outmost cutoff radius                                   
   RWIGS  =    4.300; RWIGS  =    2.275    wigner-seitz radius (au A)           
   ENMAX  =  116.731; ENMIN  =   87.548 eV                                      
   RCLOC  =    2.806    cutoff for local pot                                    
   LCOR   =        T    correct aug charges                                     
   LPAW   =        T    paw PP                                                  
   EAUG   =  291.424                                                            
   DEXC   =    0.000                                                            
   RMAX   =    3.171    core radius for proj-oper                               
   RAUG   =    1.300    factor for augmentation sphere                          
   RDEP   =    3.267    radius for radial grids                                 
   RDEPT  =    2.513    core radius for aug-charge                              
                                                                                
   Atomic configuration                                                         
    7 entries                                                                   
     n  l   j            E        occ.                                          
     1  0  0.50     -3522.0595   2.0000                                         
     2  0  0.50      -353.3851   2.0000                                         
     2  1  1.50      -280.0935   6.0000                                         
     3  0  0.50       -35.3419   2.0000                                         
     3  1  1.50       -18.8125   6.0000                                         
     4  0  0.50        -2.3190   1.0000                                         
     3  2  1.50        -1.3606   0.0000                                         
   Description                                                                  
     l       E           TYP  RCUT    TYP  RCUT                                 
     1    -18.8124623     23  3.000                                             
     1    -20.4087390     23  3.000                                             
     0     -2.3190215     23  3.100                                             
     0     20.4087390     23  3.100                                             
     2     -1.3605826     23  3.000                                             
  local pseudopotential read in
  partial core-charges read in
  partial kinetic energy density read in
  atomic valenz-charges read in
  non local Contribution for L=           1  read in
    real space projection operators read in
  non local Contribution for L=           1  read in
    real space projection operators read in
  non local Contribution for L=           0  read in
    real space projection operators read in
  non local Contribution for L=           0  read in
    real space projection operators read in
  non local Contribution for L=           2  read in
    real space projection operators read in
    PAW grid and wavefunctions read in
 
   number of l-projection  operators is LMAX  =           5
   number of lm-projection operators is LMMAX =          13
 
 POTCAR:    PAW_PBE Bi 08Apr2002                  
   VRHFIN =Bi:                                                                  
   LEXCH  = PE                                                                  
   EATOM  =   150.8133 eV,   11.0845 Ry                                         
                                                                                
   TITEL  = PAW_PBE Bi 08Apr2002                                                
   LULTRA =        F    use ultrasoft PP ?                                      
   IUNSCR =        1    unscreen: 0-lin 1-nonlin 2-no                           
   RPACOR =    2.200    partial core radius                                     
   POMASS =  208.980; ZVAL   =    5.000    mass and valenz                      
   RCORE  =    3.000    outmost cutoff radius                                   
   RWIGS  =    3.090; RWIGS  =    1.635    wigner-seitz radius (au A)           
   ENMAX  =  105.037; ENMIN  =   78.777 eV                                      
   ICORE  =        3    local potential                                         
   LCOR   =        T    correct aug charges                                     
   LPAW   =        T    paw PP                                                  
   EAUG   =  265.427                                                            
   DEXC   =    0.000                                                            
   RMAX   =    3.067    core radius for proj-oper                               
   RAUG   =    1.300    factor for augmentation sphere                          
   RDEP   =    3.012    radius for radial grids                                 
   RDEPT  =    2.604    core radius for aug-charge                              
                                                                                
   Atomic configuration                                                         
   17 entries                                                                   
     n  l   j            E        occ.                                          
     1  0  0.50    -90639.6582   2.0000                                         
     2  0  0.50    -16282.4667   2.0000                                         
     2  1  1.50    -13922.8287   6.0000                                         
     3  0  0.50     -3930.4763   2.0000                                         
     3  1  1.50     -3256.7013   6.0000                                         
     3  2  2.50     -2581.6169  10.0000                                         
     4  0  0.50      -902.2614   2.0000                                         
     4  1  1.50      -681.5915   6.0000                                         
     4  2  2.50      -429.8249  10.0000                                         
     4  3  3.50      -152.6004  14.0000                                         
     5  0  0.50      -157.7156   2.0000                                         
     5  1  1.50       -95.8054   6.0000                                         
     5  2  2.50       -27.0806  10.0000                                         
     6  0  0.50       -14.4732   2.0000                                         
     6  1  1.50        -4.5702   3.0000                                         
     6  2  2.50        -2.7212   0.0000                                         
     5  3  2.50        -2.7212   0.0000                                         
   Description                                                                  
     l       E           TYP  RCUT    TYP  RCUT                                 
     0    -14.4732299     23  3.000                                             
     0    -12.2452434     23  3.000                                             
     1     -4.5701666     23  3.000                                             
     1    -13.6058260     23  3.000                                             
     2     -2.7211652     23  3.000                                             
     3     -1.3605826      7  3.000                                             
  local pseudopotential read in
  partial core-charges read in
  partial kinetic energy density read in
  kinetic energy density of atom read in
  atomic valenz-charges read in
  non local Contribution for L=           0  read in
    real space projection operators read in
  non local Contribution for L=           0  read in
    real space projection operators read in
  non local Contribution for L=           1  read in
    real space projection operators read in
  non local Contribution for L=           1  read in
    real space projection operators read in
  non local Contribution for L=           2  read in
    real space projection operators read in
    PAW grid and wavefunctions read in
 
   number of l-projection  operators is LMAX  =           5
   number of lm-projection operators is LMMAX =          13
 
 POTCAR:    PAW_PBE S 06Sep2000                   
   VRHFIN =S : s2p4                                                             
   LEXCH  = PE                                                                  
   EATOM  =   276.8230 eV,   20.3459 Ry                                         
                                                                                
   TITEL  = PAW_PBE S 06Sep2000                                                 
   LULTRA =        F    use ultrasoft PP ?                                      
   IUNSCR =        1    unscreen: 0-lin 1-nonlin 2-no                           
   RPACOR =    1.500    partial core radius                                     
   POMASS =   32.066; ZVAL   =    6.000    mass and valenz                      
   RCORE  =    1.900    outmost cutoff radius                                   
   RWIGS  =    2.200; RWIGS  =    1.164    wigner-seitz radius (au A)           
   ENMAX  =  258.689; ENMIN  =  194.016 eV                                      
   ICORE  =        2    local potential                                         
   LCOR   =        T    correct aug charges                                     
   LPAW   =        T    paw PP                                                  
   EAUG   =  335.092                                                            
   DEXC   =    0.000                                                            
   RMAX   =    1.942    core radius for proj-oper                               
   RAUG   =    1.300    factor for augmentation sphere                          
   RDEP   =    1.954    radius for radial grids                                 
   RDEPT  =    1.744    core radius for aug-charge                              
                                                                                
   Atomic configuration                                                         
    6 entries                                                                   
     n  l   j            E        occ.                                          
     1  0  0.50     -2405.8406   2.0000                                         
     2  0  0.50      -211.7007   2.0000                                         
     2  1  1.50      -156.4958   6.0000                                         
     3  0  0.50       -17.2562   2.0000                                         
     3  1  0.50        -7.0085   4.0000                                         
     3  2  1.50        -6.8029   0.0000                                         
   Description                                                                  
     l       E           TYP  RCUT    TYP  RCUT                                 
     0    -17.2561641     23  1.900                                             
     0    -15.8743224     23  1.900                                             
     1     -7.0085400     23  1.900                                             
     1     -2.7779785     23  1.900                                             
     2     -6.8029130     23  1.900                                             
  local pseudopotential read in
  partial core-charges read in
  partial kinetic energy density read in
  atomic valenz-charges read in
  non local Contribution for L=           0  read in
    real space projection operators read in
  non local Contribution for L=           0  read in
    real space projection operators read in
  non local Contribution for L=           1  read in
    real space projection operators read in
  non local Contribution for L=           1  read in
    real space projection operators read in
    PAW grid and wavefunctions read in
 
   number of l-projection  operators is LMAX  =           4
   number of lm-projection operators is LMMAX =           8
 
 Optimization of the real space projectors (new method)

 maximal supplied QI-value         = 12.09
 optimisation between [QCUT,QGAM] = [  8.83, 17.66] = [ 21.83, 87.31] Ry 
 Optimized for a Real-space Cutoff    1.69 Angstroem

   l    n(q)    QCUT    max X(q) W(low)/X(q) W(high)/X(q)  e(spline) 
   1      8     8.829    42.457    0.27E-03    0.59E-03    0.25E-06
   1      8     8.829    43.305    0.28E-03    0.61E-03    0.26E-06
   0      9     8.829    47.210    0.17E-02    0.12E-03    0.43E-06
   0      9     8.829    15.951    0.11E-02    0.76E-04    0.28E-06
   2      8     8.829     5.674    0.29E-03    0.69E-04    0.39E-07
 Optimization of the real space projectors (new method)

 maximal supplied QI-value         = 12.47
 optimisation between [QCUT,QGAM] = [  8.86, 17.71] = [ 21.96, 87.83] Ry 
 Optimized for a Real-space Cutoff    1.59 Angstroem

   l    n(q)    QCUT    max X(q) W(low)/X(q) W(high)/X(q)  e(spline) 
   0      8     8.855    93.365    0.12E-03    0.22E-03    0.92E-07
   0      8     8.855    75.373    0.13E-03    0.24E-03    0.10E-06
   1      8     8.855    32.978    0.17E-02    0.62E-03    0.17E-06
   1      8     8.855    35.433    0.19E-02    0.68E-03    0.19E-06
   2      7     8.855     8.108    0.22E-03    0.34E-03    0.64E-07
 Optimization of the real space projectors (new method)

 maximal supplied QI-value         = 19.84
 optimisation between [QCUT,QGAM] = [  8.73, 17.66] = [ 21.34, 87.33] Ry 
 Optimized for a Real-space Cutoff    1.22 Angstroem

   l    n(q)    QCUT    max X(q) W(low)/X(q) W(high)/X(q)  e(spline) 
   0      6     8.731   187.594    0.15E-02    0.56E-03    0.90E-07
   0      6     8.731   164.243    0.15E-02    0.56E-03    0.89E-07
   1      6     8.731    67.533    0.37E-03    0.20E-02    0.11E-06
   1      6     8.731    50.729    0.36E-03    0.19E-02    0.10E-06
  PAW_PBE K_pv 17Jan2003                :
 energy of atom  1       EATOM= -450.4813
 kinetic energy error for atom=    0.0008 (will be added to EATOM!!)
  PAW_PBE Bi 08Apr2002                  :
 energy of atom  2       EATOM= -150.8133
 kinetic energy error for atom=    0.0003 (will be added to EATOM!!)
  PAW_PBE S 06Sep2000                   :
 energy of atom  3       EATOM= -276.8230
 kinetic energy error for atom=    0.0077 (will be added to EATOM!!)
 
 
 POSCAR: K4 Bi8 S14                              
  positions in direct lattice
  No initial velocities read in
 exchange correlation table for  LEXCH =        8
   RHO(1)=    0.500       N(1)  =     2000
   RHO(2)=  100.500       N(2)  =     4000
 


--------------------------------------------------------------------------------------------------------


 ion  position               nearest neighbor table
   1  0.250  0.568  0.812-  15 3.57  24 3.65  16 3.75  16 3.75  19 3.87  19 3.87  14 3.88  14 3.88
                            10 4.40  12 4.58   3 4.87   3 4.87
   2  0.750  0.432  0.188-  16 3.57  23 3.65  15 3.75  15 3.75  20 3.87  20 3.87  13 3.88  13 3.88
                             9 4.40  11 4.58   4 4.87   4 4.87
   3  0.750  0.829  0.623-  18 3.58  18 3.58  21 3.61  21 3.61  19 3.72  14 3.87  11 4.42   1 4.87
                             1 4.87
   4  0.250  0.171  0.377-  17 3.58  17 3.58  22 3.61  22 3.61  20 3.72  13 3.87  12 4.42   2 4.87
                             2 4.87
   5  0.250  0.946  0.880-  18 2.80  19 2.93  19 2.93  26 3.02  26 3.02  25 3.17
   6  0.750  0.054  0.120-  17 2.80  20 2.93  20 2.93  25 3.02  25 3.02  26 3.17
   7  0.250  0.832  0.275-  21 2.85  23 2.91  23 2.91  17 3.00  17 3.00  25 3.06
   8  0.750  0.168  0.725-  22 2.85  24 2.91  24 2.91  18 3.00  18 3.00  26 3.06
   9  0.750  0.731  0.051-  15 2.79  15 2.79  23 2.96  19 2.98  25 3.21  25 3.21   2 4.40
  10  0.250  0.269  0.949-  16 2.79  16 2.79  24 2.96  20 2.98  26 3.21  26 3.21   1 4.40
  11  0.750  0.607  0.428-  14 2.84  21 2.96  21 2.96  13 2.99  13 2.99  23 3.05   3 4.42   2 4.58

  12  0.250  0.393  0.572-  13 2.84  22 2.96  22 2.96  14 2.99  14 2.99  24 3.05   4 4.42   1 4.58

  13  0.250  0.458  0.393-  12 2.84  11 2.99  11 2.99   4 3.87   2 3.88   2 3.88
  14  0.750  0.542  0.607-  11 2.84  12 2.99  12 2.99   3 3.87   1 3.88   1 3.88
  15  0.250  0.598  0.038-   9 2.79   9 2.79   1 3.57   2 3.75   2 3.75
  16  0.750  0.402  0.962-  10 2.79  10 2.79   2 3.57   1 3.75   1 3.75
  17  0.750  0.986  0.295-   6 2.80   7 3.00   7 3.00   4 3.58   4 3.58
  18  0.250  0.014  0.705-   5 2.80   8 3.00   8 3.00   3 3.58   3 3.58
  19  0.750  0.798  0.863-   5 2.93   5 2.93   9 2.98   3 3.72   1 3.87   1 3.87
  20  0.250  0.202  0.137-   6 2.93   6 2.93  10 2.98   4 3.72   2 3.87   2 3.87
  21  0.250  0.755  0.452-   7 2.85  11 2.96  11 2.96   3 3.61   3 3.61
  22  0.750  0.245  0.548-   8 2.85  12 2.96  12 2.96   4 3.61   4 3.61
  23  0.750  0.692  0.240-   7 2.91   7 2.91   9 2.96  11 3.05   2 3.65
  24  0.250  0.308  0.760-   8 2.91   8 2.91  10 2.96  12 3.05   1 3.65
  25  0.250  0.904  0.083-   6 3.02   6 3.02   7 3.06   5 3.17   9 3.21   9 3.21
  26  0.750  0.096  0.917-   5 3.02   5 3.02   8 3.06   6 3.17  10 3.21  10 3.21
 
  LATTYP: Found a simple monoclinic cell.
 ALAT       =    21.3605926023
 B/A-ratio  =     0.1986841797
 C/A-ratio  =     1.5026816239
 COS(beta)  =    -0.9528717542
  
  Lattice vectors:
  
 A1 = (   0.0000000000, -14.6430014100, -15.5517660100)
 A2 = (  -4.2440118200,   0.0000000000,   0.0000000000)
 A3 = (   0.0000000000,  28.0564101800,  15.5926381300)


Analysis of symmetry for initial positions (statically):
=====================================================================
 Subroutine PRICEL returns:
 Original cell was already a primitive cell.
 

 Routine SETGRP: Setting up the symmetry group for a 
 simple monoclinic supercell.


 Subroutine GETGRP returns: Found  4 space group operations
 (whereof  2 operations were pure point group operations)
 out of a pool of  4 trial point group operations.


The static configuration has the point symmetry S_2 .
 The point group associated with its full space group is C_2h.


Analysis of symmetry for dynamics (positions and initial velocities):
=====================================================================
 Subroutine PRICEL returns:
 Original cell was already a primitive cell.
 

 Routine SETGRP: Setting up the symmetry group for a 
 simple monoclinic supercell.


 Subroutine GETGRP returns: Found  4 space group operations
 (whereof  2 operations were pure point group operations)
 out of a pool of  4 trial point group operations.


The dynamic configuration has the point symmetry S_2 .
 The point group associated with its full space group is C_2h.


 Subroutine INISYM returns: Found  4 space group operations
 (whereof  2 operations are pure point group operations),
 and found     1 'primitive' translations

 
 
 KPOINTS: pymatgen with grid density = 807 / numbe

Automatic generation of k-mesh.
Space group operators:
 irot       det(A)        alpha          n_x          n_y          n_z        tau_x        tau_y        tau_z
    1     1.000000     0.000000     1.000000     0.000000     0.000000     0.000000     0.000000     0.000000
    2    -1.000000     0.000000     1.000000     0.000000     0.000000     0.000000     0.000000     0.000000
    3     1.000000   180.000000     1.000000     0.000000     0.000000    -0.500000    -0.000000    -0.000000
    4    -1.000000   180.000000     1.000000     0.000000     0.000000    -0.500000     0.000000     0.000000
 
 Subroutine IBZKPT returns following result:
 ===========================================
 
 Found      6 irreducible k-points:
 
 Following reciprocal coordinates:
            Coordinates               Weight
  0.000000  0.250000  0.250000      2.000000
  0.200000  0.250000  0.250000      4.000000
  0.400000  0.250000  0.250000      4.000000
  0.000000 -0.250000  0.250000      2.000000
  0.200000 -0.250000  0.250000      4.000000
  0.400000 -0.250000  0.250000      4.000000
 
 Following cartesian coordinates:
            Coordinates               Weight
  0.000000  0.018593  0.014644      2.000000
  0.047125  0.018593  0.014644      4.000000
  0.094250  0.018593  0.014644      4.000000
  0.000000 -0.018692  0.017599      2.000000
  0.047125 -0.018692  0.017599      4.000000
  0.094250 -0.018692  0.017599      4.000000
 


--------------------------------------------------------------------------------------------------------




 Dimension of arrays:
   k-points           NKPTS =      6   k-points in BZ     NKDIM =      6   number of bands    NBANDS=     98
   number of dos      NEDOS =    301   number of ions     NIONS =     26
   non local maximal  LDIM  =      5   non local SUM 2l+1 LMDIM =     13
   total plane-waves  NPLWV =  75600
   max r-space proj   IRMAX =   1785   max aug-charges    IRDMAX=   3100
   dimension x,y,z NGX =    18 NGY =   60 NGZ =   70
   dimension x,y,z NGXF=    28 NGYF=   80 NGZF=   96
   support grid    NGXF=    28 NGYF=   80 NGZF=   96
   ions per type =               4   8  14
   NGX,Y,Z   is equivalent  to a cutoff of   7.05,  7.44,  7.48 a.u.
   NGXF,Y,Z  is equivalent  to a cutoff of  10.97,  9.92, 10.26 a.u.

 SYSTEM =  CIS                                     
 POSCAR =  K4 Bi8 S14                              

 Startparameter for this run:
   NWRITE =      2    write-flag & timer
   PREC   = medium    normal or accurate (medium, high low for compatibility)
   ISTART =      0    job   : 0-new  1-cont  2-samecut
   ICHARG =      2    charge: 1-file 2-atom 10-const
   ISPIN  =      1    spin polarized calculation?
   LNONCOLLINEAR =      F non collinear calculations
   LSORBIT =      F    spin-orbit coupling
   INIWAV =      1    electr: 0-lowe 1-rand  2-diag
   LASPH  =      T    aspherical Exc in radial PAW
   METAGGA=      F    non-selfconsistent MetaGGA calc.

 Electronic Relaxation 1
   ENCUT  =  300.0 eV  22.05 Ry    4.70 a.u.   5.99 18.94 21.97*2*pi/ulx,y,z
   ENINI  =  300.0     initial cutoff
   ENAUG  =  335.1 eV  augmentation charge cutoff
   NELM   =     60;   NELMIN=  2; NELMDL= -5     # of ELM steps 
   EDIFF  = 0.1E-03   stopping-criterion for ELM
   LREAL  =      T    real-space projection
   NLSPLINE    = F    spline interpolate recip. space projectors
   LCOMPAT=      F    compatible to vasp.4.4
   GGA_COMPAT  = T    GGA compatible to vasp.4.4-vasp.4.6
   LMAXPAW     = -100 max onsite density
   LMAXMIX     =    4 max onsite mixed and CHGCAR
   VOSKOWN=      0    Vosko Wilk Nusair interpolation
   ROPT   =   -0.00200  -0.00200  -0.00200
 Ionic relaxation
   EDIFFG = -.5E-01   stopping-criterion for IOM
   NSW    =     99    number of steps for IOM
   NBLOCK =      1;   KBLOCK =     99    inner block; outer block 
   IBRION =      2    ionic relax: 0-MD 1-quasi-New 2-CG
   NFREE  =      1    steps in history (QN), initial steepest desc. (CG)
   ISIF   =      3    stress and relaxation
   IWAVPR =     11    prediction:  0-non 1-charg 2-wave 3-comb
   ISYM   =      2    0-nonsym 1-usesym 2-fastsym
   LCORR  =      T    Harris-Foulkes like correction to forces

   POTIM  = 0.1000    time-step for ionic-motion
   TEIN   =    0.0    initial temperature
   TEBEG  =    0.0;   TEEND  =   0.0 temperature during run
   SMASS  =  -3.00    Nose mass-parameter (am)
   estimated Nose-frequenzy (Omega)   =  0.10E-29 period in steps =****** mass=  -0.412E-27a.u.
   SCALEE = 1.0000    scale energy and forces
   NPACO  =    256;   APACO  = 16.0  distance and # of slots for P.C.
   PSTRESS=    0.0 pullay stress

  Mass of Ions in am
   POMASS =  39.10208.98 32.07
  Ionic Valenz
   ZVAL   =   7.00  5.00  6.00
  Atomic Wigner-Seitz radii
   RWIGS  =  -1.00 -1.00 -1.00
  virtual crystal weights 
   VCA    =   1.00  1.00  1.00
   NELECT =     152.0000    total number of electrons
   NUPDOWN=      -1.0000    fix difference up-down

 DOS related values:
   EMIN   =  10.00;   EMAX   =-10.00  energy-range for DOS
   EFERMI =   0.00
   ISMEAR =     0;   SIGMA  =   0.05  broadening in eV -4-tet -1-fermi 0-gaus

 Electronic relaxation 2 (details)
   IALGO  =     38    algorithm
   LDIAG  =      T    sub-space diagonalisation (order eigenvalues)
   LSUBROT=      F    optimize rotation matrix (better conditioning)
   TURBO    =      0    0=normal 1=particle mesh
   IRESTART =      0    0=no restart 2=restart with 2 vectors
   NREBOOT  =      0    no. of reboots
   NMIN     =      0    reboot dimension
   EREF     =   0.00    reference energy to select bands
   IMIX   =      4    mixing-type and parameters
     AMIX     =   0.40;   BMIX     =  1.00
     AMIX_MAG =   1.60;   BMIX_MAG =  1.00
     AMIN     =   0.10
     WC   =   100.;   INIMIX=   1;  MIXPRE=   1;  MAXMIX= -45

 Intra band minimization:
   WEIMIN = 0.0010     energy-eigenvalue tresh-hold
   EBREAK =  0.26E-06  absolut break condition
   DEPER  =   0.30     relativ break condition  

   TIME   =   0.40     timestep for ELM

  volume/ion in A,a.u.               =      33.95       229.12
  Fermi-wavevector in a.u.,A,eV,Ry     =   0.910766  1.721098 11.285961  0.829495
  Thomas-Fermi vector in A             =   2.034967
 
 Write flags
   LWAVE        =      F    write WAVECAR
   LDOWNSAMPLE  =      F    k-point downsampling of WAVECAR
   LCHARG       =      F    write CHGCAR
   LVTOT        =      F    write LOCPOT, total local potential
   LVHAR        =      F    write LOCPOT, Hartree potential only
   LELF         =      F    write electronic localiz. function (ELF)
   LORBIT       =     10    0 simple, 1 ext, 2 COOP (PROOUT), +10 PAW based schemes


 Dipole corrections
   LMONO  =      F    monopole corrections only (constant potential shift)
   LDIPOL =      F    correct potential (dipole corrections)
   IDIPOL =      0    1-x, 2-y, 3-z, 4-all directions 
   EPSILON=  1.0000000 bulk dielectric constant

 Exchange correlation treatment:
   GGA     =    --    GGA type
   LEXCH   =     8    internal setting for exchange type
   VOSKOWN=      0    Vosko Wilk Nusair interpolation
   LHFCALC =     F    Hartree Fock is set to
   LHFONE  =     F    Hartree Fock one center treatment
   AEXX    =    0.0000 exact exchange contribution

 Linear response parameters
   LEPSILON=     F    determine dielectric tensor
   LRPA    =     F    only Hartree local field effects (RPA)
   LNABLA  =     F    use nabla operator in PAW spheres
   LVEL    =     F    velocity operator in full k-point grid
   LINTERFAST=   F  fast interpolation
   KINTER  =     0    interpolate to denser k-point grid
   CSHIFT  =0.1000    complex shift for real part using Kramers Kronig
   OMEGAMAX=  -1.0    maximum frequency
   DEG_THRESHOLD= 0.2000000E-02 threshold for treating states as degnerate
   RTIME   =   -0.100 relaxation time in fs
  (WPLASMAI=    0.000 imaginary part of plasma frequency in eV, 0.658/RTIME)
   DFIELD  = 0.0000000 0.0000000 0.0000000 field for delta impulse in time
 
 Orbital magnetization related:
   ORBITALMAG=     F  switch on orbital magnetization
   LCHIMAG   =     F  perturbation theory with respect to B field
   DQ        =  0.001000  dq finite difference perturbation B field
   LLRAUG    =     F  two centre corrections for induced B field



--------------------------------------------------------------------------------------------------------


 conjugate gradient relaxation of ions
 charge density and potential will be updated during run
 non-spin polarized calculation
 Variant of blocked Davidson
 Davidson routine will perform the subspace rotation
 perform sub-space diagonalisation
    after iterative eigenvector-optimisation
 modified Broyden-mixing scheme, WC =      100.0
 initial mixing is a Kerker type mixing with AMIX =  0.4000 and BMIX =      1.0000
 Hartree-type preconditioning will be used
 using additional bands           22
 real space projection scheme for non local part
 use partial core corrections
 calculate Harris-corrections to forces 
   (improved forces if not selfconsistent)
 use gradient corrections 
 use of overlap-Matrix (Vanderbilt PP)
 Gauss-broadening in eV      SIGMA  =   0.05


--------------------------------------------------------------------------------------------------------


  energy-cutoff  :      300.00
  volume of cell :      882.77
      direct lattice vectors                 reciprocal lattice vectors
     4.244011820  0.000000000  0.000000000     0.235626111  0.000000000  0.000000000
     0.000000000 13.413408770  0.040872120     0.000000000  0.074570277 -0.005911398
     0.000000000  1.229592640 15.510893890     0.000000000 -0.000196497  0.064486394

  length of vectors
     4.244011820 13.413471041 15.559554214     0.235626111  0.074804217  0.064486693


 
 k-points in units of 2pi/SCALE and weight: pymatgen with grid density = 807 / numbe
   0.00000000  0.01859345  0.01464375       0.100
   0.04712522  0.01859345  0.01464375       0.200
   0.09425044  0.01859345  0.01464375       0.200
   0.00000000 -0.01869169  0.01759945       0.100
   0.04712522 -0.01869169  0.01759945       0.200
   0.09425044 -0.01869169  0.01759945       0.200
 
 k-points in reciprocal lattice and weights: pymatgen with grid density = 807 / numbe
   0.00000000  0.25000000  0.25000000       0.100
   0.20000000  0.25000000  0.25000000       0.200
   0.40000000  0.25000000  0.25000000       0.200
   0.00000000 -0.25000000  0.25000000       0.100
   0.20000000 -0.25000000  0.25000000       0.200
   0.40000000 -0.25000000  0.25000000       0.200
 
 position of ions in fractional coordinates (direct lattice) 
   0.25000000  0.56849279  0.81209004
   0.75000000  0.43150721  0.18790996
   0.75000000  0.82875309  0.62285478
   0.25000000  0.17124691  0.37714522
   0.25000000  0.94612343  0.87977359
   0.75000000  0.05387657  0.12022641
   0.25000000  0.83155606  0.27488852
   0.75000000  0.16844394  0.72511148
   0.75000000  0.73146608  0.05056020
   0.25000000  0.26853392  0.94943980
   0.75000000  0.60668333  0.42829721
   0.25000000  0.39331667  0.57170279
   0.25000000  0.45798711  0.39320698
   0.75000000  0.54201289  0.60679302
   0.25000000  0.59813812  0.03793755
   0.75000000  0.40186188  0.96206245
   0.75000000  0.98566906  0.29540055
   0.25000000  0.01433094  0.70459945
   0.75000000  0.79785506  0.86286623
   0.25000000  0.20214494  0.13713377
   0.25000000  0.75545718  0.45156839
   0.75000000  0.24454282  0.54843161
   0.75000000  0.69160821  0.24041933
   0.25000000  0.30839179  0.75958067
   0.25000000  0.90357682  0.08303846
   0.75000000  0.09642318  0.91696154
 
 position of ions in cartesian coordinates  (Angst):
   1.06100295  8.62396611 12.61947795
   3.18300886  6.01903530  2.93228806
   3.18300886 11.88226162  9.69490730
   1.06100295  2.76073979  5.85685871
   1.06100295 13.77250344 13.68474487
   3.18300886  0.87049797  1.86702114
   1.06100295 11.49200225  4.29775412
   3.18300886  3.15099916 11.25401189
   3.18300886  9.87362198  0.81413047
   1.06100295  4.76937943 14.73763554
   3.18300886  8.66432260  6.66806901
   1.06100295  5.97867881  8.88369700
   1.06100295  6.62665273  6.11771065
   3.18300886  8.01634868  9.43405536
   1.06100295  8.06971884  0.61289249
   3.18300886  6.57328257 14.93887352
   3.18300886 13.58440436  4.62221297
   1.06100295  1.05859705 10.92955304
   3.18300886 11.76293002 13.41643656
   1.06100295  2.88007139  2.13532945
   1.06100295 10.68850113  7.03510652
   3.18300886  3.95450028  8.51665949
   3.18300886  9.57244147  3.75738621
   1.06100295  5.07055994 11.79437980
   1.06100295 12.22214872  1.32493184
   3.18300886  2.42085269 14.22683417
 


--------------------------------------------------------------------------------------------------------


 k-point  1 :   0.0000 0.2500 0.2500  plane waves:   10345
 k-point  2 :   0.2000 0.2500 0.2500  plane waves:   10416
 k-point  3 :   0.4000 0.2500 0.2500  plane waves:   10443
 k-point  4 :   0.0000-0.2500 0.2500  plane waves:   10347
 k-point  5 :   0.2000-0.2500 0.2500  plane waves:   10416
 k-point  6 :   0.4000-0.2500 0.2500  plane waves:   10459

 maximum and minimum number of plane-waves per node :     10459    10345

 maximum number of plane-waves:     10459
 maximum index in each direction: 
   IXMAX=    5   IYMAX=   19   IZMAX=   21
   IXMIN=   -6   IYMIN=  -19   IZMIN=  -22


 serial   3D FFT for wavefunctions
 parallel 3D FFT for charge:
    minimum data exchange during FFTs selected (reduces bandwidth)


 total amount of memory used by VASP MPI-rank0    45848. kBytes
=======================================================================

   base      :      30000. kBytes
   nonlr-proj:       3469. kBytes
   fftplans  :        905. kBytes
   grid      :       4039. kBytes
   one-center:        210. kBytes
   wavefun   :       7225. kBytes
 
     INWAV:  cpu time    0.0000: real time    0.0000
 Broyden mixing: mesh for mixing (old mesh)
   NGX = 11   NGY = 37   NGZ = 43
  (NGX  = 28   NGY  = 80   NGZ  = 96)
  gives a total of  17501 points

 initial charge density was supplied:
 charge density of overlapping atoms calculated
 number of electron     152.0000000 magnetization 
 keeping initial charge density in first step


--------------------------------------------------------------------------------------------------------


 Maximum index for non-local projection operator         1696
 Maximum index for augmentation-charges          196 (set IRDMAX)


--------------------------------------------------------------------------------------------------------


 First call to EWALD:  gamma=   0.185
 Maximum number of real-space cells 6x 2x 2
 Maximum number of reciprocal cells 1x 4x 4

    FEWALD:  cpu time    0.0022: real time    0.0022


--------------------------------------- Iteration      1(   1)  ---------------------------------------


    POTLOK:  cpu time    0.0281: real time    0.0747
    SETDIJ:  cpu time    0.1656: real time    0.1667
     EDDAV:  cpu time    1.1031: real time    1.1051
       DOS:  cpu time    0.0005: real time    0.0005
    --------------------------------------------
      LOOP:  cpu time    1.2974: real time    1.3471

 eigenvalue-minimisations  :  1176
 total energy-change (2. order) : 0.7371161E+03  (-0.4305910E+04)
 number of electron     152.0000000 magnetization 
 augmentation part      152.0000000 magnetization 

 Free energy of the ion-electron system (eV)
  ---------------------------------------------------
  alpha Z        PSCENC =       207.17945859
  Ewald energy   TEWEN  =     -5357.93881648
  -Hartree energ DENC   =     -1359.90170401
  -exchange      EXHF   =         0.00000000
  -V(xc)+E(xc)   XCENC  =      -672.10403613
  PAW double counting   =      6199.28097179    -5206.05274276
  entropy T*S    EENTRO =        -0.01092896
  eigenvalues    EBANDS =        42.82300716
  atomic energy  EATOM  =      6883.84084810
  Solvation  Ediel_sol  =         0.00000000
  ---------------------------------------------------
  free energy    TOTEN  =       737.11605727 eV

  energy without entropy =      737.12698624  energy(sigma->0) =      737.12152175


--------------------------------------------------------------------------------------------------------




--------------------------------------- Iteration      1(   2)  ---------------------------------------


     EDDAV:  cpu time    1.5514: real time    1.5525
       DOS:  cpu time    0.0002: real time    0.0002
    --------------------------------------------
      LOOP:  cpu time    1.5516: real time    1.5527

 eigenvalue-minimisations  :  1540
 total energy-change (2. order) :-0.7682369E+03  (-0.7457012E+03)
 number of electron     152.0000000 magnetization 
 augmentation part      152.0000000 magnetization 

 Free energy of the ion-electron system (eV)
  ---------------------------------------------------
  alpha Z        PSCENC =       207.17945859
  Ewald energy   TEWEN  =     -5357.93881648
  -Hartree energ DENC   =     -1359.90170401
  -exchange      EXHF   =         0.00000000
  -V(xc)+E(xc)   XCENC  =      -672.10403613
  PAW double counting   =      6199.28097179    -5206.05274276
  entropy T*S    EENTRO =        -0.00000000
  eigenvalues    EBANDS =      -725.42484068
  atomic energy  EATOM  =      6883.84084810
  Solvation  Ediel_sol  =         0.00000000
  ---------------------------------------------------
  free energy    TOTEN  =       -31.12086160 eV

  energy without entropy =      -31.12086160  energy(sigma->0) =      -31.12086160


--------------------------------------------------------------------------------------------------------




--------------------------------------- Iteration      1(   3)  ---------------------------------------


     EDDAV:  cpu time    1.3145: real time    1.3147
       DOS:  cpu time    0.0002: real time    0.0002
    --------------------------------------------
      LOOP:  cpu time    1.3147: real time    1.3148

 eigenvalue-minimisations  :  1386
 total energy-change (2. order) :-0.8248472E+02  (-0.8156116E+02)
 number of electron     152.0000000 magnetization 
 augmentation part      152.0000000 magnetization 

 Free energy of the ion-electron system (eV)
  ---------------------------------------------------
  alpha Z        PSCENC =       207.17945859
  Ewald energy   TEWEN  =     -5357.93881648
  -Hartree energ DENC   =     -1359.90170401
  -exchange      EXHF   =         0.00000000
  -V(xc)+E(xc)   XCENC  =      -672.10403613
  PAW double counting   =      6199.28097179    -5206.05274276
  entropy T*S    EENTRO =        -0.00000000
  eigenvalues    EBANDS =      -807.90955668
  atomic energy  EATOM  =      6883.84084810
  Solvation  Ediel_sol  =         0.00000000
  ---------------------------------------------------
  free energy    TOTEN  =      -113.60557760 eV

  energy without entropy =     -113.60557760  energy(sigma->0) =     -113.60557760


--------------------------------------------------------------------------------------------------------




--------------------------------------- Iteration      1(   4)  ---------------------------------------


     EDDAV:  cpu time    1.4933: real time    1.4934
       DOS:  cpu time    0.0002: real time    0.0002
    --------------------------------------------
      LOOP:  cpu time    1.4935: real time    1.4937

 eigenvalue-minimisations  :  1750
 total energy-change (2. order) :-0.2952926E+01  (-0.2936441E+01)
 number of electron     152.0000000 magnetization 
 augmentation part      152.0000000 magnetization 

 Free energy of the ion-electron system (eV)
  ---------------------------------------------------
  alpha Z        PSCENC =       207.17945859
  Ewald energy   TEWEN  =     -5357.93881648
  -Hartree energ DENC   =     -1359.90170401
  -exchange      EXHF   =         0.00000000
  -V(xc)+E(xc)   XCENC  =      -672.10403613
  PAW double counting   =      6199.28097179    -5206.05274276
  entropy T*S    EENTRO =        -0.00000000
  eigenvalues    EBANDS =      -810.86248249
  atomic energy  EATOM  =      6883.84084810
  Solvation  Ediel_sol  =         0.00000000
  ---------------------------------------------------
  free energy    TOTEN  =      -116.55850341 eV

  energy without entropy =     -116.55850341  energy(sigma->0) =     -116.55850341


--------------------------------------------------------------------------------------------------------




--------------------------------------- Iteration      1(   5)  ---------------------------------------


     EDDAV:  cpu time    1.5325: real time    1.5328
       DOS:  cpu time    0.0002: real time    0.0002
    CHARGE:  cpu time    0.0435: real time    0.0435
    MIXING:  cpu time    0.0006: real time    0.0006
    --------------------------------------------
      LOOP:  cpu time    1.5769: real time    1.5771

 eigenvalue-minimisations  :  1540
 total energy-change (2. order) :-0.5428015E-01  (-0.5422728E-01)
 number of electron     151.9999448 magnetization 
 augmentation part       -8.9875130 magnetization 

 Broyden mixing:
  rms(total) = 0.16585E+01    rms(broyden)= 0.16584E+01
  rms(prec ) = 0.20154E+01
  weight for this iteration     100.00

 Free energy of the ion-electron system (eV)
  ---------------------------------------------------
  alpha Z        PSCENC =       207.17945859
  Ewald energy   TEWEN  =     -5357.93881648
  -Hartree energ DENC   =     -1359.90170401
  -exchange      EXHF   =         0.00000000
  -V(xc)+E(xc)   XCENC  =      -672.10403613
  PAW double counting   =      6199.28097179    -5206.05274276
  entropy T*S    EENTRO =        -0.00000000
  eigenvalues    EBANDS =      -810.91676264
  atomic energy  EATOM  =      6883.84084810
  Solvation  Ediel_sol  =         0.00000000
  ---------------------------------------------------
  free energy    TOTEN  =      -116.61278356 eV

  energy without entropy =     -116.61278356  energy(sigma->0) =     -116.61278356


--------------------------------------------------------------------------------------------------------




--------------------------------------- Iteration      1(   6)  ---------------------------------------


    POTLOK:  cpu time    0.0106: real time    0.0106
    SETDIJ:  cpu time    0.1650: real time    0.1650
     EDDAV:  cpu time    1.3914: real time    1.3916
       DOS:  cpu time    0.0005: real time    0.0005
    CHARGE:  cpu time    0.0490: real time    0.0490
    MIXING:  cpu time    0.0011: real time    0.0011
    --------------------------------------------
      LOOP:  cpu time    1.6177: real time    1.6179

 eigenvalue-minimisations  :  1372
 total energy-change (2. order) : 0.9671358E+01  (-0.2253003E+01)
 number of electron     151.9999448 magnetization 
 augmentation part       -9.0296222 magnetization 

 Broyden mixing:
  rms(total) = 0.11870E+01    rms(broyden)= 0.11869E+01
  rms(prec ) = 0.12160E+01
  weight for this iteration     100.00

 eigenvalues of (default mixing * dielectric matrix)
  average eigenvalue GAMMA=   0.9361
  0.9361

 Free energy of the ion-electron system (eV)
  ---------------------------------------------------
  alpha Z        PSCENC =       207.17945859
  Ewald energy   TEWEN  =     -5357.93881648
  -Hartree energ DENC   =     -1423.27691305
  -exchange      EXHF   =         0.00000000
  -V(xc)+E(xc)   XCENC  =      -666.40513534
  PAW double counting   =      7043.60330625    -6050.32339837
  entropy T*S    EENTRO =        -0.00000000
  eigenvalues    EBANDS =      -743.62077529
  atomic energy  EATOM  =      6883.84084810
  Solvation  Ediel_sol  =         0.00000000
  ---------------------------------------------------
  free energy    TOTEN  =      -106.94142560 eV

  energy without entropy =     -106.94142560  energy(sigma->0) =     -106.94142560


--------------------------------------------------------------------------------------------------------




--------------------------------------- Iteration      1(   7)  ---------------------------------------


    POTLOK:  cpu time    0.0106: real time    0.0108
    SETDIJ:  cpu time    0.1663: real time    0.1663
     EDDAV:  cpu time    1.3240: real time    1.3241
       DOS:  cpu time    0.0003: real time    0.0003
    CHARGE:  cpu time    0.0479: real time    0.0479
    MIXING:  cpu time    0.0007: real time    0.0007
    --------------------------------------------
      LOOP:  cpu time    1.5498: real time    1.5501

 eigenvalue-minimisations  :  1316
 total energy-change (2. order) :-0.2224883E+00  (-0.4600332E+00)
 number of electron     151.9999461 magnetization 
 augmentation part       -9.2850141 magnetization 

 Broyden mixing:
  rms(total) = 0.78768E+00    rms(broyden)= 0.78765E+00
  rms(prec ) = 0.80532E+00
  weight for this iteration     100.00

 eigenvalues of (default mixing * dielectric matrix)
  average eigenvalue GAMMA=   1.3510
  0.9239  1.7781

 Free energy of the ion-electron system (eV)
  ---------------------------------------------------
  alpha Z        PSCENC =       207.17945859
  Ewald energy   TEWEN  =     -5357.93881648
  -Hartree energ DENC   =     -1429.63240622
  -exchange      EXHF   =         0.00000000
  -V(xc)+E(xc)   XCENC  =      -665.60546943
  PAW double counting   =      7907.66142872    -6913.77567292
  entropy T*S    EENTRO =        -0.00000000
  eigenvalues    EBANDS =      -738.89328422
  atomic energy  EATOM  =      6883.84084810
  Solvation  Ediel_sol  =         0.00000000
  ---------------------------------------------------
  free energy    TOTEN  =      -107.16391388 eV

  energy without entropy =     -107.16391388  energy(sigma->0) =     -107.16391388


--------------------------------------------------------------------------------------------------------




--------------------------------------- Iteration      1(   8)  ---------------------------------------


    POTLOK:  cpu time    0.0109: real time    0.0111
    SETDIJ:  cpu time    0.1644: real time    0.1644
     EDDAV:  cpu time    1.5914: real time    1.5916
       DOS:  cpu time    0.0002: real time    0.0002
    CHARGE:  cpu time    0.0507: real time    0.0507
    MIXING:  cpu time    0.0009: real time    0.0009
    --------------------------------------------
      LOOP:  cpu time    1.8187: real time    1.8189

 eigenvalue-minimisations  :  1666
 total energy-change (2. order) : 0.1300197E-02  (-0.3971061E-01)
 number of electron     151.9999464 magnetization 
 augmentation part       -9.3753333 magnetization 

 Broyden mixing:
  rms(total) = 0.25437E+00    rms(broyden)= 0.25437E+00
  rms(prec ) = 0.26915E+00
  weight for this iteration     100.00

 eigenvalues of (default mixing * dielectric matrix)
  average eigenvalue GAMMA=   1.4496
  2.3920  0.9784  0.9784

 Free energy of the ion-electron system (eV)
  ---------------------------------------------------
  alpha Z        PSCENC =       207.17945859
  Ewald energy   TEWEN  =     -5357.93881648
  -Hartree energ DENC   =     -1430.11925567
  -exchange      EXHF   =         0.00000000
  -V(xc)+E(xc)   XCENC  =      -665.43210796
  PAW double counting   =      8906.96715628    -7912.32640331
  entropy T*S    EENTRO =        -0.00000000
  eigenvalues    EBANDS =      -739.33349322
  atomic energy  EATOM  =      6883.84084810
  Solvation  Ediel_sol  =         0.00000000
  ---------------------------------------------------
  free energy    TOTEN  =      -107.16261368 eV

  energy without entropy =     -107.16261368  energy(sigma->0) =     -107.16261368


--------------------------------------------------------------------------------------------------------




--------------------------------------- Iteration      1(   9)  ---------------------------------------


    POTLOK:  cpu time    0.0118: real time    0.0120
    SETDIJ:  cpu time    0.1660: real time    0.1660
     EDDAV:  cpu time    1.0630: real time    1.0631
       DOS:  cpu time    0.0002: real time    0.0002
    CHARGE:  cpu time    0.0478: real time    0.0478
    MIXING:  cpu time    0.0008: real time    0.0008
    --------------------------------------------
      LOOP:  cpu time    1.2896: real time    1.2898

 eigenvalue-minimisations  :  1498
 total energy-change (2. order) :-0.3958230E-02  (-0.1096254E-01)
 number of electron     151.9999461 magnetization 
 augmentation part       -9.3881702 magnetization 

 Broyden mixing:
  rms(total) = 0.93578E-01    rms(broyden)= 0.93577E-01
  rms(prec ) = 0.10062E+00
  weight for this iteration     100.00

 eigenvalues of (default mixing * dielectric matrix)
  average eigenvalue GAMMA=   1.2385
  2.3336  0.9643  0.9643  0.6919

 Free energy of the ion-electron system (eV)
  ---------------------------------------------------
  alpha Z        PSCENC =       207.17945859
  Ewald energy   TEWEN  =     -5357.93881648
  -Hartree energ DENC   =     -1433.57831339
  -exchange      EXHF   =         0.00000000
  -V(xc)+E(xc)   XCENC  =      -665.06403321
  PAW double counting   =      9361.82999404    -8366.77671306
  entropy T*S    EENTRO =        -0.00000000
  eigenvalues    EBANDS =      -736.65899649
  atomic energy  EATOM  =      6883.84084810
  Solvation  Ediel_sol  =         0.00000000
  ---------------------------------------------------
  free energy    TOTEN  =      -107.16657191 eV

  energy without entropy =     -107.16657191  energy(sigma->0) =     -107.16657191


--------------------------------------------------------------------------------------------------------




--------------------------------------- Iteration      1(  10)  ---------------------------------------


    POTLOK:  cpu time    0.0103: real time    0.0104
    SETDIJ:  cpu time    0.1654: real time    0.1654
     EDDAV:  cpu time    1.2899: real time    1.2900
       DOS:  cpu time    0.0004: real time    0.0004
    CHARGE:  cpu time    0.0460: real time    0.0460
    MIXING:  cpu time    0.0008: real time    0.0008
    --------------------------------------------
      LOOP:  cpu time    1.5127: real time    1.5129

 eigenvalue-minimisations  :  1414
 total energy-change (2. order) :-0.2472439E-02  (-0.1878898E-02)
 number of electron     151.9999462 magnetization 
 augmentation part       -9.3997515 magnetization 

 Broyden mixing:
  rms(total) = 0.62414E-01    rms(broyden)= 0.62413E-01
  rms(prec ) = 0.69158E-01
  weight for this iteration     100.00

 eigenvalues of (default mixing * dielectric matrix)
  average eigenvalue GAMMA=   1.3818
  2.2948  0.9534  0.9534  1.3538  1.3538

 Free energy of the ion-electron system (eV)
  ---------------------------------------------------
  alpha Z        PSCENC =       207.17945859
  Ewald energy   TEWEN  =     -5357.93881648
  -Hartree energ DENC   =     -1433.97035805
  -exchange      EXHF   =         0.00000000
  -V(xc)+E(xc)   XCENC  =      -665.06575988
  PAW double counting   =      9302.25549825    -8307.20224095
  entropy T*S    EENTRO =        -0.00000000
  eigenvalues    EBANDS =      -736.26767392
  atomic energy  EATOM  =      6883.84084810
  Solvation  Ediel_sol  =         0.00000000
  ---------------------------------------------------
  free energy    TOTEN  =      -107.16904435 eV

  energy without entropy =     -107.16904435  energy(sigma->0) =     -107.16904435


--------------------------------------------------------------------------------------------------------




--------------------------------------- Iteration      1(  11)  ---------------------------------------


    POTLOK:  cpu time    0.0106: real time    0.0108
    SETDIJ:  cpu time    0.1658: real time    0.1658
     EDDAV:  cpu time    1.3959: real time    1.3960
       DOS:  cpu time    0.0003: real time    0.0003
    CHARGE:  cpu time    0.0476: real time    0.0477
    MIXING:  cpu time    0.0008: real time    0.0008
    --------------------------------------------
      LOOP:  cpu time    1.6211: real time    1.6214

 eigenvalue-minimisations  :  1330
 total energy-change (2. order) :-0.4577512E-02  (-0.9414991E-03)
 number of electron     151.9999463 magnetization 
 augmentation part       -9.3925531 magnetization 

 Broyden mixing:
  rms(total) = 0.21157E-01    rms(broyden)= 0.21156E-01
  rms(prec ) = 0.25545E-01
  weight for this iteration     100.00

 eigenvalues of (default mixing * dielectric matrix)
  average eigenvalue GAMMA=   1.4725
  2.5087  2.5087  1.0405  0.9501  0.9136  0.9136

 Free energy of the ion-electron system (eV)
  ---------------------------------------------------
  alpha Z        PSCENC =       207.17945859
  Ewald energy   TEWEN  =     -5357.93881648
  -Hartree energ DENC   =     -1434.89364066
  -exchange      EXHF   =         0.00000000
  -V(xc)+E(xc)   XCENC  =      -665.05816900
  PAW double counting   =      9232.75558865    -8237.62620088
  entropy T*S    EENTRO =        -0.00000000
  eigenvalues    EBANDS =      -735.43269018
  atomic energy  EATOM  =      6883.84084810
  Solvation  Ediel_sol  =         0.00000000
  ---------------------------------------------------
  free energy    TOTEN  =      -107.17362186 eV

  energy without entropy =     -107.17362186  energy(sigma->0) =     -107.17362186


--------------------------------------------------------------------------------------------------------




--------------------------------------- Iteration      1(  12)  ---------------------------------------


    POTLOK:  cpu time    0.0097: real time    0.0098
    SETDIJ:  cpu time    0.1655: real time    0.1655
     EDDAV:  cpu time    1.3477: real time    1.3478
       DOS:  cpu time    0.0003: real time    0.0003
    CHARGE:  cpu time    0.0466: real time    0.0466
    MIXING:  cpu time    0.0009: real time    0.0009
    --------------------------------------------
      LOOP:  cpu time    1.5707: real time    1.5709

 eigenvalue-minimisations  :  1414
 total energy-change (2. order) :-0.1873064E-02  (-0.4691511E-03)
 number of electron     151.9999463 magnetization 
 augmentation part       -9.3845670 magnetization 

 Broyden mixing:
  rms(total) = 0.12222E-01    rms(broyden)= 0.12222E-01
  rms(prec ) = 0.13646E-01
  weight for this iteration     100.00

 eigenvalues of (default mixing * dielectric matrix)
  average eigenvalue GAMMA=   1.4595
  2.6583  2.6583  0.9634  1.0157  1.0157  0.9525  0.9525

 Free energy of the ion-electron system (eV)
  ---------------------------------------------------
  alpha Z        PSCENC =       207.17945859
  Ewald energy   TEWEN  =     -5357.93881648
  -Hartree energ DENC   =     -1435.62405520
  -exchange      EXHF   =         0.00000000
  -V(xc)+E(xc)   XCENC  =      -665.02855489
  PAW double counting   =      9191.43104606    -8196.27724587
  entropy T*S    EENTRO =        -0.00000000
  eigenvalues    EBANDS =      -734.75817522
  atomic energy  EATOM  =      6883.84084810
  Solvation  Ediel_sol  =         0.00000000
  ---------------------------------------------------
  free energy    TOTEN  =      -107.17549493 eV

  energy without entropy =     -107.17549493  energy(sigma->0) =     -107.17549493


--------------------------------------------------------------------------------------------------------




--------------------------------------- Iteration      1(  13)  ---------------------------------------


    POTLOK:  cpu time    0.0096: real time    0.0097
    SETDIJ:  cpu time    0.1662: real time    0.1662
     EDDAV:  cpu time    1.4203: real time    1.4204
       DOS:  cpu time    0.0002: real time    0.0002
    CHARGE:  cpu time    0.0438: real time    0.0438
    MIXING:  cpu time    0.0010: real time    0.0010
    --------------------------------------------
      LOOP:  cpu time    1.6411: real time    1.6413

 eigenvalue-minimisations  :  1386
 total energy-change (2. order) :-0.4832476E-03  (-0.8369537E-04)
 number of electron     151.9999464 magnetization 
 augmentation part       -9.3825257 magnetization 

 Broyden mixing:
  rms(total) = 0.73458E-02    rms(broyden)= 0.73454E-02
  rms(prec ) = 0.81262E-02
  weight for this iteration     100.00

 eigenvalues of (default mixing * dielectric matrix)
  average eigenvalue GAMMA=   1.5446
  2.6595  2.6595  1.9456  1.1558  1.1558  0.9305  0.9251  0.9251

 Free energy of the ion-electron system (eV)
  ---------------------------------------------------
  alpha Z        PSCENC =       207.17945859
  Ewald energy   TEWEN  =     -5357.93881648
  -Hartree energ DENC   =     -1435.73228120
  -exchange      EXHF   =         0.00000000
  -V(xc)+E(xc)   XCENC  =      -665.02328812
  PAW double counting   =      9177.61183176    -8182.46710796
  entropy T*S    EENTRO =        -0.00000000
  eigenvalues    EBANDS =      -734.64662286
  atomic energy  EATOM  =      6883.84084810
  Solvation  Ediel_sol  =         0.00000000
  ---------------------------------------------------
  free energy    TOTEN  =      -107.17597817 eV

  energy without entropy =     -107.17597817  energy(sigma->0) =     -107.17597817


--------------------------------------------------------------------------------------------------------




--------------------------------------- Iteration      1(  14)  ---------------------------------------


    POTLOK:  cpu time    0.0100: real time    0.0100
    SETDIJ:  cpu time    0.1654: real time    0.1654
     EDDAV:  cpu time    0.8959: real time    0.8960
       DOS:  cpu time    0.0004: real time    0.0004
    CHARGE:  cpu time    0.0449: real time    0.0449
    MIXING:  cpu time    0.0010: real time    0.0010
    --------------------------------------------
      LOOP:  cpu time    1.1176: real time    1.1177

 eigenvalue-minimisations  :  1078
 total energy-change (2. order) :-0.2212151E-03  (-0.1777085E-04)
 number of electron     151.9999463 magnetization 
 augmentation part       -9.3826929 magnetization 

 Broyden mixing:
  rms(total) = 0.23700E-02    rms(broyden)= 0.23697E-02
  rms(prec ) = 0.33140E-02
  weight for this iteration     100.00

 eigenvalues of (default mixing * dielectric matrix)
  average eigenvalue GAMMA=   1.5664
  3.2895  2.7207  1.8540  1.3754  0.9005  1.0350  1.0350  0.9440  0.9440

 Free energy of the ion-electron system (eV)
  ---------------------------------------------------
  alpha Z        PSCENC =       207.17945859
  Ewald energy   TEWEN  =     -5357.93881648
  -Hartree energ DENC   =     -1435.79223264
  -exchange      EXHF   =         0.00000000
  -V(xc)+E(xc)   XCENC  =      -665.01031780
  PAW double counting   =      9181.82376611    -8186.69027042
  entropy T*S    EENTRO =        -0.00000000
  eigenvalues    EBANDS =      -734.58863484
  atomic energy  EATOM  =      6883.84084810
  Solvation  Ediel_sol  =         0.00000000
  ---------------------------------------------------
  free energy    TOTEN  =      -107.17619939 eV

  energy without entropy =     -107.17619939  energy(sigma->0) =     -107.17619939


--------------------------------------------------------------------------------------------------------




--------------------------------------- Iteration      1(  15)  ---------------------------------------


    POTLOK:  cpu time    0.0083: real time    0.0084
    SETDIJ:  cpu time    0.1646: real time    0.1646
     EDDAV:  cpu time    1.2165: real time    1.2165
       DOS:  cpu time    0.0003: real time    0.0003
    --------------------------------------------
      LOOP:  cpu time    1.3897: real time    1.3899

 eigenvalue-minimisations  :  1008
 total energy-change (2. order) :-0.7425279E-04  (-0.1713234E-04)
 number of electron     151.9999463 magnetization 
 augmentation part       -9.3826929 magnetization 

 Free energy of the ion-electron system (eV)
  ---------------------------------------------------
  alpha Z        PSCENC =       207.17945859
  Ewald energy   TEWEN  =     -5357.93881648
  -Hartree energ DENC   =     -1435.88011332
  -exchange      EXHF   =         0.00000000
  -V(xc)+E(xc)   XCENC  =      -665.00614472
  PAW double counting   =      9176.93518557    -8181.79971443
  entropy T*S    EENTRO =        -0.00000000
  eigenvalues    EBANDS =      -734.50697693
  atomic energy  EATOM  =      6883.84084810
  Solvation  Ediel_sol  =         0.00000000
  ---------------------------------------------------
  free energy    TOTEN  =      -107.17627364 eV

  energy without entropy =     -107.17627364  energy(sigma->0) =     -107.17627364


--------------------------------------------------------------------------------------------------------




 average (electrostatic) potential at core
  the test charge radii are     1.3383  1.4024  0.9698
  (the norm of the test charge is              1.0000)
       1 -12.9213       2 -12.9213       3 -13.1277       4 -13.1277       5 -65.8542
       6 -65.8542       7 -65.7461       8 -65.7461       9 -65.6792      10 -65.6792
      11 -65.7740      12 -65.7740      13 -88.9447      14 -88.9447      15 -88.7349
      16 -88.7349      17 -88.9492      18 -88.9492      19 -89.0146      20 -89.0146
      21 -88.9500      22 -88.9500      23 -89.0286      24 -89.0286      25 -89.1245
      26 -89.1245
 
 
 
 E-fermi :   1.6884     XC(G=0):  -7.9274     alpha+bet : -7.2466


 k-point     1 :       0.0000    0.2500    0.2500
  band No.  band energies     occupation 
      1     -12.5498      2.00000
      2     -12.5485      2.00000
      3     -12.5245      2.00000
      4     -12.5244      2.00000
      5     -12.4478      2.00000
      6     -12.4459      2.00000
      7     -12.3211      2.00000
      8     -12.3210      2.00000
      9     -12.3161      2.00000
     10     -12.3127      2.00000
     11     -12.2538      2.00000
     12     -12.2513      2.00000
     13     -11.4917      2.00000
     14     -11.2275      2.00000
     15     -11.1752      2.00000
     16     -10.8209      2.00000
     17     -10.5235      2.00000
     18     -10.5158      2.00000
     19     -10.4597      2.00000
     20      -9.9117      2.00000
     21      -9.8905      2.00000
     22      -9.8173      2.00000
     23      -9.7334      2.00000
     24      -9.6816      2.00000
     25      -9.6487      2.00000
     26      -9.6307      2.00000
     27      -8.3017      2.00000
     28      -7.9947      2.00000
     29      -7.8233      2.00000
     30      -7.6728      2.00000
     31      -7.4950      2.00000
     32      -7.1670      2.00000
     33      -7.0196      2.00000
     34      -6.6990      2.00000
     35      -2.6262      2.00000
     36      -2.0524      2.00000
     37      -1.8357      2.00000
     38      -1.3772      2.00000
     39      -1.1662      2.00000
     40      -1.0999      2.00000
     41      -1.0966      2.00000
     42      -0.8242      2.00000
     43      -0.7606      2.00000
     44      -0.7477      2.00000
     45      -0.7017      2.00000
     46      -0.6415      2.00000
     47      -0.5327      2.00000
     48      -0.4481      2.00000
     49      -0.4291      2.00000
     50      -0.2453      2.00000
     51      -0.1700      2.00000
     52      -0.1395      2.00000
     53      -0.1266      2.00000
     54      -0.1187      2.00000
     55      -0.0406      2.00000
     56       0.0134      2.00000
     57       0.0986      2.00000
     58       0.1586      2.00000
     59       0.2145      2.00000
     60       0.2239      2.00000
     61       0.3293      2.00000
     62       0.4517      2.00000
     63       0.4886      2.00000
     64       0.5540      2.00000
     65       0.5574      2.00000
     66       0.6077      2.00000
     67       0.6626      2.00000
     68       0.6753      2.00000
     69       0.7161      2.00000
     70       0.7359      2.00000
     71       0.7432      2.00000
     72       0.8008      2.00000
     73       0.8491      2.00000
     74       1.0278      2.00000
     75       1.1398      2.00000
     76       1.4160      2.00000
     77       2.7171      0.00000
     78       2.8251      0.00000
     79       2.9422      0.00000
     80       3.2391      0.00000
     81       3.4657      0.00000
     82       3.5004      0.00000
     83       3.5587      0.00000
     84       3.6634      0.00000
     85       3.9040      0.00000
     86       3.9681      0.00000
     87       4.0339      0.00000
     88       4.1128      0.00000
     89       4.1759      0.00000
     90       4.2666      0.00000
     91       4.3362      0.00000
     92       4.3549      0.00000
     93       4.5140      0.00000
     94       4.5804      0.00000
     95       4.7487      0.00000
     96       4.7873      0.00000
     97       4.9041      0.00000
     98       5.0347      0.00000

 k-point     2 :       0.2000    0.2500    0.2500
  band No.  band energies     occupation 
      1     -12.5583      2.00000
      2     -12.5582      2.00000
      3     -12.5457      2.00000
      4     -12.5448      2.00000
      5     -12.4394      2.00000
      6     -12.4383      2.00000
      7     -12.3530      2.00000
      8     -12.3529      2.00000
      9     -12.3106      2.00000
     10     -12.3078      2.00000
     11     -12.2484      2.00000
     12     -12.2465      2.00000
     13     -11.2602      2.00000
     14     -11.0046      2.00000
     15     -10.9542      2.00000
     16     -10.6189      2.00000
     17     -10.3291      2.00000
     18     -10.3206      2.00000
     19     -10.2677      2.00000
     20      -9.8210      2.00000
     21      -9.7701      2.00000
     22      -9.7259      2.00000
     23      -9.6753      2.00000
     24      -9.6306      2.00000
     25      -9.6021      2.00000
     26      -9.5669      2.00000
     27      -8.5003      2.00000
     28      -8.1813      2.00000
     29      -8.0533      2.00000
     30      -7.8385      2.00000
     31      -7.7006      2.00000
     32      -7.4439      2.00000
     33      -7.3149      2.00000
     34      -7.0223      2.00000
     35      -2.4146      2.00000
     36      -1.8941      2.00000
     37      -1.8232      2.00000
     38      -1.7802      2.00000
     39      -1.7299      2.00000
     40      -1.6251      2.00000
     41      -1.5428      2.00000
     42      -1.3179      2.00000
     43      -1.1988      2.00000
     44      -1.1715      2.00000
     45      -1.0070      2.00000
     46      -0.9165      2.00000
     47      -0.8534      2.00000
     48      -0.8143      2.00000
     49      -0.7543      2.00000
     50      -0.5854      2.00000
     51      -0.5351      2.00000
     52      -0.4519      2.00000
     53      -0.4067      2.00000
     54      -0.3400      2.00000
     55      -0.3048      2.00000
     56      -0.2710      2.00000
     57      -0.2047      2.00000
     58      -0.0077      2.00000
     59       0.1129      2.00000
     60       0.2160      2.00000
     61       0.2552      2.00000
     62       0.2880      2.00000
     63       0.3892      2.00000
     64       0.4561      2.00000
     65       0.5430      2.00000
     66       0.6012      2.00000
     67       0.6570      2.00000
     68       0.8147      2.00000
     69       0.8642      2.00000
     70       0.9180      2.00000
     71       0.9686      2.00000
     72       1.0518      2.00000
     73       1.0589      2.00000
     74       1.0655      2.00000
     75       1.1152      2.00000
     76       1.2039      2.00000
     77       3.1207      0.00000
     78       3.2694      0.00000
     79       3.4993      0.00000
     80       3.6098      0.00000
     81       3.6632      0.00000
     82       3.8621      0.00000
     83       3.9166      0.00000
     84       3.9814      0.00000
     85       4.0312      0.00000
     86       4.1110      0.00000
     87       4.1744      0.00000
     88       4.2193      0.00000
     89       4.3351      0.00000
     90       4.4077      0.00000
     91       4.5292      0.00000
     92       4.5937      0.00000
     93       4.6877      0.00000
     94       4.7379      0.00000
     95       4.8970      0.00000
     96       5.0835      0.00000
     97       5.1443      0.00000
     98       5.2687      0.00000

 k-point     3 :       0.4000    0.2500    0.2500
  band No.  band energies     occupation 
      1     -12.6116      2.00000
      2     -12.6115      2.00000
      3     -12.5395      2.00000
      4     -12.5392      2.00000
      5     -12.4266      2.00000
      6     -12.4263      2.00000
      7     -12.4036      2.00000
      8     -12.4034      2.00000
      9     -12.3017      2.00000
     10     -12.3007      2.00000
     11     -12.2399      2.00000
     12     -12.2392      2.00000
     13     -10.6263      2.00000
     14     -10.4138      2.00000
     15     -10.3673      2.00000
     16     -10.1399      2.00000
     17      -9.9395      2.00000
     18      -9.8918      2.00000
     19      -9.8868      2.00000
     20      -9.8636      2.00000
     21      -9.7800      2.00000
     22      -9.7346      2.00000
     23      -9.6763      2.00000
     24      -9.6594      2.00000
     25      -9.4652      2.00000
     26      -9.3903      2.00000
     27      -8.5442      2.00000
     28      -8.4885      2.00000
     29      -8.4880      2.00000
     30      -8.2751      2.00000
     31      -8.1801      2.00000
     32      -8.0391      2.00000
     33      -7.9415      2.00000
     34      -7.7896      2.00000
     35      -2.4802      2.00000
     36      -2.4046      2.00000
     37      -2.1848      2.00000
     38      -2.0882      2.00000
     39      -1.9988      2.00000
     40      -1.9840      2.00000
     41      -1.7520      2.00000
     42      -1.5637      2.00000
     43      -1.5201      2.00000
     44      -1.3935      2.00000
     45      -1.3467      2.00000
     46      -1.2983      2.00000
     47      -1.2625      2.00000
     48      -1.1827      2.00000
     49      -1.0600      2.00000
     50      -0.9815      2.00000
     51      -0.8914      2.00000
     52      -0.8464      2.00000
     53      -0.8065      2.00000
     54      -0.6464      2.00000
     55      -0.6005      2.00000
     56      -0.4735      2.00000
     57      -0.4311      2.00000
     58      -0.2224      2.00000
     59       0.2028      2.00000
     60       0.2584      2.00000
     61       0.2882      2.00000
     62       0.3294      2.00000
     63       0.3505      2.00000
     64       0.3799      2.00000
     65       0.4734      2.00000
     66       0.4889      2.00000
     67       0.5089      2.00000
     68       0.5473      2.00000
     69       0.6786      2.00000
     70       0.7216      2.00000
     71       0.7863      2.00000
     72       0.8386      2.00000
     73       0.8681      2.00000
     74       0.9791      2.00000
     75       1.0747      2.00000
     76       1.1175      2.00000
     77       3.2310      0.00000
     78       3.3649      0.00000
     79       3.6468      0.00000
     80       3.6773      0.00000
     81       3.9574      0.00000
     82       4.0339      0.00000
     83       4.1358      0.00000
     84       4.1814      0.00000
     85       4.2763      0.00000
     86       4.3842      0.00000
     87       4.4390      0.00000
     88       4.4936      0.00000
     89       4.7682      0.00000
     90       4.8060      0.00000
     91       4.8341      0.00000
     92       4.9025      0.00000
     93       4.9629      0.00000
     94       5.1226      0.00000
     95       5.2636      0.00000
     96       5.2951      0.00000
     97       5.3453      0.00000
     98       5.5765      0.00000

 k-point     4 :       0.0000   -0.2500    0.2500
  band No.  band energies     occupation 
      1     -12.5498      2.00000
      2     -12.5485      2.00000
      3     -12.5245      2.00000
      4     -12.5244      2.00000
      5     -12.4479      2.00000
      6     -12.4458      2.00000
      7     -12.3211      2.00000
      8     -12.3210      2.00000
      9     -12.3161      2.00000
     10     -12.3127      2.00000
     11     -12.2538      2.00000
     12     -12.2512      2.00000
     13     -11.4652      2.00000
     14     -11.3535      2.00000
     15     -10.9439      2.00000
     16     -10.8469      2.00000
     17     -10.8189      2.00000
     18     -10.4708      2.00000
     19     -10.2160      2.00000
     20     -10.0236      2.00000
     21      -9.8874      2.00000
     22      -9.8367      2.00000
     23      -9.7309      2.00000
     24      -9.7042      2.00000
     25      -9.6298      2.00000
     26      -9.6012      2.00000
     27      -8.3006      2.00000
     28      -8.0394      2.00000
     29      -7.7728      2.00000
     30      -7.6085      2.00000
     31      -7.5026      2.00000
     32      -7.3180      2.00000
     33      -6.9006      2.00000
     34      -6.7299      2.00000
     35      -2.5413      2.00000
     36      -2.3409      2.00000
     37      -1.4666      2.00000
     38      -1.2865      2.00000
     39      -1.1650      2.00000
     40      -1.1510      2.00000
     41      -1.0864      2.00000
     42      -0.9398      2.00000
     43      -0.9118      2.00000
     44      -0.8263      2.00000
     45      -0.6948      2.00000
     46      -0.5760      2.00000
     47      -0.4787      2.00000
     48      -0.4725      2.00000
     49      -0.4332      2.00000
     50      -0.4286      2.00000
     51      -0.1769      2.00000
     52      -0.1553      2.00000
     53      -0.1289      2.00000
     54      -0.0852      2.00000
     55       0.0046      2.00000
     56       0.0053      2.00000
     57       0.0895      2.00000
     58       0.1733      2.00000
     59       0.2279      2.00000
     60       0.2609      2.00000
     61       0.4682      2.00000
     62       0.4891      2.00000
     63       0.4985      2.00000
     64       0.5533      2.00000
     65       0.5647      2.00000
     66       0.6255      2.00000
     67       0.6784      2.00000
     68       0.6920      2.00000
     69       0.7005      2.00000
     70       0.7424      2.00000
     71       0.7499      2.00000
     72       0.7891      2.00000
     73       0.9170      2.00000
     74       0.9455      2.00000
     75       1.0785      2.00000
     76       1.4242      2.00000
     77       2.5084      0.00000
     78       2.8373      0.00000
     79       2.9766      0.00000
     80       3.1632      0.00000
     81       3.3831      0.00000
     82       3.5911      0.00000
     83       3.7247      0.00000
     84       3.8966      0.00000
     85       3.9419      0.00000
     86       3.9631      0.00000
     87       4.0679      0.00000
     88       4.1286      0.00000
     89       4.1341      0.00000
     90       4.1906      0.00000
     91       4.3028      0.00000
     92       4.3455      0.00000
     93       4.4233      0.00000
     94       4.6082      0.00000
     95       4.7112      0.00000
     96       4.7624      0.00000
     97       4.7906      0.00000
     98       5.1027      0.00000

 k-point     5 :       0.2000   -0.2500    0.2500
  band No.  band energies     occupation 
      1     -12.5583      2.00000
      2     -12.5582      2.00000
      3     -12.5457      2.00000
      4     -12.5448      2.00000
      5     -12.4394      2.00000
      6     -12.4382      2.00000
      7     -12.3530      2.00000
      8     -12.3529      2.00000
      9     -12.3106      2.00000
     10     -12.3078      2.00000
     11     -12.2484      2.00000
     12     -12.2465      2.00000
     13     -11.2337      2.00000
     14     -11.1279      2.00000
     15     -10.7298      2.00000
     16     -10.6394      2.00000
     17     -10.6151      2.00000
     18     -10.2796      2.00000
     19     -10.0374      2.00000
     20      -9.8723      2.00000
     21      -9.8060      2.00000
     22      -9.7588      2.00000
     23      -9.6715      2.00000
     24      -9.6430      2.00000
     25      -9.5909      2.00000
     26      -9.5422      2.00000
     27      -8.5033      2.00000
     28      -8.2516      2.00000
     29      -7.9021      2.00000
     30      -7.7886      2.00000
     31      -7.7688      2.00000
     32      -7.6007      2.00000
     33      -7.1681      2.00000
     34      -7.0715      2.00000
     35      -2.3456      2.00000
     36      -2.1495      2.00000
     37      -1.8286      2.00000
     38      -1.7871      2.00000
     39      -1.5966      2.00000
     40      -1.5060      2.00000
     41      -1.4383      2.00000
     42      -1.3320      2.00000
     43      -1.1884      2.00000
     44      -1.1478      2.00000
     45      -1.0660      2.00000
     46      -0.9517      2.00000
     47      -0.8653      2.00000
     48      -0.8482      2.00000
     49      -0.7361      2.00000
     50      -0.6957      2.00000
     51      -0.5875      2.00000
     52      -0.5418      2.00000
     53      -0.4670      2.00000
     54      -0.3450      2.00000
     55      -0.2735      2.00000
     56      -0.2259      2.00000
     57      -0.0039      2.00000
     58       0.0379      2.00000
     59       0.1005      2.00000
     60       0.2321      2.00000
     61       0.3076      2.00000
     62       0.3564      2.00000
     63       0.3730      2.00000
     64       0.3867      2.00000
     65       0.4415      2.00000
     66       0.5713      2.00000
     67       0.6955      2.00000
     68       0.8129      2.00000
     69       0.8606      2.00000
     70       0.9200      2.00000
     71       0.9503      2.00000
     72       1.0217      2.00000
     73       1.0747      2.00000
     74       1.0837      2.00000
     75       1.1249      2.00000
     76       1.1985      2.00000
     77       3.1348      0.00000
     78       3.4576      0.00000
     79       3.5026      0.00000
     80       3.5844      0.00000
     81       3.6661      0.00000
     82       3.7163      0.00000
     83       3.8621      0.00000
     84       3.8659      0.00000
     85       4.0040      0.00000
     86       4.1095      0.00000
     87       4.1383      0.00000
     88       4.2254      0.00000
     89       4.3428      0.00000
     90       4.4806      0.00000
     91       4.5488      0.00000
     92       4.6492      0.00000
     93       4.7598      0.00000
     94       4.7855      0.00000
     95       4.8918      0.00000
     96       5.0483      0.00000
     97       5.1101      0.00000
     98       5.2306      0.00000

 k-point     6 :       0.4000   -0.2500    0.2500
  band No.  band energies     occupation 
      1     -12.6116      2.00000
      2     -12.6115      2.00000
      3     -12.5395      2.00000
[...]
     86       5.4542      0.00000
     87       5.4872      0.00000
     88       5.5482      0.00000
     89       5.6903      0.00000
     90       5.8584      0.00000
     91       5.9126      0.00000
     92       5.9998      0.00000
     93       6.1634      0.00000
     94       6.2240      0.00000
     95       6.3655      0.00000
     96       6.5326      0.00000
     97       6.6548      0.00000
     98       6.7134      0.00000

 k-point     6 :       0.4000   -0.2500    0.2500
  band No.  band energies     occupation 
      1     -10.7787      2.00000
      2     -10.7753      2.00000
      3     -10.7343      2.00000
      4     -10.7271      2.00000
      5     -10.6659      2.00000
      6     -10.6650      2.00000
      7     -10.6354      2.00000
      8     -10.6273      2.00000
      9     -10.5908      2.00000
     10     -10.5899      2.00000
     11     -10.5665      2.00000
     12     -10.5585      2.00000
     13     -10.0459      2.00000
     14      -9.9684      2.00000
     15      -9.5693      2.00000
     16      -9.5104      2.00000
     17      -9.4759      2.00000
     18      -9.2642      2.00000
     19      -9.1742      2.00000
     20      -9.0895      2.00000
     21      -9.0137      2.00000
     22      -8.9630      2.00000
     23      -8.9426      2.00000
     24      -8.8979      2.00000
     25      -8.7811      2.00000
     26      -8.6766      2.00000
     27      -7.7448      2.00000
     28      -7.5597      2.00000
     29      -7.4495      2.00000
     30      -7.2936      2.00000
     31      -7.1656      2.00000
     32      -7.1301      2.00000
     33      -6.7718      2.00000
     34      -6.7411      2.00000
     35      -2.0191      2.00000
     36      -1.8787      2.00000
     37      -1.7314      2.00000
     38      -1.6660      2.00000
     39      -1.4311      2.00000
     40      -1.3716      2.00000
     41      -1.2134      2.00000
     42      -1.0587      2.00000
     43      -0.9966      2.00000
     44      -0.9274      2.00000
     45      -0.7901      2.00000
     46      -0.5715      2.00000
     47      -0.5036      2.00000
     48      -0.4180      2.00000
     49      -0.4111      2.00000
     50      -0.3365      2.00000
     51      -0.3068      2.00000
     52      -0.2315      2.00000
     53      -0.1346      2.00000
     54       0.0718      2.00000
     55       0.2133      2.00000
     56       0.3094      2.00000
     57       0.4035      2.00000
     58       0.5258      2.00000
     59       0.9985      2.00000
     60       1.0672      2.00000
     61       1.0755      2.00000
     62       1.1762      2.00000
     63       1.1934      2.00000
     64       1.2576      2.00000
     65       1.3236      2.00000
     66       1.3327      2.00000
     67       1.4012      2.00000
     68       1.4304      2.00000
     69       1.4523      2.00000
     70       1.5428      2.00000
     71       1.7088      2.00000
     72       1.8070      2.00000
     73       1.9463      2.00000
     74       2.1234      2.00000
     75       2.1481      2.00000
     76       2.2561      2.00000
     77       4.5166      0.00000
     78       4.5827      0.00000
     79       4.8554      0.00000
     80       5.0256      0.00000
     81       5.2001      0.00000
     82       5.3153      0.00000
     83       5.3861      0.00000
     84       5.5300      0.00000
     85       5.6754      0.00000
     86       5.7165      0.00000
     87       5.7840      0.00000
     88       5.8530      0.00000
     89       6.1344      0.00000
     90       6.2221      0.00000
     91       6.2916      0.00000
     92       6.3815      0.00000
     93       6.4600      0.00000
     94       6.5072      0.00000
     95       6.6514      0.00000
     96       6.6951      0.00000
     97       6.8198      0.00000
     98       7.0662      0.00000


--------------------------------------------------------------------------------------------------------


 soft charge-density along one line, spin component           1
         0         1         2         3         4         5         6         7         8         9
 total charge-density along one line
 
 pseudopotential strength for first ion, spin component:           1
-16.252   0.009   0.000 -15.040   0.008   0.000   0.001  -0.002
  0.009 -16.237  -0.000   0.008 -15.026  -0.000  -0.004   0.009
  0.000  -0.000 -16.282   0.000  -0.000 -15.067   0.000  -0.000
-15.040   0.008   0.000 -13.920   0.007   0.000   0.001  -0.002
  0.008 -15.026  -0.000   0.007 -13.907  -0.000  -0.004   0.008
  0.000  -0.000 -15.067   0.000  -0.000 -13.944   0.000  -0.000
  0.001  -0.004   0.000   0.001  -0.004   0.000   1.005  -3.825
 -0.002   0.009  -0.000  -0.002   0.008  -0.000  -3.825  14.816
 -0.000   0.000  -0.003  -0.000   0.000  -0.003  -0.000   0.000
  0.012  -0.003   0.000   0.011  -0.003   0.000  -0.002   0.004
  0.002   0.014   0.000   0.002   0.013   0.000  -0.003   0.009
  0.000  -0.000   0.011   0.000  -0.000   0.010   0.000  -0.000
  0.003  -0.000  -0.000   0.003  -0.000  -0.000   0.003  -0.008
 total augmentation occupancy for first ion, spin component:           1
  2.936   0.157   0.000  -0.948  -0.152   0.000   0.029  -0.001   0.000  -0.028  -0.015  -0.000  -0.022
  0.157   3.213   0.000  -0.152  -1.219   0.000  -0.169   0.005   0.000   0.003  -0.076   0.000   0.004
  0.000   0.000   2.596   0.000   0.000  -0.631   0.000   0.000   0.002   0.000   0.000  -0.016   0.000
 -0.948  -0.152   0.000   0.960   0.146   0.000  -0.032  -0.001   0.000   0.021   0.014  -0.000   0.020
 -0.152  -1.219   0.000   0.146   1.225   0.000   0.183   0.004   0.000  -0.001   0.068  -0.000  -0.004
  0.000   0.000  -0.631   0.000   0.000   0.670   0.000   0.000   0.001  -0.000   0.000   0.010   0.000
  0.029  -0.169   0.000  -0.032   0.183   0.000   0.357   0.009   0.000   0.011   0.023   0.000  -0.012
 -0.001   0.005   0.000  -0.001   0.004   0.000   0.009   0.000   0.000   0.000   0.001   0.000  -0.000
  0.000   0.000   0.002   0.000   0.000   0.001   0.000   0.000   0.012   0.000   0.000  -0.002   0.000
 -0.028   0.003  -0.000   0.021  -0.001   0.000   0.011   0.000   0.000   0.011   0.004   0.000  -0.003
 -0.015  -0.076   0.000   0.014   0.068   0.000   0.023   0.001   0.000   0.004   0.021   0.000   0.004
 -0.000   0.000  -0.016   0.000   0.000   0.010   0.000   0.000  -0.002   0.000   0.000   0.012   0.000
 -0.022   0.004   0.000   0.020  -0.004   0.000  -0.012  -0.000   0.000  -0.003   0.004   0.000   0.009


------------------------ aborting loop because EDIFF is reached ----------------------------------------


 


 total charge     
 
# of ion       s       p       d       tot
------------------------------------------
    1        0.056   6.039   0.054   6.149
    2        0.056   6.039   0.054   6.149
    3        0.070   6.069   0.069   6.209
    4        0.070   6.069   0.069   6.209
    5        1.836   1.420   0.166   3.421
    6        1.836   1.420   0.166   3.421
    7        1.847   1.403   0.174   3.424
    8        1.847   1.403   0.174   3.424
    9        1.824   1.483   0.165   3.472
   10        1.824   1.483   0.165   3.472
   11        1.845   1.404   0.175   3.425
   12        1.845   1.404   0.175   3.425
   13        1.347   2.333   0.000   3.679
   14        1.347   2.333   0.000   3.679
   15        1.357   2.325   0.000   3.682
   16        1.357   2.325   0.000   3.682
   17        1.346   2.349   0.000   3.695
   18        1.346   2.349   0.000   3.695
   19        1.347   2.333   0.000   3.680
   20        1.347   2.333   0.000   3.680
   21        1.345   2.351   0.000   3.696
   22        1.345   2.351   0.000   3.696
   23        1.350   2.344   0.000   3.695
   24        1.350   2.344   0.000   3.695
   25        1.351   2.330   0.000   3.681
   26        1.351   2.330   0.000   3.681
--------------------------------------------------
tot         33.846  68.365   1.604 103.815
 
    CHARGE:  cpu time    0.0452: real time    0.0454
    FORLOC:  cpu time    0.0020: real time    0.0020
    FORNL :  cpu time    0.2229: real time    0.2232
    STRESS:  cpu time    0.7608: real time    0.7608
    FORCOR:  cpu time    0.0088: real time    0.0088
    FORHAR:  cpu time    0.0031: real time    0.0031
    MIXING:  cpu time    0.0004: real time    0.0004
    OFIELD:  cpu time    0.0000: real time    0.0000

  FORCE on cell =-STRESS in cart. coord.  units (eV):
  Direction    XX          YY          ZZ          XY          YZ          ZX
  --------------------------------------------------------------------------------------
  Alpha Z   243.42446   243.42446   243.42446
  Ewald   -1794.47369 -1967.76505 -2017.17550    -0.00000    12.13207     0.00000
  Hartree   487.17851   386.12898   325.14425    -0.00000    22.14070    -0.00000
  E(xc)    -577.36824  -577.15400  -577.18124     0.00000     0.36666    -0.00000
  Local   -1007.86350  -738.36219  -627.45538    -0.00000   -38.62541    -0.00000
  n-local  1510.10465  1507.05820  1509.74680    -0.03918    -1.97022     0.08394
  augment  -434.26896  -433.78964  -433.17335     0.00000     0.45904    -0.00000
  Kinetic  1572.95104  1580.25847  1576.66352     0.01226     5.34973     0.10211
  Fock        0.00000     0.00000     0.00000     0.00000     0.00000     0.00000
  -------------------------------------------------------------------------------------
  Total      -0.31574    -0.20076    -0.00643     0.00000    -0.14744     0.00000
  in kB      -0.67330    -0.42812    -0.01371     0.00000    -0.31440     0.00000
  external pressure =       -0.37 kB  Pullay stress =        0.00 kB


 VOLUME and BASIS-vectors are now :
 -----------------------------------------------------------------------------
  energy-cutoff  :      300.00
  volume of cell :      751.33
      direct lattice vectors                 reciprocal lattice vectors
     4.101165484  0.000000000  0.000000000     0.243833126  0.000000000  0.000000000
     0.000000000 12.672025290 -0.284992162     0.000000000  0.078817306 -0.004298730
     0.000000000  0.787522492 14.439242781     0.000000000  0.001555644  0.069170864

  length of vectors
     4.101165484 12.675229603 14.460702741     0.243833126  0.078934446  0.069188355


 FORCES acting on ions
    electron-ion (+dipol)            ewald-force                    non-local-force                 convergence-correction
 -----------------------------------------------------------------------------------------------
   -.131E-12 -.245E+02 0.507E+02   -.127E-14 0.242E+02 -.495E+02   0.000E+00 0.330E+00 -.121E+01   0.957E-14 -.656E-02 -.826E-02
   -.410E-13 0.245E+02 -.507E+02   0.694E-14 -.242E+02 0.495E+02   0.000E+00 -.330E+00 0.121E+01   0.128E-13 0.656E-02 0.826E-02
   -.568E-12 -.883E+01 0.258E+02   0.822E-14 0.934E+01 -.259E+02   0.217E-18 -.523E+00 0.121E+00   0.162E-14 -.535E-03 0.193E-02
   -.665E-12 0.883E+01 -.258E+02   -.129E-13 -.934E+01 0.259E+02   -.217E-18 0.523E+00 -.121E+00   0.125E-13 0.535E-03 -.193E-02
   0.293E-11 0.170E+02 0.131E+02   -.879E-14 -.167E+02 -.106E+02   0.000E+00 -.302E+00 -.253E+01   -.391E-14 0.294E-02 -.303E-02
   0.290E-11 -.170E+02 -.131E+02   0.102E-13 0.167E+02 0.106E+02   0.000E+00 0.302E+00 0.253E+01   0.229E-14 -.294E-02 0.303E-02
   0.950E-12 -.176E+02 -.362E+02   0.695E-14 0.188E+02 0.353E+02   -.867E-18 -.124E+01 0.936E+00   -.356E-14 -.574E-02 0.210E-02
   0.951E-12 0.176E+02 0.362E+02   -.358E-14 -.188E+02 -.353E+02   0.867E-18 0.124E+01 -.936E+00   0.234E-14 0.574E-02 -.210E-02
   0.221E-11 -.335E+01 0.917E+01   -.110E-14 0.728E+01 -.893E+01   -.542E-19 -.396E+01 -.218E+00   0.187E-14 0.642E-02 0.381E-02
   0.223E-11 0.335E+01 -.917E+01   0.321E-14 -.728E+01 0.893E+01   0.542E-19 0.396E+01 0.218E+00   -.384E-14 -.642E-02 -.381E-02
   0.537E-13 -.953E+00 -.375E+01   0.185E-13 0.109E+01 0.222E+01   -.173E-17 -.142E+00 0.152E+01   0.106E-14 0.142E-02 -.313E-02
   0.864E-13 0.953E+00 0.375E+01   -.141E-13 -.109E+01 -.222E+01   0.173E-17 0.142E+00 -.152E+01   -.245E-14 -.142E-02 0.313E-02
   0.235E-12 0.349E+02 0.324E+02   -.326E-14 -.364E+02 -.351E+02   -.217E-18 0.156E+01 0.268E+01   -.143E-14 0.508E-02 0.619E-02
   0.222E-12 -.349E+02 -.324E+02   -.219E-14 0.364E+02 0.351E+02   0.217E-18 -.156E+01 -.268E+01   0.590E-14 -.508E-02 -.619E-02
   0.439E-13 0.179E+02 -.647E+01   -.270E-14 -.222E+02 0.559E+01   -.434E-18 0.428E+01 0.850E+00   -.370E-14 0.177E-01 0.888E-02
   0.336E-13 -.179E+02 0.647E+01   -.238E-15 0.222E+02 -.559E+01   0.434E-18 -.428E+01 -.850E+00   0.837E-14 -.177E-01 -.888E-02
   -.687E-13 -.179E+02 -.811E+02   -.253E-15 0.194E+02 0.839E+02   -.867E-18 -.150E+01 -.274E+01   0.584E-14 -.111E-02 -.122E-02
   -.423E-13 0.179E+02 0.811E+02   -.560E-14 -.194E+02 -.839E+02   0.867E-18 0.150E+01 0.274E+01   0.197E-14 0.111E-02 0.122E-02
   0.118E-11 0.323E+02 0.460E+02   -.116E-13 -.344E+02 -.473E+02   -.434E-18 0.213E+01 0.136E+01   0.122E-13 0.123E-01 -.303E-02
   0.119E-11 -.323E+02 -.460E+02   0.104E-13 0.344E+02 0.473E+02   0.434E-18 -.213E+01 -.136E+01   -.453E-14 -.123E-01 0.303E-02
   -.155E-11 -.504E+02 -.351E+02   -.406E-14 0.520E+02 0.377E+02   0.173E-17 -.162E+01 -.259E+01   -.972E-15 0.979E-04 -.160E-01
   -.156E-11 0.504E+02 0.351E+02   0.139E-13 -.520E+02 -.377E+02   -.173E-17 0.162E+01 0.259E+01   0.117E-13 -.979E-04 0.160E-01
   0.228E-11 0.259E+02 -.198E+02   -.140E-13 -.283E+02 0.192E+02   0.000E+00 0.232E+01 0.666E+00   0.833E-14 0.158E-01 0.165E-01
   0.230E-11 -.259E+02 0.198E+02   0.146E-13 0.283E+02 -.192E+02   0.000E+00 -.232E+01 -.666E+00   -.163E-14 -.158E-01 -.165E-01
   0.344E-11 0.195E+01 0.923E+00   -.124E-13 -.247E+01 -.165E+01   0.000E+00 0.526E+00 0.711E+00   -.246E-14 -.298E-02 0.284E-02
   0.342E-11 -.195E+01 -.923E+00   0.113E-13 0.247E+01 0.165E+01   0.000E+00 -.526E+00 -.711E+00   0.144E-13 0.298E-02 -.284E-02
 -----------------------------------------------------------------------------------------------
   0.220E-10 -.481E-09 -.499E-09   0.630E-14 0.711E-13 0.213E-13   0.000E+00 -.999E-15 -.999E-15   0.844E-13 0.411E-12 0.650E-12
 
 
 POSITION                                       TOTAL-FORCE (eV/Angst)
 -----------------------------------------------------------------------------------
      1.02529      7.76109     11.63242        -0.000000     -0.014768      0.016099
      3.07587      5.69846      2.52183         0.000000      0.014768     -0.016099
      3.07587     10.98919      8.72885        -0.000000     -0.010242      0.017870
      1.02529      2.47036      5.42540        -0.000000      0.010242     -0.017870
      1.02529     12.56368     12.34161        -0.000000      0.005676     -0.032135
      3.07587      0.89587      1.81264        -0.000000     -0.005676      0.032135
      1.02529     10.85650      3.84359        -0.000000     -0.002629      0.004898
      3.07587      2.60305     10.31066        -0.000000      0.002629     -0.004898
      3.07587      9.28146      0.48277        -0.000000     -0.021039      0.024267
      1.02529      4.17808     13.67148        -0.000000      0.021039     -0.024267
      3.07587      8.03478      6.04403        -0.000000     -0.003066     -0.015197
      1.02529      5.42477      8.11022        -0.000000      0.003066      0.015197
      1.02529      6.10107      5.44700        -0.000000      0.013855      0.009227
      3.07587      7.35848      8.70725        -0.000000     -0.013855     -0.009227
      1.02529      7.57066      0.35789        -0.000000      0.028845     -0.017507
      3.07587      5.88889     13.79636        -0.000000     -0.028845      0.017507
      3.07587     12.88962      4.13365        -0.000000      0.001596     -0.022495
      1.02529      0.56993     10.02060        -0.000000     -0.001596      0.022495
      3.07587     10.62242     12.06700        -0.000000      0.046722      0.015576
      1.02529      2.83713      2.08725        -0.000000     -0.046722     -0.015576
      1.02529      9.97932      6.44821        -0.000000     -0.004120     -0.002372
      3.07587      3.48023      7.70604        -0.000000      0.004120      0.002372
      3.07587      9.01513      3.28590        -0.000000      0.008367      0.016931
      1.02529      4.44442     10.86835        -0.000000     -0.008367     -0.016931
      1.02529     11.57450      0.98547        -0.000000      0.005327     -0.018433
      3.07587      1.88505     13.16878        -0.000000     -0.005327      0.018433
 -----------------------------------------------------------------------------------
    total drift:                                0.000000     -0.000000     -0.000000


--------------------------------------------------------------------------------------------------------



  FREE ENERGIE OF THE ION-ELECTRON SYSTEM (eV)
  ---------------------------------------------------
  free  energy   TOTEN  =      -109.33642044 eV

  energy  without entropy=     -109.33642044  energy(sigma->0) =     -109.33642044
 
 d Force = 0.4182040E-04[-0.123E-05, 0.849E-04]  d Energy = 0.1283205E-03-0.865E-04
 d Force =-0.2229194E+00[-0.224E+00,-0.222E+00]  d Ewald  = 0.3619261E+00-0.585E+00


--------------------------------------------------------------------------------------------------------


    POTLOK:  cpu time    0.1719: real time    0.1719


--------------------------------------------------------------------------------------------------------




--------------------------------------------------------------------------------------------------------


  
 reached required accuracy - stopping structural energy minimisation
     LOOP+:  cpu time    5.1150: real time    5.2641
    4ORBIT:  cpu time    0.0000: real time    0.0000
 


 total charge     
 
# of ion       s       p       d       tot
------------------------------------------
    1        0.056   6.039   0.054   6.149
    2        0.056   6.039   0.054   6.149
    3        0.070   6.069   0.069   6.209
    4        0.070   6.069   0.069   6.209
    5        1.836   1.420   0.166   3.421
    6        1.836   1.420   0.166   3.421
    7        1.847   1.403   0.174   3.424
    8        1.847   1.403   0.174   3.424
    9        1.824   1.483   0.165   3.472
   10        1.824   1.483   0.165   3.472
   11        1.845   1.404   0.175   3.425
   12        1.845   1.404   0.175   3.425
   13        1.347   2.333   0.000   3.679
   14        1.347   2.333   0.000   3.679
   15        1.357   2.325   0.000   3.682
   16        1.357   2.325   0.000   3.682
   17        1.346   2.349   0.000   3.695
   18        1.346   2.349   0.000   3.695
   19        1.347   2.333   0.000   3.680
   20        1.347   2.333   0.000   3.680
   21        1.345   2.351   0.000   3.696
   22        1.345   2.351   0.000   3.696
   23        1.350   2.344   0.000   3.695
   24        1.350   2.344   0.000   3.695
   25        1.351   2.330   0.000   3.681
   26        1.351   2.330   0.000   3.681
--------------------------------------------------
tot         33.846  68.365   1.604 103.815
 

 total amount of memory used by VASP MPI-rank0    46254. kBytes
=======================================================================

   base      :      30000. kBytes
   nonlr-proj:       3875. kBytes
   fftplans  :        905. kBytes
   grid      :       4039. kBytes
   one-center:        210. kBytes
   wavefun   :       7225. kBytes
 
  
  
 General timing and accounting informations for this job:
 ========================================================
  
                  Total CPU time used (sec):      350.835
                            User time (sec):      345.640
                          System time (sec):        5.195
                         Elapsed time (sec):      358.554
  
                   Maximum memory used (kb):       97388.
                   Average memory used (kb):           0.
  
                          Minor page faults:        84621
                          Major page faults:            0
                 Voluntary context switches:         1995
