PROCAR new format
# of k-points:    6         # of bands:   98         # of ions:   26

 k-point     1 :    0.00000000 0.25000000 0.25000000     weight = 0.10000000

band     1 # energy  -11.17143058 # occ.  2.00000000
 
ion      s      p      d    tot
    1  0.000  0.014  0.000  0.014
    2  0.000  0.014  0.000  0.014
    3  0.000  0.025  0.000  0.025
    4  0.000  0.025  0.000  0.025
    5  0.045  0.000  0.000  0.045
    6  0.045  0.000  0.000  0.045
    7  0.050  0.000  0.000  0.051
    8  0.050  0.000  0.000  0.051
    9  0.031  0.000  0.000  0.031
   10  0.031  0.000  0.000  0.031
   11  0.030  0.000  0.000  0.030
   12  0.030  0.000  0.000  0.030
   13  0.012  0.000  0.000  0.012
   14  0.012  0.000  0.000  0.012
   15  0.010  0.000  0.000  0.011
   16  0.010  0.000  0.000  0.011
   17  0.024  0.000  0.000  0.025
   18  0.024  0.000  0.000  0.025
   19  0.015  0.000  0.000  0.015
   20  0.015  0.000  0.000  0.015
   21  0.019  0.000  0.000  0.019
   22  0.019  0.000  0.000  0.019
   23  0.037  0.000  0.000  0.037
   24  0.037  0.000  0.000  0.037
   25  0.041  0.000  0.000  0.041
   26  0.041  0.000  0.000  0.041
tot    0.629  0.083  0.000  0.712
 
band     2 # energy  -10.93183660 # occ.  2.00000000
 
ion      s      p      d    tot
    1  0.000  0.053  0.000  0.053
    2  0.000  0.053  0.000  0.053
    3  0.000  0.048  0.000  0.048
    4  0.000  0.048  0.000  0.048
    5  0.015  0.001  0.000  0.016
    6  0.015  0.001  0.000  0.016
    7  0.070  0.000  0.000  0.070
    8  0.070  0.000  0.000  0.070
    9  0.026  0.001  0.000  0.027
   10  0.026  0.001  0.000  0.027
   11  0.014  0.001  0.000  0.015
   12  0.014  0.001  0.000  0.015
   13  0.001  0.000  0.000  0.001
   14  0.001  0.000  0.000  0.001
   15  0.012  0.000  0.000  0.012
   16  0.012  0.000  0.000  0.012
   17  0.030  0.000  0.000  0.030
   18  0.030  0.000  0.000  0.030
   19  0.002  0.000  0.000  0.002
   20  0.002  0.000  0.000  0.002
   21  0.021  0.000  0.000  0.021
   22  0.021  0.000  0.000  0.021
   23  0.057  0.000  0.000  0.057
   24  0.057  0.000  0.000  0.057
   25  0.022  0.000  0.000  0.022
   26  0.022  0.000  0.000  0.022
tot    0.539  0.213  0.000  0.752
 
band     3 # energy  -10.88704430 # occ.  2.00000000
 
ion      s      p      d    tot
    1  0.000  0.096  0.000  0.096
    2  0.000  0.096  0.000  0.096
    3  0.000  0.084  0.000  0.084
    4  0.000  0.084  0.000  0.084
    5  0.020  0.000  0.000  0.020
    6  0.020  0.000  0.000  0.020
    7  0.001  0.001  0.000  0.002
    8  0.001  0.001  0.000  0.002
    9  0.018  0.000  0.000  0.018
   10  0.018  0.000  0.000  0.018
   11  0.060  0.001  0.000  0.061
   12  0.060  0.001  0.000  0.061
   13  0.040  0.001  0.000  0.041
   14  0.040  0.001  0.000  0.041
   15  0.015  0.000  0.000  0.015
   16  0.015  0.000  0.000  0.015
   17  0.004  0.000  0.000  0.004
   18  0.004  0.000  0.000  0.004
   19  0.012  0.000  0.000  0.012
   20  0.012  0.000  0.000  0.012
   21  0.024  0.000  0.000  0.024
   22  0.024  0.000  0.000  0.024
   23  0.004  0.000  0.000  0.005
   24  0.004  0.000  0.000  0.005
   25  0.015  0.000  0.000  0.015
   26  0.015  0.000  0.000  0.015
tot    0.428  0.367  0.000  0.794
 
band     4 # energy  -10.74553215 # occ.  2.00000000
 
ion      s      p      d    tot
    1  0.000  0.285  0.000  0.285
    2  0.000  0.285  0.000  0.285
    3  0.000  0.104  0.000  0.104
    4  0.000  0.104  0.000  0.104
    5  0.007  0.000  0.000  0.007
    6  0.007  0.000  0.000  0.007
    7  0.004  0.000  0.000  0.004
    8  0.004  0.000  0.000  0.004
    9  0.006  0.001  0.000  0.007
   10  0.006  0.001  0.000  0.007
   11  0.008  0.000  0.000  0.008
   12  0.008  0.000  0.000  0.008
   13  0.002  0.000  0.000  0.002
   14  0.002  0.000  0.000  0.002
   15  0.016  0.000  0.000  0.016
   16  0.016  0.000  0.000  0.016
   17  0.006  0.000  0.000  0.006
   18  0.006  0.000  0.000  0.006
   19  0.004  0.000  0.000  0.004
   20  0.004  0.000  0.000  0.004
   21  0.010  0.000  0.000  0.010
   22  0.010  0.000  0.000  0.010
   23  0.004  0.000  0.000  0.004
   24  0.004  0.000  0.000  0.004
   25  0.002  0.000  0.000  0.002
   26  0.002  0.000  0.000  0.002
tot    0.136  0.782  0.000  0.918
 
band     5 # energy  -10.70830879 # occ.  2.00000000
 
ion      s      p      d    tot
    1  0.000  0.354  0.000  0.354
    2  0.000  0.354  0.000  0.354
    3  0.000  0.045  0.000  0.045
    4  0.000  0.045  0.000  0.045
    5  0.011  0.000  0.000  0.011
    6  0.011  0.000  0.000  0.011
    7  0.006  0.000  0.000  0.006
    8  0.006  0.000  0.000  0.006
    9  0.004  0.000  0.000  0.005
   10  0.004  0.000  0.000  0.005
   11  0.007  0.000  0.000  0.007
   12  0.007  0.000  0.000  0.007
   13  0.005  0.000  0.000  0.006
   14  0.005  0.000  0.000  0.006
   15  0.004  0.000  0.000  0.004
   16  0.004  0.000  0.000  0.004
   17  0.009  0.000  0.000  0.009
   18  0.009  0.000  0.000  0.009
   19  0.013  0.000  0.000  0.013
   20  0.013  0.000  0.000  0.013
   21  0.002  0.000  0.000  0.003
   22  0.002  0.000  0.000  0.003
   23  0.000  0.000  0.000  0.001
   24  0.000  0.000  0.000  0.001
   25  0.001  0.000  0.000  0.001
   26  0.001  0.000  0.000  0.001
tot    0.127  0.800  0.000  0.928
 
band     6 # energy  -10.66737802 # occ.  2.00000000
 
ion      s      p      d    tot
    1  0.000  0.341  0.000  0.341
    2  0.000  0.341  0.000  0.341
    3  0.000  0.124  0.000  0.124
    4  0.000  0.124  0.000  0.124
    5  0.000  0.000  0.000  0.001
    6  0.000  0.000  0.000  0.001
    7  0.001  0.000  0.000  0.002
    8  0.001  0.000  0.000  0.002
    9  0.001  0.000  0.000  0.001
   10  0.001  0.000  0.000  0.001
   11  0.001  0.000  0.000  0.001
   12  0.001  0.000  0.000  0.001
   13  0.001  0.000  0.000  0.001
   14  0.001  0.000  0.000  0.001
   15  0.002  0.000  0.000  0.002
   16  0.002  0.000  0.000  0.002
   17  0.006  0.000  0.000  0.006
   18  0.006  0.000  0.000  0.006
   19  0.002  0.000  0.000  0.002
   20  0.002  0.000  0.000  0.002
   21  0.001  0.000  0.000  0.001
   22  0.001  0.000  0.000  0.001
   23  0.001  0.000  0.000  0.002
   24  0.001  0.000  0.000  0.002
   25  0.001  0.000  0.000  0.001
   26  0.001  0.000  0.000  0.001
tot    0.033  0.932  0.000  0.966
 
band     7 # energy  -10.64104811 # occ.  2.00000000
 
ion      s      p      d    tot
    1  0.000  0.496  0.000  0.496
    2  0.000  0.496  0.000  0.496
    3  0.000  0.000  0.000  0.000
    4  0.000  0.000  0.000  0.000
    5  0.000  0.000  0.000  0.000
    6  0.000  0.000  0.000  0.000
    7  0.000  0.000  0.000  0.000
    8  0.000  0.000  0.000  0.000
    9  0.000  0.000  0.000  0.000
   10  0.000  0.000  0.000  0.000
   11  0.000  0.000  0.000  0.000
   12  0.000  0.000  0.000  0.000
   13  0.000  0.000  0.000  0.000
   14  0.000  0.000  0.000  0.000
   15  0.000  0.000  0.000  0.000
   16  0.000  0.000  0.000  0.000
   17  0.000  0.000  0.000  0.000
   18  0.000  0.000  0.000  0.000
   19  0.000  0.000  0.000  0.000
   20  0.000  0.000  0.000  0.000
   21  0.000  0.000  0.000  0.000
   22  0.000  0.000  0.000  0.000
   23  0.000  0.000  0.000  0.000
   24  0.000  0.000  0.000  0.000
   25  0.000  0.000  0.000  0.000
   26  0.000  0.000  0.000  0.000
tot    0.000  0.992  0.000  0.992
 
band     8 # energy  -10.64047498 # occ.  2.00000000
 
ion      s      p      d    tot
    1  0.000  0.496  0.000  0.496
    2  0.000  0.496  0.000  0.496
    3  0.000  0.000  0.000  0.000
    4  0.000  0.000  0.000  0.000
    5  0.000  0.000  0.000  0.000
    6  0.000  0.000  0.000  0.000
    7  0.000  0.000  0.000  0.000
    8  0.000  0.000  0.000  0.000
    9  0.000  0.000  0.000  0.000
   10  0.000  0.000  0.000  0.000
   11  0.000  0.000  0.000  0.000
   12  0.000  0.000  0.000  0.000
   13  0.000  0.000  0.000  0.000
   14  0.000  0.000  0.000  0.000
   15  0.000  0.000  0.000  0.000
   16  0.000  0.000  0.000  0.000
   17  0.000  0.000  0.000  0.000
   18  0.000  0.000  0.000  0.000
   19  0.000  0.000  0.000  0.000
   20  0.000  0.000  0.000  0.000
   21  0.000  0.000  0.000  0.000
   22  0.000  0.000  0.000  0.000
   23  0.000  0.000  0.000  0.000
   24  0.000  0.000  0.000  0.000
   25  0.000  0.000  0.000  0.000
   26  0.000  0.000  0.000  0.000
tot    0.000  0.992  0.000  0.992
 
band     9 # energy  -10.63551604 # occ.  2.00000000
 
ion      s      p      d    tot
    1  0.000  0.400  0.000  0.400
    2  0.000  0.400  0.000  0.400
    3  0.000  0.065  0.000  0.066
    4  0.000  0.065  0.000  0.066
    5  0.001  0.000  0.000  0.001
    6  0.001  0.000  0.000  0.001
    7  0.003  0.000  0.000  0.003
    8  0.003  0.000  0.000  0.003
    9  0.001  0.000  0.000  0.001
   10  0.001  0.000  0.000  0.001
   11  0.002  0.000  0.000  0.002
   12  0.002  0.000  0.000  0.002
   13  0.001  0.000  0.000  0.001
   14  0.001  0.000  0.000  0.001
   15  0.001  0.000  0.000  0.002
   16  0.001  0.000  0.000  0.002
   17  0.001  0.000  0.000  0.001
   18  0.001  0.000  0.000  0.001
   19  0.001  0.000  0.000  0.001
   20  0.001  0.000  0.000  0.001
   21  0.006  0.000  0.000  0.006
   22  0.006  0.000  0.000  0.006
   23  0.001  0.000  0.000  0.001
   24  0.001  0.000  0.000  0.001
   25  0.001  0.000  0.000  0.001
   26  0.001  0.000  0.000  0.001
tot    0.036  0.933  0.000  0.968
 
band    10 # energy  -10.62285150 # occ.  2.00000000
 
ion      s      p      d    tot
    1  0.000  0.048  0.000  0.048
    2  0.000  0.048  0.000  0.048
    3  0.000  0.411  0.000  0.411
    4  0.000  0.411  0.000  0.411
    5  0.003  0.000  0.000  0.003
    6  0.003  0.000  0.000  0.003
    7  0.000  0.000  0.000  0.000
    8  0.000  0.000  0.000  0.000
    9  0.003  0.000  0.000  0.003
   10  0.003  0.000  0.000  0.003
   11  0.001  0.000  0.000  0.001
   12  0.001  0.000  0.000  0.001
   13  0.003  0.000  0.000  0.003
   14  0.003  0.000  0.000  0.003
   15  0.001  0.000  0.000  0.001
   16  0.001  0.000  0.000  0.001
   17  0.002  0.000  0.000  0.002
   18  0.002  0.000  0.000  0.002
   19  0.003  0.000  0.000  0.003
   20  0.003  0.000  0.000  0.003
   21  0.000  0.000  0.000  0.000
   22  0.000  0.000  0.000  0.000
   23  0.003  0.000  0.000  0.003
   24  0.003  0.000  0.000  0.003
   25  0.002  0.000  0.000  0.002
   26  0.002  0.000  0.000  0.002
tot    0.043  0.921  0.000  0.964
 
band    11 # energy  -10.60979777 # occ.  2.00000000
 
ion      s      p      d    tot
    1  0.000  0.044  0.000  0.044
    2  0.000  0.044  0.000  0.044
    3  0.000  0.443  0.000  0.443
    4  0.000  0.443  0.000  0.443
    5  0.000  0.000  0.000  0.000
    6  0.000  0.000  0.000  0.000
    7  0.000  0.000  0.000  0.000
    8  0.000  0.000  0.000  0.000
    9  0.000  0.000  0.000  0.000
   10  0.000  0.000  0.000  0.000
   11  0.000  0.000  0.000  0.000
   12  0.000  0.000  0.000  0.000
   13  0.000  0.000  0.000  0.000
   14  0.000  0.000  0.000  0.000
   15  0.000  0.000  0.000  0.000
   16  0.000  0.000  0.000  0.000
   17  0.001  0.000  0.000  0.001
   18  0.001  0.000  0.000  0.001
   19  0.001  0.000  0.000  0.001
   20  0.001  0.000  0.000  0.001
   21  0.001  0.000  0.000  0.001
   22  0.001  0.000  0.000  0.001
   23  0.000  0.000  0.000  0.000
   24  0.000  0.000  0.000  0.000
   25  0.000  0.000  0.000  0.000
   26  0.000  0.000  0.000  0.000
tot    0.008  0.974  0.000  0.983
 
band    12 # energy  -10.55915199 # occ.  2.00000000
 
ion      s      p      d    tot
    1  0.000  0.093  0.000  0.093
    2  0.000  0.093  0.000  0.093
    3  0.000  0.236  0.000  0.236
    4  0.000  0.236  0.000  0.236
    5  0.021  0.000  0.000  0.022
    6  0.021  0.000  0.000  0.022
    7  0.007  0.001  0.000  0.008
    8  0.007  0.001  0.000  0.008
    9  0.006  0.000  0.000  0.006
   10  0.006  0.000  0.000  0.006
   11  0.019  0.000  0.000  0.019
   12  0.019  0.000  0.000  0.019
   13  0.012  0.000  0.000  0.012
   14  0.012  0.000  0.000  0.012
   15  0.001  0.000  0.000  0.001
   16  0.001  0.000  0.000  0.001
   17  0.007  0.000  0.000  0.007
   18  0.007  0.000  0.000  0.007
   19  0.006  0.000  0.000  0.006
   20  0.006  0.000  0.000  0.006
   21  0.007  0.000  0.000  0.007
   22  0.007  0.000  0.000  0.007
   23  0.005  0.000  0.000  0.005
   24  0.005  0.000  0.000  0.005
   25  0.023  0.000  0.000  0.023
   26  0.023  0.000  0.000  0.023
tot    0.226  0.666  0.000  0.891
 
band    13 # energy  -10.53834101 # occ.  2.00000000
 
ion      s      p      d    tot
    1  0.000  0.000  0.000  0.000
    2  0.000  0.000  0.000  0.000
    3  0.000  0.496  0.000  0.496
    4  0.000  0.496  0.000  0.496
    5  0.000  0.000  0.000  0.000
    6  0.000  0.000  0.000  0.000
    7  0.000  0.000  0.000  0.000
    8  0.000  0.000  0.000  0.000
    9  0.000  0.000  0.000  0.000
   10  0.000  0.000  0.000  0.000
   11  0.000  0.000  0.000  0.000
   12  0.000  0.000  0.000  0.000
   13  0.000  0.000  0.000  0.000
   14  0.000  0.000  0.000  0.000
   15  0.000  0.000  0.000  0.000
   16  0.000  0.000  0.000  0.000
   17  0.000  0.000  0.000  0.000
   18  0.000  0.000  0.000  0.000
   19  0.000  0.000  0.000  0.000
   20  0.000  0.000  0.000  0.000
   21  0.000  0.000  0.000  0.000
   22  0.000  0.000  0.000  0.000
   23  0.000  0.000  0.000  0.000
   24  0.000  0.000  0.000  0.000
   25  0.000  0.000  0.000  0.000
   26  0.000  0.000  0.000  0.000
tot    0.000  0.992  0.000  0.992
 
band    14 # energy  -10.53816133 # occ.  2.00000000
 
ion      s      p      d    tot
    1  0.000  0.000  0.000  0.000
    2  0.000  0.000  0.000  0.000
    3  0.000  0.496  0.000  0.496
    4  0.000  0.496  0.000  0.496
    5  0.000  0.000  0.000  0.000
    6  0.000  0.000  0.000  0.000
    7  0.000  0.000  0.000  0.000
    8  0.000  0.000  0.000  0.000
    9  0.000  0.000  0.000  0.000
   10  0.000  0.000  0.000  0.000
   11  0.000  0.000  0.000  0.000
   12  0.000  0.000  0.000  0.000
   13  0.000  0.000  0.000  0.000
   14  0.000  0.000  0.000  0.000
   15  0.000  0.000  0.000  0.000
   16  0.000  0.000  0.000  0.000
   17  0.000  0.000  0.000  0.000
   18  0.000  0.000  0.000  0.000
   19  0.000  0.000  0.000  0.000
   20  0.000  0.000  0.000  0.000
   21  0.000  0.000  0.000  0.000
   22  0.000  0.000  0.000  0.000
   23  0.000  0.000  0.000  0.000
   24  0.000  0.000  0.000  0.000
   25  0.000  0.000  0.000  0.000
   26  0.000  0.000  0.000  0.000
tot    0.000  0.992  0.000  0.992
 
band    15 # energy  -10.52459414 # occ.  2.00000000
 
ion      s      p      d    tot
    1  0.000  0.107  0.000  0.107
    2  0.000  0.107  0.000  0.107
    3  0.000  0.203  0.000  0.203
    4  0.000  0.203  0.000  0.203
    5  0.008  0.000  0.000  0.008
    6  0.008  0.000  0.000  0.008
    7  0.011  0.001  0.000  0.012
    8  0.011  0.001  0.000  0.012
    9  0.018  0.000  0.000  0.019
   10  0.018  0.000  0.000  0.019
   11  0.024  0.001  0.000  0.025
   12  0.024  0.001  0.000  0.025
   13  0.015  0.000  0.000  0.015
   14  0.015  0.000  0.000  0.015
   15  0.007  0.000  0.000  0.008
   16  0.007  0.000  0.000  0.008
   17  0.002  0.000  0.000  0.002
   18  0.002  0.000  0.000  0.002
   19  0.007  0.000  0.000  0.007
   20  0.007  0.000  0.000  0.007
   21  0.005  0.000  0.000  0.006
   22  0.005  0.000  0.000  0.006
   23  0.021  0.000  0.000  0.021
   24  0.021  0.000  0.000  0.021
   25  0.009  0.000  0.000  0.010
   26  0.009  0.000  0.000  0.010
tot    0.258  0.626  0.000  0.884
 
band    16 # energy  -10.22134517 # occ.  2.00000000
 
ion      s      p      d    tot
    1  0.000  0.068  0.000  0.068
    2  0.000  0.068  0.000  0.068
    3  0.000  0.084  0.000  0.084
    4  0.000  0.084  0.000  0.084
    5  0.054  0.001  0.000  0.056
    6  0.054  0.001  0.000  0.056
    7  0.008  0.001  0.000  0.008
    8  0.008  0.001  0.000  0.008
    9  0.059  0.001  0.000  0.061
   10  0.059  0.001  0.000  0.061
   11  0.004  0.000  0.000  0.004
   12  0.004  0.000  0.000  0.004
   13  0.002  0.000  0.000  0.002
   14  0.002  0.000  0.000  0.002
   15  0.041  0.001  0.000  0.042
   16  0.041  0.001  0.000  0.042
   17  0.020  0.001  0.000  0.020
   18  0.020  0.001  0.000  0.020
   19  0.052  0.001  0.000  0.053
   20  0.052  0.001  0.000  0.053
   21  0.001  0.000  0.000  0.001
   22  0.001  0.000  0.000  0.001
   23  0.003  0.000  0.000  0.003
   24  0.003  0.000  0.000  0.003
   25  0.001  0.001  0.000  0.002
   26  0.001  0.001  0.000  0.002
tot    0.491  0.317  0.000  0.809
 
band    17 # energy   -9.98120076 # occ.  2.00000000
 
ion      s      p      d    tot
    1  0.000  0.024  0.000  0.024
    2  0.000  0.024  0.000  0.024
    3  0.000  0.004  0.000  0.005
    4  0.000  0.004  0.000  0.005
    5  0.055  0.000  0.000  0.055
    6  0.055  0.000  0.000  0.055
    7  0.018  0.003  0.000  0.021
    8  0.018  0.003  0.000  0.021
    9  0.047  0.005  0.000  0.052
   10  0.047  0.005  0.000  0.052
   11  0.013  0.003  0.000  0.016
   12  0.013  0.003  0.000  0.016
   13  0.028  0.000  0.000  0.028
   14  0.028  0.000  0.000  0.028
   15  0.049  0.001  0.000  0.050
   16  0.049  0.001  0.000  0.050
   17  0.004  0.000  0.000  0.004
   18  0.004  0.000  0.000  0.004
   19  0.018  0.001  0.000  0.019
   20  0.018  0.001  0.000  0.019
   21  0.002  0.000  0.000  0.002
   22  0.002  0.000  0.000  0.002
   23  0.074  0.001  0.000  0.075
   24  0.074  0.001  0.000  0.075
   25  0.017  0.001  0.000  0.018
   26  0.017  0.001  0.000  0.018
tot    0.648  0.086  0.001  0.735
 
band    18 # energy   -9.93255052 # occ.  2.00000000
 
ion      s      p      d    tot
    1  0.000  0.017  0.000  0.017
    2  0.000  0.017  0.000  0.017
    3  0.000  0.035  0.000  0.035
    4  0.000  0.035  0.000  0.035
    5  0.040  0.001  0.000  0.041
    6  0.040  0.001  0.000  0.041
    7  0.016  0.004  0.000  0.020
    8  0.016  0.004  0.000  0.020
    9  0.030  0.001  0.000  0.031
   10  0.030  0.001  0.000  0.031
   11  0.043  0.002  0.000  0.045
   12  0.043  0.002  0.000  0.045
   13  0.008  0.000  0.000  0.008
   14  0.008  0.000  0.000  0.008
   15  0.038  0.000  0.000  0.039
   16  0.038  0.000  0.000  0.039
   17  0.011  0.001  0.000  0.012
   18  0.011  0.001  0.000  0.012
   19  0.013  0.000  0.000  0.013
   20  0.013  0.000  0.000  0.013
   21  0.056  0.001  0.000  0.057
   22  0.056  0.001  0.000  0.057
   23  0.017  0.001  0.000  0.018
   24  0.017  0.001  0.000  0.018
   25  0.037  0.000  0.000  0.038
   26  0.037  0.000  0.000  0.038
tot    0.618  0.127  0.002  0.747
 
band    19 # energy   -9.92030621 # occ.  2.00000000
 
ion      s      p      d    tot
    1  0.000  0.010  0.000  0.010
    2  0.000  0.010  0.000  0.010
    3  0.000  0.009  0.000  0.009
    4  0.000  0.009  0.000  0.009
    5  0.003  0.002  0.000  0.005
    6  0.003  0.002  0.000  0.005
    7  0.059  0.001  0.000  0.060
    8  0.059  0.001  0.000  0.060
    9  0.064  0.002  0.000  0.066
   10  0.064  0.002  0.000  0.066
   11  0.020  0.003  0.000  0.023
   12  0.020  0.003  0.000  0.023
   13  0.026  0.000  0.000  0.026
   14  0.026  0.000  0.000  0.026
   15  0.058  0.001  0.000  0.059
   16  0.058  0.001  0.000  0.059
   17  0.041  0.000  0.000  0.042
   18  0.041  0.000  0.000  0.042
   19  0.012  0.000  0.000  0.013
   20  0.012  0.000  0.000  0.013
   21  0.021  0.001  0.000  0.022
   22  0.021  0.001  0.000  0.022
   23  0.016  0.001  0.000  0.017
   24  0.016  0.001  0.000  0.017
   25  0.014  0.000  0.000  0.014
   26  0.014  0.000  0.000  0.014
tot    0.668  0.062  0.002  0.732
 
band    20 # energy   -9.23105883 # occ.  2.00000000
 
ion      s      p      d    tot
    1  0.000  0.003  0.000  0.003
    2  0.000  0.003  0.000  0.003
    3  0.000  0.008  0.000  0.008
    4  0.000  0.008  0.000  0.008
    5  0.016  0.007  0.000  0.023
    6  0.016  0.007  0.000  0.023
    7  0.021  0.002  0.000  0.024
    8  0.021  0.002  0.000  0.024
    9  0.006  0.005  0.000  0.012
   10  0.006  0.005  0.000  0.012
   11  0.020  0.000  0.000  0.021
   12  0.020  0.000  0.000  0.021
   13  0.015  0.000  0.000  0.016
   14  0.015  0.000  0.000  0.016
   15  0.049  0.000  0.000  0.049
   16  0.049  0.000  0.000  0.049
   17  0.047  0.000  0.000  0.048
   18  0.047  0.000  0.000  0.048
   19  0.104  0.000  0.000  0.104
   20  0.104  0.000  0.000  0.104
   21  0.012  0.000  0.000  0.012
   22  0.012  0.000  0.000  0.012
   23  0.004  0.000  0.000  0.004
   24  0.004  0.000  0.000  0.004
   25  0.029  0.000  0.000  0.029
   26  0.029  0.000  0.000  0.029
tot    0.648  0.057  0.002  0.707
 
band    21 # energy   -9.19274710 # occ.  2.00000000
 
ion      s      p      d    tot
    1  0.000  0.002  0.000  0.002
    2  0.000  0.002  0.000  0.002
    3  0.001  0.002  0.000  0.002
    4  0.001  0.002  0.000  0.002
    5  0.004  0.010  0.000  0.014
    6  0.004  0.010  0.000  0.014
    7  0.007  0.003  0.000  0.010
    8  0.007  0.003  0.000  0.010
    9  0.006  0.004  0.000  0.010
   10  0.006  0.004  0.000  0.010
   11  0.006  0.001  0.000  0.007
   12  0.006  0.001  0.000  0.007
   13  0.002  0.000  0.000  0.002
   14  0.002  0.000  0.000  0.002
   15  0.023  0.000  0.000  0.023
   16  0.023  0.000  0.000  0.023
   17  0.041  0.000  0.000  0.041
   18  0.041  0.000  0.000  0.041
   19  0.078  0.000  0.000  0.078
   20  0.078  0.000  0.000  0.078
   21  0.026  0.000  0.000  0.026
   22  0.026  0.000  0.000  0.026
   23  0.019  0.000  0.000  0.019
   24  0.019  0.000  0.000  0.019
   25  0.107  0.000  0.000  0.107
   26  0.107  0.000  0.000  0.107
tot    0.640  0.046  0.002  0.688
 
band    22 # energy   -9.08808131 # occ.  2.00000000
 
ion      s      p      d    tot
    1  0.000  0.004  0.000  0.004
    2  0.000  0.004  0.000  0.004
    3  0.000  0.015  0.000  0.015
    4  0.000  0.015  0.000  0.015
    5  0.001  0.003  0.000  0.005
    6  0.001  0.003  0.000  0.005
    7  0.002  0.005  0.001  0.008
    8  0.002  0.005  0.001  0.008
    9  0.001  0.003  0.000  0.005
   10  0.001  0.003  0.000  0.005
   11  0.012  0.005  0.000  0.017
   12  0.012  0.005  0.000  0.017
   13  0.014  0.000  0.000  0.015
   14  0.014  0.000  0.000  0.015
   15  0.004  0.000  0.000  0.004
   16  0.004  0.000  0.000  0.004
   17  0.018  0.000  0.000  0.018
   18  0.018  0.000  0.000  0.018
   19  0.025  0.000  0.000  0.025
   20  0.025  0.000  0.000  0.025
   21  0.084  0.000  0.000  0.084
   22  0.084  0.000  0.000  0.084
   23  0.121  0.000  0.000  0.121
   24  0.121  0.000  0.000  0.121
   25  0.030  0.000  0.000  0.030
   26  0.030  0.000  0.000  0.030
tot    0.626  0.075  0.003  0.704
 
band    23 # energy   -9.00444226 # occ.  2.00000000
 
ion      s      p      d    tot
    1  0.000  0.003  0.000  0.003
    2  0.000  0.003  0.000  0.003
    3  0.000  0.005  0.000  0.005
    4  0.000  0.005  0.000  0.005
    5  0.001  0.003  0.002  0.006
    6  0.001  0.003  0.002  0.006
    7  0.006  0.004  0.001  0.010
    8  0.006  0.004  0.001  0.010
    9  0.000  0.004  0.000  0.004
   10  0.000  0.004  0.000  0.004
   11  0.006  0.002  0.000  0.009
   12  0.006  0.002  0.000  0.009
   13  0.034  0.000  0.000  0.034
   14  0.034  0.000  0.000  0.034
   15  0.026  0.000  0.000  0.026
   16  0.026  0.000  0.000  0.026
   17  0.090  0.000  0.000  0.090
   18  0.090  0.000  0.000  0.090
   19  0.018  0.000  0.000  0.018
   20  0.018  0.000  0.000  0.018
   21  0.017  0.000  0.000  0.017
   22  0.017  0.000  0.000  0.017
   23  0.003  0.000  0.000  0.003
   24  0.003  0.000  0.000  0.003
   25  0.121  0.000  0.000  0.121
   26  0.121  0.000  0.000  0.121
tot    0.645  0.043  0.005  0.693
 
band    24 # energy   -8.95457349 # occ.  2.00000000
 
ion      s      p      d    tot
    1  0.000  0.001  0.000  0.001
    2  0.000  0.001  0.000  0.001
    3  0.000  0.004  0.000  0.004
    4  0.000  0.004  0.000  0.004
    5  0.001  0.004  0.001  0.006
    6  0.001  0.004  0.001  0.006
    7  0.001  0.004  0.000  0.005
    8  0.001  0.004  0.000  0.005
    9  0.002  0.002  0.000  0.004
   10  0.002  0.002  0.000  0.004
   11  0.005  0.007  0.001  0.013
   12  0.005  0.007  0.001  0.013
   13  0.119  0.000  0.000  0.120
   14  0.119  0.000  0.000  0.120
   15  0.019  0.000  0.000  0.019
   16  0.019  0.000  0.000  0.019
   17  0.059  0.000  0.000  0.059
   18  0.059  0.000  0.000  0.059
   19  0.050  0.000  0.000  0.050
   20  0.050  0.000  0.000  0.050
   21  0.030  0.000  0.000  0.030
   22  0.030  0.000  0.000  0.030
   23  0.014  0.000  0.000  0.014
   24  0.014  0.000  0.000  0.014
   25  0.020  0.000  0.000  0.021
   26  0.020  0.000  0.000  0.021
tot    0.643  0.045  0.005  0.692
 
band    25 # energy   -8.89710790 # occ.  2.00000000
 
ion      s      p      d    tot
    1  0.000  0.002  0.000  0.002
    2  0.000  0.002  0.000  0.002
    3  0.000  0.007  0.000  0.007
    4  0.000  0.007  0.000  0.007
    5  0.001  0.002  0.001  0.004
    6  0.001  0.002  0.001  0.004
    7  0.000  0.004  0.000  0.005
    8  0.000  0.004  0.000  0.005
    9  0.003  0.002  0.000  0.006
   10  0.003  0.002  0.000  0.006
   11  0.001  0.005  0.001  0.008
   12  0.001  0.005  0.001  0.008
   13  0.131  0.000  0.000  0.131
   14  0.131  0.000  0.000  0.131
   15  0.025  0.000  0.000  0.025
   16  0.025  0.000  0.000  0.025
   17  0.076  0.000  0.000  0.076
   18  0.076  0.000  0.000  0.076
   19  0.026  0.000  0.000  0.026
   20  0.026  0.000  0.000  0.026
   21  0.002  0.000  0.000  0.002
   22  0.002  0.000  0.000  0.002
   23  0.035  0.000  0.000  0.035
   24  0.035  0.000  0.000  0.035
   25  0.023  0.000  0.000  0.023
   26  0.023  0.000  0.000  0.023
tot    0.643  0.047  0.006  0.696
 
band    26 # energy   -8.87241592 # occ.  2.00000000
 
ion      s      p      d    tot
    1  0.000  0.002  0.000  0.002
    2  0.000  0.002  0.000  0.002
    3  0.000  0.012  0.000  0.012
    4  0.000  0.012  0.000  0.012
    5  0.000  0.002  0.000  0.002
    6  0.000  0.002  0.000  0.002
    7  0.001  0.003  0.001  0.005
    8  0.001  0.003  0.001  0.005
    9  0.001  0.001  0.001  0.002
   10  0.001  0.001  0.001  0.002
   11  0.000  0.007  0.001  0.008
   12  0.000  0.007  0.001  0.008
   13  0.039  0.000  0.000  0.039
   14  0.039  0.000  0.000  0.039
   15  0.013  0.000  0.000  0.013
   16  0.013  0.000  0.000  0.013
   17  0.009  0.000  0.000  0.009
   18  0.009  0.000  0.000  0.009
   19  0.020  0.000  0.000  0.020
   20  0.020  0.000  0.000  0.020
   21  0.153  0.000  0.000  0.153
   22  0.153  0.000  0.000  0.153
   23  0.068  0.000  0.000  0.068
   24  0.068  0.000  0.000  0.068
   25  0.017  0.000  0.000  0.017
   26  0.017  0.000  0.000  0.017
tot    0.640  0.054  0.006  0.700
 
band    27 # energy   -7.32925502 # occ.  2.00000000
 
ion      s      p      d    tot
    1  0.000  0.000  0.000  0.000
    2  0.000  0.000  0.000  0.000
    3  0.000  0.001  0.000  0.001
    4  0.000  0.001  0.000  0.001
    5  0.038  0.001  0.000  0.040
    6  0.038  0.001  0.000  0.040
    7  0.104  0.001  0.000  0.105
    8  0.104  0.001  0.000  0.105
    9  0.002  0.000  0.000  0.002
   10  0.002  0.000  0.000  0.002
   11  0.158  0.000  0.001  0.159
   12  0.158  0.000  0.001  0.159
   13  0.014  0.003  0.000  0.017
   14  0.014  0.003  0.000  0.017
   15  0.004  0.000  0.000  0.004
   16  0.004  0.000  0.000  0.004
   17  0.015  0.002  0.000  0.017
   18  0.015  0.002  0.000  0.017
   19  0.022  0.000  0.000  0.022
   20  0.022  0.000  0.000  0.022
   21  0.026  0.004  0.000  0.030
   22  0.026  0.004  0.000  0.030
   23  0.016  0.002  0.000  0.018
   24  0.016  0.002  0.000  0.018
   25  0.001  0.000  0.000  0.001
   26  0.001  0.000  0.000  0.001
tot    0.799  0.030  0.004  0.832
 
band    28 # energy   -6.97407704 # occ.  2.00000000
 
ion      s      p      d    tot
    1  0.000  0.001  0.000  0.001
    2  0.000  0.001  0.000  0.001
    3  0.000  0.000  0.000  0.000
    4  0.000  0.000  0.000  0.000
    5  0.104  0.001  0.000  0.105
    6  0.104  0.001  0.000  0.105
    7  0.132  0.001  0.000  0.133
    8  0.132  0.001  0.000  0.133
    9  0.011  0.003  0.000  0.014
   10  0.011  0.003  0.000  0.014
   11  0.024  0.002  0.000  0.027
   12  0.024  0.002  0.000  0.027
   13  0.022  0.000  0.000  0.022
   14  0.022  0.000  0.000  0.022
   15  0.008  0.000  0.000  0.008
   16  0.008  0.000  0.000  0.008
   17  0.006  0.004  0.000  0.010
   18  0.006  0.004  0.000  0.010
   19  0.031  0.001  0.000  0.033
   20  0.031  0.001  0.000  0.033
   21  0.001  0.002  0.000  0.002
   22  0.001  0.002  0.000  0.002
   23  0.041  0.002  0.000  0.044
   24  0.041  0.002  0.000  0.044
   25  0.009  0.004  0.000  0.013
   26  0.009  0.004  0.000  0.013
tot    0.778  0.041  0.001  0.821
 
band    29 # energy   -6.70640196 # occ.  2.00000000
 
ion      s      p      d    tot
    1  0.000  0.000  0.000  0.001
    2  0.000  0.000  0.000  0.001
    3  0.000  0.001  0.000  0.001
    4  0.000  0.001  0.000  0.001
    5  0.189  0.001  0.000  0.190
    6  0.189  0.001  0.000  0.190
    7  0.002  0.002  0.000  0.004
    8  0.002  0.002  0.000  0.004
    9  0.000  0.001  0.001  0.001
   10  0.000  0.001  0.001  0.001
   11  0.069  0.000  0.000  0.070
   12  0.069  0.000  0.000  0.070
   13  0.003  0.002  0.000  0.005
   14  0.003  0.002  0.000  0.005
   15  0.001  0.000  0.000  0.001
   16  0.001  0.000  0.000  0.001
   17  0.017  0.002  0.000  0.019
   18  0.017  0.002  0.000  0.019
   19  0.066  0.002  0.000  0.069
   20  0.066  0.002  0.000  0.069
   21  0.026  0.001  0.000  0.027
   22  0.026  0.001  0.000  0.027
   23  0.006  0.000  0.000  0.006
   24  0.006  0.000  0.000  0.006
   25  0.015  0.004  0.000  0.019
   26  0.015  0.004  0.000  0.019
tot    0.790  0.032  0.002  0.824
 
band    30 # energy   -6.59275315 # occ.  2.00000000
 
ion      s      p      d    tot
    1  0.000  0.001  0.000  0.001
    2  0.000  0.001  0.000  0.001
    3  0.000  0.001  0.000  0.001
    4  0.000  0.001  0.000  0.001
    5  0.028  0.001  0.000  0.029
    6  0.028  0.001  0.000  0.029
    7  0.062  0.001  0.000  0.063
    8  0.062  0.001  0.000  0.063
    9  0.152  0.004  0.000  0.156
   10  0.152  0.004  0.000  0.156
   11  0.012  0.000  0.000  0.013
   12  0.012  0.000  0.000  0.013
   13  0.006  0.000  0.000  0.006
   14  0.006  0.000  0.000  0.006
   15  0.077  0.003  0.000  0.080
   16  0.077  0.003  0.000  0.080