 running on   14 total cores
 distrk:  each k-point on   14 cores,    1 groups
 distr:  one band on    1 cores,   14 groups
 using from now: INCAR     
 vasp.5.4.4.18Apr17-6-g9f103f2a35 (build Oct 27 2022 13:04:57) complex          
  
 POSCAR found type information on POSCAR  K  Bi S 
 POSCAR found :  3 types and      26 ions
 scaLAPACK will be used

 ----------------------------------------------------------------------------- 
|                                                                             |
|           W    W    AA    RRRRR   N    N  II  N    N   GGGG   !!!           |
|           W    W   A  A   R    R  NN   N  II  NN   N  G    G  !!!           |
|           W    W  A    A  R    R  N N  N  II  N N  N  G       !!!           |
|           W WW W  AAAAAA  RRRRR   N  N N  II  N  N N  G  GGG   !            |
|           WW  WW  A    A  R   R   N   NN  II  N   NN  G    G                |
|           W    W  A    A  R    R  N    N  II  N    N   GGGG   !!!           |
|                                                                             |
|      For optimal performance we recommend to set                            |
|        NCORE= 4 - approx SQRT( number of cores)                             |
|      NCORE specifies how many cores store one orbital (NPAR=cpu/NCORE).     |
|      This setting can  greatly improve the performance of VASP for DFT.     |
|      The default,   NCORE=1            might be grossly inefficient         |
|      on modern multi-core architectures or massively parallel machines.     |
|      Do your own testing !!!!                                               |
|      Unfortunately you need to use the default for GW and RPA calculations. |
|      (for HF NCORE is supported but not extensively tested yet)             |
|                                                                             |
 ----------------------------------------------------------------------------- 

 LDA part: xc-table for Pade appr. of Perdew
 POSCAR, INCAR and KPOINTS ok, starting setup
 FFT: planning ...
 WAVECAR not read
 entering main loop
       N       E                     dE             d eps       ncg     rms          rms(c)
DAV:   1     0.737116057271E+03    0.73712E+03   -0.43059E+04  1176   0.830E+02
DAV:   2    -0.311208616043E+02   -0.76824E+03   -0.74570E+03  1540   0.201E+02
DAV:   3    -0.113605577602E+03   -0.82485E+02   -0.81561E+02  1386   0.654E+01
DAV:   4    -0.116558503408E+03   -0.29529E+01   -0.29364E+01  1750   0.132E+01
DAV:   5    -0.116612783560E+03   -0.54280E-01   -0.54227E-01  1540   0.176E+00    0.166E+01
DAV:   6    -0.106941425600E+03    0.96714E+01   -0.22530E+01  1372   0.111E+01    0.119E+01
DAV:   7    -0.107163913878E+03   -0.22249E+00   -0.46003E+00  1316   0.441E+00    0.788E+00
DAV:   8    -0.107162613682E+03    0.13002E-02   -0.39711E-01  1666   0.175E+00    0.254E+00
DAV:   9    -0.107166571912E+03   -0.39582E-02   -0.10963E-01  1498   0.110E+00    0.936E-01
DAV:  10    -0.107169044351E+03   -0.24724E-02   -0.18789E-02  1414   0.334E-01    0.624E-01
DAV:  11    -0.107173621863E+03   -0.45775E-02   -0.94150E-03  1330   0.264E-01    0.212E-01
DAV:  12    -0.107175494927E+03   -0.18731E-02   -0.46915E-03  1414   0.171E-01    0.122E-01
DAV:  13    -0.107175978175E+03   -0.48325E-03   -0.83695E-04  1386   0.644E-02    0.735E-02
DAV:  14    -0.107176199390E+03   -0.22122E-03   -0.17771E-04  1078   0.342E-02    0.237E-02
DAV:  15    -0.107176273642E+03   -0.74253E-04   -0.17132E-04  1008   0.324E-02
   1 F= -.10717627E+03 E0= -.10717627E+03  d E =-.107176E+03
 curvature:   0.00 expect dE= 0.000E+00 dE for cont linesearch  0.000E+00
 trial: gam= 0.00000 g(F)=  0.507E-01 g(S)=  0.767E+00 ort = 0.000E+00 (trialstep = 0.100E+01)
 search vector abs. value=  0.818E+00
 bond charge predicted
       N       E                     dE             d eps       ncg     rms          rms(c)
DAV:   1    -0.108333789030E+03   -0.11576E+01   -0.96900E+00  1344   0.782E+00    0.433E+00
DAV:   2    -0.107980764086E+03    0.35302E+00   -0.82067E-01  1330   0.221E+00    0.165E+00
DAV:   3    -0.107918032526E+03    0.62732E-01   -0.19904E-01  1344   0.103E+00    0.722E-01
DAV:   4    -0.107909108950E+03    0.89236E-02   -0.12507E-02  1484   0.310E-01    0.557E-01
DAV:   5    -0.107905370776E+03    0.37382E-02   -0.58483E-03  1526   0.170E-01    0.327E-01
DAV:   6    -0.107904469692E+03    0.90108E-03   -0.31146E-03  1624   0.129E-01    0.134E-01
DAV:   7    -0.107904526330E+03   -0.56638E-04   -0.48226E-04  1414   0.496E-02
   2 F= -.10790453E+03 E0= -.10790453E+03  d E =-.728253E+00
 trial-energy change:   -0.728253  1 .order   -0.722172   -0.817824   -0.626521
 step:   3.0665(harm=  4.2750)  dis= 0.02236  next Energy=  -108.605546 (dE=-0.143E+01)
 bond charge predicted
       N       E                     dE             d eps       ncg     rms          rms(c)
DAV:   1    -0.110628794180E+03   -0.27243E+01   -0.42289E+01  1330   0.166E+01    0.947E+00
DAV:   2    -0.109118021820E+03    0.15108E+01   -0.35070E+00  1302   0.461E+00    0.379E+00
DAV:   3    -0.108834221369E+03    0.28380E+00   -0.94413E-01  1358   0.219E+00    0.164E+00
DAV:   4    -0.108801190739E+03    0.33031E-01   -0.45165E-02  1470   0.612E-01    0.128E+00
DAV:   5    -0.108782059811E+03    0.19131E-01   -0.27283E-02  1498   0.368E-01    0.727E-01
DAV:   6    -0.108777976636E+03    0.40832E-02   -0.13764E-02  1652   0.266E-01    0.265E-01
DAV:   7    -0.108778161742E+03   -0.18511E-03   -0.18441E-03  1498   0.968E-02    0.105E-01
DAV:   8    -0.108778143762E+03    0.17981E-04   -0.83140E-05   882   0.242E-02
   3 F= -.10877814E+03 E0= -.10877814E+03  d E =-.160187E+01
 curvature:  -1.85 expect dE=-0.110E+00 dE for cont linesearch -0.794E-01
 ZBRENT: extrapolating
 opt :   3.9490  next Energy=  -108.860872 (dE=-0.168E+01)
 bond charge predicted
       N       E                     dE             d eps       ncg     rms          rms(c)
DAV:   1    -0.109194370920E+03   -0.41621E+00   -0.77615E+00  1344   0.715E+00    0.405E+00
DAV:   2    -0.108917251383E+03    0.27712E+00   -0.64761E-01  1302   0.198E+00    0.157E+00
DAV:   3    -0.108864000351E+03    0.53251E-01   -0.16995E-01  1344   0.934E-01    0.622E-01
DAV:   4    -0.108857141863E+03    0.68585E-02   -0.89855E-03  1498   0.276E-01    0.466E-01
DAV:   5    -0.108854224131E+03    0.29177E-02   -0.48472E-03  1512   0.155E-01    0.284E-01
DAV:   6    -0.108853713710E+03    0.51042E-03   -0.18177E-03  1610   0.975E-02    0.128E-01
DAV:   7    -0.108853749208E+03   -0.35498E-04   -0.31288E-04  1246   0.396E-02
   4 F= -.10885375E+03 E0= -.10885375E+03  d E =-.167748E+01
 curvature:  -1.92 expect dE=-0.613E-01 dE for cont linesearch -0.174E-02
 ZBRENT: bracketing found
 ZBRENT: interpolating
 opt :   3.8372  next Energy=  -108.855271 (dE=-0.168E+01)
 bond charge predicted
       N       E                     dE             d eps       ncg     rms          rms(c)
DAV:   1    -0.108860590057E+03   -0.68763E-02   -0.12373E-01  1358   0.904E-01    0.506E-01
DAV:   2    -0.108856180380E+03    0.44097E-02   -0.10513E-02  1316   0.251E-01    0.191E-01
DAV:   3    -0.108855328174E+03    0.85221E-03   -0.25924E-03  1358   0.116E-01    0.748E-02
DAV:   4    -0.108855180231E+03    0.14794E-03   -0.14039E-04   924   0.365E-02    0.496E-02
DAV:   5    -0.108855113033E+03    0.67199E-04   -0.97123E-05   770   0.247E-02
   5 F= -.10885511E+03 E0= -.10885511E+03  d E =-.167884E+01
 curvature:  -1.68 expect dE=-0.475E-01 dE for cont linesearch -0.327E-05
 trial: gam= 0.03613 g(F)=  0.205E-01 g(S)=  0.779E-02 ort =-0.126E-02 (trialstep = 0.157E+01)
 search vector abs. value=  0.293E-01
 bond charge predicted
       N       E                     dE             d eps       ncg     rms          rms(c)
DAV:   1    -0.108901473338E+03   -0.46293E-01   -0.82212E-01  1176   0.209E+00    0.681E-01
DAV:   2    -0.108900460424E+03    0.10129E-02   -0.45098E-02  1372   0.560E-01    0.307E-01
DAV:   3    -0.108898991770E+03    0.14687E-02   -0.19087E-03  1428   0.122E-01    0.207E-01
DAV:   4    -0.108898218319E+03    0.77345E-03   -0.15074E-03  1414   0.901E-02    0.102E-01
DAV:   5    -0.108898138801E+03    0.79518E-04   -0.40817E-04  1386   0.474E-02
   6 F= -.10889814E+03 E0= -.10889814E+03  d E =-.430258E-01
 ZBRENT: can't locate minimum, use default step
 trial-energy change:   -0.043026  1 .order   -0.042959   -0.044269   -0.041650
 step:   6.2697(harm= 26.4950)  dis= 0.02908  next Energy=  -109.229262 (dE=-0.374E+00)
 bond charge predicted
       N       E                     dE             d eps       ncg     rms          rms(c)
DAV:   1    -0.109036187757E+03   -0.13797E+00   -0.73857E+00  1176   0.626E+00    0.205E+00
DAV:   2    -0.109025468786E+03    0.10719E-01   -0.40673E-01  1372   0.169E+00    0.898E-01
DAV:   3    -0.109011937035E+03    0.13532E-01   -0.18065E-02  1442   0.376E-01    0.611E-01
DAV:   4    -0.109005241952E+03    0.66951E-02   -0.12884E-02  1442   0.265E-01    0.318E-01
DAV:   5    -0.109004364088E+03    0.87786E-03   -0.36140E-03  1568   0.142E-01    0.134E-01
DAV:   6    -0.109004290634E+03    0.73453E-04   -0.35933E-04  1274   0.480E-02
   7 F= -.10900429E+03 E0= -.10900429E+03  d E =-.149178E+00
 curvature:  -4.69 expect dE=-0.714E-01 dE for cont linesearch -0.598E-01
 ZBRENT: increasing intervall
 opt :  15.6743  next Energy=  -109.117846 (dE=-0.263E+00)
 bond charge predicted
       N       E                     dE             d eps       ncg     rms          rms(c)
DAV:   1    -0.109236509132E+03   -0.23215E+00   -0.29793E+01  1176   0.126E+01    0.429E+00
DAV:   2    -0.109189360101E+03    0.47149E-01   -0.16512E+00  1372   0.340E+00    0.184E+00
DAV:   3    -0.109135170914E+03    0.54189E-01   -0.77771E-02  1442   0.782E-01    0.127E+00
DAV:   4    -0.109110182832E+03    0.24988E-01   -0.49702E-02  1442   0.530E-01    0.679E-01
DAV:   5    -0.109106556493E+03    0.36263E-02   -0.13268E-02  1554   0.285E-01    0.284E-01
DAV:   6    -0.109106237186E+03    0.31931E-03   -0.16302E-03  1540   0.103E-01    0.162E-01
DAV:   7    -0.109106204935E+03    0.32251E-04   -0.43189E-04  1372   0.592E-02
   8 F= -.10910620E+03 E0= -.10910620E+03  d E =-.251092E+00
 curvature:  -8.90 expect dE=-0.138E+00 dE for cont linesearch -0.565E-02
 ZBRENT: extrapolating
 opt :  18.3731  next Energy=  -109.112019 (dE=-0.257E+00)
 bond charge predicted
       N       E                     dE             d eps       ncg     rms          rms(c)
DAV:   1    -0.109121458398E+03   -0.15221E-01   -0.24562E+00  1204   0.362E+00    0.117E+00
DAV:   2    -0.109117768127E+03    0.36903E-02   -0.13384E-01  1386   0.982E-01    0.541E-01
DAV:   3    -0.109113344205E+03    0.44239E-02   -0.63275E-03  1442   0.223E-01    0.364E-01
DAV:   4    -0.109111095026E+03    0.22492E-02   -0.44066E-03  1428   0.159E-01    0.181E-01
DAV:   5    -0.109110827712E+03    0.26731E-03   -0.12359E-03  1512   0.887E-02    0.817E-02
DAV:   6    -0.109110811762E+03    0.15951E-04   -0.13298E-04   910   0.313E-02
   9 F= -.10911081E+03 E0= -.10911081E+03  d E =-.255699E+00
 curvature:  -9.17 expect dE=-0.183E+00 dE for cont linesearch -0.144E-04
 trial: gam= 0.70485 g(F)=  0.193E-01 g(S)=  0.691E-03 ort =-0.214E-03 (trialstep = 0.422E+01)
 search vector abs. value=  0.342E-01
 bond charge predicted
       N       E                     dE             d eps       ncg     rms          rms(c)
DAV:   1    -0.109167375349E+03   -0.56548E-01   -0.47652E+00  1190   0.502E+00    0.132E+00
DAV:   2    -0.109186445054E+03   -0.19070E-01   -0.29918E-01  1428   0.138E+00    0.624E-01
DAV:   3    -0.109183069446E+03    0.33756E-02   -0.90455E-03  1442   0.285E-01    0.410E-01
DAV:   4    -0.109181557168E+03    0.15123E-02   -0.35270E-03  1428   0.147E-01    0.259E-01
DAV:   5    -0.109181041974E+03    0.51519E-03   -0.93570E-04  1470   0.880E-02    0.120E-01
DAV:   6    -0.109180943555E+03    0.98419E-04   -0.69400E-04  1400   0.723E-02
  10 F= -.10918094E+03 E0= -.10918094E+03  d E =-.701318E-01
 trial-energy change:   -0.070132  1 .order   -0.071797   -0.083565   -0.060030
 step:  14.9715(harm= 14.9715)  dis= 0.07235  next Energy=  -109.259165 (dE=-0.148E+00)
 bond charge predicted
       N       E                     dE             d eps       ncg     rms          rms(c)
DAV:   1    -0.109166807326E+03    0.14235E-01   -0.31018E+01  1176   0.128E+01    0.373E+00
DAV:   2    -0.109289336257E+03   -0.12253E+00   -0.19647E+00  1428   0.352E+00    0.157E+00
DAV:   3    -0.109266998133E+03    0.22338E-01   -0.61758E-02  1428   0.750E-01    0.113E+00
DAV:   4    -0.109258972477E+03    0.80257E-02   -0.21901E-02  1456   0.362E-01    0.753E-01
DAV:   5    -0.109255809532E+03    0.31629E-02   -0.42900E-03  1526   0.199E-01    0.358E-01
DAV:   6    -0.109254780600E+03    0.10289E-02   -0.55563E-03  1512   0.208E-01    0.165E-01
DAV:   7    -0.109254896967E+03   -0.11637E-03   -0.13398E-03  1358   0.936E-02    0.123E-01
DAV:   8    -0.109254891873E+03    0.50934E-05   -0.11366E-04   868   0.351E-02
  11 F= -.10925489E+03 E0= -.10925489E+03  d E =-.144080E+00
 curvature: -12.92 expect dE=-0.794E-01 dE for cont linesearch -0.200E-03
 trial: gam= 0.23604 g(F)=  0.428E-02 g(S)=  0.186E-02 ort =-0.728E-03 (trialstep = 0.637E+01)
 search vector abs. value=  0.771E-02
 bond charge predicted
       N       E                     dE             d eps       ncg     rms          rms(c)
DAV:   1    -0.109287891082E+03   -0.32994E-01   -0.26092E+00  1176   0.381E+00    0.117E+00
DAV:   2    -0.109286872589E+03    0.10185E-02   -0.18545E-01  1400   0.107E+00    0.534E-01
DAV:   3    -0.109284338973E+03    0.25336E-02   -0.97272E-03  1442   0.267E-01    0.325E-01
DAV:   4    -0.109283180118E+03    0.11589E-02   -0.20930E-03  1442   0.124E-01    0.185E-01
DAV:   5    -0.109282828243E+03    0.35187E-03   -0.54692E-04  1386   0.733E-02    0.848E-02
DAV:   6    -0.109282781715E+03    0.46528E-04   -0.25154E-04   938   0.454E-02
  12 F= -.10928278E+03 E0= -.10928278E+03  d E =-.278898E-01
 trial-energy change:   -0.027890  1 .order   -0.027898   -0.038049   -0.017747
 step:  11.9336(harm= 11.9336)  dis= 0.03511  next Energy=  -109.290546 (dE=-0.357E-01)
 bond charge predicted
       N       E                     dE             d eps       ncg     rms          rms(c)
DAV:   1    -0.109295913276E+03   -0.13085E-01   -0.19931E+00  1176   0.333E+00    0.103E+00
DAV:   2    -0.109295084402E+03    0.82887E-03   -0.14061E-01  1400   0.934E-01    0.474E-01
DAV:   3    -0.109293126240E+03    0.19582E-02   -0.74367E-03  1428   0.234E-01    0.282E-01
DAV:   4    -0.109292229621E+03    0.89662E-03   -0.16143E-03  1470   0.110E-01    0.158E-01
DAV:   5    -0.109291967376E+03    0.26225E-03   -0.41811E-04  1288   0.663E-02    0.735E-02
DAV:   6    -0.109291936549E+03    0.30826E-04   -0.19338E-04   868   0.409E-02
  13 F= -.10929194E+03 E0= -.10929194E+03  d E =-.370447E-01
 curvature:  -7.70 expect dE=-0.386E-01 dE for cont linesearch -0.390E-03
 trial: gam= 0.66379 g(F)=  0.187E-02 g(S)=  0.314E-02 ort = 0.625E-03 (trialstep = 0.624E+01)
 search vector abs. value=  0.924E-02
 bond charge predicted
       N       E                     dE             d eps       ncg     rms          rms(c)
DAV:   1    -0.109320887268E+03   -0.28920E-01   -0.34259E+00  1232   0.441E+00    0.149E+00
DAV:   2    -0.109314527982E+03    0.63593E-02   -0.24307E-01  1386   0.123E+00    0.814E-01
DAV:   3    -0.109310130354E+03    0.43976E-02   -0.11415E-02  1456   0.272E-01    0.489E-01
DAV:   4    -0.109307214387E+03    0.29160E-02   -0.38008E-03  1414   0.166E-01    0.186E-01
DAV:   5    -0.109306824317E+03    0.39007E-03   -0.12506E-03  1456   0.861E-02    0.900E-02
DAV:   6    -0.109306799743E+03    0.24575E-04   -0.10528E-04   826   0.278E-02
  14 F= -.10930680E+03 E0= -.10930680E+03  d E =-.148632E-01
 trial-energy change:   -0.014863  1 .order   -0.014893   -0.033875    0.004089
 step:   5.5705(harm=  5.5705)  dis= 0.01768  next Energy=  -109.307050 (dE=-0.151E-01)
 bond charge predicted
       N       E                     dE             d eps       ncg     rms          rms(c)
DAV:   1    -0.109307258876E+03   -0.43456E-03   -0.39892E-02  1302   0.474E-01    0.167E-01
DAV:   2    -0.109307152587E+03    0.10629E-03   -0.28223E-03  1386   0.132E-01    0.925E-02
DAV:   3    -0.109307098647E+03    0.53940E-04   -0.12517E-04   826   0.304E-02
  15 F= -.10930710E+03 E0= -.10930710E+03  d E =-.151621E-01
 curvature:  -4.74 expect dE=-0.640E-02 dE for cont linesearch -0.153E-03
 ZBRENT: interpolating
 opt :   5.0611  next Energy=  -109.307238 (dE=-0.153E-01)
 bond charge predicted
       N       E                     dE             d eps       ncg     rms          rms(c)
DAV:   1    -0.109307193896E+03   -0.41308E-04   -0.21469E-02  1260   0.345E-01    0.116E-01
DAV:   2    -0.109307107758E+03    0.86138E-04   -0.14782E-03  1442   0.959E-02    0.633E-02
DAV:   3    -0.109307071589E+03    0.36168E-04   -0.69590E-05   798   0.227E-02
  16 F= -.10930707E+03 E0= -.10930707E+03  d E =-.151350E-01
 curvature:  -4.31 expect dE=-0.407E-02 dE for cont linesearch -0.982E-09
 trial: gam= 0.29213 g(F)=  0.659E-03 g(S)=  0.285E-03 ort = 0.145E-05 (trialstep = 0.601E+01)
 search vector abs. value=  0.173E-02
 bond charge predicted
       N       E                     dE             d eps       ncg     rms          rms(c)
DAV:   1    -0.109309258722E+03   -0.21510E-02   -0.58024E-01  1190   0.174E+00    0.463E-01
DAV:   2    -0.109311701875E+03   -0.24432E-02   -0.37320E-02  1386   0.480E-01    0.196E-01
DAV:   3    -0.109311482437E+03    0.21944E-03   -0.11529E-03  1498   0.977E-02    0.136E-01
DAV:   4    -0.109311350724E+03    0.13171E-03   -0.26417E-04  1078   0.459E-02    0.793E-02
DAV:   5    -0.109311318697E+03    0.32028E-04   -0.11345E-04   840   0.329E-02
  17 F= -.10931132E+03 E0= -.10931132E+03  d E =-.424711E-02
 trial-energy change:   -0.004247  1 .order   -0.004578   -0.005674   -0.003483
 step:  15.5526(harm= 15.5526)  dis= 0.01866  next Energy=  -109.314417 (dE=-0.735E-02)
 bond charge predicted
       N       E                     dE             d eps       ncg     rms          rms(c)
DAV:   1    -0.109308510317E+03    0.28404E-02   -0.14547E+00  1190   0.275E+00    0.728E-01
DAV:   2    -0.109314538676E+03   -0.60284E-02   -0.93009E-02  1400   0.758E-01    0.310E-01
DAV:   3    -0.109313990985E+03    0.54769E-03   -0.28730E-03  1498   0.154E-01    0.215E-01
DAV:   4    -0.109313668987E+03    0.32200E-03   -0.71833E-04  1442   0.727E-02    0.125E-01
DAV:   5    -0.109313584714E+03    0.84273E-04   -0.18504E-04   868   0.439E-02
  18 F= -.10931358E+03 E0= -.10931358E+03  d E =-.651312E-02
 curvature: -14.27 expect dE=-0.117E-01 dE for cont linesearch -0.330E-03
 ZBRENT: increasing intervall
 opt :  34.6448  next Energy=  -109.310154 (dE=-0.308E-02)
 bond charge predicted
       N       E                     dE             d eps       ncg     rms          rms(c)
DAV:   1    -0.109285615508E+03    0.28053E-01   -0.58311E+00  1176   0.551E+00    0.147E+00
DAV:   2    -0.109309891315E+03   -0.24276E-01   -0.37414E-01  1414   0.152E+00    0.615E-01
DAV:   3    -0.109307620744E+03    0.22706E-02   -0.11417E-02  1498   0.309E-01    0.424E-01
DAV:   4    -0.109306349936E+03    0.12708E-02   -0.28947E-03  1484   0.144E-01    0.250E-01
DAV:   5    -0.109306011395E+03    0.33854E-03   -0.78836E-04  1456   0.837E-02    0.112E-01
DAV:   6    -0.109305972383E+03    0.39012E-04   -0.24183E-04  1064   0.476E-02
  19 F= -.10930597E+03 E0= -.10930597E+03  d E =0.109921E-02
 curvature: 148.56 expect dE= 0.664E+00 dE for cont linesearch  0.496E-01
 ZBRENT: bracketing found
 ZBRENT: interpolating
 opt :  19.5292  next Energy=  -109.313983 (dE=-0.691E-02)
 bond charge predicted
       N       E                     dE             d eps       ncg     rms          rms(c)
DAV:   1    -0.109300842953E+03    0.51684E-02   -0.36496E+00  1176   0.435E+00    0.119E+00
DAV:   2    -0.109316238791E+03   -0.15396E-01   -0.23085E-01  1386   0.120E+00    0.552E-01
DAV:   3    -0.109314892626E+03    0.13462E-02   -0.74143E-03  1498   0.244E-01    0.405E-01
DAV:   4    -0.109313998620E+03    0.89401E-03   -0.17523E-03  1526   0.113E-01    0.232E-01
DAV:   5    -0.109313693347E+03    0.30527E-03   -0.66924E-04  1442   0.764E-02    0.864E-02
DAV:   6    -0.109313672040E+03    0.21307E-04   -0.18116E-04   882   0.387E-02
  20 F= -.10931367E+03 E0= -.10931367E+03  d E =-.660045E-02
 curvature:  -1.19 expect dE=-0.179E-02 dE for cont linesearch -0.717E-05
 trial: gam= 1.90395 g(F)=  0.672E-03 g(S)=  0.830E-03 ort =-0.102E-03 (trialstep = 0.204E+01)
 search vector abs. value=  0.740E-02
 bond charge predicted
       N       E                     dE             d eps       ncg     rms          rms(c)
DAV:   1    -0.109315102039E+03   -0.14087E-02   -0.25636E-01  1176   0.119E+00    0.305E-01
DAV:   2    -0.109315965076E+03   -0.86304E-03   -0.16105E-02  1358   0.319E-01    0.166E-01
DAV:   3    -0.109315823595E+03    0.14148E-03   -0.47778E-04  1456   0.616E-02    0.109E-01
DAV:   4    -0.109315706757E+03    0.11684E-03   -0.12350E-04   812   0.334E-02    0.609E-02
DAV:   5    -0.109315675025E+03    0.31731E-04   -0.12420E-04   840   0.304E-02
  21 F= -.10931568E+03 E0= -.10931568E+03  d E =-.200299E-02
 trial-energy change:   -0.002003  1 .order   -0.002124   -0.002670   -0.001578
 step:   4.9920(harm=  4.9920)  dis= 0.01151  next Energy=  -109.316936 (dE=-0.326E-02)
 bond charge predicted
       N       E                     dE             d eps       ncg     rms          rms(c)
DAV:   1    -0.109316032202E+03   -0.32545E-03   -0.53781E-01  1176   0.173E+00    0.459E-01
DAV:   2    -0.109317798309E+03   -0.17661E-02   -0.34368E-02  1358   0.464E-01    0.234E-01
DAV:   3    -0.109317495727E+03    0.30258E-03   -0.10273E-03  1512   0.908E-02    0.150E-01
DAV:   4    -0.109317260609E+03    0.23512E-03   -0.28753E-04  1092   0.486E-02    0.809E-02
DAV:   5    -0.109317198412E+03    0.62197E-04   -0.17132E-04   840   0.382E-02
  22 F= -.10931720E+03 E0= -.10931720E+03  d E =-.352637E-02
 curvature: -14.12 expect dE=-0.106E-01 dE for cont linesearch -0.322E-03
 ZBRENT: increasing intervall
 opt :  10.8932  next Energy=  -109.317481 (dE=-0.381E-02)
 bond charge predicted
       N       E                     dE             d eps       ncg     rms          rms(c)
DAV:   1    -0.109310853092E+03    0.64075E-02   -0.21450E+00  1176   0.345E+00    0.926E-01
DAV:   2    -0.109318008254E+03   -0.71552E-02   -0.13694E-01  1358   0.925E-01    0.474E-01
DAV:   3    -0.109316830202E+03    0.11781E-02   -0.40651E-03  1498   0.181E-01    0.307E-01
DAV:   4    -0.109315918623E+03    0.91158E-03   -0.12092E-03  1428   0.967E-02    0.161E-01
DAV:   5    -0.109315703381E+03    0.21524E-03   -0.56222E-04  1372   0.639E-02    0.712E-02
DAV:   6    -0.109315684879E+03    0.18503E-04   -0.92478E-05   840   0.278E-02
  23 F= -.10931568E+03 E0= -.10931568E+03  d E =-.201284E-02
 curvature: -12.41 expect dE=-0.229E-01 dE for cont linesearch -0.629E-03
 ZBRENT: bracketing found
 ZBRENT: interpolating
 opt :   7.3600  next Energy=  -109.317684 (dE=-0.401E-02)
 bond charge predicted
       N       E                     dE             d eps       ncg     rms          rms(c)
DAV:   1    -0.109315570235E+03    0.13315E-03   -0.76969E-01  1176   0.206E+00    0.537E-01
DAV:   2    -0.109318070191E+03   -0.25000E-02   -0.48568E-02  1358   0.552E-01    0.279E-01
DAV:   3    -0.109317647694E+03    0.42250E-03   -0.14479E-03  1498   0.107E-01    0.177E-01
DAV:   4    -0.109317341823E+03    0.30587E-03   -0.42388E-04  1246   0.572E-02    0.968E-02
DAV:   5    -0.109317274752E+03    0.67071E-04   -0.17685E-04   840   0.390E-02
  24 F= -.10931727E+03 E0= -.10931727E+03  d E =-.360271E-02
 curvature:  -9.59 expect dE=-0.109E-01 dE for cont linesearch -0.204E-03
 ZBRENT: interpolating
 opt :   6.1964  next Energy=  -109.317505 (dE=-0.383E-02)
 bond charge predicted
       N       E                     dE             d eps       ncg     rms          rms(c)
DAV:   1    -0.109317203956E+03    0.13787E-03   -0.81999E-02  1176   0.674E-01    0.182E-01
DAV:   2    -0.109317444928E+03   -0.24097E-03   -0.52286E-03  1372   0.180E-01    0.847E-02
DAV:   3    -0.109317396512E+03    0.48417E-04   -0.14090E-04   966   0.364E-02
  25 F= -.10931740E+03 E0= -.10931740E+03  d E =-.372447E-02
 curvature: -10.85 expect dE=-0.108E-01 dE for cont linesearch -0.254E-04
 trial: gam= 0.38692 g(F)=  0.739E-03 g(S)=  0.255E-03 ort =-0.132E-03 (trialstep = 0.287E+01)
 search vector abs. value=  0.200E-02
 bond charge predicted
       N       E                     dE             d eps       ncg     rms          rms(c)
DAV:   1    -0.109319359688E+03   -0.19148E-02   -0.12906E-01  1176   0.852E-01    0.219E-01
DAV:   2    -0.109319909048E+03   -0.54936E-03   -0.79857E-03  1428   0.226E-01    0.952E-02
DAV:   3    -0.109319851146E+03    0.57902E-04   -0.19358E-04  1092   0.426E-02
  26 F= -.10931985E+03 E0= -.10931985E+03  d E =-.245463E-02
 ZBRENT: can't locate minimum, use default step
 trial-energy change:   -0.002455  1 .order   -0.002574   -0.002707   -0.002441
 step:  11.4894(harm= 29.2143)  dis= 0.01501  next Energy=  -109.331162 (dE=-0.138E-01)
 bond charge predicted
       N       E                     dE             d eps       ncg     rms          rms(c)
DAV:   1    -0.109321490695E+03   -0.15816E-02   -0.11473E+00  1176   0.254E+00    0.611E-01
DAV:   2    -0.109326019286E+03   -0.45286E-02   -0.67772E-02  1442   0.662E-01    0.313E-01
DAV:   3    -0.109325515975E+03    0.50331E-03   -0.19856E-03  1484   0.128E-01    0.199E-01
DAV:   4    -0.109325231638E+03    0.28434E-03   -0.50867E-04  1386   0.575E-02    0.129E-01
DAV:   5    -0.109325112260E+03    0.11938E-03   -0.18001E-04   854   0.403E-02    0.637E-02
DAV:   6    -0.109325107310E+03    0.49494E-05   -0.23014E-04  1064   0.379E-02
  27 F= -.10932511E+03 E0= -.10932511E+03  d E =-.771080E-02
 curvature: -16.95 expect dE=-0.108E-01 dE for cont linesearch -0.163E-02
 ZBRENT: increasing intervall
 opt :  28.7236  next Energy=  -109.325581 (dE=-0.818E-02)
 bond charge predicted
       N       E                     dE             d eps       ncg     rms          rms(c)
DAV:   1    -0.109308263759E+03    0.16849E-01   -0.46260E+00  1176   0.509E+00    0.130E+00
DAV:   2    -0.109327723953E+03   -0.19460E-01   -0.28054E-01  1414   0.134E+00    0.601E-01
DAV:   3    -0.109325886460E+03    0.18375E-02   -0.79611E-03  1456   0.259E-01    0.369E-01
DAV:   4    -0.109324901175E+03    0.98529E-03   -0.19928E-03  1470   0.113E-01    0.236E-01
DAV:   5    -0.109324537421E+03    0.36375E-03   -0.61587E-04  1414   0.695E-02    0.126E-01
DAV:   6    -0.109324477970E+03    0.59451E-04   -0.50238E-04  1330   0.595E-02
  28 F= -.10932448E+03 E0= -.10932448E+03  d E =-.708146E-02
 curvature:  -4.92 expect dE=-0.131E-01 dE for cont linesearch -0.543E-03
 ZBRENT: bracketing found
 ZBRENT: interpolating
 opt :  19.8149  next Energy=  -109.326933 (dE=-0.954E-02)
 bond charge predicted
       N       E                     dE             d eps       ncg     rms          rms(c)
DAV:   1    -0.109322705111E+03    0.18323E-02   -0.12312E+00  1176   0.263E+00    0.639E-01
DAV:   2    -0.109327997086E+03   -0.52920E-02   -0.73743E-02  1414   0.691E-01    0.320E-01
DAV:   3    -0.109327492305E+03    0.50478E-03   -0.20022E-03  1470   0.129E-01    0.215E-01
DAV:   4    -0.109327199241E+03    0.29306E-03   -0.49895E-04  1442   0.560E-02    0.136E-01
DAV:   5    -0.109327054408E+03    0.14483E-03   -0.19138E-04   882   0.403E-02    0.651E-02
DAV:   6    -0.109327036869E+03    0.17539E-04   -0.21250E-04   952   0.365E-02
  29 F= -.10932704E+03 E0= -.10932704E+03  d E =-.964036E-02
 curvature: -16.57 expect dE=-0.186E-01 dE for cont linesearch -0.629E-05
 trial: gam= 1.20339 g(F)=  0.102E-02 g(S)=  0.107E-03 ort =-0.276E-04 (trialstep = 0.317E+01)
 search vector abs. value=  0.395E-02
 bond charge predicted
       N       E                     dE             d eps       ncg     rms          rms(c)
DAV:   1    -0.109328553280E+03   -0.14989E-02   -0.37421E-01  1176   0.143E+00    0.349E-01
DAV:   2    -0.109330107704E+03   -0.15544E-02   -0.20321E-02  1414   0.368E-01    0.164E-01
DAV:   3    -0.109329975161E+03    0.13254E-03   -0.44744E-04  1428   0.644E-02    0.117E-01
DAV:   4    -0.109329875604E+03    0.99557E-04   -0.17002E-04   868   0.389E-02
  30 F= -.10932988E+03 E0= -.10932988E+03  d E =-.283874E-02
 trial-energy change:   -0.002839  1 .order   -0.002957   -0.003457   -0.002457
 step:  10.9390(harm= 10.9390)  dis= 0.01691  next Energy=  -109.333010 (dE=-0.597E-02)
 bond charge predicted
       N       E                     dE             d eps       ncg     rms          rms(c)
DAV:   1    -0.109323753710E+03    0.62215E-02   -0.22452E+00  1176   0.352E+00    0.858E-01
DAV:   2    -0.109332898702E+03   -0.91450E-02   -0.12217E-01  1414   0.898E-01    0.388E-01
DAV:   3    -0.109332137496E+03    0.76121E-03   -0.26773E-03  1484   0.158E-01    0.280E-01
DAV:   4    -0.109331596494E+03    0.54100E-03   -0.10908E-03  1428   0.922E-02    0.151E-01
DAV:   5    -0.109331510742E+03    0.85752E-04   -0.42260E-04  1316   0.576E-02
  31 F= -.10933151E+03 E0= -.10933151E+03  d E =-.447387E-02
 curvature: -19.80 expect dE=-0.204E-01 dE for cont linesearch -0.313E-03
 ZBRENT: interpolating
 opt :   9.0445  next Energy=  -109.331748 (dE=-0.471E-02)
 bond charge predicted
       N       E                     dE             d eps       ncg     rms          rms(c)
DAV:   1    -0.109331223361E+03    0.37313E-03   -0.13594E-01  1176   0.865E-01    0.199E-01
DAV:   2    -0.109331816209E+03   -0.59285E-03   -0.73682E-03  1414   0.222E-01    0.988E-02
DAV:   3    -0.109331765688E+03    0.50521E-04   -0.12853E-04   854   0.373E-02
  32 F= -.10933177E+03 E0= -.10933177E+03  d E =-.472882E-02
 curvature: -14.97 expect dE=-0.130E-01 dE for cont linesearch -0.159E-04
 trial: gam= 0.62335 g(F)=  0.427E-03 g(S)=  0.438E-03 ort =-0.647E-04 (trialstep = 0.434E+01)
 search vector abs. value=  0.232E-02
 bond charge predicted
       N       E                     dE             d eps       ncg     rms          rms(c)
DAV:   1    -0.109335412892E+03   -0.35967E-02   -0.40078E-01  1176   0.151E+00    0.452E-01
DAV:   2    -0.109334952541E+03    0.46035E-03   -0.23924E-02  1372   0.395E-01    0.205E-01
DAV:   3    -0.109334505206E+03    0.44733E-03   -0.10540E-03  1400   0.850E-02    0.122E-01
DAV:   4    -0.109334285824E+03    0.21938E-03   -0.33717E-04  1134   0.480E-02    0.584E-02
DAV:   5    -0.109334261482E+03    0.24342E-04   -0.12930E-04   812   0.294E-02
  33 F= -.10933426E+03 E0= -.10933426E+03  d E =-.249579E-02
 trial-energy change:   -0.002496  1 .order   -0.002598   -0.003582   -0.001613
 step:   7.8973(harm=  7.8973)  dis= 0.00898  next Energy=  -109.335024 (dE=-0.326E-02)
 bond charge predicted
       N       E                     dE             d eps       ncg     rms          rms(c)
DAV:   1    -0.109335586632E+03   -0.13008E-02   -0.26416E-01  1176   0.123E+00    0.354E-01
DAV:   2    -0.109335190540E+03    0.39609E-03   -0.15400E-02  1386   0.318E-01    0.163E-01
DAV:   3    -0.109334880551E+03    0.30999E-03   -0.68862E-04  1428   0.688E-02    0.100E-01
DAV:   4    -0.109334733052E+03    0.14750E-03   -0.21266E-04   994   0.387E-02    0.502E-02
DAV:   5    -0.109334717462E+03    0.15590E-04   -0.11955E-04   798   0.275E-02
  34 F= -.10933472E+03 E0= -.10933472E+03  d E =-.295177E-02
 curvature: -11.11 expect dE=-0.372E-02 dE for cont linesearch -0.578E-05
 trial: gam= 0.35625 g(F)=  0.197E-03 g(S)=  0.138E-03 ort =-0.348E-04 (trialstep = 0.505E+01)
 search vector abs. value=  0.605E-03
 bond charge predicted
       N       E                     dE             d eps       ncg     rms          rms(c)
DAV:   1    -0.109335949840E+03   -0.12168E-02   -0.11751E-01  1176   0.818E-01    0.198E-01
DAV:   2    -0.109336146475E+03   -0.19664E-03   -0.66224E-03  1442   0.209E-01    0.114E-01
DAV:   3    -0.109336066276E+03    0.80199E-04   -0.23776E-04  1162   0.446E-02
  35 F= -.10933607E+03 E0= -.10933607E+03  d E =-.134881E-02
 ZBRENT: can't locate minimum, use default step
 trial-energy change:   -0.001349  1 .order   -0.001477   -0.001631   -0.001323
 step:  20.2097(harm= 26.7226)  dis= 0.01561  next Energy=  -109.339031 (dE=-0.431E-02)
 bond charge predicted
       N       E                     dE             d eps       ncg     rms          rms(c)
DAV:   1    -0.109335058374E+03    0.10881E-02   -0.10473E+00  1176   0.244E+00    0.573E-01
DAV:   2    -0.109336262856E+03   -0.12045E-02   -0.57878E-02  1428   0.620E-01    0.342E-01
DAV:   3    -0.109335486873E+03    0.77598E-03   -0.23367E-03  1456   0.134E-01    0.213E-01
DAV:   4    -0.109334938425E+03    0.54845E-03   -0.75272E-04  1470   0.740E-02    0.113E-01
DAV:   5    -0.109334767393E+03    0.17103E-03   -0.29426E-04  1092   0.507E-02    0.555E-02
DAV:   6    -0.109334758928E+03    0.84653E-05   -0.10372E-04   840   0.268E-02
  36 F= -.10933476E+03 E0= -.10933476E+03  d E =-.414657E-04
 curvature: -22.78 expect dE=-0.188E-01 dE for cont linesearch -0.300E-02
 ZBRENT: interpolating
 opt :  12.3472  next Energy=  -109.337021 (dE=-0.230E-02)
 bond charge predicted
       N       E                     dE             d eps       ncg     rms          rms(c)
DAV:   1    -0.109336204280E+03   -0.14369E-02   -0.28381E-01  1176   0.127E+00    0.304E-01
DAV:   2    -0.109336632177E+03   -0.42790E-03   -0.15816E-02  1428   0.324E-01    0.173E-01
DAV:   3    -0.109336442819E+03    0.18936E-03   -0.60122E-04  1442   0.685E-02    0.105E-01
DAV:   4    -0.109336321451E+03    0.12137E-03   -0.16075E-04   812   0.366E-02    0.571E-02
DAV:   5    -0.109336292120E+03    0.29331E-04   -0.13047E-04   826   0.322E-02
  37 F= -.10933629E+03 E0= -.10933629E+03  d E =-.157466E-02
 curvature:  -7.26 expect dE=-0.216E-02 dE for cont linesearch -0.139E-03
 ZBRENT: interpolating
 opt :  10.2200  next Energy=  -109.336407 (dE=-0.169E-02)
 bond charge predicted
       N       E                     dE             d eps       ncg     rms          rms(c)
DAV:   1    -0.109336415970E+03   -0.94519E-04   -0.20684E-02  1176   0.344E-01    0.852E-02
DAV:   2    -0.109336436102E+03   -0.20132E-04   -0.11705E-03  1442   0.874E-02    0.447E-02
DAV:   3    -0.109336420440E+03    0.15662E-04   -0.42758E-05   686   0.198E-02
  38 F= -.10933642E+03 E0= -.10933642E+03  d E =-.170298E-02
 curvature:  -5.97 expect dE=-0.137E-02 dE for cont linesearch -0.339E-04
 trial: gam= 0.77622 g(F)=  0.161E-03 g(S)=  0.681E-04 ort =-0.586E-04 (trialstep = 0.609E+01)
 search vector abs. value=  0.503E-03
 reached required accuracy - stopping structural energy minimisation
