<?xml version="1.0" encoding="ISO-8859-1"?>
<modeling>
 <generator>
  <i name="program" type="string">vasp </i>
  <i name="version" type="string">5.4.4.18Apr17-6-g9f103f2a35  </i>
  <i name="subversion" type="string">(build Oct 27 2022 13:04:57) complex            parallel </i>
  <i name="platform" type="string">LinuxIFC </i>
  <i name="date" type="string">2024 06 30 </i>
  <i name="time" type="string">00:43:06 </i>
 </generator>
 <incar>
  <i type="string" name="SYSTEM"> CIS</i>
  <i type="int" name="ISTART">     0</i>
  <i type="string" name="PREC">medium</i>
  <i type="int" name="ICHARG">     2</i>
  <i type="int" name="IBRION">     2</i>
  <i name="EDIFF">      0.00010000</i>
  <i name="EDIFFG">     -0.05000000</i>
  <i type="int" name="NSW">    99</i>
  <i type="int" name="ISIF">     3</i>
  <i name="ENCUT">    300.00000000</i>
  <i name="POTIM">      0.10000000</i>
  <i type="string" name="LREAL"> Auto</i>
  <i type="int" name="ISMEAR">     0</i>
  <i name="SIGMA">      0.05000000</i>
  <i type="int" name="LMAXMIX">     4</i>
  <i type="logical" name="LWAVE"> F  </i>
  <i type="logical" name="LCHARG"> F  </i>
  <i type="int" name="LORBIT">    10</i>
  <i type="logical" name="LASPH"> T  </i>
  <v type="int" name="KPOINT_BSE">    -1     0     0     0</v>
  <i type="logical" name="LASPH"> T  </i>
 </incar>
 <structure name="primitive_cell" >
  <crystal>
   <varray name="basis" >
    <v>       4.24401182       0.00000000       0.00000000 </v>
    <v>       0.00000000      13.41340877       0.04087212 </v>
    <v>       0.00000000       1.22959264      15.51089389 </v>
   </varray>
   <i name="volume">    882.77017871 </i>
   <varray name="rec_basis" >
    <v>       0.23562611       0.00000000       0.00000000 </v>
    <v>       0.00000000       0.07457028      -0.00591140 </v>
    <v>       0.00000000      -0.00019650       0.06448639 </v>
   </varray>
  </crystal>
  <varray name="positions" >
   <v>       0.25000000      -0.43150721      -0.18790996 </v>
   <v>       0.25000000      -0.40186188       0.03793755 </v>
   <v>       0.25000000       0.30839179      -0.24041933 </v>
   <v>      -0.25000000       0.40186188      -0.03793755 </v>
   <v>      -0.25000000      -0.20214494      -0.13713377 </v>
   <v>      -0.25000000      -0.45798711      -0.39320698 </v>
   <v>       0.25000000       0.26853392      -0.05056020 </v>
   <v>       0.25000000       0.39331667      -0.42829721 </v>
   <v>      -0.25000000      -0.17124691      -0.37714522 </v>
   <v>      -0.25000000      -0.26853392       0.05056020 </v>
   <v>       0.25000000      -0.05387657      -0.12022641 </v>
   <v>       0.25000000      -0.24454282       0.45156839 </v>
   <v>      -0.25000000       0.16844394      -0.27488852 </v>
   <v>       0.25000000       0.01433094      -0.29540055 </v>
   <v>      -0.25000000      -0.39331667       0.42829721 </v>
   <v>      -0.25000000       0.43150721       0.18790996 </v>
   <v>       0.25000000      -0.09642318       0.08303846 </v>
   <v>      -0.25000000       0.24454282      -0.45156839 </v>
   <v>      -0.25000000       0.09642318      -0.08303846 </v>
   <v>       0.25000000       0.20214494       0.13713377 </v>
   <v>       0.25000000       0.45798711       0.39320698 </v>
   <v>      -0.25000000      -0.30839179       0.24041933 </v>
   <v>       0.25000000      -0.16844394       0.27488852 </v>
   <v>      -0.25000000       0.05387657       0.12022641 </v>
   <v>       0.25000000       0.17124691       0.37714522 </v>
   <v>      -0.25000000      -0.01433094       0.29540055 </v>
  </varray>
 </structure>
 <varray name="primitive_index" >
  <v type="int" >        1 </v>
  <v type="int" >       15 </v>
  <v type="int" >       24 </v>
  <v type="int" >       16 </v>
  <v type="int" >       19 </v>
  <v type="int" >       14 </v>
  <v type="int" >       10 </v>
  <v type="int" >       12 </v>
  <v type="int" >        3 </v>
  <v type="int" >        9 </v>
  <v type="int" >        5 </v>
  <v type="int" >       21 </v>
  <v type="int" >        8 </v>
  <v type="int" >       18 </v>
  <v type="int" >       11 </v>
  <v type="int" >        2 </v>
  <v type="int" >       25 </v>
  <v type="int" >       22 </v>
  <v type="int" >       26 </v>
  <v type="int" >       20 </v>
  <v type="int" >       13 </v>
  <v type="int" >       23 </v>
  <v type="int" >        7 </v>
  <v type="int" >        6 </v>
  <v type="int" >        4 </v>
  <v type="int" >       17 </v>
 </varray>
 <kpoints>
  <generation param="Monkhorst-Pack">
   <v type="int" name="divisions">       5        2        2 </v>
   <v name="usershift">      0.00000000       0.00000000       0.00000000 </v>
   <v name="genvec1">      0.20000000       0.00000000       0.00000000 </v>
   <v name="genvec2">      0.00000000       0.50000000      -0.00000000 </v>
   <v name="genvec3">      0.00000000      -0.00000000       0.50000000 </v>
   <v name="shift">      0.00000000       0.50000000       0.50000000 </v>
  </generation>
  <varray name="kpointlist" >
   <v>       0.00000000       0.25000000       0.25000000 </v>
   <v>       0.20000000       0.25000000       0.25000000 </v>
   <v>       0.40000000       0.25000000       0.25000000 </v>
   <v>       0.00000000      -0.25000000       0.25000000 </v>
   <v>       0.20000000      -0.25000000       0.25000000 </v>
   <v>       0.40000000      -0.25000000       0.25000000 </v>
  </varray>
  <varray name="weights" >
   <v>       0.10000000 </v>
   <v>       0.20000000 </v>
   <v>       0.20000000 </v>
   <v>       0.10000000 </v>
   <v>       0.20000000 </v>
   <v>       0.20000000 </v>
  </varray>
 </kpoints>
 <parameters>
  <separator name="general" >
   <i type="string" name="SYSTEM">CIS</i>
   <i type="logical" name="LCOMPAT"> F  </i>
  </separator>
  <separator name="electronic" >
   <i type="string" name="PREC">medium</i>
   <i name="ENMAX">    300.00000000</i>
   <i name="ENAUG">    335.09200000</i>
   <i name="EDIFF">      0.00010000</i>
   <i type="int" name="IALGO">    38</i>
   <i type="int" name="IWAVPR">    11</i>
   <i type="int" name="NBANDS">    98</i>
   <i name="NELECT">    152.00000000</i>
   <i type="int" name="TURBO">     0</i>
   <i type="int" name="IRESTART">     0</i>
   <i type="int" name="NREBOOT">     0</i>
   <i type="int" name="NMIN">     0</i>
   <i name="EREF">      0.00000000</i>
   <separator name="electronic smearing" >
    <i type="int" name="ISMEAR">     0</i>
    <i name="SIGMA">      0.05000000</i>
    <i name="KSPACING">      0.50000000</i>
    <i type="logical" name="KGAMMA"> T  </i>
   </separator>
   <separator name="electronic projectors" >
    <i type="logical" name="LREAL"> T  </i>
    <v name="ROPT">     -0.00200000     -0.00200000     -0.00200000</v>
    <i type="int" name="LMAXPAW">  -100</i>
    <i type="int" name="LMAXMIX">     4</i>
    <i type="logical" name="NLSPLINE"> F  </i>
   </separator>
   <separator name="electronic startup" >
    <i type="int" name="ISTART">     0</i>
    <i type="int" name="ICHARG">     2</i>
    <i type="int" name="INIWAV">     1</i>
   </separator>
   <separator name="electronic spin" >
    <i type="int" name="ISPIN">     1</i>
    <i type="logical" name="LNONCOLLINEAR"> F  </i>
    <v name="MAGMOM">      1.00000000      1.00000000      1.00000000      1.00000000      1.00000000      1.00000000      1.00000000      1.00000000      1.00000000      1.00000000      1.00000000      1.00000000      1.00000000      1.00000000      1.00000000      1.00000000      1.00000000      1.00000000      1.00000000      1.00000000
      1.00000000      1.00000000      1.00000000      1.00000000      1.00000000      1.00000000</v>
    <i name="NUPDOWN">     -1.00000000</i>
    <i type="logical" name="LSORBIT"> F  </i>
    <v name="SAXIS">      0.00000000      0.00000000      1.00000000</v>
    <i type="logical" name="LSPIRAL"> F  </i>
    <v name="QSPIRAL">      0.00000000      0.00000000      0.00000000</v>
    <i type="logical" name="LZEROZ"> F  </i>
   </separator>
   <separator name="electronic exchange-correlation" >
    <i type="logical" name="LASPH"> T  </i>
    <i type="logical" name="LMETAGGA"> F  </i>
   </separator>
   <separator name="electronic convergence" >
    <i type="int" name="NELM">    60</i>
    <i type="int" name="NELMDL">    -5</i>
    <i type="int" name="NELMIN">     2</i>
    <i name="ENINI">    300.00000000</i>
    <separator name="electronic convergence detail" >
     <i type="logical" name="LDIAG"> T  </i>
     <i type="logical" name="LSUBROT"> F  </i>
     <i name="WEIMIN">      0.00100000</i>
     <i name="EBREAK">      0.00000026</i>
     <i name="DEPER">      0.30000000</i>
     <i type="int" name="NRMM">     4</i>
     <i name="TIME">      0.40000000</i>
    </separator>
   </separator>
   <separator name="electronic mixer" >
    <i name="AMIX">      0.40000000</i>
    <i name="BMIX">      1.00000000</i>
    <i name="AMIN">      0.10000000</i>
    <i name="AMIX_MAG">      1.60000000</i>
    <i name="BMIX_MAG">      1.00000000</i>
    <separator name="electronic mixer details" >
     <i type="int" name="IMIX">     4</i>
     <i type="logical" name="MIXFIRST"> F  </i>
     <i type="int" name="MAXMIX">   -45</i>
     <i name="WC">    100.00000000</i>
     <i type="int" name="INIMIX">     1</i>
     <i type="int" name="MIXPRE">     1</i>
     <i type="int" name="MREMOVE">     5</i>
    </separator>
   </separator>
   <separator name="electronic dipolcorrection" >
    <i type="logical" name="LDIPOL"> F  </i>
    <i type="logical" name="LMONO"> F  </i>
    <i type="int" name="IDIPOL">     0</i>
    <i name="EPSILON">      1.00000000</i>
    <v name="DIPOL">   -100.00000000   -100.00000000   -100.00000000</v>
    <i name="EFIELD">      0.00000000</i>
   </separator>
  </separator>
  <separator name="grids" >
   <i type="int" name="NGX">    18</i>
   <i type="int" name="NGY">    60</i>
   <i type="int" name="NGZ">    70</i>
   <i type="int" name="NGXF">    28</i>
   <i type="int" name="NGYF">    80</i>
   <i type="int" name="NGZF">    96</i>
   <i type="logical" name="ADDGRID"> F  </i>
  </separator>
  <separator name="ionic" >
   <i type="int" name="NSW">    99</i>
   <i type="int" name="IBRION">     2</i>
   <i type="int" name="MDALGO">     0</i>
   <i type="int" name="ISIF">     3</i>
   <i name="PSTRESS">      0.00000000</i>
   <i name="EDIFFG">     -0.05000000</i>
   <i type="int" name="NFREE">     1</i>
   <i name="POTIM">      0.10000000</i>
   <i name="SMASS">     -3.00000000</i>
   <i name="SCALEE">      1.00000000</i>
  </separator>
  <separator name="ionic md" >
   <i name="TEBEG">      0.00010000</i>
   <i name="TEEND">      0.00010000</i>
   <i type="int" name="NBLOCK">     1</i>
   <i type="int" name="KBLOCK">    99</i>
   <i type="int" name="NPACO">   256</i>
   <i name="APACO">     16.00000000</i>
  </separator>
  <separator name="symmetry" >
   <i type="int" name="ISYM">     2</i>
   <i name="SYMPREC">      0.00001000</i>
  </separator>
  <separator name="dos" >
   <i type="int" name="LORBIT">    10</i>
   <v name="RWIGS">     -1.00000000     -1.00000000     -1.00000000</v>
   <i type="int" name="NEDOS">   301</i>
   <i name="EMIN">     10.00000000</i>
   <i name="EMAX">    -10.00000000</i>
   <i name="EFERMI">      0.00000000</i>
  </separator>
  <separator name="writing" >
   <i type="int" name="NWRITE">     2</i>
   <i type="logical" name="LWAVE"> F  </i>
   <i type="logical" name="LDOWNSAMPLE"> F  </i>
   <i type="logical" name="LCHARG"> F  </i>
   <i type="logical" name="LPARD"> F  </i>
   <i type="logical" name="LVTOT"> F  </i>
   <i type="logical" name="LVHAR"> F  </i>
   <i type="logical" name="LELF"> F  </i>
   <i type="logical" name="LOPTICS"> F  </i>
   <v name="STM">      0.00000000      0.00000000      0.00000000      0.00000000      0.00000000      0.00000000      0.00000000</v>
  </separator>
  <separator name="performance" >
   <i type="int" name="NPAR">    14</i>
   <i type="int" name="NSIM">     4</i>
   <i type="int" name="NBLK">    -1</i>
   <i type="logical" name="LPLANE"> T  </i>
   <i type="logical" name="LSCALAPACK"> T  </i>
   <i type="logical" name="LSCAAWARE"> F  </i>
   <i type="logical" name="LSCALU"> F  </i>
   <i type="logical" name="LASYNC"> F  </i>
   <i type="logical" name="LORBITALREAL"> F  </i>
  </separator>
  <separator name="miscellaneous" >
   <i type="int" name="IDIOT">     3</i>
   <i type="int" name="ISPECIAL">     0</i>
   <i type="logical" name="LMUSIC"> F  </i>
   <v name="POMASS">     39.09800000    208.98000000     32.06600000</v>
   <v name="DARWINR">      0.00000000      0.00000000      0.00000000</v>
   <v name="DARWINV">      1.00000000      1.00000000      1.00000000</v>
   <i type="logical" name="LCORR"> T  </i>
  </separator>
  <i type="logical" name="GGA_COMPAT"> T  </i>
  <i type="logical" name="LBERRY"> F  </i>
  <i type="int" name="ICORELEVEL">     0</i>
  <i type="logical" name="LDAU"> F  </i>
  <i type="int" name="I_CONSTRAINED_M">     0</i>
  <separator name="electronic exchange-correlation" >
   <i type="string" name="GGA">--</i>
   <i type="int" name="VOSKOWN">     0</i>
   <i type="logical" name="LHFCALC"> F  </i>
   <i type="string" name="PRECFOCK"></i>
   <i type="logical" name="LSYMGRAD"> F  </i>
   <i type="logical" name="LHFONE"> F  </i>
   <i type="logical" name="LRHFCALC"> F  </i>
   <i type="logical" name="LTHOMAS"> F  </i>
   <i type="logical" name="LMODELHF"> F  </i>
   <i name="ENCUT4O">     -1.00000000</i>
   <i type="int" name="EXXOEP">     0</i>
   <i type="int" name="FOURORBIT">     0</i>
   <i name="AEXX">      0.00000000</i>
   <i name="HFALPHA">      0.00000000</i>
   <i name="MCALPHA">      0.00000000</i>
   <i name="ALDAX">      1.00000000</i>
   <i name="AGGAX">      1.00000000</i>
   <i name="ALDAC">      1.00000000</i>
   <i name="AGGAC">      1.00000000</i>
   <i type="int" name="NKREDX">     1</i>
   <i type="int" name="NKREDY">     1</i>
   <i type="int" name="NKREDZ">     1</i>
   <i type="logical" name="SHIFTRED"> F  </i>
   <i type="logical" name="ODDONLY"> F  </i>
   <i type="logical" name="EVENONLY"> F  </i>
   <i type="int" name="LMAXFOCK">     0</i>
   <i type="int" name="NMAXFOCKAE">     0</i>
   <i type="logical" name="LFOCKAEDFT"> F  </i>
   <i name="HFSCREEN">      0.00000000</i>
   <i name="HFSCREENC">      0.00000000</i>
   <i type="int" name="NBANDSGWLOW">     0</i>
  </separator>
  <separator name="vdW DFT" >
   <i type="logical" name="LUSE_VDW"> F  </i>
   <i name="Zab_VDW">     -0.84910000</i>
   <i name="PARAM1">      0.12340000</i>
   <i name="PARAM2">      1.00000000</i>
   <i name="PARAM3">      0.00000000</i>
  </separator>
  <separator name="model GW" >
   <i type="int" name="MODEL_GW">     0</i>
   <i name="MODEL_EPS0">     20.37161951</i>
   <i name="MODEL_ALPHA">      1.00000000</i>
  </separator>
  <separator name="linear response parameters" >
   <i type="logical" name="LEPSILON"> F  </i>
   <i type="logical" name="LRPA"> F  </i>
   <i type="logical" name="LNABLA"> F  </i>
   <i type="logical" name="LVEL"> F  </i>
   <i type="int" name="KINTER">     0</i>
   <i name="CSHIFT">      0.10000000</i>
   <i name="OMEGAMAX">     -1.00000000</i>
   <i name="DEG_THRESHOLD">      0.00200000</i>
   <i name="RTIME">     -0.10000000</i>
   <i name="WPLASMAI">      0.00000000</i>
   <v name="DFIELD">      0.00000000      0.00000000      0.00000000</v>
   <v name="WPLASMA">      0.00000000      0.00000000      0.00000000      0.00000000      0.00000000      0.00000000      0.00000000      0.00000000      0.00000000</v>
  </separator>
  <separator name="orbital magnetization" >
   <i type="logical" name="NUCIND"> F  </i>
   <v name="MAGPOS">      0.00000000      0.00000000      0.00000000</v>
   <i type="logical" name="LNICSALL"> T  </i>
   <i type="logical" name="ORBITALMAG"> F  </i>
   <i type="logical" name="LMAGBLOCH"> F  </i>
   <i type="logical" name="LCHIMAG"> F  </i>
   <i type="logical" name="LGAUGE"> T  </i>
   <i type="int" name="MAGATOM">     0</i>
   <v name="MAGDIPOL">      0.00000000      0.00000000      0.00000000</v>
   <v name="AVECCONST">      0.00000000      0.00000000      0.00000000</v>
  </separator>
  <separator name="response functions" >
   <i type="logical" name="LADDER"> F  </i>
   <i type="logical" name="LRPAFORCE"> F  </i>
   <i type="logical" name="LFXC"> F  </i>
   <i type="logical" name="LHARTREE"> T  </i>
   <i type="int" name="IBSE">     0</i>
   <v type="int" name="KPOINT">    -1     0     0     0</v>
   <i type="logical" name="LTCTE"> F  </i>
   <i type="logical" name="LTETE"> F  </i>
   <i type="logical" name="LTRIPLET"> F  </i>
   <i type="logical" name="LFXCEPS"> F  </i>
   <i type="logical" name="LFXHEG"> F  </i>
   <i type="int" name="NATURALO">     2</i>
   <i type="logical" name="L2ORDER"> F  </i>
   <i type="logical" name="LMP2LT"> F  </i>
   <i type="logical" name="LUSEW"> F  </i>
   <i name="ENCUTGW">     -2.00000000</i>
   <i name="ENCUTGWSOFT">     -2.00000000</i>
   <i name="ENCUTLF">     -1.00000000</i>
   <i type="int" name="LMAXMP2">    -1</i>
   <i name="SCISSOR">      0.00000000</i>
   <i type="int" name="NOMEGA">     0</i>
   <i type="int" name="NOMEGAR">     0</i>
   <i type="int" name="NBANDSGW">    -1</i>
   <i type="int" name="NBANDSO">    -1</i>
   <i type="int" name="NBANDSV">    -1</i>
   <i type="int" name="NELM">     1</i>
   <i type="int" name="NELMHF">     1</i>
   <i type="int" name="DIM">     3</i>
   <i type="int" name="ANTIRES">     0</i>
   <i name="OMEGAMAX">    -30.00000000</i>
   <i name="OMEGAMIN">    -30.00000000</i>
   <i name="OMEGATL">   -200.00000000</i>
   <i type="int" name="OMEGAGRID">   140</i>
   <i name="CSHIFT">     -0.10000000</i>
   <i type="logical" name="SELFENERGY"> F  </i>
   <i type="logical" name="LSPECTRAL"> F  </i>
   <i type="logical" name="LSPECTRALGW"> F  </i>
   <i type="logical" name="LSINGLES"> F  </i>
   <i type="logical" name="LFERMIGW"> F  </i>
   <i type="logical" name="ODDONLYGW"> F  </i>
   <i type="logical" name="EVENONLYGW"> F  </i>
   <i type="int" name="NKREDLFX">     1</i>
   <i type="int" name="NKREDLFY">     1</i>
   <i type="int" name="NKREDLFZ">     1</i>
   <i type="int" name="MAXMEM">  2800</i>
   <i type="int" name="TELESCOPE">     0</i>
   <i type="int" name="TAUPAR">     1</i>
   <i type="int" name="OMEGAPAR">    -1</i>
   <i name="LAMBDA">      1.00000000</i>
  </separator>
  <separator name="External order field" >
   <i name="OFIELD_KAPPA">      0.00000000</i>
   <v name="OFIELD_K">      0.00000000      0.00000000      0.00000000</v>
   <i name="OFIELD_Q6_NEAR">      0.00000000</i>
   <i name="OFIELD_Q6_FAR">      0.00000000</i>
   <i name="OFIELD_A">      0.00000000</i>
  </separator>
 </parameters>
 <atominfo>
  <atoms>      26 </atoms>
  <types>       3 </types>
  <array name="atoms" >
   <dimension dim="1">ion</dimension>
   <field type="string">element</field>
   <field type="int">atomtype</field>
   <set>
    <rc><c>K </c><c>   1</c></rc>
    <rc><c>K </c><c>   1</c></rc>
    <rc><c>K </c><c>   1</c></rc>
    <rc><c>K </c><c>   1</c></rc>
    <rc><c>Bi</c><c>   2</c></rc>
    <rc><c>Bi</c><c>   2</c></rc>
    <rc><c>Bi</c><c>   2</c></rc>
    <rc><c>Bi</c><c>   2</c></rc>
    <rc><c>Bi</c><c>   2</c></rc>
    <rc><c>Bi</c><c>   2</c></rc>
    <rc><c>Bi</c><c>   2</c></rc>
    <rc><c>Bi</c><c>   2</c></rc>
    <rc><c>S </c><c>   3</c></rc>
    <rc><c>S </c><c>   3</c></rc>
    <rc><c>S </c><c>   3</c></rc>
    <rc><c>S </c><c>   3</c></rc>
    <rc><c>S </c><c>   3</c></rc>
    <rc><c>S </c><c>   3</c></rc>
    <rc><c>S </c><c>   3</c></rc>
    <rc><c>S </c><c>   3</c></rc>
    <rc><c>S </c><c>   3</c></rc>
    <rc><c>S </c><c>   3</c></rc>
    <rc><c>S </c><c>   3</c></rc>
    <rc><c>S </c><c>   3</c></rc>
    <rc><c>S </c><c>   3</c></rc>
    <rc><c>S </c><c>   3</c></rc>
   </set>
  </array>
  <array name="atomtypes" >
   <dimension dim="1">type</dimension>
   <field type="int">atomspertype</field>
   <field type="string">element</field>
   <field>mass</field>
   <field>valence</field>
   <field type="string">pseudopotential</field>
   <set>
    <rc><c>   4</c><c>K </c><c>     39.09800000</c><c>      7.00000000</c><c>  PAW_PBE K_pv 17Jan2003                </c></rc>
    <rc><c>   8</c><c>Bi</c><c>    208.98000000</c><c>      5.00000000</c><c>  PAW_PBE Bi 08Apr2002                  </c></rc>
    <rc><c>  14</c><c>S </c><c>     32.06600000</c><c>      6.00000000</c><c>  PAW_PBE S 06Sep2000                   </c></rc>
   </set>
  </array>
 </atominfo>
 <structure name="initialpos" >
  <crystal>
   <varray name="basis" >
    <v>       4.24401182       0.00000000       0.00000000 </v>
    <v>       0.00000000      13.41340877       0.04087212 </v>
    <v>       0.00000000       1.22959264      15.51089389 </v>
   </varray>
   <i name="volume">    882.77017871 </i>
   <varray name="rec_basis" >
    <v>       0.23562611       0.00000000       0.00000000 </v>
    <v>       0.00000000       0.07457028      -0.00591140 </v>
    <v>       0.00000000      -0.00019650       0.06448639 </v>
   </varray>
  </crystal>
  <varray name="positions" >
   <v>       0.25000000       0.56849279       0.81209004 </v>
   <v>       0.75000000       0.43150721       0.18790996 </v>
   <v>       0.75000000       0.82875309       0.62285478 </v>
   <v>       0.25000000       0.17124691       0.37714522 </v>
   <v>       0.25000000       0.94612343       0.87977359 </v>
   <v>       0.75000000       0.05387657       0.12022641 </v>
   <v>       0.25000000       0.83155606       0.27488852 </v>
   <v>       0.75000000       0.16844394       0.72511148 </v>
   <v>       0.75000000       0.73146608       0.05056020 </v>
   <v>       0.25000000       0.26853392       0.94943980 </v>
   <v>       0.75000000       0.60668333       0.42829721 </v>
   <v>       0.25000000       0.39331667       0.57170279 </v>
   <v>       0.25000000       0.45798711       0.39320698 </v>
   <v>       0.75000000       0.54201289       0.60679302 </v>
   <v>       0.25000000       0.59813812       0.03793755 </v>
   <v>       0.75000000       0.40186188       0.96206245 </v>
   <v>       0.75000000       0.98566906       0.29540055 </v>
   <v>       0.25000000       0.01433094       0.70459945 </v>
   <v>       0.75000000       0.79785506       0.86286623 </v>
   <v>       0.25000000       0.20214494       0.13713377 </v>
   <v>       0.25000000       0.75545718       0.45156839 </v>
   <v>       0.75000000       0.24454282       0.54843161 </v>
   <v>       0.75000000       0.69160821       0.24041933 </v>
   <v>       0.25000000       0.30839179       0.75958067 </v>
   <v>       0.25000000       0.90357682       0.08303846 </v>
   <v>       0.75000000       0.09642318       0.91696154 </v>
  </varray>
 </structure>
 <calculation>
  <scstep>
   <time name="dav">    1.10    1.11</time>
   <time name="total">    1.30    1.35</time>
   <energy>
    <i name="alphaZ">    207.17945859 </i>
    <i name="ewald">  -5357.93881648 </i>
    <i name="hartreedc">  -1359.90170401 </i>
    <i name="XCdc">   -672.10403613 </i>
    <i name="pawpsdc">   6199.28097179 </i>
    <i name="pawaedc">  -5206.05274276 </i>
    <i name="eentropy">     -0.01092896 </i>
    <i name="bandstr">     42.82300716 </i>
    <i name="atom">   6883.84084810 </i>
    <i name="e_fr_energy">    737.11605727 </i>
    <i name="e_wo_entrp">    737.12698624 </i>
    <i name="e_0_energy">    737.12152175 </i>
   </energy>
  </scstep>
  <scstep>
   <time name="dav">    1.55    1.55</time>
   <time name="total">    1.55    1.55</time>
   <energy>
    <i name="e_fr_energy">    -31.12086160 </i>
    <i name="e_wo_entrp">    -31.12086160 </i>
    <i name="e_0_energy">    -31.12086160 </i>
   </energy>
  </scstep>
  <scstep>
   <time name="dav">    1.31    1.31</time>
   <time name="total">    1.31    1.31</time>
   <energy>
    <i name="e_fr_energy">   -113.60557760 </i>
    <i name="e_wo_entrp">   -113.60557760 </i>
    <i name="e_0_energy">   -113.60557760 </i>
   </energy>
  </scstep>
  <scstep>
   <time name="dav">    1.49    1.49</time>
   <time name="total">    1.49    1.49</time>
   <energy>
    <i name="e_fr_energy">   -116.55850341 </i>
    <i name="e_wo_entrp">   -116.55850341 </i>
    <i name="e_0_energy">   -116.55850341 </i>
   </energy>
  </scstep>
  <scstep>
   <time name="dav">    1.53    1.53</time>
   <time name="total">    1.58    1.58</time>
   <energy>
    <i name="e_fr_energy">   -116.61278356 </i>
    <i name="e_wo_entrp">   -116.61278356 </i>
    <i name="e_0_energy">   -116.61278356 </i>
   </energy>
  </scstep>
  <scstep>
   <time name="dav">    1.39    1.39</time>
   <time name="total">    1.62    1.62</time>
   <energy>
    <i name="e_fr_energy">   -106.94142560 </i>
    <i name="e_wo_entrp">   -106.94142560 </i>
    <i name="e_0_energy">   -106.94142560 </i>
   </energy>
  </scstep>
  <scstep>
   <time name="dav">    1.32    1.32</time>
   <time name="total">    1.55    1.55</time>
   <energy>
    <i name="e_fr_energy">   -107.16391388 </i>
    <i name="e_wo_entrp">   -107.16391388 </i>
    <i name="e_0_energy">   -107.16391388 </i>
   </energy>
  </scstep>
  <scstep>
   <time name="dav">    1.59    1.59</time>
   <time name="total">    1.82    1.82</time>
   <energy>
    <i name="e_fr_energy">   -107.16261368 </i>
    <i name="e_wo_entrp">   -107.16261368 </i>
    <i name="e_0_energy">   -107.16261368 </i>
   </energy>
  </scstep>
  <scstep>
   <time name="dav">    1.06    1.06</time>
   <time name="total">    1.29    1.29</time>
   <energy>
    <i name="e_fr_energy">   -107.16657191 </i>
    <i name="e_wo_entrp">   -107.16657191 </i>
    <i name="e_0_energy">   -107.16657191 </i>
   </energy>
  </scstep>
  <scstep>
   <time name="dav">    1.29    1.29</time>
   <time name="total">    1.51    1.51</time>
   <energy>
    <i name="e_fr_energy">   -107.16904435 </i>
    <i name="e_wo_entrp">   -107.16904435 </i>
    <i name="e_0_energy">   -107.16904435 </i>
   </energy>
  </scstep>
  <scstep>
   <time name="dav">    1.40    1.40</time>
   <time name="total">    1.62    1.62</time>
   <energy>
    <i name="e_fr_energy">   -107.17362186 </i>
    <i name="e_wo_entrp">   -107.17362186 </i>
    <i name="e_0_energy">   -107.17362186 </i>
   </energy>
  </scstep>
  <scstep>
   <time name="dav">    1.35    1.35</time>
   <time name="total">    1.57    1.57</time>
   <energy>
    <i name="e_fr_energy">   -107.17549493 </i>
    <i name="e_wo_entrp">   -107.17549493 </i>
    <i name="e_0_energy">   -107.17549493 </i>
   </energy>
  </scstep>
  <scstep>
   <time name="dav">    1.42    1.42</time>
   <time name="total">    1.64    1.64</time>
   <energy>
    <i name="e_fr_energy">   -107.17597817 </i>
    <i name="e_wo_entrp">   -107.17597817 </i>
    <i name="e_0_energy">   -107.17597817 </i>
   </energy>
  </scstep>
  <scstep>
   <time name="dav">    0.90    0.90</time>
   <time name="total">    1.12    1.12</time>
   <energy>
    <i name="e_fr_energy">   -107.17619939 </i>
    <i name="e_wo_entrp">   -107.17619939 </i>
    <i name="e_0_energy">   -107.17619939 </i>
   </energy>
  </scstep>
  <scstep>
   <time name="dav">    1.22    1.22</time>
   <time name="total">    1.39    1.39</time>
   <energy>
    <i name="alphaZ">    207.17945859 </i>
    <i name="ewald">  -5357.93881648 </i>
    <i name="hartreedc">  -1435.88011332 </i>
    <i name="XCdc">   -665.00614472 </i>
    <i name="pawpsdc">   9176.93518557 </i>
    <i name="pawaedc">  -8181.79971443 </i>
    <i name="eentropy">     -0.00000000 </i>
    <i name="bandstr">   -734.50697693 </i>
    <i name="atom">   6883.84084810 </i>
    <i name="e_fr_energy">   -107.17627364 </i>
    <i name="e_wo_entrp">   -107.17627364 </i>
    <i name="e_0_energy">   -107.17627364 </i>
   </energy>
  </scstep>
  <structure>
   <crystal>
    <varray name="basis" >
     <v>       4.24401182       0.00000000       0.00000000 </v>
     <v>       0.00000000      13.41340877       0.04087212 </v>
     <v>       0.00000000       1.22959264      15.51089389 </v>
    </varray>
    <i name="volume">    882.77017871 </i>
    <varray name="rec_basis" >
     <v>       0.23562611       0.00000000       0.00000000 </v>
     <v>       0.00000000       0.07457028      -0.00591140 </v>
     <v>       0.00000000      -0.00019650       0.06448639 </v>
    </varray>
   </crystal>
   <varray name="positions" >
    <v>       0.25000000       0.56849279       0.81209004 </v>
    <v>       0.75000000       0.43150721       0.18790996 </v>
    <v>       0.75000000       0.82875309       0.62285478 </v>
    <v>       0.25000000       0.17124691       0.37714522 </v>
    <v>       0.25000000       0.94612343       0.87977359 </v>
    <v>       0.75000000       0.05387657       0.12022641 </v>
    <v>       0.25000000       0.83155606       0.27488852 </v>
    <v>       0.75000000       0.16844394       0.72511148 </v>
    <v>       0.75000000       0.73146608       0.05056020 </v>
    <v>       0.25000000       0.26853392       0.94943980 </v>
    <v>       0.75000000       0.60668333       0.42829721 </v>
    <v>       0.25000000       0.39331667       0.57170279 </v>
    <v>       0.25000000       0.45798711       0.39320698 </v>
    <v>       0.75000000       0.54201289       0.60679302 </v>
    <v>       0.25000000       0.59813812       0.03793755 </v>
    <v>       0.75000000       0.40186188       0.96206245 </v>
    <v>       0.75000000       0.98566906       0.29540055 </v>
    <v>       0.25000000       0.01433094       0.70459945 </v>
    <v>       0.75000000       0.79785506       0.86286623 </v>
    <v>       0.25000000       0.20214494       0.13713377 </v>
    <v>       0.25000000       0.75545718       0.45156839 </v>
    <v>       0.75000000       0.24454282       0.54843161 </v>
    <v>       0.75000000       0.69160821       0.24041933 </v>
    <v>       0.25000000       0.30839179       0.75958067 </v>
    <v>       0.25000000       0.90357682       0.08303846 </v>
    <v>       0.75000000       0.09642318       0.91696154 </v>
   </varray>
  </structure>
  <varray name="forces" >
   <v>       0.00000000      -0.19000933       0.30303502 </v>
   <v>      -0.00000000       0.19000933      -0.30303502 </v>
   <v>       0.00000000       0.12434861      -0.06137376 </v>
   <v>       0.00000000      -0.12434861       0.06137376 </v>
   <v>       0.00000000      -0.06496181      -0.39109705 </v>
   <v>       0.00000000       0.06496181       0.39109705 </v>
   <v>       0.00000000      -0.14649794       0.16992883 </v>
   <v>       0.00000000       0.14649794      -0.16992883 </v>
   <v>       0.00000000      -0.65099812      -0.05449145 </v>
   <v>       0.00000000       0.65099812       0.05449145 </v>
   <v>       0.00000000       0.03125050       0.22529844 </v>
   <v>       0.00000000      -0.03125050      -0.22529844 </v>
   <v>       0.00000000       0.24696921       0.48354581 </v>
   <v>       0.00000000      -0.24696921      -0.48354581 </v>
   <v>       0.00000000       0.75574340      -0.00449918 </v>
   <v>       0.00000000      -0.75574340       0.00449918 </v>
   <v>       0.00000000      -0.01827315      -0.52860729 </v>
   <v>       0.00000000       0.01827315       0.52860729 </v>
   <v>       0.00000000       0.42315185       0.23001096 </v>
   <v>       0.00000000      -0.42315185      -0.23001096 </v>
   <v>       0.00000000      -0.29834103      -0.29474314 </v>
   <v>       0.00000000       0.29834103       0.29474314 </v>
   <v>       0.00000000       0.44543204       0.02718159 </v>
   <v>       0.00000000      -0.44543204      -0.02718159 </v>
   <v>       0.00000000       0.14305299       0.14511216 </v>
   <v>       0.00000000      -0.14305299      -0.14511216 </v>
  </varray>
  <varray name="stress" >
   <v>     -44.27739102       0.00000000       0.00000000 </v>
   <v>       0.00000000     -47.62329732      -4.90247690 </v>
   <v>       0.00000000      -4.90247695     -50.32659858 </v>
  </varray>
  <energy>
   <i name="e_fr_energy">   -107.17627364 </i>
   <i name="e_wo_entrp">   -107.17627364 </i>
   <i name="e_0_energy">     -0.00000000 </i>
  </energy>
  <time name="totalsc">   23.85   24.02</time>
 </calculation>
 <calculation>
  <scstep>
   <time name="dav">    1.16    1.16</time>
   <time name="total">    1.39    1.48</time>
   <energy>
    <i name="alphaZ">    213.32344840 </i>
    <i name="ewald">  -5407.08126100 </i>
    <i name="hartreedc">  -1452.97908961 </i>
    <i name="XCdc">   -662.25299162 </i>
    <i name="pawpsdc">   9179.25201028 </i>
    <i name="pawaedc">  -8184.11578079 </i>
    <i name="eentropy">     -0.00000000 </i>
    <i name="bandstr">   -678.32097278 </i>
    <i name="atom">   6883.84084810 </i>
    <i name="e_fr_energy">   -108.33378903 </i>
    <i name="e_wo_entrp">   -108.33378903 </i>
    <i name="e_0_energy">   -108.33378903 </i>
   </energy>
  </scstep>
  <scstep>
   <time name="dav">    1.01    1.02</time>
   <time name="total">    1.24    1.25</time>
   <energy>
    <i name="e_fr_energy">   -107.98076409 </i>
    <i name="e_wo_entrp">   -107.98076409 </i>
    <i name="e_0_energy">   -107.98076409 </i>
   </energy>
  </scstep>
  <scstep>
   <time name="dav">    1.42    1.43</time>
   <time name="total">    1.64    1.65</time>
   <energy>
    <i name="e_fr_energy">   -107.91803253 </i>
    <i name="e_wo_entrp">   -107.91803253 </i>
    <i name="e_0_energy">   -107.91803253 </i>
   </energy>
  </scstep>
  <scstep>
   <time name="dav">    1.38    1.39</time>
   <time name="total">    1.61    1.61</time>
   <energy>
    <i name="e_fr_energy">   -107.90910895 </i>
    <i name="e_wo_entrp">   -107.90910895 </i>
    <i name="e_0_energy">   -107.90910895 </i>
   </energy>
  </scstep>
  <scstep>
   <time name="dav">    1.52    1.52</time>
   <time name="total">    1.74    1.74</time>
   <energy>
    <i name="e_fr_energy">   -107.90537078 </i>
    <i name="e_wo_entrp">   -107.90537078 </i>
    <i name="e_0_energy">   -107.90537078 </i>
   </energy>
  </scstep>
  <scstep>
   <time name="dav">    1.61    1.61</time>
   <time name="total">    1.83    1.83</time>
   <energy>
    <i name="e_fr_energy">   -107.90446969 </i>
    <i name="e_wo_entrp">   -107.90446969 </i>
    <i name="e_0_energy">   -107.90446969 </i>
   </energy>
  </scstep>
  <scstep>
   <time name="dav">    1.23    1.23</time>
   <time name="total">    1.40    1.40</time>
   <energy>
    <i name="alphaZ">    213.32344840 </i>
    <i name="ewald">  -5407.08126100 </i>
    <i name="hartreedc">  -1418.30140572 </i>
    <i name="XCdc">   -663.72635874 </i>
    <i name="pawpsdc">   9353.93187377 </i>
    <i name="pawaedc">  -8359.11090054 </i>
    <i name="eentropy">     -0.00000000 </i>
    <i name="bandstr">   -710.78077060 </i>
    <i name="atom">   6883.84084810 </i>
    <i name="e_fr_energy">   -107.90452633 </i>
    <i name="e_wo_entrp">   -107.90452633 </i>
    <i name="e_0_energy">   -107.90452633 </i>
   </energy>
  </scstep>
  <structure>
   <crystal>
    <varray name="basis" >
     <v>       4.20558951       0.00000000       0.00000000 </v>
     <v>       0.00000000      13.28275566       0.02700596 </v>
     <v>       0.00000000       1.20207147      15.35005163 </v>
    </varray>
    <i name="volume">    857.34526161 </i>
    <varray name="rec_basis" >
     <v>       0.23777879       0.00000000       0.00000000 </v>
     <v>       0.00000000       0.07529757      -0.00589660 </v>
     <v>       0.00000000      -0.00013247       0.06515673 </v>
    </varray>
   </crystal>
   <varray name="positions" >
    <v>       0.25000000       0.56833880       0.81227895 </v>
    <v>       0.75000000       0.43166120       0.18772105 </v>
    <v>       0.75000000       0.82884606       0.62281636 </v>
    <v>       0.25000000       0.17115394       0.37718364 </v>
    <v>       0.25000000       0.94609900       0.87953037 </v>
    <v>       0.75000000       0.05390100       0.12046963 </v>
    <v>       0.25000000       0.83144096       0.27499453 </v>
    <v>       0.75000000       0.16855904       0.72500547 </v>
    <v>       0.75000000       0.73100080       0.05052753 </v>
    <v>       0.25000000       0.26899920       0.94947247 </v>
    <v>       0.75000000       0.60669296       0.42843733 </v>
    <v>       0.25000000       0.39330704       0.57156267 </v>
    <v>       0.25000000       0.45813722       0.39350737 </v>
    <v>       0.75000000       0.54186278       0.60649263 </v>
    <v>       0.25000000       0.59868213       0.03793332 </v>
    <v>       0.75000000       0.40131787       0.96206668 </v>
    <v>       0.75000000       0.98568606       0.29507169 </v>
    <v>       0.25000000       0.01431394       0.70492831 </v>
    <v>       0.75000000       0.79814640       0.86300854 </v>
    <v>       0.25000000       0.20185360       0.13699146 </v>
    <v>       0.25000000       0.75525934       0.45138557 </v>
    <v>       0.75000000       0.24474066       0.54861443 </v>
    <v>       0.75000000       0.69192715       0.24043540 </v>
    <v>       0.25000000       0.30807285       0.75956460 </v>
    <v>       0.25000000       0.90367147       0.08312848 </v>
    <v>       0.75000000       0.09632853       0.91687152 </v>
   </varray>
  </structure>
  <varray name="forces" >
   <v>       0.00000000      -0.17255843       0.28723289 </v>
   <v>       0.00000000       0.17255843      -0.28723289 </v>
   <v>       0.00000000       0.12009527      -0.05849581 </v>
   <v>       0.00000000      -0.12009527       0.05849581 </v>
   <v>       0.00000000      -0.05656876      -0.26723100 </v>
   <v>       0.00000000       0.05656876       0.26723100 </v>
   <v>       0.00000000      -0.07226473       0.12457146 </v>
   <v>       0.00000000       0.07226473      -0.12457146 </v>
   <v>       0.00000000      -0.45341293      -0.04264596 </v>
   <v>       0.00000000       0.45341293       0.04264596 </v>
   <v>       0.00000000       0.01199163       0.15516785 </v>
   <v>       0.00000000      -0.01199163      -0.15516785 </v>
   <v>       0.00000000       0.13166395       0.31958794 </v>
   <v>       0.00000000      -0.13166395      -0.31958794 </v>
   <v>       0.00000000       0.53753509      -0.02015417 </v>
   <v>       0.00000000      -0.53753509       0.02015417 </v>
   <v>       0.00000000       0.05918098      -0.33235281 </v>
   <v>       0.00000000      -0.05918098       0.33235281 </v>
   <v>       0.00000000       0.26458858       0.10922691 </v>
   <v>       0.00000000      -0.26458858      -0.10922691 </v>
   <v>       0.00000000      -0.23679415      -0.09648192 </v>
   <v>       0.00000000       0.23679415       0.09648192 </v>
   <v>       0.00000000       0.29322768       0.01087870 </v>
   <v>       0.00000000      -0.29322768      -0.01087870 </v>
   <v>       0.00000000       0.10857088       0.13007352 </v>
   <v>       0.00000000      -0.10857088      -0.13007352 </v>
  </varray>
  <varray name="stress" >
   <v>     -34.50772460       0.00000000       0.00000000 </v>
   <v>       0.00000000     -37.89756026      -4.74025715 </v>
   <v>       0.00000000      -4.74025764     -40.39511037 </v>
  </varray>
  <energy>
   <i name="e_fr_energy">   -107.90452633 </i>
   <i name="e_wo_entrp">   -107.90452633 </i>
   <i name="e_0_energy">     -0.00000000 </i>
  </energy>
  <time name="totalsc">   12.49   12.92</time>
 </calculation>
 <calculation>
  <scstep>
   <time name="dav">    1.27    1.29</time>
   <time name="total">    1.50    1.56</time>
   <energy>
    <i name="alphaZ">    226.81366541 </i>
    <i name="ewald">  -5511.63713368 </i>
    <i name="hartreedc">  -1454.05306741 </i>
    <i name="XCdc">   -657.91069928 </i>
    <i name="pawpsdc">   9354.15097361 </i>
    <i name="pawaedc">  -8359.32284560 </i>
    <i name="eentropy">     -0.00000000 </i>
    <i name="bandstr">   -592.51053531 </i>
    <i name="atom">   6883.84084810 </i>
    <i name="e_fr_energy">   -110.62879418 </i>
    <i name="e_wo_entrp">   -110.62879418 </i>
    <i name="e_0_energy">   -110.62879418 </i>
   </energy>
  </scstep>
  <scstep>
   <time name="dav">    1.40    1.41</time>
   <time name="total">    1.62    1.62</time>
   <energy>
    <i name="e_fr_energy">   -109.11802182 </i>
    <i name="e_wo_entrp">   -109.11802182 </i>
    <i name="e_0_energy">   -109.11802182 </i>
   </energy>
  </scstep>
  <scstep>
   <time name="dav">    1.16    1.16</time>
   <time name="total">    1.38    1.38</time>
   <energy>
    <i name="e_fr_energy">   -108.83422137 </i>
    <i name="e_wo_entrp">   -108.83422137 </i>
    <i name="e_0_energy">   -108.83422137 </i>
   </energy>
  </scstep>
  <scstep>
   <time name="dav">    1.57    1.57</time>
   <time name="total">    1.79    1.79</time>
   <energy>
    <i name="e_fr_energy">   -108.80119074 </i>
    <i name="e_wo_entrp">   -108.80119074 </i>
    <i name="e_0_energy">   -108.80119074 </i>
   </energy>
  </scstep>
  <scstep>
   <time name="dav">    1.27    1.27</time>
   <time name="total">    1.49    1.49</time>
   <energy>
    <i name="e_fr_energy">   -108.78205981 </i>
    <i name="e_wo_entrp">   -108.78205981 </i>
    <i name="e_0_energy">   -108.78205981 </i>
   </energy>
  </scstep>
  <scstep>
   <time name="dav">    1.76    1.76</time>
   <time name="total">    1.98    1.99</time>
   <energy>
    <i name="e_fr_energy">   -108.77797664 </i>
    <i name="e_wo_entrp">   -108.77797664 </i>
    <i name="e_0_energy">   -108.77797664 </i>
   </energy>
  </scstep>
  <scstep>
   <time name="dav">    1.36    1.36</time>
   <time name="total">    1.57    1.57</time>
   <energy>
    <i name="e_fr_energy">   -108.77816174 </i>
    <i name="e_wo_entrp">   -108.77816174 </i>
    <i name="e_0_energy">   -108.77816174 </i>
   </energy>
  </scstep>
  <scstep>
   <time name="dav">    0.96    0.96</time>
   <time name="total">    1.14    1.14</time>
   <energy>
    <i name="alphaZ">    226.81366541 </i>
    <i name="ewald">  -5511.63713368 </i>
    <i name="hartreedc">  -1381.75744153 </i>
    <i name="XCdc">   -660.96333254 </i>
    <i name="pawpsdc">   9795.21407403 </i>
    <i name="pawaedc">  -8801.10736130 </i>
    <i name="eentropy">     -0.00000000 </i>
    <i name="bandstr">   -659.18146226 </i>
    <i name="atom">   6883.84084810 </i>
    <i name="e_fr_energy">   -108.77814376 </i>
    <i name="e_wo_entrp">   -108.77814376 </i>
    <i name="e_0_energy">   -108.77814376 </i>
   </energy>
  </scstep>
  <structure>
   <crystal>
    <varray name="basis" >
     <v>       4.12618888       0.00000000       0.00000000 </v>
     <v>       0.00000000      13.01275792      -0.00164880 </v>
     <v>       0.00000000       1.14519831      15.01766730 </v>
    </varray>
    <i name="volume">    806.35285952 </i>
    <varray name="rec_basis" >
     <v>       0.24235439       0.00000000       0.00000000 </v>
     <v>       0.00000000       0.07684692      -0.00586010 </v>
     <v>       0.00000000       0.00000844       0.06658759 </v>
    </varray>
   </crystal>
   <varray name="positions" >
    <v>       0.25000000       0.56801790       0.81267314 </v>
    <v>       0.75000000       0.43198210       0.18732686 </v>
    <v>       0.75000000       0.82903997       0.62273630 </v>
    <v>       0.25000000       0.17096003       0.37726370 </v>
    <v>       0.25000000       0.94604745       0.87902245 </v>
    <v>       0.75000000       0.05395255       0.12097755 </v>
    <v>       0.25000000       0.83120104       0.27521568 </v>
    <v>       0.75000000       0.16879896       0.72478432 </v>
    <v>       0.75000000       0.73002983       0.05045846 </v>
    <v>       0.25000000       0.26997017       0.94954154 </v>
    <v>       0.75000000       0.60671339       0.42872995 </v>
    <v>       0.25000000       0.39328661       0.57127005 </v>
    <v>       0.25000000       0.45845116       0.39413492 </v>
    <v>       0.75000000       0.54154884       0.60586508 </v>
    <v>       0.25000000       0.59981730       0.03792548 </v>
    <v>       0.75000000       0.40018270       0.96207452 </v>
    <v>       0.75000000       0.98572078       0.29438499 </v>
    <v>       0.25000000       0.01427922       0.70561501 </v>
    <v>       0.75000000       0.79875465       0.86330624 </v>
    <v>       0.25000000       0.20124535       0.13669376 </v>
    <v>       0.25000000       0.75484608       0.45100344 </v>
    <v>       0.75000000       0.24515392       0.54899656 </v>
    <v>       0.75000000       0.69259270       0.24046953 </v>
    <v>       0.25000000       0.30740730       0.75953047 </v>
    <v>       0.25000000       0.90386918       0.08331662 </v>
    <v>       0.75000000       0.09613082       0.91668338 </v>
   </varray>
  </structure>
  <varray name="forces" >
   <v>       0.00000000      -0.13656350       0.24991018 </v>
   <v>       0.00000000       0.13656350      -0.24991018 </v>
   <v>       0.00000000       0.11349459      -0.05032269 </v>
   <v>       0.00000000      -0.11349459       0.05032269 </v>
   <v>       0.00000000      -0.02670548       0.01677287 </v>
   <v>       0.00000000       0.02670548      -0.01677287 </v>
   <v>       0.00000000       0.04635017       0.02899301 </v>
   <v>       0.00000000      -0.04635017      -0.02899301 </v>
   <v>       0.00000000      -0.04668710       0.00427630 </v>
   <v>       0.00000000       0.04668710      -0.00427630 </v>
   <v>       0.00000000       0.01522761      -0.00255210 </v>
   <v>       0.00000000      -0.01522761       0.00255210 </v>
   <v>       0.00000000      -0.09437345      -0.10497883 </v>
   <v>       0.00000000       0.09437345       0.10497883 </v>
   <v>       0.00000000      -0.02514533      -0.05954439 </v>
   <v>       0.00000000       0.02514533       0.05954439 </v>
   <v>       0.00000000       0.26469709       0.14187779 </v>
   <v>       0.00000000      -0.26469709      -0.14187779 </v>
   <v>       0.00000000      -0.08029124      -0.16144574 </v>
   <v>       0.00000000       0.08029124       0.16144574 </v>
   <v>       0.00000000       0.04358094       0.33770574 </v>
   <v>       0.00000000      -0.04358094      -0.33770574 </v>
   <v>       0.00000000      -0.10738031      -0.01996151 </v>
   <v>       0.00000000       0.10738031       0.01996151 </v>
   <v>       0.00000000       0.01766740       0.04399196 </v>
   <v>       0.00000000      -0.01766740      -0.04399196 </v>
  </varray>
  <varray name="stress" >
   <v>      -9.33782108       0.00000000       0.00000000 </v>
   <v>       0.00000000     -13.39762155      -5.36600472 </v>
   <v>       0.00000000      -5.36600523     -15.20789407 </v>
  </varray>
  <energy>
   <i name="e_fr_energy">   -108.77814376 </i>
   <i name="e_wo_entrp">   -108.77814376 </i>
   <i name="e_0_energy">     -0.00000000 </i>
  </energy>
  <time name="totalsc">   13.96   14.11</time>
 </calculation>
 <calculation>
  <scstep>
   <time name="dav">    1.44    1.45</time>
   <time name="total">    1.67    1.72</time>
   <energy>
    <i name="alphaZ">    232.92250554 </i>
    <i name="ewald">  -5557.52681351 </i>
    <i name="hartreedc">  -1396.78718541 </i>
    <i name="XCdc">   -658.45635486 </i>
    <i name="pawpsdc">   9792.75154055 </i>
    <i name="pawaedc">  -8798.63177551 </i>
    <i name="eentropy">     -0.00000000 </i>
    <i name="bandstr">   -607.30713581 </i>
    <i name="atom">   6883.84084810 </i>
    <i name="e_fr_energy">   -109.19437092 </i>
    <i name="e_wo_entrp">   -109.19437092 </i>
    <i name="e_0_energy">   -109.19437092 </i>
   </energy>
  </scstep>
  <scstep>
   <time name="dav">    1.22    1.22</time>
   <time name="total">    1.43    1.44</time>
   <energy>
    <i name="e_fr_energy">   -108.91725138 </i>
    <i name="e_wo_entrp">   -108.91725138 </i>
    <i name="e_0_energy">   -108.91725138 </i>
   </energy>
  </scstep>
  <scstep>
   <time name="dav">    1.47    1.48</time>
   <time name="total">    1.69    1.70</time>
   <energy>
    <i name="e_fr_energy">   -108.86400035 </i>
    <i name="e_wo_entrp">   -108.86400035 </i>
    <i name="e_0_energy">   -108.86400035 </i>
   </energy>
  </scstep>
  <scstep>
   <time name="dav">    1.30    1.31</time>
   <time name="total">    1.52    1.52</time>
   <energy>
    <i name="e_fr_energy">   -108.85714186 </i>
    <i name="e_wo_entrp">   -108.85714186 </i>
    <i name="e_0_energy">   -108.85714186 </i>
   </energy>
  </scstep>
  <scstep>
   <time name="dav">    1.59    1.60</time>
   <time name="total">    1.81    1.82</time>
   <energy>
    <i name="e_fr_energy">   -108.85422413 </i>
    <i name="e_wo_entrp">   -108.85422413 </i>
    <i name="e_0_energy">   -108.85422413 </i>
   </energy>
  </scstep>
  <scstep>
   <time name="dav">    1.50    1.51</time>
   <time name="total">    1.72    1.74</time>
   <energy>
    <i name="e_fr_energy">   -108.85371371 </i>
    <i name="e_wo_entrp">   -108.85371371 </i>
    <i name="e_0_energy">   -108.85371371 </i>
   </energy>
  </scstep>
  <scstep>
   <time name="dav">    1.36    1.37</time>
   <time name="total">    1.54    1.54</time>
   <energy>
    <i name="alphaZ">    232.92250554 </i>
    <i name="ewald">  -5557.52681351 </i>
    <i name="hartreedc">  -1366.08154668 </i>
    <i name="XCdc">   -659.73172683 </i>
    <i name="pawpsdc">  10019.93583852 </i>
    <i name="pawaedc">  -9026.17807226 </i>
    <i name="eentropy">     -0.00000000 </i>
    <i name="bandstr">   -636.03478208 </i>
    <i name="atom">   6883.84084810 </i>
    <i name="e_fr_energy">   -108.85374921 </i>
    <i name="e_wo_entrp">   -108.85374921 </i>
    <i name="e_0_energy">   -108.85374921 </i>
   </energy>
  </scstep>
  <structure>
   <crystal>
    <varray name="basis" >
     <v>       4.09228122       0.00000000       0.00000000 </v>
     <v>       0.00000000      12.89745665      -0.01388568 </v>
     <v>       0.00000000       1.12091090      14.87572413 </v>
    </varray>
    <i name="volume">    785.20470684 </i>
    <varray name="rec_basis" >
     <v>       0.24436248       0.00000000       0.00000000 </v>
     <v>       0.00000000       0.07752838      -0.00584189 </v>
     <v>       0.00000000       0.00007237       0.06721817 </v>
    </varray>
   </crystal>
   <varray name="positions" >
    <v>       0.25000000       0.56787845       0.81284494 </v>
    <v>       0.75000000       0.43212155       0.18715506 </v>
    <v>       0.75000000       0.82912439       0.62270151 </v>
    <v>       0.25000000       0.17087561       0.37729849 </v>
    <v>       0.25000000       0.94602446       0.87880070 </v>
    <v>       0.75000000       0.05397554       0.12119930 </v>
    <v>       0.25000000       0.83109670       0.27531201 </v>
    <v>       0.75000000       0.16890330       0.72468799 </v>
    <v>       0.75000000       0.72960657       0.05042751 </v>
    <v>       0.25000000       0.27039343       0.94957249 </v>
    <v>       0.75000000       0.60672260       0.42885769 </v>
    <v>       0.25000000       0.39327740       0.57114231 </v>
    <v>       0.25000000       0.45858863       0.39440910 </v>
    <v>       0.75000000       0.54141137       0.60559090 </v>
    <v>       0.25000000       0.60031203       0.03792298 </v>
    <v>       0.75000000       0.39968797       0.96207702 </v>
    <v>       0.75000000       0.98573520       0.29408528 </v>
    <v>       0.25000000       0.01426480       0.70591472 </v>
    <v>       0.75000000       0.79902006       0.86343668 </v>
    <v>       0.25000000       0.20097994       0.13656332 </v>
    <v>       0.25000000       0.75466557       0.45083630 </v>
    <v>       0.75000000       0.24533443       0.54916370 </v>
    <v>       0.75000000       0.69288281       0.24048498 </v>
    <v>       0.25000000       0.30711719       0.75951502 </v>
    <v>       0.25000000       0.90395555       0.08339891 </v>
    <v>       0.75000000       0.09604445       0.91660109 </v>
   </varray>
  </structure>
  <varray name="forces" >
   <v>       0.00000000      -0.11962443       0.23544813 </v>
   <v>       0.00000000       0.11962443      -0.23544813 </v>
   <v>       0.00000000       0.11622029      -0.04271942 </v>
   <v>       0.00000000      -0.11622029       0.04271942 </v>
   <v>       0.00000000      -0.02992633       0.15493340 </v>
   <v>       0.00000000       0.02992633      -0.15493340 </v>
   <v>       0.00000000       0.10232055      -0.04735958 </v>
   <v>       0.00000000      -0.10232055       0.04735958 </v>
   <v>       0.00000000       0.18498357       0.01993600 </v>
   <v>       0.00000000      -0.18498357      -0.01993600 </v>
   <v>       0.00000000       0.05064647      -0.12633561 </v>
   <v>       0.00000000      -0.05064647       0.12633561 </v>
   <v>       0.00000000      -0.24785283      -0.32975965 </v>
   <v>       0.00000000       0.24785283       0.32975965 </v>
   <v>       0.00000000      -0.33877553      -0.08576993 </v>
   <v>       0.00000000       0.33877553       0.08576993 </v>
   <v>       0.00000000       0.35294359       0.35773973 </v>
   <v>       0.00000000      -0.35294359      -0.35773973 </v>
   <v>       0.00000000      -0.25748274      -0.30223255 </v>
   <v>       0.00000000       0.25748274       0.30223255 </v>
   <v>       0.00000000       0.15573017       0.52213065 </v>
   <v>       0.00000000      -0.15573017      -0.52213065 </v>
   <v>       0.00000000      -0.24921043      -0.03373107 </v>
   <v>       0.00000000       0.24921043       0.03373107 </v>
   <v>       0.00000000      -0.04535446      -0.00318916 </v>
   <v>       0.00000000       0.04535446       0.00318916 </v>
  </varray>
  <varray name="stress" >
   <v>       4.50463473       0.00000000       0.00000000 </v>
   <v>       0.00000000      -0.61440892      -5.69175485 </v>
   <v>       0.00000000      -5.69175581      -1.80685169 </v>
  </varray>
  <energy>
   <i name="e_fr_energy">   -108.85374921 </i>
   <i name="e_wo_entrp">   -108.85374921 </i>
   <i name="e_0_energy">     -0.00000000 </i>
  </energy>
  <time name="totalsc">   13.02   13.24</time>
 </calculation>
 <calculation>
  <scstep>
   <time name="dav">    1.38    1.39</time>
   <time name="total">    1.61    1.69</time>
   <energy>
    <i name="alphaZ">    232.13610934 </i>
    <i name="ewald">  -5551.66971477 </i>
    <i name="hartreedc">  -1364.16903972 </i>
    <i name="XCdc">   -660.05584888 </i>
    <i name="pawpsdc">  10018.40291469 </i>
    <i name="pawaedc">  -9024.64069903 </i>
    <i name="eentropy">     -0.00000000 </i>
    <i name="bandstr">   -642.70515978 </i>
    <i name="atom">   6883.84084810 </i>
    <i name="e_fr_energy">   -108.86059006 </i>
    <i name="e_wo_entrp">   -108.86059006 </i>
    <i name="e_0_energy">   -108.86059006 </i>
   </energy>
  </scstep>
  <scstep>
   <time name="dav">    1.08    1.09</time>
   <time name="total">    1.30    1.31</time>
   <energy>
    <i name="e_fr_energy">   -108.85618038 </i>
    <i name="e_wo_entrp">   -108.85618038 </i>
    <i name="e_0_energy">   -108.85618038 </i>
   </energy>
  </scstep>
  <scstep>
   <time name="dav">    1.39    1.39</time>
   <time name="total">    1.61    1.63</time>
   <energy>
    <i name="e_fr_energy">   -108.85532817 </i>
    <i name="e_wo_entrp">   -108.85532817 </i>
    <i name="e_0_energy">   -108.85532817 </i>
   </energy>
  </scstep>
  <scstep>
   <time name="dav">    0.98    0.98</time>
   <time name="total">    1.20    1.20</time>
   <energy>
    <i name="e_fr_energy">   -108.85518023 </i>
    <i name="e_wo_entrp">   -108.85518023 </i>
    <i name="e_0_energy">   -108.85518023 </i>
   </energy>
  </scstep>
  <scstep>
   <time name="dav">    1.00    1.00</time>
   <time name="total">    1.17    1.18</time>
   <energy>
    <i name="alphaZ">    232.13610934 </i>
    <i name="ewald">  -5551.66971477 </i>
    <i name="hartreedc">  -1367.85721162 </i>
    <i name="XCdc">   -659.90794697 </i>
    <i name="pawpsdc">   9980.05821014 </i>
    <i name="pawaedc">  -8986.25748475 </i>
    <i name="eentropy">     -0.00000000 </i>
    <i name="bandstr">   -639.19792250 </i>
    <i name="atom">   6883.84084810 </i>
    <i name="e_fr_energy">   -108.85511303 </i>
    <i name="e_wo_entrp">   -108.85511303 </i>
    <i name="e_0_energy">   -108.85511303 </i>
   </energy>
  </scstep>
  <structure>
   <crystal>
    <varray name="basis" >
     <v>       4.09657914       0.00000000       0.00000000 </v>
     <v>       0.00000000      12.91207151      -0.01233461 </v>
     <v>       0.00000000       1.12398942      14.89371594 </v>
    </varray>
    <i name="volume">    787.86470661 </i>
    <varray name="rec_basis" >
     <v>       0.24410611       0.00000000       0.00000000 </v>
     <v>       0.00000000       0.07744132      -0.00584429 </v>
     <v>       0.00000000       0.00006414       0.06713757 </v>
    </varray>
   </crystal>
   <varray name="positions" >
    <v>       0.25000000       0.56789625       0.81282297 </v>
    <v>       0.75000000       0.43210375       0.18717703 </v>
    <v>       0.75000000       0.82911360       0.62270595 </v>
    <v>       0.25000000       0.17088640       0.37729405 </v>
    <v>       0.25000000       0.94602743       0.87882908 </v>
    <v>       0.75000000       0.05397257       0.12117092 </v>
    <v>       0.25000000       0.83111003       0.27529970 </v>
    <v>       0.75000000       0.16888997       0.72470030 </v>
    <v>       0.75000000       0.72966070       0.05043152 </v>
    <v>       0.25000000       0.27033930       0.94956848 </v>
    <v>       0.75000000       0.60672141       0.42884134 </v>
    <v>       0.25000000       0.39327859       0.57115866 </v>
    <v>       0.25000000       0.45857102       0.39437400 </v>
    <v>       0.75000000       0.54142898       0.60562600 </v>
    <v>       0.25000000       0.60024877       0.03792325 </v>
    <v>       0.75000000       0.39975123       0.96207675 </v>
    <v>       0.75000000       0.98573339       0.29412363 </v>
    <v>       0.25000000       0.01426661       0.70587637 </v>
    <v>       0.75000000       0.79898610       0.86341997 </v>
    <v>       0.25000000       0.20101390       0.13658003 </v>
    <v>       0.25000000       0.75468867       0.45085771 </v>
    <v>       0.75000000       0.24531133       0.54914229 </v>
    <v>       0.75000000       0.69284571       0.24048297 </v>
    <v>       0.25000000       0.30715429       0.75951703 </v>
    <v>       0.25000000       0.90394449       0.08338837 </v>
    <v>       0.75000000       0.09605551       0.91661163 </v>
   </varray>
  </structure>
  <varray name="forces" >
   <v>       0.00000000      -0.12154372       0.23769711 </v>
   <v>       0.00000000       0.12154372      -0.23769711 </v>
   <v>       0.00000000       0.11525337      -0.04331592 </v>
   <v>       0.00000000      -0.11525337       0.04331592 </v>
   <v>       0.00000000      -0.03405629       0.13788773 </v>
   <v>       0.00000000       0.03405629      -0.13788773 </v>
   <v>       0.00000000       0.10081243      -0.03508645 </v>
   <v>       0.00000000      -0.10081243       0.03508645 </v>
   <v>       0.00000000       0.15791556       0.01741657 </v>
   <v>       0.00000000      -0.15791556      -0.01741657 </v>
   <v>       0.00000000       0.05161861      -0.10889236 </v>
   <v>       0.00000000      -0.05161861       0.10889236 </v>
   <v>       0.00000000      -0.24212749      -0.29205409 </v>
   <v>       0.00000000       0.24212749       0.29205409 </v>
   <v>       0.00000000      -0.28552365      -0.07614631 </v>
   <v>       0.00000000       0.28552365       0.07614631 </v>
   <v>       0.00000000       0.33848108       0.32012274 </v>
   <v>       0.00000000      -0.33848108      -0.32012274 </v>
   <v>       0.00000000      -0.24195531      -0.28340601 </v>
   <v>       0.00000000       0.24195531       0.28340601 </v>
   <v>       0.00000000       0.13544151       0.49132560 </v>
   <v>       0.00000000      -0.13544151      -0.49132560 </v>
   <v>       0.00000000      -0.23534846      -0.02566117 </v>
   <v>       0.00000000       0.23534846       0.02566117 </v>
   <v>       0.00000000      -0.03797363       0.00281780 </v>
   <v>       0.00000000       0.03797363      -0.00281780 </v>
  </varray>
  <varray name="stress" >
   <v>       2.73711394       0.00000000       0.00000000 </v>
   <v>       0.00000000      -1.96952650      -5.60320594 </v>
   <v>       0.00000000      -5.60320564      -3.55935806 </v>
  </varray>
  <energy>
   <i name="e_fr_energy">   -108.85511303 </i>
   <i name="e_wo_entrp">   -108.85511303 </i>
   <i name="e_0_energy">     -0.00000000 </i>
  </energy>
  <time name="totalsc">    8.46    8.68</time>
 </calculation>
 <calculation>
  <scstep>
   <time name="dav">    0.95    0.95</time>
   <time name="total">    1.17    1.20</time>
   <energy>
    <i name="alphaZ">    232.70559351 </i>
    <i name="ewald">  -5561.47181820 </i>
    <i name="hartreedc">  -1364.52080824 </i>
    <i name="XCdc">   -659.73940681 </i>
    <i name="pawpsdc">   9984.95493180 </i>
    <i name="pawaedc">  -8991.14247283 </i>
    <i name="eentropy">     -0.00000000 </i>
    <i name="bandstr">   -633.52834067 </i>
    <i name="atom">   6883.84084810 </i>
    <i name="e_fr_energy">   -108.90147334 </i>
    <i name="e_wo_entrp">   -108.90147334 </i>
    <i name="e_0_energy">   -108.90147334 </i>
   </energy>
  </scstep>
  <scstep>
   <time name="dav">    1.34    1.34</time>
   <time name="total">    1.55    1.55</time>
   <energy>
    <i name="e_fr_energy">   -108.90046042 </i>
    <i name="e_wo_entrp">   -108.90046042 </i>
    <i name="e_0_energy">   -108.90046042 </i>
   </energy>
  </scstep>
  <scstep>
   <time name="dav">    1.41    1.41</time>
   <time name="total">    1.63    1.63</time>
   <energy>
    <i name="e_fr_energy">   -108.89899177 </i>
    <i name="e_wo_entrp">   -108.89899177 </i>
    <i name="e_0_energy">   -108.89899177 </i>
   </energy>
  </scstep>
  <scstep>
   <time name="dav">    1.33    1.33</time>
   <time name="total">    1.55    1.55</time>
   <energy>
    <i name="e_fr_energy">   -108.89821832 </i>
    <i name="e_wo_entrp">   -108.89821832 </i>
    <i name="e_0_energy">   -108.89821832 </i>
   </energy>
  </scstep>
  <scstep>
   <time name="dav">    1.29    1.29</time>
   <time name="total">    1.46    1.46</time>
   <energy>
    <i name="alphaZ">    232.70559351 </i>
    <i name="ewald">  -5561.47181820 </i>
    <i name="hartreedc">  -1361.14417636 </i>
    <i name="XCdc">   -659.86212775 </i>
    <i name="pawpsdc">   9992.93907318 </i>
    <i name="pawaedc">  -8999.12860055 </i>
    <i name="eentropy">     -0.00000000 </i>
    <i name="bandstr">   -636.77693073 </i>
    <i name="atom">   6883.84084810 </i>
    <i name="e_fr_energy">   -108.89813880 </i>
    <i name="e_wo_entrp">   -108.89813880 </i>
    <i name="e_0_energy">   -108.89813880 </i>
   </energy>
  </scstep>
  <structure>
   <crystal>
    <varray name="basis" >
     <v>       4.09768594       0.00000000       0.00000000 </v>
     <v>       0.00000000      12.89769724      -0.03374217 </v>
     <v>       0.00000000       1.09802057      14.86800769 </v>
    </varray>
    <i name="volume">    785.93662028 </i>
    <varray name="rec_basis" >
     <v>       0.24404018       0.00000000       0.00000000 </v>
     <v>       0.00000000       0.07751824      -0.00572482 </v>
     <v>       0.00000000       0.00017592       0.06724551 </v>
    </varray>
   </crystal>
   <varray name="positions" >
    <v>       0.25000000       0.56772389       0.81307531 </v>
    <v>       0.75000000       0.43227611       0.18692469 </v>
    <v>       0.75000000       0.82925787       0.62265983 </v>
    <v>       0.25000000       0.17074213       0.37734017 </v>
    <v>       0.25000000       0.94597385       0.87895470 </v>
    <v>       0.75000000       0.05402615       0.12104530 </v>
    <v>       0.25000000       0.83122446       0.27527040 </v>
    <v>       0.75000000       0.16877554       0.72472960 </v>
    <v>       0.75000000       0.72981674       0.05044733 </v>
    <v>       0.25000000       0.27018326       0.94955267 </v>
    <v>       0.75000000       0.60679209       0.42873909 </v>
    <v>       0.25000000       0.39320791       0.57126091 </v>
    <v>       0.25000000       0.45832216       0.39409498 </v>
    <v>       0.75000000       0.54167784       0.60590502 </v>
    <v>       0.25000000       0.59995309       0.03784552 </v>
    <v>       0.75000000       0.40004691       0.96215448 </v>
    <v>       0.75000000       0.98610243       0.29442960 </v>
    <v>       0.25000000       0.01389757       0.70557040 </v>
    <v>       0.75000000       0.79874495       0.86314043 </v>
    <v>       0.25000000       0.20125505       0.13685957 </v>
    <v>       0.25000000       0.75479219       0.45134588 </v>
    <v>       0.75000000       0.24520781       0.54865412 </v>
    <v>       0.75000000       0.69259110       0.24045770 </v>
    <v>       0.25000000       0.30740890       0.75954230 </v>
    <v>       0.25000000       0.90390536       0.08339652 </v>
    <v>       0.75000000       0.09609464       0.91660348 </v>
   </varray>
  </structure>
  <varray name="forces" >
   <v>      -0.00000000      -0.11602241       0.22875457 </v>
   <v>       0.00000000       0.11602241      -0.22875457 </v>
   <v>      -0.00000000       0.10792871      -0.04164591 </v>
   <v>      -0.00000000      -0.10792871       0.04164591 </v>
   <v>      -0.00000000      -0.05953268       0.10639630 </v>
   <v>      -0.00000000       0.05953268      -0.10639630 </v>
   <v>      -0.00000000       0.10156119       0.01660173 </v>
   <v>      -0.00000000      -0.10156119      -0.01660173 </v>
   <v>      -0.00000000       0.10641717      -0.00595757 </v>
   <v>      -0.00000000      -0.10641717       0.00595757 </v>
   <v>      -0.00000000       0.04270063      -0.08811013 </v>
   <v>      -0.00000000      -0.04270063       0.08811013 </v>
   <v>      -0.00000000      -0.21667435      -0.28902940 </v>
   <v>      -0.00000000       0.21667435       0.28902940 </v>
   <v>      -0.00000000      -0.26109106      -0.10077189 </v>
   <v>      -0.00000000       0.26109106       0.10077189 </v>
   <v>      -0.00000000       0.32178417       0.30763566 </v>
   <v>      -0.00000000      -0.32178417      -0.30763566 </v>
   <v>      -0.00000000      -0.24057162      -0.27801124 </v>
   <v>      -0.00000000       0.24057162       0.27801124 </v>
   <v>      -0.00000000       0.13784732       0.42583219 </v>
   <v>      -0.00000000      -0.13784732      -0.42583219 </v>
   <v>      -0.00000000      -0.23687949      -0.04593908 </v>
   <v>      -0.00000000       0.23687949       0.04593908 </v>
   <v>      -0.00000000      -0.03659966      -0.00243990 </v>
   <v>      -0.00000000       0.03659966       0.00243990 </v>
  </varray>
  <varray name="stress" >
   <v>       2.26023109       0.00000000       0.00000000 </v>
   <v>       0.00000000      -2.25571250      -5.22753013 </v>
   <v>       0.00000000      -5.22753068      -3.65900988 </v>
  </varray>
  <energy>
   <i name="e_fr_energy">   -108.89813880 </i>
   <i name="e_wo_entrp">   -108.89813880 </i>
   <i name="e_0_energy">     -0.00000000 </i>
  </energy>
  <time name="totalsc">    9.09    9.24</time>
 </calculation>
 <calculation>
  <scstep>
   <time name="dav">    1.29    1.31</time>
   <time name="total">    1.52    1.57</time>
   <energy>
    <i name="alphaZ">    234.43577693 </i>
    <i name="ewald">  -5590.40764612 </i>
    <i name="hartreedc">  -1351.27514928 </i>
    <i name="XCdc">   -659.36305942 </i>
    <i name="pawpsdc">   9990.91241369 </i>
    <i name="pawaedc">  -8997.10410798 </i>
    <i name="eentropy">     -0.00000000 </i>
    <i name="bandstr">   -620.07526367 </i>
    <i name="atom">   6883.84084810 </i>
    <i name="e_fr_energy">   -109.03618776 </i>
    <i name="e_wo_entrp">   -109.03618776 </i>
    <i name="e_0_energy">   -109.03618776 </i>
   </energy>
  </scstep>
  <scstep>
   <time name="dav">    1.08    1.09</time>
   <time name="total">    1.30    1.30</time>
   <energy>
    <i name="e_fr_energy">   -109.02546879 </i>
    <i name="e_wo_entrp">   -109.02546879 </i>
    <i name="e_0_energy">   -109.02546879 </i>
   </energy>
  </scstep>
  <scstep>
   <time name="dav">    1.41    1.41</time>
   <time name="total">    1.63    1.63</time>
   <energy>
    <i name="e_fr_energy">   -109.01193704 </i>
    <i name="e_wo_entrp">   -109.01193704 </i>
    <i name="e_0_energy">   -109.01193704 </i>
   </energy>
  </scstep>
  <scstep>
   <time name="dav">    1.58    1.58</time>
   <time name="total">    1.80    1.80</time>
   <energy>
    <i name="e_fr_energy">   -109.00524195 </i>
    <i name="e_wo_entrp">   -109.00524195 </i>
    <i name="e_0_energy">   -109.00524195 </i>
   </energy>
  </scstep>
  <scstep>
   <time name="dav">    1.47    1.47</time>
   <time name="total">    1.69    1.69</time>
   <energy>
    <i name="e_fr_energy">   -109.00436409 </i>
    <i name="e_wo_entrp">   -109.00436409 </i>
    <i name="e_0_energy">   -109.00436409 </i>
   </energy>
  </scstep>
  <scstep>
   <time name="dav">    1.35    1.35</time>
   <time name="total">    1.53    1.53</time>
   <energy>
    <i name="alphaZ">    234.43577693 </i>
    <i name="ewald">  -5590.40764612 </i>
    <i name="hartreedc">  -1340.82122199 </i>
    <i name="XCdc">   -659.75583247 </i>
    <i name="pawpsdc">   9997.78162121 </i>
    <i name="pawaedc">  -9003.99171115 </i>
    <i name="eentropy">     -0.00000000 </i>
    <i name="bandstr">   -630.08612514 </i>
    <i name="atom">   6883.84084810 </i>
    <i name="e_fr_energy">   -109.00429063 </i>
    <i name="e_wo_entrp">   -109.00429063 </i>
    <i name="e_0_energy">   -109.00429063 </i>
   </energy>
  </scstep>
  <structure>
   <crystal>
    <varray name="basis" >
     <v>       4.10100635       0.00000000       0.00000000 </v>
     <v>       0.00000000      12.85457446      -0.09796484 </v>
     <v>       0.00000000       1.02011401      14.79088294 </v>
    </varray>
    <i name="volume">    780.13624915 </i>
    <varray name="rec_basis" >
     <v>       0.24384259       0.00000000       0.00000000 </v>
     <v>       0.00000000       0.07775245      -0.00536252 </v>
     <v>       0.00000000       0.00051498       0.06757370 </v>
    </varray>
   </crystal>
   <varray name="positions" >
    <v>       0.25000000       0.56720769       0.81383289 </v>
    <v>       0.75000000       0.43279231       0.18616711 </v>
    <v>       0.75000000       0.82969085       0.62252187 </v>
    <v>       0.25000000       0.17030915       0.37747813 </v>
    <v>       0.25000000       0.94581368       0.87933198 </v>
    <v>       0.75000000       0.05418632       0.12066802 </v>
    <v>       0.25000000       0.83156792       0.27518285 </v>
    <v>       0.75000000       0.16843208       0.72481715 </v>
    <v>       0.75000000       0.73028539       0.05049554 </v>
    <v>       0.25000000       0.26971461       0.94950446 </v>
    <v>       0.75000000       0.60700377       0.42843213 </v>
    <v>       0.25000000       0.39299623       0.57156787 </v>
    <v>       0.25000000       0.45757330       0.39325538 </v>
    <v>       0.75000000       0.54242670       0.60674462 </v>
    <v>       0.25000000       0.59906476       0.03761064 </v>
    <v>       0.75000000       0.40093524       0.96238936 </v>
    <v>       0.75000000       0.98721237       0.29535070 </v>
    <v>       0.25000000       0.01278763       0.70464930 </v>
    <v>       0.75000000       0.79801921       0.86229932 </v>
    <v>       0.25000000       0.20198079       0.13770068 </v>
    <v>       0.25000000       0.75510578       0.45281340 </v>
    <v>       0.75000000       0.24489422       0.54718660 </v>
    <v>       0.75000000       0.69182639       0.24038066 </v>
    <v>       0.25000000       0.30817361       0.75961934 </v>
    <v>       0.25000000       0.90378789       0.08342086 </v>
    <v>       0.75000000       0.09621211       0.91657914 </v>
   </varray>
  </structure>
  <varray name="forces" >
   <v>       0.00000000      -0.09681121       0.19944766 </v>
   <v>       0.00000000       0.09681121      -0.19944766 </v>
   <v>       0.00000000       0.08966358      -0.03907298 </v>
   <v>       0.00000000      -0.08966358       0.03907298 </v>
   <v>       0.00000000      -0.14957330       0.00403891 </v>
   <v>       0.00000000       0.14957330      -0.00403891 </v>
   <v>       0.00000000       0.10007868       0.15169844 </v>
   <v>       0.00000000      -0.10007868      -0.15169844 </v>
   <v>       0.00000000      -0.04714641      -0.05013065 </v>
   <v>       0.00000000       0.04714641       0.05013065 </v>
   <v>       0.00000000      -0.00674662       0.01566321 </v>
   <v>       0.00000000       0.00674662      -0.01566321 </v>
   <v>       0.00000000      -0.16457618      -0.22282356 </v>
   <v>       0.00000000       0.16457618       0.22282356 </v>
   <v>       0.00000000      -0.15550984      -0.11387993 </v>
   <v>       0.00000000       0.15550984       0.11387993 </v>
   <v>       0.00000000       0.23748508       0.24001427 </v>
   <v>       0.00000000      -0.23748508      -0.24001427 </v>
   <v>       0.00000000      -0.22560876      -0.25689894 </v>
   <v>       0.00000000       0.22560876       0.25689894 </v>
   <v>       0.00000000       0.15746337       0.33554698 </v>
   <v>       0.00000000      -0.15746337      -0.33554698 </v>
   <v>       0.00000000      -0.17129917      -0.03495035 </v>
   <v>       0.00000000       0.17129917       0.03495035 </v>
   <v>       0.00000000      -0.02257408      -0.01507497 </v>
   <v>       0.00000000       0.02257408       0.01507497 </v>
  </varray>
  <varray name="stress" >
   <v>       1.64441017       0.00000000       0.00000000 </v>
   <v>       0.00000000      -1.75570487      -3.30315896 </v>
   <v>       0.00000000      -3.30315961      -2.59783789 </v>
  </varray>
  <energy>
   <i name="e_fr_energy">   -109.00429063 </i>
   <i name="e_wo_entrp">   -109.00429063 </i>
   <i name="e_0_energy">     -0.00000000 </i>
  </energy>
  <time name="totalsc">   11.09   11.22</time>
 </calculation>
 <calculation>
  <scstep>
   <time name="dav">    1.12    1.13</time>
   <time name="total">    1.35    1.42</time>
   <energy>
    <i name="alphaZ">    237.99698053 </i>
    <i name="ewald">  -5646.26976222 </i>
    <i name="hartreedc">  -1323.42205059 </i>
    <i name="XCdc">   -658.72953409 </i>
    <i name="pawpsdc">   9987.72959850 </i>
    <i name="pawaedc">  -8993.94232483 </i>
    <i name="eentropy">     -0.00000000 </i>
    <i name="bandstr">   -596.44026451 </i>
    <i name="atom">   6883.84084810 </i>
    <i name="e_fr_energy">   -109.23650913 </i>
    <i name="e_wo_entrp">   -109.23650913 </i>
    <i name="e_0_energy">   -109.23650913 </i>
   </energy>
  </scstep>
  <scstep>
   <time name="dav">    1.34    1.34</time>
   <time name="total">    1.55    1.55</time>
   <energy>
    <i name="e_fr_energy">   -109.18936010 </i>
    <i name="e_wo_entrp">   -109.18936010 </i>
    <i name="e_0_energy">   -109.18936010 </i>
   </energy>
  </scstep>
  <scstep>
   <time name="dav">    1.20    1.20</time>
   <time name="total">    1.41    1.41</time>
   <energy>
    <i name="e_fr_energy">   -109.13517091 </i>
    <i name="e_wo_entrp">   -109.13517091 </i>
    <i name="e_0_energy">   -109.13517091 </i>
   </energy>
  </scstep>
  <scstep>
   <time name="dav">    1.53    1.53</time>
   <time name="total">    1.75    1.75</time>
   <energy>
    <i name="e_fr_energy">   -109.11018283 </i>
    <i name="e_wo_entrp">   -109.11018283 </i>
    <i name="e_0_energy">   -109.11018283 </i>
   </energy>
  </scstep>
  <scstep>
   <time name="dav">    1.56    1.56</time>
   <time name="total">    1.78    1.78</time>
   <energy>
    <i name="e_fr_energy">   -109.10655649 </i>
    <i name="e_wo_entrp">   -109.10655649 </i>
    <i name="e_0_energy">   -109.10655649 </i>
   </energy>
  </scstep>
  <scstep>
   <time name="dav">    1.36    1.36</time>
   <time name="total">    1.58    1.58</time>
   <energy>
    <i name="e_fr_energy">   -109.10623719 </i>
    <i name="e_wo_entrp">   -109.10623719 </i>
    <i name="e_0_energy">   -109.10623719 </i>
   </energy>
  </scstep>
  <scstep>
   <time name="dav">    1.41    1.41</time>
   <time name="total">    1.59    1.59</time>
   <energy>
    <i name="alphaZ">    237.99698053 </i>
    <i name="ewald">  -5646.26976222 </i>
    <i name="hartreedc">  -1302.63075794 </i>
    <i name="XCdc">   -659.53350278 </i>
    <i name="pawpsdc">  10001.03351364 </i>
    <i name="pawaedc">  -9007.30312365 </i>
    <i name="eentropy">     -0.00000000 </i>
    <i name="bandstr">   -616.24040061 </i>
    <i name="atom">   6883.84084810 </i>
    <i name="e_fr_energy">   -109.10620493 </i>
    <i name="e_wo_entrp">   -109.10620493 </i>
    <i name="e_0_energy">   -109.10620493 </i>
   </energy>
  </scstep>
  <structure>
   <crystal>
    <varray name="basis" >
     <v>       4.10764718       0.00000000       0.00000000 </v>
     <v>       0.00000000      12.76832889      -0.22641017 </v>
     <v>       0.00000000       0.86430090      14.63663344 </v>
    </varray>
    <i name="volume">    768.46289090 </i>
    <varray name="rec_basis" >
     <v>       0.24344837       0.00000000       0.00000000 </v>
     <v>       0.00000000       0.07823686      -0.00461993 </v>
     <v>       0.00000000       0.00121023       0.06825026 </v>
    </varray>
   </crystal>
   <varray name="positions" >
    <v>       0.25000000       0.56618073       0.81535151 </v>
    <v>       0.75000000       0.43381927       0.18464849 </v>
    <v>       0.75000000       0.83055785       0.62224827 </v>
    <v>       0.25000000       0.16944215       0.37775173 </v>
    <v>       0.25000000       0.94549662       0.88008912 </v>
    <v>       0.75000000       0.05450338       0.11991088 </v>
    <v>       0.25000000       0.83225592       0.27500982 </v>
    <v>       0.75000000       0.16774408       0.72499018 </v>
    <v>       0.75000000       0.73122606       0.05059654 </v>
    <v>       0.25000000       0.26877394       0.94940346 </v>
    <v>       0.75000000       0.60742495       0.42781681 </v>
    <v>       0.25000000       0.39257505       0.57218319 </v>
    <v>       0.25000000       0.45606159       0.39156083 </v>
    <v>       0.75000000       0.54393841       0.60843917 </v>
    <v>       0.25000000       0.59728009       0.03713067 </v>
    <v>       0.75000000       0.40271991       0.96286933 </v>
    <v>       0.75000000       0.98944932       0.29721226 </v>
    <v>       0.25000000       0.01055068       0.70278774 </v>
    <v>       0.75000000       0.79655388       0.86060193 </v>
    <v>       0.25000000       0.20344612       0.13939807 </v>
    <v>       0.25000000       0.75575141       0.45576657 </v>
    <v>       0.75000000       0.24424859       0.54423343 </v>
    <v>       0.75000000       0.69029150       0.24021909 </v>
    <v>       0.25000000       0.30970850       0.75978091 </v>
    <v>       0.25000000       0.90355252       0.08346875 </v>
    <v>       0.75000000       0.09644748       0.91653125 </v>
   </varray>
  </structure>
  <varray name="forces" >
   <v>       0.00000000      -0.05652013       0.12841792 </v>
   <v>       0.00000000       0.05652013      -0.12841792 </v>
   <v>       0.00000000       0.04432104      -0.02631190 </v>
   <v>       0.00000000      -0.04432104       0.02631190 </v>
   <v>       0.00000000      -0.30646744      -0.23820222 </v>
   <v>       0.00000000       0.30646744       0.23820222 </v>
   <v>       0.00000000       0.06679016       0.44192783 </v>
   <v>       0.00000000      -0.06679016      -0.44192783 </v>
   <v>       0.00000000      -0.34858243      -0.20670831 </v>
   <v>       0.00000000       0.34858243       0.20670831 </v>
   <v>       0.00000000      -0.13470774       0.19943748 </v>
   <v>       0.00000000       0.13470774      -0.19943748 </v>
   <v>       0.00000000      -0.12260459      -0.16511535 </v>
   <v>       0.00000000       0.12260459       0.16511535 </v>
[...]
        <r>  0.0011  0.0022  0.0046 </r>
        <r>  0.0001  0.0427  0.0010 </r>
        <r>  0.0001  0.0427  0.0010 </r>
        <r>  0.0003  0.0513  0.0007 </r>
        <r>  0.0003  0.0513  0.0007 </r>
        <r>  0.0004  0.0146  0.0022 </r>
        <r>  0.0004  0.0146  0.0022 </r>
        <r>  0.0002  0.0576  0.0004 </r>
        <r>  0.0002  0.0576  0.0004 </r>
        <r>  0.0056  0.0178  0.0000 </r>
        <r>  0.0056  0.0178  0.0000 </r>
        <r>  0.0009  0.0076  0.0000 </r>
        <r>  0.0009  0.0076  0.0000 </r>
        <r>  0.0053  0.0131  0.0000 </r>
        <r>  0.0053  0.0131  0.0000 </r>
        <r>  0.0021  0.0099  0.0000 </r>
        <r>  0.0021  0.0099  0.0000 </r>
        <r>  0.0086  0.0183  0.0000 </r>
        <r>  0.0086  0.0183  0.0000 </r>
        <r>  0.0006  0.0083  0.0000 </r>
        <r>  0.0006  0.0083  0.0000 </r>
        <r>  0.0007  0.0146  0.0000 </r>
        <r>  0.0007  0.0146  0.0000 </r>
       </set>
       <set comment="band 84">
        <r>  0.0020  0.0018  0.0031 </r>
        <r>  0.0020  0.0018  0.0031 </r>
        <r>  0.0003  0.0015  0.0009 </r>
        <r>  0.0003  0.0015  0.0009 </r>
        <r>  0.0006  0.1008  0.0021 </r>
        <r>  0.0006  0.1008  0.0021 </r>
        <r>  0.0001  0.0079  0.0003 </r>
        <r>  0.0001  0.0079  0.0003 </r>
        <r>  0.0058  0.0886  0.0036 </r>
        <r>  0.0058  0.0886  0.0036 </r>
        <r>  0.0001  0.0098  0.0001 </r>
        <r>  0.0001  0.0098  0.0001 </r>
        <r>  0.0006  0.0026  0.0000 </r>
        <r>  0.0006  0.0026  0.0000 </r>
        <r>  0.0052  0.0360  0.0000 </r>
        <r>  0.0052  0.0360  0.0000 </r>
        <r>  0.0005  0.0047  0.0000 </r>
        <r>  0.0005  0.0047  0.0000 </r>
        <r>  0.0022  0.0253  0.0000 </r>
        <r>  0.0022  0.0253  0.0000 </r>
        <r>  0.0001  0.0042  0.0000 </r>
        <r>  0.0001  0.0042  0.0000 </r>
        <r>  0.0004  0.0029  0.0000 </r>
        <r>  0.0004  0.0029  0.0000 </r>
        <r>  0.0006  0.0033  0.0000 </r>
        <r>  0.0006  0.0033  0.0000 </r>
       </set>
       <set comment="band 85">
        <r>  0.0001  0.0021  0.0026 </r>
        <r>  0.0001  0.0021  0.0026 </r>
        <r>  0.0023  0.0065  0.0041 </r>
        <r>  0.0023  0.0065  0.0041 </r>
        <r>  0.0013  0.0235  0.0014 </r>
        <r>  0.0013  0.0235  0.0014 </r>
        <r>  0.0000  0.0841  0.0010 </r>
        <r>  0.0000  0.0841  0.0010 </r>
        <r>  0.0008  0.0427  0.0013 </r>
        <r>  0.0008  0.0427  0.0013 </r>
        <r>  0.0005  0.0460  0.0002 </r>
        <r>  0.0005  0.0460  0.0002 </r>
        <r>  0.0014  0.0118  0.0000 </r>
        <r>  0.0014  0.0118  0.0000 </r>
        <r>  0.0004  0.0096  0.0000 </r>
        <r>  0.0004  0.0096  0.0000 </r>
        <r>  0.0027  0.0190  0.0000 </r>
        <r>  0.0027  0.0190  0.0000 </r>
        <r>  0.0002  0.0119  0.0000 </r>
        <r>  0.0002  0.0119  0.0000 </r>
        <r>  0.0005  0.0189  0.0000 </r>
        <r>  0.0005  0.0189  0.0000 </r>
        <r>  0.0008  0.0174  0.0000 </r>
        <r>  0.0008  0.0174  0.0000 </r>
        <r>  0.0003  0.0031  0.0000 </r>
        <r>  0.0003  0.0031  0.0000 </r>
       </set>
       <set comment="band 86">
        <r>  0.0003  0.0043  0.0037 </r>
        <r>  0.0003  0.0043  0.0037 </r>
        <r>  0.0012  0.0029  0.0070 </r>
        <r>  0.0012  0.0029  0.0070 </r>
        <r>  0.0001  0.0101  0.0005 </r>
        <r>  0.0001  0.0101  0.0005 </r>
        <r>  0.0001  0.0578  0.0008 </r>
        <r>  0.0001  0.0578  0.0008 </r>
        <r>  0.0001  0.0112  0.0006 </r>
        <r>  0.0001  0.0112  0.0006 </r>
        <r>  0.0001  0.0896  0.0006 </r>
        <r>  0.0001  0.0896  0.0006 </r>
        <r>  0.0051  0.0342  0.0000 </r>
        <r>  0.0051  0.0342  0.0000 </r>
        <r>  0.0007  0.0023  0.0000 </r>
        <r>  0.0007  0.0023  0.0000 </r>
        <r>  0.0011  0.0134  0.0000 </r>
        <r>  0.0011  0.0134  0.0000 </r>
        <r>  0.0001  0.0087  0.0000 </r>
        <r>  0.0001  0.0087  0.0000 </r>
        <r>  0.0051  0.0182  0.0000 </r>
        <r>  0.0051  0.0182  0.0000 </r>
        <r>  0.0037  0.0141  0.0000 </r>
        <r>  0.0037  0.0141  0.0000 </r>
        <r>  0.0002  0.0033  0.0000 </r>
        <r>  0.0002  0.0033  0.0000 </r>
       </set>
       <set comment="band 87">
        <r>  0.0007  0.0068  0.0030 </r>
        <r>  0.0007  0.0068  0.0030 </r>
        <r>  0.0001  0.0011  0.0012 </r>
        <r>  0.0001  0.0011  0.0012 </r>
        <r>  0.0001  0.1097  0.0023 </r>
        <r>  0.0001  0.1097  0.0023 </r>
        <r>  0.0005  0.0204  0.0002 </r>
        <r>  0.0005  0.0204  0.0002 </r>
        <r>  0.0036  0.0331  0.0055 </r>
        <r>  0.0036  0.0331  0.0055 </r>
        <r>  0.0001  0.0314  0.0002 </r>
        <r>  0.0001  0.0314  0.0002 </r>
        <r>  0.0008  0.0096  0.0000 </r>
        <r>  0.0008  0.0096  0.0000 </r>
        <r>  0.0005  0.0342  0.0000 </r>
        <r>  0.0005  0.0342  0.0000 </r>
        <r>  0.0002  0.0085  0.0000 </r>
        <r>  0.0002  0.0085  0.0000 </r>
        <r>  0.0017  0.0203  0.0000 </r>
        <r>  0.0017  0.0203  0.0000 </r>
        <r>  0.0001  0.0044  0.0000 </r>
        <r>  0.0001  0.0044  0.0000 </r>
        <r>  0.0003  0.0086  0.0000 </r>
        <r>  0.0003  0.0086  0.0000 </r>
        <r>  0.0005  0.0094  0.0000 </r>
        <r>  0.0005  0.0094  0.0000 </r>
       </set>
       <set comment="band 88">
        <r>  0.0020  0.0011  0.0057 </r>
        <r>  0.0020  0.0011  0.0057 </r>
        <r>  0.0020  0.0056  0.0026 </r>
        <r>  0.0020  0.0056  0.0026 </r>
        <r>  0.0010  0.0468  0.0012 </r>
        <r>  0.0010  0.0468  0.0012 </r>
        <r>  0.0006  0.0752  0.0004 </r>
        <r>  0.0006  0.0752  0.0004 </r>
        <r>  0.0024  0.0199  0.0014 </r>
        <r>  0.0024  0.0199  0.0014 </r>
        <r>  0.0001  0.0458  0.0001 </r>
        <r>  0.0001  0.0458  0.0001 </r>
        <r>  0.0004  0.0099  0.0000 </r>
        <r>  0.0004  0.0099  0.0000 </r>
        <r>  0.0005  0.0193  0.0000 </r>
        <r>  0.0005  0.0193  0.0000 </r>
        <r>  0.0014  0.0302  0.0000 </r>
        <r>  0.0014  0.0302  0.0000 </r>
        <r>  0.0000  0.0075  0.0000 </r>
        <r>  0.0000  0.0075  0.0000 </r>
        <r>  0.0004  0.0143  0.0000 </r>
        <r>  0.0004  0.0143  0.0000 </r>
        <r>  0.0025  0.0175  0.0000 </r>
        <r>  0.0025  0.0175  0.0000 </r>
        <r>  0.0007  0.0027  0.0000 </r>
        <r>  0.0007  0.0027  0.0000 </r>
       </set>
       <set comment="band 89">
        <r>  0.0003  0.0030  0.0062 </r>
        <r>  0.0003  0.0030  0.0062 </r>
        <r>  0.0058  0.0021  0.0056 </r>
        <r>  0.0058  0.0021  0.0056 </r>
        <r>  0.0001  0.0191  0.0013 </r>
        <r>  0.0001  0.0191  0.0013 </r>
        <r>  0.0002  0.0907  0.0005 </r>
        <r>  0.0002  0.0907  0.0005 </r>
        <r>  0.0002  0.0241  0.0008 </r>
        <r>  0.0002  0.0241  0.0008 </r>
        <r>  0.0000  0.0366  0.0004 </r>
        <r>  0.0000  0.0366  0.0004 </r>
        <r>  0.0031  0.0145  0.0000 </r>
        <r>  0.0031  0.0145  0.0000 </r>
        <r>  0.0047  0.0086  0.0000 </r>
        <r>  0.0047  0.0086  0.0000 </r>
        <r>  0.0004  0.0111  0.0000 </r>
        <r>  0.0004  0.0111  0.0000 </r>
        <r>  0.0018  0.0056  0.0000 </r>
        <r>  0.0018  0.0056  0.0000 </r>
        <r>  0.0014  0.0138  0.0000 </r>
        <r>  0.0014  0.0138  0.0000 </r>
        <r>  0.0000  0.0275  0.0000 </r>
        <r>  0.0000  0.0275  0.0000 </r>
        <r>  0.0001  0.0142  0.0000 </r>
        <r>  0.0001  0.0142  0.0000 </r>
       </set>
       <set comment="band 90">
        <r>  0.0027  0.0018  0.0020 </r>
        <r>  0.0027  0.0018  0.0020 </r>
        <r>  0.0030  0.0063  0.0085 </r>
        <r>  0.0030  0.0063  0.0085 </r>
        <r>  0.0002  0.0101  0.0005 </r>
        <r>  0.0002  0.0101  0.0005 </r>
        <r>  0.0000  0.0532  0.0005 </r>
        <r>  0.0000  0.0532  0.0005 </r>
        <r>  0.0004  0.0044  0.0011 </r>
        <r>  0.0004  0.0044  0.0011 </r>
        <r>  0.0002  0.1055  0.0004 </r>
        <r>  0.0002  0.1055  0.0004 </r>
        <r>  0.0011  0.0186  0.0000 </r>
        <r>  0.0011  0.0186  0.0000 </r>
        <r>  0.0004  0.0078  0.0000 </r>
        <r>  0.0004  0.0078  0.0000 </r>
        <r>  0.0044  0.0125  0.0000 </r>
        <r>  0.0044  0.0125  0.0000 </r>
        <r>  0.0001  0.0056  0.0000 </r>
        <r>  0.0001  0.0056  0.0000 </r>
        <r>  0.0001  0.0335  0.0000 </r>
        <r>  0.0001  0.0335  0.0000 </r>
        <r>  0.0019  0.0226  0.0000 </r>
        <r>  0.0019  0.0226  0.0000 </r>
        <r>  0.0000  0.0028  0.0000 </r>
        <r>  0.0000  0.0028  0.0000 </r>
       </set>
       <set comment="band 91">
        <r>  0.0039  0.0032  0.0042 </r>
        <r>  0.0039  0.0032  0.0042 </r>
        <r>  0.0011  0.0047  0.0075 </r>
        <r>  0.0011  0.0047  0.0075 </r>
        <r>  0.0003  0.0159  0.0019 </r>
        <r>  0.0003  0.0159  0.0019 </r>
        <r>  0.0003  0.0665  0.0001 </r>
        <r>  0.0003  0.0665  0.0001 </r>
        <r>  0.0002  0.0151  0.0020 </r>
        <r>  0.0002  0.0151  0.0020 </r>
        <r>  0.0002  0.0611  0.0012 </r>
        <r>  0.0002  0.0611  0.0012 </r>
        <r>  0.0017  0.0201  0.0000 </r>
        <r>  0.0017  0.0201  0.0000 </r>
        <r>  0.0015  0.0109  0.0000 </r>
        <r>  0.0015  0.0109  0.0000 </r>
        <r>  0.0003  0.0148  0.0000 </r>
        <r>  0.0003  0.0148  0.0000 </r>
        <r>  0.0009  0.0018  0.0000 </r>
        <r>  0.0009  0.0018  0.0000 </r>
        <r>  0.0002  0.0220  0.0000 </r>
        <r>  0.0002  0.0220  0.0000 </r>
        <r>  0.0002  0.0198  0.0000 </r>
        <r>  0.0002  0.0198  0.0000 </r>
        <r>  0.0000  0.0136  0.0000 </r>
        <r>  0.0000  0.0136  0.0000 </r>
       </set>
       <set comment="band 92">
        <r>  0.0011  0.0003  0.0009 </r>
        <r>  0.0011  0.0003  0.0009 </r>
        <r>  0.0039  0.0047  0.0039 </r>
        <r>  0.0039  0.0047  0.0039 </r>
        <r>  0.0001  0.0391  0.0009 </r>
        <r>  0.0001  0.0391  0.0009 </r>
        <r>  0.0001  0.0830  0.0010 </r>
        <r>  0.0001  0.0830  0.0010 </r>
        <r>  0.0003  0.0109  0.0022 </r>
        <r>  0.0003  0.0109  0.0022 </r>
        <r>  0.0002  0.0632  0.0004 </r>
        <r>  0.0002  0.0632  0.0004 </r>
        <r>  0.0005  0.0225  0.0000 </r>
        <r>  0.0005  0.0225  0.0000 </r>
        <r>  0.0009  0.0071  0.0000 </r>
        <r>  0.0009  0.0071  0.0000 </r>
        <r>  0.0008  0.0234  0.0000 </r>
        <r>  0.0008  0.0234  0.0000 </r>
        <r>  0.0000  0.0033  0.0000 </r>
        <r>  0.0000  0.0033  0.0000 </r>
        <r>  0.0003  0.0131  0.0000 </r>
        <r>  0.0003  0.0131  0.0000 </r>
        <r>  0.0000  0.0169  0.0000 </r>
        <r>  0.0000  0.0169  0.0000 </r>
        <r>  0.0004  0.0181  0.0000 </r>
        <r>  0.0004  0.0181  0.0000 </r>
       </set>
       <set comment="band 93">
        <r>  0.0020  0.0021  0.0034 </r>
        <r>  0.0020  0.0021  0.0034 </r>
        <r>  0.0013  0.0052  0.0028 </r>
        <r>  0.0013  0.0052  0.0028 </r>
        <r>  0.0001  0.0360  0.0010 </r>
        <r>  0.0001  0.0360  0.0010 </r>
        <r>  0.0000  0.0903  0.0006 </r>
        <r>  0.0000  0.0903  0.0006 </r>
        <r>  0.0005  0.0154  0.0022 </r>
        <r>  0.0005  0.0154  0.0022 </r>
        <r>  0.0001  0.0465  0.0001 </r>
        <r>  0.0001  0.0465  0.0001 </r>
        <r>  0.0006  0.0073  0.0000 </r>
        <r>  0.0006  0.0073  0.0000 </r>
        <r>  0.0002  0.0039  0.0000 </r>
        <r>  0.0002  0.0039  0.0000 </r>
        <r>  0.0014  0.0209  0.0000 </r>
        <r>  0.0014  0.0209  0.0000 </r>
        <r>  0.0007  0.0023  0.0000 </r>
        <r>  0.0007  0.0023  0.0000 </r>
        <r>  0.0029  0.0198  0.0000 </r>
        <r>  0.0029  0.0198  0.0000 </r>
        <r>  0.0008  0.0211  0.0000 </r>
        <r>  0.0008  0.0211  0.0000 </r>
        <r>  0.0001  0.0304  0.0000 </r>
        <r>  0.0001  0.0304  0.0000 </r>
       </set>
       <set comment="band 94">
        <r>  0.0008  0.0027  0.0021 </r>
        <r>  0.0008  0.0027  0.0021 </r>
        <r>  0.0009  0.0024  0.0041 </r>
        <r>  0.0009  0.0024  0.0041 </r>
        <r>  0.0000  0.0267  0.0012 </r>
        <r>  0.0000  0.0267  0.0012 </r>
        <r>  0.0001  0.0688  0.0008 </r>
        <r>  0.0001  0.0688  0.0008 </r>
        <r>  0.0007  0.0146  0.0018 </r>
        <r>  0.0007  0.0146  0.0018 </r>
        <r>  0.0000  0.0825  0.0006 </r>
        <r>  0.0000  0.0825  0.0006 </r>
        <r>  0.0006  0.0156  0.0000 </r>
        <r>  0.0006  0.0156  0.0000 </r>
        <r>  0.0000  0.0044  0.0000 </r>
        <r>  0.0000  0.0044  0.0000 </r>
        <r>  0.0002  0.0116  0.0000 </r>
        <r>  0.0002  0.0116  0.0000 </r>
        <r>  0.0006  0.0027  0.0000 </r>
        <r>  0.0006  0.0027  0.0000 </r>
        <r>  0.0009  0.0342  0.0000 </r>
        <r>  0.0009  0.0342  0.0000 </r>
        <r>  0.0007  0.0162  0.0000 </r>
        <r>  0.0007  0.0162  0.0000 </r>
        <r>  0.0004  0.0266  0.0000 </r>
        <r>  0.0004  0.0266  0.0000 </r>
       </set>
       <set comment="band 95">
        <r>  0.0009  0.0046  0.0052 </r>
        <r>  0.0009  0.0046  0.0052 </r>
        <r>  0.0015  0.0052  0.0059 </r>
        <r>  0.0015  0.0052  0.0059 </r>
        <r>  0.0001  0.0287  0.0018 </r>
        <r>  0.0001  0.0287  0.0018 </r>
        <r>  0.0000  0.0412  0.0019 </r>
        <r>  0.0000  0.0412  0.0019 </r>
        <r>  0.0004  0.0420  0.0036 </r>
        <r>  0.0004  0.0420  0.0036 </r>
        <r>  0.0001  0.0621  0.0022 </r>
        <r>  0.0001  0.0621  0.0022 </r>
        <r>  0.0003  0.0057  0.0000 </r>
        <r>  0.0003  0.0057  0.0000 </r>
        <r>  0.0003  0.0025  0.0000 </r>
        <r>  0.0003  0.0025  0.0000 </r>
        <r>  0.0010  0.0058  0.0000 </r>
        <r>  0.0010  0.0058  0.0000 </r>
        <r>  0.0014  0.0093  0.0000 </r>
        <r>  0.0014  0.0093  0.0000 </r>
        <r>  0.0011  0.0113  0.0000 </r>
        <r>  0.0011  0.0113  0.0000 </r>
        <r>  0.0003  0.0390  0.0000 </r>
        <r>  0.0003  0.0390  0.0000 </r>
        <r>  0.0008  0.0255  0.0000 </r>
        <r>  0.0008  0.0255  0.0000 </r>
       </set>
       <set comment="band 96">
        <r>  0.0000  0.0046  0.0063 </r>
        <r>  0.0000  0.0046  0.0063 </r>
        <r>  0.0009  0.0054  0.0056 </r>
        <r>  0.0009  0.0054  0.0056 </r>
        <r>  0.0000  0.0076  0.0004 </r>
        <r>  0.0000  0.0076  0.0004 </r>
        <r>  0.0000  0.0402  0.0008 </r>
        <r>  0.0000  0.0402  0.0008 </r>
        <r>  0.0016  0.0669  0.0013 </r>
        <r>  0.0016  0.0669  0.0013 </r>
        <r>  0.0006  0.0594  0.0027 </r>
        <r>  0.0006  0.0594  0.0027 </r>
        <r>  0.0005  0.0111  0.0000 </r>
        <r>  0.0005  0.0111  0.0000 </r>
        <r>  0.0003  0.0070  0.0000 </r>
        <r>  0.0003  0.0070  0.0000 </r>
        <r>  0.0001  0.0083  0.0000 </r>
        <r>  0.0001  0.0083  0.0000 </r>
        <r>  0.0029  0.0111  0.0000 </r>
        <r>  0.0029  0.0111  0.0000 </r>
        <r>  0.0030  0.0074  0.0000 </r>
        <r>  0.0030  0.0074  0.0000 </r>
        <r>  0.0004  0.0548  0.0000 </r>
        <r>  0.0004  0.0548  0.0000 </r>
        <r>  0.0000  0.0099  0.0000 </r>
        <r>  0.0000  0.0099  0.0000 </r>
       </set>
       <set comment="band 97">
        <r>  0.0056  0.0010  0.0038 </r>
        <r>  0.0056  0.0010  0.0038 </r>
        <r>  0.0031  0.0024  0.0015 </r>
        <r>  0.0031  0.0024  0.0015 </r>
        <r>  0.0004  0.0415  0.0013 </r>
        <r>  0.0004  0.0415  0.0013 </r>
        <r>  0.0000  0.0293  0.0009 </r>
        <r>  0.0000  0.0293  0.0009 </r>
        <r>  0.0009  0.0815  0.0005 </r>
        <r>  0.0009  0.0815  0.0005 </r>
        <r>  0.0000  0.0153  0.0019 </r>
        <r>  0.0000  0.0153  0.0019 </r>
        <r>  0.0004  0.0070  0.0000 </r>
        <r>  0.0004  0.0070  0.0000 </r>
        <r>  0.0059  0.0186  0.0000 </r>
        <r>  0.0059  0.0186  0.0000 </r>
        <r>  0.0006  0.0105  0.0000 </r>
        <r>  0.0006  0.0105  0.0000 </r>
        <r>  0.0013  0.0058  0.0000 </r>
        <r>  0.0013  0.0058  0.0000 </r>
        <r>  0.0000  0.0008  0.0000 </r>
        <r>  0.0000  0.0008  0.0000 </r>
        <r>  0.0002  0.0242  0.0000 </r>
        <r>  0.0002  0.0242  0.0000 </r>
        <r>  0.0000  0.0567  0.0000 </r>
        <r>  0.0000  0.0567  0.0000 </r>
       </set>
       <set comment="band 98">
        <r>  0.0045  0.0062  0.0058 </r>
        <r>  0.0045  0.0062  0.0058 </r>
        <r>  0.0001  0.0035  0.0076 </r>
        <r>  0.0001  0.0035  0.0076 </r>
        <r>  0.0004  0.0541  0.0031 </r>
        <r>  0.0004  0.0541  0.0031 </r>
        <r>  0.0002  0.0148  0.0011 </r>
        <r>  0.0002  0.0148  0.0011 </r>
        <r>  0.0003  0.0658  0.0036 </r>
        <r>  0.0003  0.0658  0.0036 </r>
        <r>  0.0001  0.0138  0.0010 </r>
        <r>  0.0001  0.0138  0.0010 </r>
        <r>  0.0001  0.0054  0.0000 </r>
        <r>  0.0001  0.0054  0.0000 </r>
        <r>  0.0037  0.0301  0.0000 </r>
        <r>  0.0037  0.0301  0.0000 </r>
        <r>  0.0009  0.0077  0.0000 </r>
        <r>  0.0009  0.0077  0.0000 </r>
        <r>  0.0008  0.0057  0.0000 </r>
        <r>  0.0008  0.0057  0.0000 </r>
        <r>  0.0002  0.0021  0.0000 </r>
        <r>  0.0002  0.0021  0.0000 </r>
        <r>  0.0001  0.0114  0.0000 </r>
        <r>  0.0001  0.0114  0.0000 </r>
        <r>  0.0001  0.0557  0.0000 </r>
        <r>  0.0001  0.0557  0.0000 </r>
       </set>
      </set>
     </set>
    </set>
   </array>
  </projected>
 </calculation>
 <structure name="finalpos" >
  <crystal>
   <varray name="basis" >
    <v>       4.10116548       0.00000000       0.00000000 </v>
    <v>       0.00000000      12.67202529      -0.28499216 </v>
    <v>       0.00000000       0.78752249      14.43924278 </v>
   </varray>
   <i name="volume">    751.32895375 </i>
   <varray name="rec_basis" >
    <v>       0.24383313       0.00000000       0.00000000 </v>
    <v>       0.00000000       0.07881731      -0.00429873 </v>
    <v>       0.00000000       0.00155564       0.06917086 </v>
   </varray>
  </crystal>
  <varray name="positions" >
   <v>       0.25000000       0.56170334       0.81669790 </v>
   <v>       0.75000000       0.43829666       0.18330210 </v>
   <v>       0.75000000       0.82861504       0.62087768 </v>
   <v>       0.25000000       0.17138496       0.37912232 </v>
   <v>       0.25000000       0.93718232       0.87322467 </v>
   <v>       0.75000000       0.06281768       0.12677533 </v>
   <v>       0.25000000       0.83915749       0.28275299 </v>
   <v>       0.75000000       0.16084251       0.71724701 </v>
   <v>       0.75000000       0.72946475       0.04783215 </v>
   <v>       0.25000000       0.27053525       0.95216785 </v>
   <v>       0.75000000       0.60729788       0.43057022 </v>
   <v>       0.25000000       0.39270212       0.56942978 </v>
   <v>       0.25000000       0.45745491       0.38626475 </v>
   <v>       0.75000000       0.54254509       0.61373525 </v>
   <v>       0.25000000       0.59516059       0.03653308 </v>
   <v>       0.75000000       0.40483941       0.96346692 </v>
   <v>       0.75000000       0.99815569       0.30597971 </v>
   <v>       0.25000000       0.00184431       0.69402029 </v>
   <v>       0.75000000       0.78535796       0.85120931 </v>
   <v>       0.25000000       0.21464204       0.14879069 </v>
   <v>       0.25000000       0.75882402       0.46155279 </v>
   <v>       0.75000000       0.24117598       0.53844721 </v>
   <v>       0.75000000       0.69642308       0.24131285 </v>
   <v>       0.25000000       0.30357692       0.75868715 </v>
   <v>       0.25000000       0.90803469       0.08617153 </v>
   <v>       0.75000000       0.09196531       0.91382847 </v>
  </varray>
 </structure>
</modeling>
