CIS                                     
           1
     4.244012    0.000000    0.000000
     0.000000   13.413409    0.040872
     0.000000    1.229593   15.510894
   K    Bi   S 
   4   8  14
Direct configuration=     1
   0.25000000  0.56849279  0.81209004
   0.75000000  0.43150721  0.18790996
   0.75000000  0.82875309  0.62285478
   0.25000000  0.17124691  0.37714522
   0.25000000  0.94612343  0.87977359
   0.75000000  0.05387657  0.12022641
   0.25000000  0.83155606  0.27488852
   0.75000000  0.16844394  0.72511148
   0.75000000  0.73146608  0.05056020
   0.25000000  0.26853392  0.94943980
   0.75000000  0.60668333  0.42829721
   0.25000000  0.39331667  0.57170279
   0.25000000  0.45798711  0.39320698
   0.75000000  0.54201289  0.60679302
   0.25000000  0.59813812  0.03793755
   0.75000000  0.40186188  0.96206245
   0.75000000  0.98566906  0.29540055
   0.25000000  0.01433094  0.70459945
   0.75000000  0.79785506  0.86286623
   0.25000000  0.20214494  0.13713377
   0.25000000  0.75545718  0.45156839
   0.75000000  0.24454282  0.54843161
   0.75000000  0.69160821  0.24041933
   0.25000000  0.30839179  0.75958067
   0.25000000  0.90357682  0.08303846
   0.75000000  0.09642318  0.91696154
CIS                                     
           1
     4.205590    0.000000    0.000000
     0.000000   13.282756    0.027006
     0.000000    1.202071   15.350052
   K    Bi   S 
   4   8  14
Direct configuration=     2
   0.25000000  0.56833880  0.81227895
   0.75000000  0.43166120  0.18772105
   0.75000000  0.82884606  0.62281636
   0.25000000  0.17115394  0.37718364
   0.25000000  0.94609900  0.87953037
   0.75000000  0.05390100  0.12046963
   0.25000000  0.83144096  0.27499453
   0.75000000  0.16855904  0.72500547
   0.75000000  0.73100080  0.05052753
   0.25000000  0.26899920  0.94947247
   0.75000000  0.60669296  0.42843733
   0.25000000  0.39330704  0.57156267
   0.25000000  0.45813722  0.39350737
   0.75000000  0.54186278  0.60649263
   0.25000000  0.59868213  0.03793332
   0.75000000  0.40131787  0.96206668
   0.75000000  0.98568606  0.29507169
   0.25000000  0.01431394  0.70492831
   0.75000000  0.79814640  0.86300854
   0.25000000  0.20185360  0.13699146
   0.25000000  0.75525934  0.45138557
   0.75000000  0.24474066  0.54861443
   0.75000000  0.69192715  0.24043540
   0.25000000  0.30807285  0.75956460
   0.25000000  0.90367147  0.08312848
   0.75000000  0.09632853  0.91687152
CIS                                     
           1
     4.126189    0.000000    0.000000
     0.000000   13.012758   -0.001649
     0.000000    1.145198   15.017667
   K    Bi   S 
   4   8  14
Direct configuration=     3
   0.25000000  0.56801790  0.81267314
   0.75000000  0.43198210  0.18732686
   0.75000000  0.82903997  0.62273630
   0.25000000  0.17096003  0.37726370
   0.25000000  0.94604745  0.87902245
   0.75000000  0.05395255  0.12097755
   0.25000000  0.83120104  0.27521568
   0.75000000  0.16879896  0.72478432
   0.75000000  0.73002983  0.05045846
   0.25000000  0.26997017  0.94954154
   0.75000000  0.60671339  0.42872995
   0.25000000  0.39328661  0.57127005
   0.25000000  0.45845116  0.39413492
   0.75000000  0.54154884  0.60586508
   0.25000000  0.59981730  0.03792548
   0.75000000  0.40018270  0.96207452
   0.75000000  0.98572078  0.29438499
   0.25000000  0.01427922  0.70561501
   0.75000000  0.79875465  0.86330624
   0.25000000  0.20124535  0.13669376
   0.25000000  0.75484608  0.45100344
   0.75000000  0.24515392  0.54899656
   0.75000000  0.69259270  0.24046953
   0.25000000  0.30740730  0.75953047
   0.25000000  0.90386918  0.08331662
   0.75000000  0.09613082  0.91668338
CIS                                     
           1
     4.092281    0.000000    0.000000
     0.000000   12.897457   -0.013886
     0.000000    1.120911   14.875724
   K    Bi   S 
   4   8  14
Direct configuration=     4
   0.25000000  0.56787845  0.81284494
   0.75000000  0.43212155  0.18715506
   0.75000000  0.82912439  0.62270151
   0.25000000  0.17087561  0.37729849
   0.25000000  0.94602446  0.87880070
   0.75000000  0.05397554  0.12119930
   0.25000000  0.83109670  0.27531201
   0.75000000  0.16890330  0.72468799
   0.75000000  0.72960657  0.05042751
   0.25000000  0.27039343  0.94957249
   0.75000000  0.60672260  0.42885769
   0.25000000  0.39327740  0.57114231
   0.25000000  0.45858863  0.39440910
   0.75000000  0.54141137  0.60559090
   0.25000000  0.60031203  0.03792298
   0.75000000  0.39968797  0.96207702
   0.75000000  0.98573520  0.29408528
   0.25000000  0.01426480  0.70591472
   0.75000000  0.79902006  0.86343668
   0.25000000  0.20097994  0.13656332
   0.25000000  0.75466557  0.45083630
   0.75000000  0.24533443  0.54916370
   0.75000000  0.69288281  0.24048498
   0.25000000  0.30711719  0.75951502
   0.25000000  0.90395555  0.08339891
   0.75000000  0.09604445  0.91660109
CIS                                     
           1
     4.096579    0.000000    0.000000
     0.000000   12.912072   -0.012335
     0.000000    1.123989   14.893716
   K    Bi   S 
   4   8  14
Direct configuration=     5
   0.25000000  0.56789625  0.81282297
   0.75000000  0.43210375  0.18717703
   0.75000000  0.82911360  0.62270595
   0.25000000  0.17088640  0.37729405
   0.25000000  0.94602743  0.87882908
   0.75000000  0.05397257  0.12117092
   0.25000000  0.83111003  0.27529970
   0.75000000  0.16888997  0.72470030
   0.75000000  0.72966070  0.05043152
   0.25000000  0.27033930  0.94956848
   0.75000000  0.60672141  0.42884134
   0.25000000  0.39327859  0.57115866
   0.25000000  0.45857102  0.39437400
   0.75000000  0.54142898  0.60562600
   0.25000000  0.60024877  0.03792325
   0.75000000  0.39975123  0.96207675
   0.75000000  0.98573339  0.29412363
   0.25000000  0.01426661  0.70587637
   0.75000000  0.79898610  0.86341997
   0.25000000  0.20101390  0.13658003
   0.25000000  0.75468867  0.45085771
   0.75000000  0.24531133  0.54914229
   0.75000000  0.69284571  0.24048297
   0.25000000  0.30715429  0.75951703
   0.25000000  0.90394449  0.08338837
   0.75000000  0.09605551  0.91661163
CIS                                     
           1
     4.097686    0.000000    0.000000
     0.000000   12.897697   -0.033742
     0.000000    1.098021   14.868008
   K    Bi   S 
   4   8  14
Direct configuration=     6
   0.25000000  0.56772389  0.81307531
   0.75000000  0.43227611  0.18692469
   0.75000000  0.82925787  0.62265983
   0.25000000  0.17074213  0.37734017
   0.25000000  0.94597385  0.87895470
   0.75000000  0.05402615  0.12104530
   0.25000000  0.83122446  0.27527040
   0.75000000  0.16877554  0.72472960
   0.75000000  0.72981674  0.05044733
   0.25000000  0.27018326  0.94955267
   0.75000000  0.60679209  0.42873909
   0.25000000  0.39320791  0.57126091
   0.25000000  0.45832216  0.39409498
   0.75000000  0.54167784  0.60590502
   0.25000000  0.59995309  0.03784552
   0.75000000  0.40004691  0.96215448
   0.75000000  0.98610243  0.29442960
   0.25000000  0.01389757  0.70557040
   0.75000000  0.79874495  0.86314043
   0.25000000  0.20125505  0.13685957
   0.25000000  0.75479219  0.45134588
   0.75000000  0.24520781  0.54865412
   0.75000000  0.69259110  0.24045770
   0.25000000  0.30740890  0.75954230
   0.25000000  0.90390536  0.08339652
   0.75000000  0.09609464  0.91660348
CIS                                     
           1
     4.101006    0.000000    0.000000
     0.000000   12.854574   -0.097965
     0.000000    1.020114   14.790883
   K    Bi   S 
   4   8  14
Direct configuration=     7
   0.25000000  0.56720769  0.81383289
   0.75000000  0.43279231  0.18616711
   0.75000000  0.82969085  0.62252187
   0.25000000  0.17030915  0.37747813
   0.25000000  0.94581368  0.87933198
   0.75000000  0.05418632  0.12066802
   0.25000000  0.83156792  0.27518285
   0.75000000  0.16843208  0.72481715
   0.75000000  0.73028539  0.05049554
   0.25000000  0.26971461  0.94950446
   0.75000000  0.60700377  0.42843213
   0.25000000  0.39299623  0.57156787
   0.25000000  0.45757330  0.39325538
   0.75000000  0.54242670  0.60674462
   0.25000000  0.59906476  0.03761064
   0.75000000  0.40093524  0.96238936
   0.75000000  0.98721237  0.29535070
   0.25000000  0.01278763  0.70464930
   0.75000000  0.79801921  0.86229932
   0.25000000  0.20198079  0.13770068
   0.25000000  0.75510578  0.45281340
   0.75000000  0.24489422  0.54718660
   0.75000000  0.69182639  0.24038066
   0.25000000  0.30817361  0.75961934
   0.25000000  0.90378789  0.08342086
   0.75000000  0.09621211  0.91657914
CIS                                     
           1
     4.107647    0.000000    0.000000
     0.000000   12.768329   -0.226410
     0.000000    0.864301   14.636633
   K    Bi   S 
   4   8  14
Direct configuration=     8
   0.25000000  0.56618073  0.81535151
   0.75000000  0.43381927  0.18464849
   0.75000000  0.83055785  0.62224827
   0.25000000  0.16944215  0.37775173
   0.25000000  0.94549662  0.88008912
   0.75000000  0.05450338  0.11991088
   0.25000000  0.83225592  0.27500982
   0.75000000  0.16774408  0.72499018
   0.75000000  0.73122606  0.05059654
   0.25000000  0.26877394  0.94940346
   0.75000000  0.60742495  0.42781681
   0.25000000  0.39257505  0.57218319
   0.25000000  0.45606159  0.39156083
   0.75000000  0.54393841  0.60843917
   0.25000000  0.59728009  0.03713067
   0.75000000  0.40271991  0.96286933
   0.75000000  0.98944932  0.29721226
   0.25000000  0.01055068  0.70278774
   0.75000000  0.79655388  0.86060193
   0.25000000  0.20344612  0.13939807
   0.25000000  0.75575141  0.45576657
   0.75000000  0.24424859  0.54423343
   0.75000000  0.69029150  0.24021909
   0.25000000  0.30970850  0.75978091
   0.25000000  0.90355252  0.08346875
   0.75000000  0.09644748  0.91653125
CIS                                     
           1
     4.109553    0.000000    0.000000
     0.000000   12.743580   -0.263269
     0.000000    0.819589   14.592370
   K    Bi   S 
   4   8  14
Direct configuration=     9
   0.25000000  0.56588922  0.81578935
   0.75000000  0.43411078  0.18421065
   0.75000000  0.83080728  0.62217112
   0.25000000  0.16919272  0.37782888
   0.25000000  0.94540757  0.88030791
   0.75000000  0.05459243  0.11969209
   0.25000000  0.83245400  0.27496139
   0.75000000  0.16754600  0.72503861
   0.75000000  0.73149799  0.05062822
   0.25000000  0.26850201  0.94937178
   0.75000000  0.60754453  0.42763942
   0.25000000  0.39245547  0.57236058
   0.25000000  0.45561953  0.39106550
   0.75000000  0.54438047  0.60893450
   0.25000000  0.59676323  0.03698692
   0.75000000  0.40323677  0.96301308
   0.75000000  0.99010132  0.29775788
   0.25000000  0.00989868  0.70224212
   0.75000000  0.79612521  0.86010590
   0.25000000  0.20387479  0.13989410
   0.25000000  0.75594755  0.45662474
   0.75000000  0.24405245  0.54337526
   0.75000000  0.68984780  0.24016832
   0.25000000  0.31015220  0.75983168
   0.25000000  0.90348472  0.08348204
   0.75000000  0.09651528  0.91651796
CIS                                     
           1
     4.112762    0.000000    0.000000
     0.000000   12.719253   -0.291420
     0.000000    0.785341   14.570705
   K    Bi   S 
   4   8  14
Direct configuration=    10
   0.25000000  0.56539863  0.81656931
   0.75000000  0.43460137  0.18343069
   0.75000000  0.83118519  0.62202286
   0.25000000  0.16881481  0.37797714
   0.25000000  0.94423242  0.87966282
   0.75000000  0.05576758  0.12033718
   0.25000000  0.83282704  0.27636450
   0.75000000  0.16717296  0.72363550
   0.75000000  0.73047625  0.05000737
   0.25000000  0.26952375  0.94999263
   0.75000000  0.60704087  0.42810158
   0.25000000  0.39295913  0.57189842
   0.25000000  0.45483543  0.39015560
   0.75000000  0.54516457  0.60984440
   0.25000000  0.59650365  0.03654419
   0.75000000  0.40349635  0.96345581
   0.75000000  0.99118273  0.29855113
   0.25000000  0.00881727  0.70144887
   0.75000000  0.79537899  0.85906290
   0.25000000  0.20462101  0.14093710
   0.25000000  0.75685684  0.45764631
   0.75000000  0.24314316  0.54235369
   0.75000000  0.68948648  0.23994352
   0.25000000  0.31051352  0.76005648
   0.25000000  0.90341717  0.08341602
   0.75000000  0.09658283  0.91658398
CIS                                     
           1
     4.120946    0.000000    0.000000
     0.000000   12.657205   -0.363224
     0.000000    0.697988   14.515446
   K    Bi   S 
   4   8  14
Direct configuration=    11
   0.25000000  0.56415024  0.81855926
   0.75000000  0.43584976  0.18144074
   0.75000000  0.83214985  0.62164602
   0.25000000  0.16785015  0.37835398
   0.25000000  0.94122543  0.87800903
   0.75000000  0.05877457  0.12199097
   0.25000000  0.83378952  0.27995066
   0.75000000  0.16621048  0.72004934
   0.75000000  0.72786143  0.04841624
   0.25000000  0.27213857  0.95158376
   0.75000000  0.60575701  0.42927966
   0.25000000  0.39424299  0.57072034
   0.25000000  0.45282587  0.38782728
   0.75000000  0.54717413  0.61217272
   0.25000000  0.59583746  0.03541191
   0.75000000  0.40416254  0.96458809
   0.75000000  0.99395119  0.30058296
   0.25000000  0.00604881  0.69941704
   0.75000000  0.79346538  0.85639478
   0.25000000  0.20653462  0.14360522
   0.25000000  0.75918700  0.46026049
   0.75000000  0.24081300  0.53973951
   0.75000000  0.68856174  0.23936747
   0.25000000  0.31143826  0.76063253
   0.25000000  0.90324414  0.08324704
   0.75000000  0.09675586  0.91675296
CIS                                     
           1
     4.108609    0.000000    0.000000
     0.000000   12.631703   -0.337591
     0.000000    0.725763   14.507955
   K    Bi   S 
   4   8  14
Direct configuration=    12
   0.25000000  0.56395935  0.81882205
   0.75000000  0.43604065  0.18117795
   0.75000000  0.83226357  0.62163458
   0.25000000  0.16773643  0.37836542
   0.25000000  0.94099088  0.87735983
   0.75000000  0.05900912  0.12264017
   0.25000000  0.83419315  0.28087383
   0.75000000  0.16580685  0.71912617
   0.75000000  0.72777997  0.04822014
   0.25000000  0.27222003  0.95177986
   0.75000000  0.60563729  0.42968661
   0.25000000  0.39436271  0.57031339
   0.25000000  0.45298153  0.38786495
   0.75000000  0.54701847  0.61213505
   0.25000000  0.59519400  0.03497635
   0.75000000  0.40480600  0.96502365
   0.75000000  0.99392488  0.30111785
   0.25000000  0.00607512  0.69888215
   0.75000000  0.79203897  0.85542128
   0.25000000  0.20796103  0.14457872
   0.25000000  0.75919048  0.46018457
   0.75000000  0.24080952  0.53981543
   0.75000000  0.68928098  0.23979656
   0.25000000  0.31071902  0.76020344
   0.25000000  0.90347198  0.08349168
   0.75000000  0.09652802  0.91650832
CIS                                     
           1
     4.097825    0.000000    0.000000
     0.000000   12.609410   -0.315185
     0.000000    0.750041   14.501408
   K    Bi   S 
   4   8  14
Direct configuration=    13
   0.25000000  0.56379162  0.81905214
   0.75000000  0.43620838  0.18094786
   0.75000000  0.83236321  0.62162441
   0.25000000  0.16763679  0.37837559
   0.25000000  0.94078667  0.87679243
   0.75000000  0.05921333  0.12320757
   0.25000000  0.83454493  0.28168056
   0.75000000  0.16545507  0.71831944
   0.75000000  0.72770900  0.04804876
   0.25000000  0.27229100  0.95195124
   0.75000000  0.60553162  0.43004268
   0.25000000  0.39446838  0.56995732
   0.25000000  0.45311781  0.38789766
   0.75000000  0.54688219  0.61210234
   0.25000000  0.59463118  0.03459641
   0.75000000  0.40536882  0.96540359
   0.75000000  0.99390080  0.30158567
   0.25000000  0.00609920  0.69841433
   0.75000000  0.79079136  0.85457206
   0.25000000  0.20920864  0.14542794
   0.25000000  0.75919368  0.46011817
   0.75000000  0.24080632  0.53988183
   0.75000000  0.68991019  0.24017073
   0.25000000  0.31008981  0.75982927
   0.25000000  0.90367108  0.08370529
   0.75000000  0.09632892  0.91629471
CIS                                     
           1
     4.102797    0.000000    0.000000
     0.000000   12.646602   -0.290957
     0.000000    0.781466   14.555359
   K    Bi   S 
   4   8  14
Direct configuration=    14
   0.25000000  0.56363008  0.81910985
   0.75000000  0.43636992  0.18089015
   0.75000000  0.83233424  0.62163483
   0.25000000  0.16766576  0.37836517
   0.25000000  0.94073311  0.87647238
   0.75000000  0.05926689  0.12352762
   0.25000000  0.83493907  0.28214967
   0.75000000  0.16506093  0.71785033
   0.75000000  0.72807938  0.04793141
   0.25000000  0.27192062  0.95206859
   0.75000000  0.60564651  0.43007612
   0.25000000  0.39435349  0.56992388
   0.25000000  0.45353686  0.38791421
   0.75000000  0.54646314  0.61208579
   0.25000000  0.59363463  0.03430269
   0.75000000  0.40636537  0.96569731
   0.75000000  0.99397325  0.30245633
   0.25000000  0.00602675  0.69754367
   0.75000000  0.78927595  0.85362559
   0.25000000  0.21072405  0.14637441
   0.25000000  0.75903658  0.46028110
   0.75000000  0.24096342  0.53971890
   0.75000000  0.69067880  0.24077441
   0.25000000  0.30932120  0.75922559
   0.25000000  0.90422935  0.08405669
   0.75000000  0.09577065  0.91594331
CIS                                     
           1
     4.102261    0.000000    0.000000
     0.000000   12.642596   -0.293566
     0.000000    0.778081   14.549549
   K    Bi   S 
   4   8  14
Direct configuration=    15
   0.25000000  0.56364745  0.81910363
   0.75000000  0.43635255  0.18089637
   0.75000000  0.83233735  0.62163371
   0.25000000  0.16766265  0.37836629
   0.25000000  0.94073878  0.87650671
   0.75000000  0.05926122  0.12349329
   0.25000000  0.83489686  0.28209941
   0.75000000  0.16510314  0.71790059
   0.75000000  0.72803957  0.04794407
   0.25000000  0.27196043  0.95205593
   0.75000000  0.60563418  0.43007255
   0.25000000  0.39436582  0.56992745
   0.25000000  0.45349186  0.38791251
   0.75000000  0.54650814  0.61208749
   0.25000000  0.59374159  0.03433402
   0.75000000  0.40625841  0.96566598
   0.75000000  0.99396568  0.30236292
   0.25000000  0.00603432  0.69763708
   0.75000000  0.78943847  0.85372686
   0.25000000  0.21056153  0.14627314
   0.25000000  0.75905349  0.46026359
   0.75000000  0.24094651  0.53973641
   0.75000000  0.69059640  0.24070978
   0.25000000  0.30940360  0.75929022
   0.25000000  0.90416948  0.08401909
   0.75000000  0.09583052  0.91598091
CIS                                     
           1
     4.101856    0.000000    0.000000
     0.000000   12.639561   -0.295543
     0.000000    0.775517   14.545146
   K    Bi   S 
   4   8  14
Direct configuration=    16
   0.25000000  0.56366061  0.81909892
   0.75000000  0.43633939  0.18090108
   0.75000000  0.83233971  0.62163286
   0.25000000  0.16766029  0.37836714
   0.25000000  0.94074309  0.87653274
   0.75000000  0.05925691  0.12346726
   0.25000000  0.83486485  0.28206131
   0.75000000  0.16513515  0.71793869
   0.75000000  0.72800940  0.04795366
   0.25000000  0.27199060  0.95204634
   0.75000000  0.60562483  0.43006984
   0.25000000  0.39437517  0.56993016
   0.25000000  0.45345775  0.38791122
   0.75000000  0.54654225  0.61208878
   0.25000000  0.59382266  0.03435779
   0.75000000  0.40617734  0.96564221
   0.75000000  0.99395992  0.30229212
   0.25000000  0.00604008  0.69770788
   0.75000000  0.78956167  0.85380365
   0.25000000  0.21043833  0.14619635
   0.25000000  0.75906630  0.46025032
   0.75000000  0.24093370  0.53974968
   0.75000000  0.69053393  0.24066078
   0.25000000  0.30946607  0.75933922
   0.25000000  0.90412409  0.08399057
   0.75000000  0.09587591  0.91600943
CIS                                     
           1
     4.098861    0.000000    0.000000
     0.000000   12.639817   -0.286504
     0.000000    0.785814   14.539994
   K    Bi   S 
   4   8  14
Direct configuration=    17
   0.25000000  0.56355361  0.81902446
   0.75000000  0.43644639  0.18097554
   0.75000000  0.83222029  0.62163491
   0.25000000  0.16777971  0.37836509
   0.25000000  0.94054677  0.87627330
   0.75000000  0.05945323  0.12372670
   0.25000000  0.83503149  0.28209041
   0.75000000  0.16496851  0.71790959
   0.75000000  0.72790373  0.04786205
   0.25000000  0.27209627  0.95213795
   0.75000000  0.60575324  0.42996819
   0.25000000  0.39424676  0.57003181
   0.25000000  0.45391904  0.38804309
   0.75000000  0.54608096  0.61195691
   0.25000000  0.59368061  0.03433703
   0.75000000  0.40631939  0.96566297
   0.75000000  0.99408333  0.30265101
   0.25000000  0.00591667  0.69734899
   0.75000000  0.78907739  0.85363778
   0.25000000  0.21092261  0.14636222
   0.25000000  0.75886964  0.46026896
   0.75000000  0.24113036  0.53973104
   0.75000000  0.69109182  0.24086047
   0.25000000  0.30890818  0.75913953
   0.25000000  0.90464851  0.08423972
   0.75000000  0.09535149  0.91576028
CIS                                     
           1
     4.094101    0.000000    0.000000
     0.000000   12.640223   -0.272138
     0.000000    0.802179   14.531806
   K    Bi   S 
   4   8  14
Direct configuration=    18
   0.25000000  0.56338365  0.81890618
   0.75000000  0.43661635  0.18109382
   0.75000000  0.83203048  0.62163828
   0.25000000  0.16796952  0.37836172
   0.25000000  0.94023510  0.87586102
   0.75000000  0.05976490  0.12413898
   0.25000000  0.83529629  0.28213652
   0.75000000  0.16470371  0.71786348
   0.75000000  0.72773591  0.04771652
   0.25000000  0.27226409  0.95228348
   0.75000000  0.60595746  0.42980644
   0.25000000  0.39404254  0.57019356
   0.25000000  0.45465200  0.38825228
   0.75000000  0.54534800  0.61174772
   0.25000000  0.59345488  0.03430416
   0.75000000  0.40654512  0.96569584
   0.75000000  0.99427899  0.30322147
   0.25000000  0.00572101  0.69677853
   0.75000000  0.78830794  0.85337455
   0.25000000  0.21169206  0.14662545
   0.25000000  0.75855705  0.46029879
   0.75000000  0.24144295  0.53970121
   0.75000000  0.69197822  0.24117739
   0.25000000  0.30802178  0.75882261
   0.25000000  0.90548164  0.08463528
   0.75000000  0.09451836  0.91536472
CIS                                     
           1
     4.084581    0.000000    0.000000
     0.000000   12.641036   -0.243407
     0.000000    0.834909   14.515430
   K    Bi   S 
   4   8  14
Direct configuration=    19
   0.25000000  0.56304405  0.81866984
   0.75000000  0.43695595  0.18133016
   0.75000000  0.83165085  0.62164542
   0.25000000  0.16834915  0.37835458
   0.25000000  0.93961283  0.87503665
   0.75000000  0.06038717  0.12496335
   0.25000000  0.83582578  0.28222827
   0.75000000  0.16417422  0.71777173
   0.75000000  0.72740065  0.04742563
   0.25000000  0.27259935  0.95257437
   0.75000000  0.60636634  0.42948237
   0.25000000  0.39363366  0.57051763
   0.25000000  0.45611741  0.38866945
   0.75000000  0.54388259  0.61133055
   0.25000000  0.59300349  0.03423884
   0.75000000  0.40699651  0.96576116
   0.75000000  0.99466881  0.30436261
   0.25000000  0.00533119  0.69563739
   0.75000000  0.78676968  0.85284934
   0.25000000  0.21323032  0.14715066
   0.25000000  0.75793178  0.46035909
   0.75000000  0.24206822  0.53964091
   0.75000000  0.69375023  0.24180982
   0.25000000  0.30624977  0.75819018
   0.25000000  0.90714691  0.08542520
   0.75000000  0.09285309  0.91457480
CIS                                     
           1
     4.092118    0.000000    0.000000
     0.000000   12.640392   -0.266154
     0.000000    0.808996   14.528395
   K    Bi   S 
   4   8  14
Direct configuration=    20
   0.25000000  0.56331244  0.81885663
   0.75000000  0.43668756  0.18114337
   0.75000000  0.83195145  0.62163917
   0.25000000  0.16804855  0.37836083
   0.25000000  0.94010379  0.87568905
   0.75000000  0.05989621  0.12431095
   0.25000000  0.83540674  0.28215638
   0.75000000  0.16459326  0.71784362
   0.75000000  0.72766549  0.04765566
   0.25000000  0.27233451  0.95234434
   0.75000000  0.60604192  0.42973986
   0.25000000  0.39395808  0.57026014
   0.25000000  0.45495802  0.38834111
   0.75000000  0.54504198  0.61165889
   0.25000000  0.59336075  0.03428990
   0.75000000  0.40663925  0.96571010
   0.75000000  0.99436257  0.30345878
   0.25000000  0.00563743  0.69654122
   0.75000000  0.78798652  0.85326320
   0.25000000  0.21201348  0.14673680
   0.25000000  0.75842698  0.46031032
   0.75000000  0.24157302  0.53968968
   0.75000000  0.69234854  0.24131135
   0.25000000  0.30765146  0.75868865
   0.25000000  0.90583006  0.08480174
   0.75000000  0.09416994  0.91519826
CIS                                     
           1
     4.093861    0.000000    0.000000
     0.000000   12.649176   -0.261354
     0.000000    0.815022   14.525829
   K    Bi   S 
   4   8  14
Direct configuration=    21
   0.25000000  0.56322484  0.81875287
   0.75000000  0.43677516  0.18124713
   0.75000000  0.83182519  0.62162138
   0.25000000  0.16817481  0.37837862
   0.25000000  0.93990930  0.87541326
   0.75000000  0.06009070  0.12458674
   0.25000000  0.83562486  0.28219067
   0.75000000  0.16437514  0.71780933
   0.75000000  0.72763437  0.04759440
   0.25000000  0.27236563  0.95240560
   0.75000000  0.60612060  0.42967684
   0.25000000  0.39387940  0.57032316
   0.25000000  0.45524296  0.38833315
   0.75000000  0.54475704  0.61166685
   0.25000000  0.59330092  0.03433217
   0.75000000  0.40669908  0.96566783
   0.75000000  0.99450458  0.30365262
   0.25000000  0.00549542  0.69634738
   0.75000000  0.78763939  0.85316139
   0.25000000  0.21236061  0.14683861
   0.25000000  0.75837499  0.46038808
   0.75000000  0.24162501  0.53961192
   0.75000000  0.69271724  0.24136925
   0.25000000  0.30728276  0.75863075
   0.25000000  0.90617194  0.08495430
   0.75000000  0.09382806  0.91504570
CIS                                     
           1
     4.096380    0.000000    0.000000
     0.000000   12.661871   -0.254416
     0.000000    0.823731   14.522119
   K    Bi   S 
   4   8  14
Direct configuration=    22
   0.25000000  0.56309837  0.81860291
   0.75000000  0.43690163  0.18139709
   0.75000000  0.83164283  0.62159573
   0.25000000  0.16835717  0.37840427
   0.25000000  0.93962856  0.87501465
   0.75000000  0.06037144  0.12498535
   0.25000000  0.83593990  0.28224013
   0.75000000  0.16406010  0.71775987
   0.75000000  0.72758946  0.04750586
   0.25000000  0.27241054  0.95249414
   0.75000000  0.60623430  0.42958570
   0.25000000  0.39376570  0.57041430
   0.25000000  0.45565455  0.38832151
   0.75000000  0.54434545  0.61167849
   0.25000000  0.59321447  0.03439329
   0.75000000  0.40678553  0.96560671
   0.75000000  0.99470956  0.30393279
   0.25000000  0.00529044  0.69606721
   0.75000000  0.78713804  0.85301437
   0.25000000  0.21286196  0.14698563
   0.25000000  0.75829983  0.46050052
   0.75000000  0.24170017  0.53949948
   0.75000000  0.69324976  0.24145279
   0.25000000  0.30675024  0.75854721
   0.25000000  0.90666566  0.08517467
   0.75000000  0.09333434  0.91482533
CIS                                     
           1
     4.101417    0.000000    0.000000
     0.000000   12.687262   -0.240539
     0.000000    0.841149   14.514699
   K    Bi   S 
   4   8  14
Direct configuration=    23
   0.25000000  0.56284589  0.81830305
   0.75000000  0.43715411  0.18169695
   0.75000000  0.83127850  0.62154458
   0.25000000  0.16872150  0.37845542
   0.25000000  0.93906820  0.87421752
   0.75000000  0.06093180  0.12578248
   0.25000000  0.83656931  0.28233876
   0.75000000  0.16343069  0.71766124
   0.75000000  0.72749985  0.04732878
   0.25000000  0.27250015  0.95267122
   0.75000000  0.60646160  0.42940325
   0.25000000  0.39353840  0.57059675
   0.25000000  0.45647695  0.38829782
   0.75000000  0.54352305  0.61170218
   0.25000000  0.59304166  0.03451566
   0.75000000  0.40695834  0.96548434
   0.75000000  0.99511874  0.30449305
   0.25000000  0.00488126  0.69550695
   0.75000000  0.78613654  0.85272075
   0.25000000  0.21386346  0.14727925
   0.25000000  0.75814950  0.46072553
   0.75000000  0.24185050  0.53927447
   0.75000000  0.69431366  0.24161937
   0.25000000  0.30568634  0.75838063
   0.25000000  0.90765184  0.08561504
   0.75000000  0.09234816  0.91438496
CIS                                     
           1
     4.098401    0.000000    0.000000
     0.000000   12.672060   -0.248847
     0.000000    0.830720   14.519141
   K    Bi   S 
   4   8  14
Direct configuration=    24
   0.25000000  0.56299651  0.81848252
   0.75000000  0.43700349  0.18151748
   0.75000000  0.83149617  0.62157500
   0.25000000  0.16850383  0.37842500
   0.25000000  0.93940238  0.87469468
   0.75000000  0.06059762  0.12530532
   0.25000000  0.83619329  0.28228005
   0.75000000  0.16380671  0.71771995
   0.75000000  0.72755325  0.04743480
   0.25000000  0.27244675  0.95256520
   0.75000000  0.60632562  0.42951267
   0.25000000  0.39367438  0.57048733
   0.25000000  0.45598550  0.38831250
   0.75000000  0.54401450  0.61168750
   0.25000000  0.59314503  0.03444226
   0.75000000  0.40685497  0.96555774
   0.75000000  0.99487470  0.30415769
   0.25000000  0.00512530  0.69584231
   0.75000000  0.78673475  0.85289604
   0.25000000  0.21326525  0.14710396
   0.25000000  0.75823952  0.46059066
   0.75000000  0.24176048  0.53940934
   0.75000000  0.69367806  0.24152021
   0.25000000  0.30632194  0.75847979
   0.25000000  0.90706291  0.08535184
   0.75000000  0.09293709  0.91464816
CIS                                     
           1
     4.097408    0.000000    0.000000
     0.000000   12.667053   -0.251583
     0.000000    0.827286   14.520604
   K    Bi   S 
   4   8  14
Direct configuration=    25
   0.25000000  0.56304622  0.81854164
   0.75000000  0.43695378  0.18145836
   0.75000000  0.83156795  0.62158506
   0.25000000  0.16843205  0.37841494
   0.25000000  0.93951270  0.87485185
   0.75000000  0.06048730  0.12514815
   0.25000000  0.83606928  0.28226065
   0.75000000  0.16393072  0.71773935
   0.75000000  0.72757088  0.04746972
   0.25000000  0.27242912  0.95253028
   0.75000000  0.60628081  0.42954867
   0.25000000  0.39371919  0.57045133
   0.25000000  0.45582346  0.38831723
   0.75000000  0.54417654  0.61168277
   0.25000000  0.59317909  0.03441811
   0.75000000  0.40682091  0.96558189
   0.75000000  0.99479414  0.30404723