  26  26   1   0
  0.3395270E+02  0.4244012E-09  0.1341347E-08  0.1555955E-08  0.1000000E-15
  1.000000000000000E-004
  CAR 
 CIS                                     
      8.38267366    -11.36731323  301      3.51306752      1.00000000
    -11.367  0.0000E+00  0.0000E+00
    -11.301  0.0000E+00  0.0000E+00
    -11.236  0.0000E+00  0.0000E+00
    -11.170  0.0000E+00  0.0000E+00
    -11.104  0.0000E+00  0.0000E+00
    -11.038  0.0000E+00  0.0000E+00
    -10.972  0.0000E+00  0.0000E+00
    -10.906  0.0000E+00  0.0000E+00
    -10.841  0.0000E+00  0.0000E+00
    -10.775  0.0000E+00  0.0000E+00
    -10.709  0.1961E-12  0.1291E-13
    -10.643  0.1405E-07  0.9247E-09
    -10.577  0.3554E-04  0.2341E-05
    -10.511  0.3705E-02  0.2463E-03
    -10.446  0.2599E-01  0.1957E-02
    -10.380  0.3527E-01  0.4279E-02
    -10.314  0.2375E-01  0.5843E-02
    -10.248  0.7558E-02  0.6340E-02
    -10.182  0.5678E-01  0.1008E-01
    -10.116  0.1105E+00  0.1735E-01
    -10.051  0.6395E-01  0.2156E-01
     -9.985  0.1056E-01  0.2226E-01
     -9.919  0.2526E-01  0.2392E-01
     -9.853  0.7858E-01  0.2909E-01
     -9.787  0.6178E-01  0.3316E-01
     -9.721  0.6223E-01  0.3726E-01
     -9.656  0.1682E-01  0.3836E-01
     -9.590  0.1081E-01  0.3908E-01
     -9.524  0.9069E-01  0.4505E-01
     -9.458  0.1340E+00  0.5386E-01
     -9.392  0.1061E+00  0.6085E-01
     -9.326  0.1277E+00  0.6925E-01
     -9.261  0.7584E-01  0.7425E-01
     -9.195  0.4347E-01  0.7711E-01
     -9.129  0.1146E+00  0.8465E-01
     -9.063  0.1402E+00  0.9388E-01
     -8.997  0.8084E-01  0.9921E-01
     -8.931  0.4028E-01  0.1019E+00
     -8.866  0.1136E+00  0.1093E+00
     -8.800  0.1222E+00  0.1174E+00
     -8.734  0.7092E-01  0.1221E+00
     -8.668  0.2781E-01  0.1239E+00
     -8.602  0.9655E-01  0.1302E+00
     -8.536  0.2602E+00  0.1474E+00
     -8.471  0.2532E+00  0.1640E+00
     -8.405  0.3517E+00  0.1872E+00
     -8.339  0.3958E+00  0.2132E+00
     -8.273  0.3864E+00  0.2387E+00
     -8.207  0.2652E+00  0.2561E+00
     -8.141  0.1495E+00  0.2660E+00
     -8.076  0.1103E+00  0.2732E+00
     -8.010  0.9972E-01  0.2798E+00
     -7.944  0.4408E-01  0.2827E+00
     -7.878  0.1703E-02  0.2828E+00
     -7.812  0.2983E-05  0.2828E+00
     -7.746  0.1925E-09  0.2828E+00
     -7.681  0.4225E-15  0.2828E+00
     -7.615  0.0000E+00  0.2828E+00
     -7.549  0.0000E+00  0.2828E+00
     -7.483  0.0000E+00  0.2828E+00
     -7.417  0.9199E-16  0.2828E+00
     -7.351  0.5032E-10  0.2828E+00
     -7.286  0.9432E-06  0.2828E+00
     -7.220  0.6471E-03  0.2829E+00
     -7.154  0.1953E-01  0.2842E+00
     -7.088  0.3902E-01  0.2867E+00
     -7.022  0.3711E-01  0.2892E+00
     -6.956  0.6300E-01  0.2933E+00
     -6.891  0.1266E+00  0.3016E+00
     -6.825  0.1030E+00  0.3084E+00
     -6.759  0.6124E-01  0.3125E+00
     -6.693  0.9416E-01  0.3187E+00
     -6.627  0.1045E+00  0.3255E+00
     -6.561  0.7113E-01  0.3302E+00
     -6.496  0.1254E+00  0.3385E+00
     -6.430  0.1138E+00  0.3460E+00
     -6.364  0.4592E-01  0.3490E+00
     -6.298  0.1072E+00  0.3561E+00
     -6.232  0.6536E-01  0.3604E+00
     -6.166  0.6100E-01  0.3644E+00
     -6.101  0.1004E+00  0.3710E+00
     -6.035  0.1812E+00  0.3829E+00
     -5.969  0.1728E+00  0.3943E+00
     -5.903  0.5862E-01  0.3981E+00
     -5.837  0.6516E-01  0.4024E+00
     -5.771  0.6395E-01  0.4066E+00
     -5.706  0.4371E-01  0.4095E+00
     -5.640  0.6428E-01  0.4138E+00
     -5.574  0.3454E-01  0.4160E+00
     -5.508  0.1060E-01  0.4167E+00
     -5.442  0.5219E-01  0.4202E+00
     -5.376  0.3260E-01  0.4223E+00
     -5.311  0.4253E-01  0.4251E+00
     -5.245  0.4489E-01  0.4281E+00
     -5.179  0.3789E-02  0.4283E+00
     -5.113  0.2044E-01  0.4297E+00
     -5.047  0.8617E-01  0.4353E+00
     -4.981  0.6231E-01  0.4394E+00
     -4.916  0.1428E-01  0.4404E+00
     -4.850  0.5124E-03  0.4404E+00
     -4.784  0.2473E-05  0.4404E+00
     -4.718  0.7840E-03  0.4405E+00
     -4.652  0.2022E-01  0.4418E+00
     -4.586  0.3558E-01  0.4441E+00
     -4.521  0.4752E-02  0.4444E+00
     -4.455  0.3577E-04  0.4444E+00
     -4.389  0.1148E-07  0.4444E+00
     -4.323  0.1359E-12  0.4444E+00
     -4.257  0.0000E+00  0.4444E+00
     -4.191  0.0000E+00  0.4444E+00
     -4.126  0.0000E+00  0.4444E+00
     -4.060  0.0000E+00  0.4444E+00
     -3.994  0.0000E+00  0.4444E+00
     -3.928  0.0000E+00  0.4444E+00
     -3.862  0.0000E+00  0.4444E+00
     -3.796  0.0000E+00  0.4444E+00
     -3.731  0.0000E+00  0.4444E+00
     -3.665  0.0000E+00  0.4444E+00
     -3.599  0.0000E+00  0.4444E+00
     -3.533  0.0000E+00  0.4444E+00
     -3.467  0.0000E+00  0.4444E+00
     -3.401  0.0000E+00  0.4444E+00
     -3.336  0.0000E+00  0.4444E+00
     -3.270  0.0000E+00  0.4444E+00
     -3.204  0.0000E+00  0.4444E+00
     -3.138  0.0000E+00  0.4444E+00
     -3.072  0.0000E+00  0.4444E+00
     -3.006  0.0000E+00  0.4444E+00
     -2.941  0.0000E+00  0.4444E+00
     -2.875  0.0000E+00  0.4444E+00
     -2.809  0.0000E+00  0.4444E+00
     -2.743  0.0000E+00  0.4444E+00
     -2.677  0.0000E+00  0.4444E+00
     -2.611  0.0000E+00  0.4444E+00
     -2.546  0.0000E+00  0.4444E+00
     -2.480  0.0000E+00  0.4444E+00
     -2.414  0.0000E+00  0.4444E+00
     -2.348  0.0000E+00  0.4444E+00
     -2.282  0.0000E+00  0.4444E+00
     -2.216  0.0000E+00  0.4444E+00
     -2.151  0.0000E+00  0.4444E+00
     -2.085  0.0000E+00  0.4444E+00
     -2.019  0.0000E+00  0.4444E+00
     -1.953  0.0000E+00  0.4444E+00
     -1.887  0.0000E+00  0.4444E+00
     -1.821  0.3407E-17  0.4444E+00
     -1.756  0.3837E-11  0.4444E+00
     -1.690  0.1229E-06  0.4444E+00
     -1.624  0.1417E-03  0.4445E+00
     -1.558  0.6900E-02  0.4449E+00
     -1.492  0.2033E-01  0.4462E+00
     -1.426  0.1703E-01  0.4474E+00
     -1.361  0.2250E-01  0.4488E+00
     -1.295  0.9550E-01  0.4551E+00
     -1.229  0.1778E+00  0.4668E+00
     -1.163  0.1128E+00  0.4743E+00
     -1.097  0.7788E-01  0.4794E+00
     -1.031  0.1214E+00  0.4874E+00
     -0.966  0.9686E-01  0.4938E+00
     -0.900  0.8363E-01  0.4993E+00
     -0.834  0.4625E-01  0.5023E+00
     -0.768  0.9341E-01  0.5085E+00
     -0.702  0.1018E+00  0.5152E+00
     -0.636  0.1108E+00  0.5225E+00
     -0.571  0.1636E+00  0.5332E+00
     -0.505  0.1090E+00  0.5404E+00
     -0.439  0.1505E+00  0.5503E+00
     -0.373  0.2074E+00  0.5640E+00
     -0.307  0.1913E+00  0.5766E+00
     -0.241  0.1587E+00  0.5870E+00
     -0.176  0.7918E-01  0.5922E+00
     -0.110  0.1438E+00  0.6017E+00
     -0.044  0.1839E+00  0.6138E+00
      0.022  0.1166E+00  0.6215E+00
      0.088  0.1834E+00  0.6335E+00
      0.154  0.2529E+00  0.6502E+00
      0.219  0.1941E+00  0.6630E+00
      0.285  0.2449E+00  0.6791E+00
      0.351  0.2801E+00  0.6975E+00
      0.417  0.1957E+00  0.7104E+00
      0.483  0.2130E+00  0.7244E+00
      0.549  0.2928E+00  0.7437E+00
      0.614  0.1981E+00  0.7568E+00
      0.680  0.1208E+00  0.7647E+00
      0.746  0.1644E+00  0.7755E+00
      0.812  0.2278E+00  0.7905E+00
      0.878  0.2021E+00  0.8038E+00
      0.944  0.2091E+00  0.8176E+00
      1.009  0.2907E+00  0.8367E+00
      1.075  0.2928E+00  0.8560E+00
      1.141  0.1711E+00  0.8673E+00
      1.207  0.1735E+00  0.8787E+00
      1.273  0.1411E+00  0.8880E+00
      1.339  0.1478E+00  0.8977E+00
      1.404  0.1352E+00  0.9066E+00
      1.470  0.1096E+00  0.9138E+00
      1.536  0.1837E+00  0.9259E+00
      1.602  0.2611E+00  0.9431E+00
      1.668  0.2145E+00  0.9572E+00
      1.734  0.2567E+00  0.9741E+00
      1.799  0.2494E+00  0.9906E+00
      1.865  0.3436E+00  0.1013E+01
      1.931  0.3364E+00  0.1035E+01
      1.997  0.2510E+00  0.1052E+01
      2.063  0.2565E+00  0.1069E+01
      2.129  0.3785E+00  0.1094E+01
      2.194  0.3640E+00  0.1118E+01
      2.260  0.2940E+00  0.1137E+01
      2.326  0.2627E+00  0.1154E+01
      2.392  0.1748E+00  0.1166E+01
      2.458  0.1020E+00  0.1172E+01
      2.524  0.1354E+00  0.1181E+01
      2.589  0.2451E+00  0.1198E+01
      2.655  0.1571E+00  0.1208E+01
      2.721  0.2656E+00  0.1225E+01
      2.787  0.3432E+00  0.1248E+01
      2.853  0.1847E+00  0.1260E+01
      2.919  0.1793E+00  0.1272E+01
      2.984  0.1274E+00  0.1280E+01
      3.050  0.7339E-01  0.1285E+01
      3.116  0.5370E-01  0.1289E+01
      3.182  0.7091E-02  0.1289E+01
      3.248  0.3285E-01  0.1291E+01
      3.314  0.2336E-01  0.1293E+01
      3.379  0.1295E-02  0.1293E+01
      3.445  0.3900E-05  0.1293E+01
      3.511  0.4799E-09  0.1293E+01
      3.577  0.2102E-14  0.1293E+01
      3.643  0.0000E+00  0.1293E+01
      3.709  0.0000E+00  0.1293E+01
      3.774  0.0000E+00  0.1293E+01
      3.840  0.0000E+00  0.1293E+01
      3.906  0.0000E+00  0.1293E+01
      3.972  0.0000E+00  0.1293E+01
      4.038  0.0000E+00  0.1293E+01
      4.104  0.1579E-13  0.1293E+01
      4.169  0.2157E-08  0.1293E+01
      4.235  0.1024E-04  0.1293E+01
      4.301  0.1884E-02  0.1293E+01
      4.367  0.1732E-01  0.1294E+01
      4.433  0.1103E-01  0.1295E+01
      4.499  0.4439E-03  0.1295E+01
      4.564  0.1741E-05  0.1295E+01
      4.630  0.5099E-03  0.1295E+01
      4.696  0.1434E-01  0.1296E+01
      4.762  0.3621E-01  0.1298E+01
      4.828  0.2113E-01  0.1300E+01
      4.894  0.4554E-01  0.1303E+01
      4.959  0.4925E-01  0.1306E+01
      5.025  0.9189E-01  0.1312E+01
      5.091  0.6990E-01  0.1317E+01
      5.157  0.4761E-01  0.1320E+01
      5.223  0.1200E+00  0.1328E+01
      5.289  0.1041E+00  0.1334E+01
      5.354  0.4370E-01  0.1337E+01
      5.420  0.1098E+00  0.1345E+01
      5.486  0.6414E-01  0.1349E+01
      5.552  0.1230E+00  0.1357E+01
      5.618  0.1927E+00  0.1370E+01
      5.684  0.1704E+00  0.1381E+01
      5.749  0.1664E+00  0.1392E+01
      5.815  0.2029E+00  0.1405E+01
      5.881  0.1329E+00  0.1414E+01
      5.947  0.1593E+00  0.1424E+01
      6.013  0.2254E+00  0.1439E+01
      6.079  0.2123E+00  0.1453E+01
      6.144  0.2446E+00  0.1469E+01
      6.210  0.2849E+00  0.1488E+01
      6.276  0.2119E+00  0.1502E+01
      6.342  0.1867E+00  0.1514E+01
      6.408  0.2473E+00  0.1531E+01
      6.474  0.2386E+00  0.1546E+01
      6.539  0.2568E+00  0.1563E+01
      6.605  0.2195E+00  0.1578E+01
      6.671  0.1548E+00  0.1588E+01
      6.737  0.1786E+00  0.1600E+01
      6.803  0.1271E+00  0.1608E+01
      6.869  0.1682E+00  0.1619E+01
      6.934  0.2337E+00  0.1634E+01
      7.000  0.1398E+00  0.1644E+01
      7.066  0.9692E-01  0.1650E+01
      7.132  0.7913E-01  0.1655E+01
      7.198  0.1951E+00  0.1668E+01
      7.264  0.1516E+00  0.1678E+01
      7.329  0.8044E-01  0.1683E+01
      7.395  0.7956E-01  0.1689E+01
      7.461  0.7140E-01  0.1693E+01
      7.527  0.4942E-01  0.1696E+01
      7.593  0.7320E-02  0.1697E+01
      7.659  0.7099E-04  0.1697E+01
      7.724  0.2809E-07  0.1697E+01
      7.790  0.3923E-12  0.1697E+01
      7.856  0.0000E+00  0.1697E+01
      7.922  0.0000E+00  0.1697E+01
      7.988  0.0000E+00  0.1697E+01
      8.054  0.0000E+00  0.1697E+01
      8.119  0.0000E+00  0.1697E+01
      8.185  0.0000E+00  0.1697E+01
      8.251  0.0000E+00  0.1697E+01
      8.317  0.0000E+00  0.1697E+01
      8.383  0.0000E+00  0.1697E+01
      8.38267366    -11.36731323  301      3.51306752      1.00000000
    -11.367  0.0000E+00  0.0000E+00  0.0000E+00
    -11.301  0.0000E+00  0.0000E+00  0.0000E+00
    -11.236  0.0000E+00  0.0000E+00  0.0000E+00
    -11.170  0.0000E+00  0.0000E+00  0.0000E+00
    -11.104  0.0000E+00  0.0000E+00  0.0000E+00
    -11.038  0.0000E+00  0.0000E+00  0.0000E+00
    -10.972  0.0000E+00  0.0000E+00  0.0000E+00
    -10.906  0.0000E+00  0.0000E+00  0.0000E+00
    -10.841  0.0000E+00  0.0000E+00  0.0000E+00
    -10.775  0.0000E+00  0.0000E+00  0.0000E+00
    -10.709  0.8127E-15  0.2749E-15  0.0000E+00
    -10.643  0.5820E-10  0.1968E-10  0.0000E+00
    -10.577  0.1471E-06  0.4970E-07  0.0000E+00
    -10.511  0.1513E-04  0.5053E-05  0.0000E+00
    -10.446  0.9651E-04  0.2930E-04  0.0000E+00
    -10.380  0.1349E-03  0.4221E-04  0.0000E+00
    -10.314  0.1510E-03  0.6665E-04  0.0000E+00
    -10.248  0.3860E-04  0.1712E-04  0.0000E+00
    -10.182  0.1949E-03  0.7685E-04  0.0000E+00
    -10.116  0.4463E-03  0.1739E-03  0.0000E+00
    -10.051  0.3465E-03  0.1733E-03  0.0000E+00
     -9.985  0.6140E-04  0.3448E-04  0.0000E+00
     -9.919  0.7465E-04  0.3801E-04  0.0000E+00
     -9.853  0.3677E-03  0.1884E-03  0.0000E+00
     -9.787  0.3298E-03  0.1843E-03  0.0000E+00
     -9.721  0.3269E-03  0.1763E-03  0.0000E+00
     -9.656  0.9743E-04  0.4300E-04  0.0000E+00
     -9.590  0.4485E-04  0.2345E-04  0.0000E+00
     -9.524  0.3594E-03  0.2421E-03  0.0000E+00
     -9.458  0.5850E-03  0.3599E-03  0.0000E+00
     -9.392  0.3169E-03  0.2084E-03  0.0000E+00
     -9.326  0.5306E-03  0.3742E-03  0.0000E+00
     -9.261  0.5333E-03  0.2994E-03  0.0000E+00
     -9.195  0.1349E-03  0.8876E-04  0.0000E+00
     -9.129  0.3903E-03  0.3647E-03  0.0000E+00
     -9.063  0.9556E-03  0.6243E-03  0.0000E+00
     -8.997  0.7042E-03  0.3866E-03  0.0000E+00
     -8.931  0.2085E-03  0.1600E-03  0.0000E+00
     -8.866  0.1884E-03  0.2393E-03  0.0000E+00
     -8.800  0.2796E-03  0.3137E-03  0.0000E+00
     -8.734  0.3184E-03  0.3008E-03  0.0000E+00
     -8.668  0.1642E-03  0.1393E-03  0.0000E+00
     -8.602  0.4051E-03  0.2752E-03  0.0000E+00
     -8.536  0.9332E-03  0.7421E-03  0.0000E+00
     -8.471  0.1335E-02  0.7607E-03  0.0000E+00
     -8.405  0.2418E-02  0.1564E-02  0.0000E+00
     -8.339  0.2812E-02  0.2227E-02  0.0000E+00
     -8.273  0.2557E-02  0.1981E-02  0.0000E+00
     -8.207  0.1511E-02  0.1127E-02  0.0000E+00
     -8.141  0.8390E-03  0.7080E-03  0.0000E+00
     -8.076  0.1331E-02  0.1209E-02  0.0000E+00
     -8.010  0.1701E-02  0.1191E-02  0.0000E+00
     -7.944  0.8138E-03  0.5191E-03  0.0000E+00
     -7.878  0.3156E-04  0.2004E-04  0.0000E+00
     -7.812  0.5528E-07  0.3509E-07  0.0000E+00
     -7.746  0.3568E-11  0.2264E-11  0.0000E+00
     -7.681  0.7837E-17  0.4963E-17  0.0000E+00
     -7.615  0.0000E+00  0.0000E+00  0.0000E+00
     -7.549  0.0000E+00  0.0000E+00  0.0000E+00
     -7.483  0.0000E+00  0.0000E+00  0.0000E+00
     -7.417  0.3350E-18  0.3005E-18  0.0000E+00
     -7.351  0.1833E-12  0.1644E-12  0.0000E+00
     -7.286  0.3435E-08  0.3081E-08  0.0000E+00
     -7.220  0.2357E-05  0.2114E-05  0.0000E+00
     -7.154  0.7113E-04  0.6380E-04  0.0000E+00
     -7.088  0.1442E-03  0.1296E-03  0.0000E+00
     -7.022  0.1575E-03  0.1449E-03  0.0000E+00
     -6.956  0.1203E-03  0.1548E-03  0.0000E+00
     -6.891  0.4488E-04  0.1889E-03  0.0000E+00
     -6.825  0.1694E-03  0.1736E-03  0.0000E+00
     -6.759  0.1455E-03  0.1184E-03  0.0000E+00
     -6.693  0.1797E-03  0.2641E-03  0.0000E+00
     -6.627  0.2214E-03  0.3680E-03  0.0000E+00
     -6.561  0.2091E-03  0.2324E-03  0.0000E+00
     -6.496  0.2710E-03  0.2727E-03  0.0000E+00
     -6.430  0.2147E-03  0.2364E-03  0.0000E+00
     -6.364  0.6598E-04  0.1557E-03  0.0000E+00
     -6.298  0.2193E-03  0.3603E-03  0.0000E+00
     -6.232  0.1783E-03  0.1660E-03  0.0000E+00
     -6.166  0.1334E-03  0.1537E-03  0.0000E+00
     -6.101  0.2650E-03  0.3989E-03  0.0000E+00
     -6.035  0.8135E-03  0.6808E-03  0.0000E+00
     -5.969  0.6418E-03  0.6841E-03  0.0000E+00
     -5.903  0.4249E-03  0.3016E-03  0.0000E+00
     -5.837  0.7528E-03  0.3618E-03  0.0000E+00
     -5.771  0.9393E-03  0.4411E-03  0.0000E+00
     -5.706  0.5373E-03  0.3398E-03  0.0000E+00
     -5.640  0.7122E-03  0.5289E-03  0.0000E+00
     -5.574  0.4888E-03  0.3194E-03  0.0000E+00
     -5.508  0.2501E-03  0.9050E-04  0.0000E+00
     -5.442  0.9474E-03  0.3542E-03  0.0000E+00
     -5.376  0.4322E-03  0.1948E-03  0.0000E+00
     -5.311  0.9394E-03  0.3893E-03  0.0000E+00
     -5.245  0.9530E-03  0.4025E-03  0.0000E+00
     -5.179  0.7177E-04  0.3117E-04  0.0000E+00
     -5.113  0.1702E-03  0.9063E-04  0.0000E+00
     -5.047  0.6527E-03  0.3788E-03  0.0000E+00
     -4.981  0.8683E-03  0.3356E-03  0.0000E+00
     -4.916  0.3909E-03  0.1022E-03  0.0000E+00
     -4.850  0.1616E-04  0.3937E-05  0.0000E+00
     -4.784  0.4185E-07  0.1862E-07  0.0000E+00
     -4.718  0.6173E-05  0.5790E-05  0.0000E+00
     -4.652  0.1837E-03  0.1492E-03  0.0000E+00
     -4.586  0.3667E-03  0.2622E-03  0.0000E+00
     -4.521  0.5485E-04  0.3499E-04  0.0000E+00
     -4.455  0.4524E-06  0.2632E-06  0.0000E+00
     -4.389  0.1539E-09  0.8440E-10  0.0000E+00
     -4.323  0.1882E-14  0.9990E-15  0.0000E+00
     -4.257  0.0000E+00  0.0000E+00  0.0000E+00
     -4.191  0.0000E+00  0.0000E+00  0.0000E+00
     -4.126  0.0000E+00  0.0000E+00  0.0000E+00
     -4.060  0.0000E+00  0.0000E+00  0.0000E+00
     -3.994  0.0000E+00  0.0000E+00  0.0000E+00
     -3.928  0.0000E+00  0.0000E+00  0.0000E+00
     -3.862  0.0000E+00  0.0000E+00  0.0000E+00
     -3.796  0.0000E+00  0.0000E+00  0.0000E+00
     -3.731  0.0000E+00  0.0000E+00  0.0000E+00
     -3.665  0.0000E+00  0.0000E+00  0.0000E+00
     -3.599  0.0000E+00  0.0000E+00  0.0000E+00
     -3.533  0.0000E+00  0.0000E+00  0.0000E+00
     -3.467  0.0000E+00  0.0000E+00  0.0000E+00
     -3.401  0.0000E+00  0.0000E+00  0.0000E+00
     -3.336  0.0000E+00  0.0000E+00  0.0000E+00
     -3.270  0.0000E+00  0.0000E+00  0.0000E+00
     -3.204  0.0000E+00  0.0000E+00  0.0000E+00
     -3.138  0.0000E+00  0.0000E+00  0.0000E+00
     -3.072  0.0000E+00  0.0000E+00  0.0000E+00
     -3.006  0.0000E+00  0.0000E+00  0.0000E+00
     -2.941  0.0000E+00  0.0000E+00  0.0000E+00
     -2.875  0.0000E+00  0.0000E+00  0.0000E+00
     -2.809  0.0000E+00  0.0000E+00  0.0000E+00
     -2.743  0.0000E+00  0.0000E+00  0.0000E+00
     -2.677  0.0000E+00  0.0000E+00  0.0000E+00
     -2.611  0.0000E+00  0.0000E+00  0.0000E+00
     -2.546  0.0000E+00  0.0000E+00  0.0000E+00
     -2.480  0.0000E+00  0.0000E+00  0.0000E+00
     -2.414  0.0000E+00  0.0000E+00  0.0000E+00
     -2.348  0.0000E+00  0.0000E+00  0.0000E+00
     -2.282  0.0000E+00  0.0000E+00  0.0000E+00
     -2.216  0.0000E+00  0.0000E+00  0.0000E+00
     -2.151  0.0000E+00  0.0000E+00  0.0000E+00
     -2.085  0.0000E+00  0.0000E+00  0.0000E+00
     -2.019  0.0000E+00  0.0000E+00  0.0000E+00
     -1.953  0.0000E+00  0.0000E+00  0.0000E+00
     -1.887  0.0000E+00  0.0000E+00  0.0000E+00
     -1.821  0.5957E-19  0.2186E-19  0.0000E+00
     -1.756  0.6709E-13  0.2462E-13  0.0000E+00
     -1.690  0.2149E-08  0.7887E-09  0.0000E+00
     -1.624  0.2478E-05  0.9095E-06  0.0000E+00
     -1.558  0.1206E-03  0.4426E-04  0.0000E+00
     -1.492  0.3456E-03  0.1266E-03  0.0000E+00
     -1.426  0.1159E-03  0.3872E-04  0.0000E+00
     -1.361  0.1617E-03  0.6956E-04  0.0000E+00
     -1.295  0.1422E-02  0.7132E-03  0.0000E+00
     -1.229  0.2503E-02  0.1243E-02  0.0000E+00
     -1.163  0.1391E-02  0.6951E-03  0.0000E+00
     -1.097  0.3249E-02  0.1792E-02  0.0000E+00
     -1.031  0.6164E-02  0.3374E-02  0.0000E+00
     -0.966  0.5404E-02  0.2545E-02  0.0000E+00
     -0.900  0.4691E-02  0.1957E-02  0.0000E+00
     -0.834  0.1054E-02  0.5388E-03  0.0000E+00
     -0.768  0.1322E-02  0.1432E-02  0.0000E+00
     -0.702  0.1873E-02  0.1508E-02  0.0000E+00
     -0.636  0.3475E-02  0.1310E-02  0.0000E+00
     -0.571  0.5069E-02  0.1888E-02  0.0000E+00
     -0.505  0.3118E-02  0.1588E-02  0.0000E+00
     -0.439  0.3042E-02  0.1832E-02  0.0000E+00
     -0.373  0.3084E-02  0.2277E-02  0.0000E+00
     -0.307  0.6506E-02  0.3114E-02  0.0000E+00
     -0.241  0.7775E-02  0.3251E-02  0.0000E+00
     -0.176  0.2848E-02  0.1485E-02  0.0000E+00
     -0.110  0.8240E-02  0.2672E-02  0.0000E+00
     -0.044  0.8389E-02  0.3122E-02  0.0000E+00
      0.022  0.5638E-02  0.3102E-02  0.0000E+00
      0.088  0.8470E-02  0.4520E-02  0.0000E+00
      0.154  0.7219E-02  0.4918E-02  0.0000E+00
      0.219  0.6749E-02  0.4449E-02  0.0000E+00
      0.285  0.6527E-02  0.5811E-02  0.0000E+00
      0.351  0.8412E-02  0.5497E-02  0.0000E+00
      0.417  0.5386E-02  0.3326E-02  0.0000E+00
      0.483  0.5851E-02  0.3240E-02  0.0000E+00
      0.549  0.1255E-01  0.5340E-02  0.0000E+00
      0.614  0.1018E-01  0.3354E-02  0.0000E+00
      0.680  0.4380E-02  0.2128E-02  0.0000E+00
      0.746  0.5359E-02  0.3965E-02  0.0000E+00
      0.812  0.5687E-02  0.4858E-02  0.0000E+00
      0.878  0.7695E-02  0.4202E-02  0.0000E+00
      0.944  0.1107E-01  0.3643E-02  0.0000E+00
      1.009  0.1006E-01  0.6484E-02  0.0000E+00
      1.075  0.1866E-01  0.7701E-02  0.0000E+00
      1.141  0.1624E-01  0.4555E-02  0.0000E+00
      1.207  0.6794E-02  0.6885E-02  0.0000E+00
      1.273  0.8798E-02  0.6159E-02  0.0000E+00
      1.339  0.2781E-01  0.5397E-02  0.0000E+00
      1.404  0.2903E-01  0.6197E-02  0.0000E+00
      1.470  0.1759E-01  0.5543E-02  0.0000E+00
      1.536  0.2450E-01  0.7515E-02  0.0000E+00
      1.602  0.3162E-01  0.1198E-01  0.0000E+00
      1.668  0.1604E-01  0.1077E-01  0.0000E+00
      1.734  0.1601E-01  0.1109E-01  0.0000E+00
      1.799  0.1315E-01  0.1591E-01  0.0000E+00
      1.865  0.2677E-01  0.1565E-01  0.0000E+00
      1.931  0.2453E-01  0.1357E-01  0.0000E+00
      1.997  0.1111E-01  0.9630E-02  0.0000E+00
      2.063  0.5686E-02  0.1132E-01  0.0000E+00
      2.129  0.1173E-01  0.1864E-01  0.0000E+00
      2.194  0.3029E-01  0.2473E-01  0.0000E+00
      2.260  0.2931E-01  0.2011E-01  0.0000E+00
      2.326  0.2661E-01  0.1811E-01  0.0000E+00
      2.392  0.1965E-01  0.1710E-01  0.0000E+00
      2.458  0.7082E-02  0.6955E-02  0.0000E+00
      2.524  0.9267E-02  0.7694E-02  0.0000E+00
      2.589  0.1126E-01  0.1290E-01  0.0000E+00
      2.655  0.3707E-02  0.7035E-02  0.0000E+00
      2.721  0.4654E-02  0.9570E-02  0.0000E+00
      2.787  0.7438E-02  0.1208E-01  0.0000E+00
      2.853  0.3493E-02  0.6081E-02  0.0000E+00
      2.919  0.3590E-02  0.3679E-02  0.0000E+00
      2.984  0.2072E-02  0.2220E-02  0.0000E+00
      3.050  0.1265E-02  0.1336E-02  0.0000E+00
      3.116  0.9132E-03  0.9865E-03  0.0000E+00
      3.182  0.1187E-03  0.1049E-03  0.0000E+00
      3.248  0.6725E-03  0.3296E-03  0.0000E+00
      3.314  0.5426E-03  0.1958E-03  0.0000E+00
      3.379  0.3320E-04  0.8988E-05  0.0000E+00
      3.445  0.1055E-06  0.2378E-07  0.0000E+00
      3.511  0.1326E-10  0.2758E-11  0.0000E+00
      3.577  0.5850E-16  0.1182E-16  0.0000E+00
      3.643  0.0000E+00  0.0000E+00  0.0000E+00
      3.709  0.0000E+00  0.0000E+00  0.0000E+00
      3.774  0.0000E+00  0.0000E+00  0.0000E+00
      3.840  0.0000E+00  0.0000E+00  0.0000E+00
      3.906  0.0000E+00  0.0000E+00  0.0000E+00
      3.972  0.0000E+00  0.0000E+00  0.0000E+00
      4.038  0.0000E+00  0.0000E+00  0.0000E+00
      4.104  0.1314E-14  0.5210E-15  0.0000E+00
      4.169  0.1795E-09  0.7116E-10  0.0000E+00
      4.235  0.8524E-06  0.3380E-06  0.0000E+00
      4.301  0.1568E-03  0.6216E-04  0.0000E+00
      4.367  0.1441E-02  0.5714E-03  0.0000E+00
      4.433  0.9176E-03  0.3639E-03  0.0000E+00
      4.499  0.3694E-04  0.1465E-04  0.0000E+00
      4.564  0.1014E-06  0.6845E-07  0.0000E+00
      4.630  0.2015E-04  0.2230E-04  0.0000E+00
      4.696  0.7153E-03  0.5692E-03  0.0000E+00
      4.762  0.2600E-02  0.1135E-02  0.0000E+00
      4.828  0.2700E-02  0.4013E-03  0.0000E+00
      4.894  0.6331E-02  0.1146E-02  0.0000E+00
      4.959  0.6090E-02  0.1652E-02  0.0000E+00
      5.025  0.1000E-01  0.3765E-02  0.0000E+00
      5.091  0.6905E-02  0.4476E-02  0.0000E+00
      5.157  0.7728E-02  0.2785E-02  0.0000E+00
      5.223  0.1537E-01  0.6929E-02  0.0000E+00
      5.289  0.1071E-01  0.4967E-02  0.0000E+00
      5.354  0.7667E-02  0.1774E-02  0.0000E+00
      5.420  0.3271E-01  0.5025E-02  0.0000E+00
      5.486  0.1544E-01  0.3386E-02  0.0000E+00
      5.552  0.1526E-01  0.9349E-02  0.0000E+00
      5.618  0.2636E-01  0.1485E-01  0.0000E+00
      5.684  0.1861E-01  0.1029E-01  0.0000E+00
      5.749  0.1167E-01  0.1053E-01  0.0000E+00
      5.815  0.2409E-01  0.1179E-01  0.0000E+00
      5.881  0.2018E-01  0.7762E-02  0.0000E+00
      5.947  0.1967E-01  0.8379E-02  0.0000E+00
      6.013  0.2282E-01  0.1252E-01  0.0000E+00
      6.079  0.1766E-01  0.1157E-01  0.0000E+00
      6.144  0.1677E-01  0.1029E-01  0.0000E+00
      6.210  0.1709E-01  0.1357E-01  0.0000E+00
      6.276  0.1809E-01  0.1217E-01  0.0000E+00
      6.342  0.1211E-01  0.8445E-02  0.0000E+00
      6.408  0.2113E-01  0.1872E-01  0.0000E+00
      6.474  0.3868E-01  0.2158E-01  0.0000E+00
      6.539  0.3966E-01  0.1716E-01  0.0000E+00
      6.605  0.2047E-01  0.7943E-02  0.0000E+00
      6.671  0.2581E-01  0.8037E-02  0.0000E+00
      6.737  0.4449E-01  0.1373E-01  0.0000E+00
      6.803  0.2478E-01  0.1004E-01  0.0000E+00
      6.869  0.3305E-01  0.1514E-01  0.0000E+00
      6.934  0.4002E-01  0.1882E-01  0.0000E+00
      7.000  0.2885E-01  0.1049E-01  0.0000E+00
      7.066  0.2784E-01  0.9159E-02  0.0000E+00
      7.132  0.5326E-02  0.7967E-02  0.0000E+00
      7.198  0.4608E-02  0.1250E-01  0.0000E+00
      7.264  0.5878E-02  0.9834E-02  0.0000E+00
      7.329  0.6343E-02  0.7353E-02  0.0000E+00
      7.395  0.5997E-02  0.6475E-02  0.0000E+00
      7.461  0.1348E-01  0.4056E-02  0.0000E+00
      7.527  0.9612E-02  0.1205E-02  0.0000E+00
      7.593  0.1341E-02  0.1060E-03  0.0000E+00
      7.659  0.1291E-04  0.9603E-06  0.0000E+00
      7.724  0.5108E-08  0.3783E-09  0.0000E+00
      7.790  0.7133E-13  0.5282E-14  0.0000E+00
      7.856  0.0000E+00  0.0000E+00  0.0000E+00
      7.922  0.0000E+00  0.0000E+00  0.0000E+00
      7.988  0.0000E+00  0.0000E+00  0.0000E+00
      8.054  0.0000E+00  0.0000E+00  0.0000E+00
      8.119  0.0000E+00  0.0000E+00  0.0000E+00
      8.185  0.0000E+00  0.0000E+00  0.0000E+00
      8.251  0.0000E+00  0.0000E+00  0.0000E+00
      8.317  0.0000E+00  0.0000E+00  0.0000E+00
      8.383  0.0000E+00  0.0000E+00  0.0000E+00
      8.38267366    -11.36731323  301      3.51306752      1.00000000
    -11.367  0.0000E+00  0.0000E+00  0.0000E+00
    -11.301  0.0000E+00  0.0000E+00  0.0000E+00
    -11.236  0.0000E+00  0.0000E+00  0.0000E+00
    -11.170  0.0000E+00  0.0000E+00  0.0000E+00
    -11.104  0.0000E+00  0.0000E+00  0.0000E+00
    -11.038  0.0000E+00  0.0000E+00  0.0000E+00
    -10.972  0.0000E+00  0.0000E+00  0.0000E+00
    -10.906  0.0000E+00  0.0000E+00  0.0000E+00
    -10.841  0.0000E+00  0.0000E+00  0.0000E+00
    -10.775  0.0000E+00  0.0000E+00  0.0000E+00
    -10.709  0.8127E-15  0.2749E-15  0.0000E+00
    -10.643  0.5820E-10  0.1968E-10  0.0000E+00
    -10.577  0.1471E-06  0.4971E-07  0.0000E+00
    -10.511  0.1513E-04  0.5053E-05  0.0000E+00
    -10.446  0.9651E-04  0.2930E-04  0.0000E+00
    -10.380  0.1349E-03  0.4221E-04  0.0000E+00
    -10.314  0.1510E-03  0.6665E-04  0.0000E+00
    -10.248  0.3860E-04  0.1712E-04  0.0000E+00
    -10.182  0.1949E-03  0.7685E-04  0.0000E+00
    -10.116  0.4463E-03  0.1739E-03  0.0000E+00
    -10.051  0.3465E-03  0.1733E-03  0.0000E+00
     -9.985  0.6140E-04  0.3448E-04  0.0000E+00
     -9.919  0.7465E-04  0.3801E-04  0.0000E+00
     -9.853  0.3677E-03  0.1884E-03  0.0000E+00
     -9.787  0.3298E-03  0.1843E-03  0.0000E+00
     -9.721  0.3269E-03  0.1763E-03  0.0000E+00
     -9.656  0.9743E-04  0.4300E-04  0.0000E+00
     -9.590  0.4485E-04  0.2345E-04  0.0000E+00
     -9.524  0.3594E-03  0.2421E-03  0.0000E+00
     -9.458  0.5850E-03  0.3599E-03  0.0000E+00
     -9.392  0.3169E-03  0.2084E-03  0.0000E+00
     -9.326  0.5306E-03  0.3742E-03  0.0000E+00
     -9.261  0.5333E-03  0.2994E-03  0.0000E+00
     -9.195  0.1349E-03  0.8876E-04  0.0000E+00
     -9.129  0.3903E-03  0.3647E-03  0.0000E+00
     -9.063  0.9556E-03  0.6243E-03  0.0000E+00
     -8.997  0.7042E-03  0.3866E-03  0.0000E+00
     -8.931  0.2085E-03  0.1600E-03  0.0000E+00
     -8.866  0.1884E-03  0.2393E-03  0.0000E+00
     -8.800  0.2796E-03  0.3137E-03  0.0000E+00
     -8.734  0.3184E-03  0.3008E-03  0.0000E+00
     -8.668  0.1642E-03  0.1393E-03  0.0000E+00
     -8.602  0.4051E-03  0.2752E-03  0.0000E+00
     -8.536  0.9332E-03  0.7421E-03  0.0000E+00
     -8.471  0.1335E-02  0.7607E-03  0.0000E+00
     -8.405  0.2418E-02  0.1564E-02  0.0000E+00
     -8.339  0.2812E-02  0.2227E-02  0.0000E+00
     -8.273  0.2557E-02  0.1981E-02  0.0000E+00
     -8.207  0.1511E-02  0.1127E-02  0.0000E+00
     -8.141  0.8390E-03  0.7080E-03  0.0000E+00
     -8.076  0.1331E-02  0.1209E-02  0.0000E+00
     -8.010  0.1701E-02  0.1191E-02  0.0000E+00
     -7.944  0.8138E-03  0.5191E-03  0.0000E+00
     -7.878  0.3156E-04  0.2004E-04  0.0000E+00
     -7.812  0.5528E-07  0.3509E-07  0.0000E+00
     -7.746  0.3568E-11  0.2264E-11  0.0000E+00
     -7.681  0.7837E-17  0.4963E-17  0.0000E+00
     -7.615  0.0000E+00  0.0000E+00  0.0000E+00
     -7.549  0.0000E+00  0.0000E+00  0.0000E+00
     -7.483  0.0000E+00  0.0000E+00  0.0000E+00
     -7.417  0.3350E-18  0.3005E-18  0.0000E+00
     -7.351  0.1833E-12  0.1644E-12  0.0000E+00
     -7.286  0.3435E-08  0.3081E-08  0.0000E+00
     -7.220  0.2357E-05  0.2114E-05  0.0000E+00
     -7.154  0.7113E-04  0.6380E-04  0.0000E+00
     -7.088  0.1442E-03  0.1296E-03  0.0000E+00
     -7.022  0.1575E-03  0.1449E-03  0.0000E+00
     -6.956  0.1203E-03  0.1548E-03  0.0000E+00
     -6.891  0.4488E-04  0.1889E-03  0.0000E+00
     -6.825  0.1694E-03  0.1736E-03  0.0000E+00
     -6.759  0.1455E-03  0.1184E-03  0.0000E+00
     -6.693  0.1797E-03  0.2641E-03  0.0000E+00
     -6.627  0.2214E-03  0.3681E-03  0.0000E+00
     -6.561  0.2091E-03  0.2324E-03  0.0000E+00
     -6.496  0.2710E-03  0.2727E-03  0.0000E+00
     -6.430  0.2147E-03  0.2364E-03  0.0000E+00
     -6.364  0.6598E-04  0.1557E-03  0.0000E+00
     -6.298  0.2193E-03  0.3603E-03  0.0000E+00
     -6.232  0.1783E-03  0.1660E-03  0.0000E+00
     -6.166  0.1334E-03  0.1537E-03  0.0000E+00
     -6.101  0.2650E-03  0.3989E-03  0.0000E+00
     -6.035  0.8135E-03  0.6808E-03  0.0000E+00
     -5.969  0.6418E-03  0.6841E-03  0.0000E+00
     -5.903  0.4249E-03  0.3016E-03  0.0000E+00
     -5.837  0.7528E-03  0.3618E-03  0.0000E+00
     -5.771  0.9393E-03  0.4411E-03  0.0000E+00
     -5.706  0.5373E-03  0.3398E-03  0.0000E+00
     -5.640  0.7122E-03  0.5289E-03  0.0000E+00
     -5.574  0.4888E-03  0.3194E-03  0.0000E+00
     -5.508  0.2501E-03  0.9050E-04  0.0000E+00