 vasp.5.4.4.18Apr17-6-g9f103f2a35 (build Oct 27 2022 13:04:57) complex          
  
 executed on             LinuxIFC date 2024.06.29  04:07:44
 running on   14 total cores
 distrk:  each k-point on   14 cores,    1 groups
 distr:  one band on NCORES_PER_BAND=   1 cores,   14 groups


--------------------------------------------------------------------------------------------------------


 INCAR:
 POTCAR:    PAW_PBE Na 08Apr2002                  
 POTCAR:    PAW_PBE Bi 08Apr2002                  
 POTCAR:    PAW_PBE S 06Sep2000                   

 ----------------------------------------------------------------------------- 
|                                                                             |
|           W    W    AA    RRRRR   N    N  II  N    N   GGGG   !!!           |
|           W    W   A  A   R    R  NN   N  II  NN   N  G    G  !!!           |
|           W    W  A    A  R    R  N N  N  II  N N  N  G       !!!           |
|           W WW W  AAAAAA  RRRRR   N  N N  II  N  N N  G  GGG   !            |
|           WW  WW  A    A  R   R   N   NN  II  N   NN  G    G                |
|           W    W  A    A  R    R  N    N  II  N    N   GGGG   !!!           |
|                                                                             |
|      For optimal performance we recommend to set                            |
|        NCORE= 4 - approx SQRT( number of cores)                             |
|      NCORE specifies how many cores store one orbital (NPAR=cpu/NCORE).     |
|      This setting can  greatly improve the performance of VASP for DFT.     |
|      The default,   NCORE=1            might be grossly inefficient         |
|      on modern multi-core architectures or massively parallel machines.     |
|      Do your own testing !!!!                                               |
|      Unfortunately you need to use the default for GW and RPA calculations. |
|      (for HF NCORE is supported but not extensively tested yet)             |
|                                                                             |
 ----------------------------------------------------------------------------- 

 POTCAR:    PAW_PBE Na 08Apr2002                  
   VRHFIN =Na: s1p0                                                             
   LEXCH  = PE                                                                  
   EATOM  =     5.1581 eV,    0.3791 Ry                                         
                                                                                
   TITEL  = PAW_PBE Na 08Apr2002                                                
   LULTRA =        F    use ultrasoft PP ?                                      
   IUNSCR =        1    unscreen: 0-lin 1-nonlin 2-no                           
   RPACOR =    1.800    partial core radius                                     
   POMASS =   22.990; ZVAL   =    1.000    mass and valenz                      
   RCORE  =    2.200    outmost cutoff radius                                   
   RWIGS  =    3.320; RWIGS  =    1.757    wigner-seitz radius (au A)           
   ENMAX  =  101.968; ENMIN  =   76.476 eV                                      
   ICORE  =        2    local potential                                         
   LCOR   =        T    correct aug charges                                     
   LPAW   =        T    paw PP                                                  
   EAUG   =  250.695                                                            
   DEXC   =    0.000                                                            
   RMAX   =    2.245    core radius for proj-oper                               
   RAUG   =    1.300    factor for augmentation sphere                          
   RDEP   =    2.259    radius for radial grids                                 
   RDEPT  =    2.115    core radius for aug-charge                              
                                                                                
   Atomic configuration                                                         
    6 entries                                                                   
     n  l   j            E        occ.                                          
     1  0  0.50     -1033.6933   2.0000                                         
     2  0  0.50       -56.7526   2.0000                                         
     2  1  1.50       -28.6721   6.0000                                         
     3  0  0.50        -2.7440   1.0000                                         
     3  1  0.50        -1.3606   0.0000                                         
     3  2  1.50        -1.3606   0.0000                                         
   Description                                                                  
     l       E           TYP  RCUT    TYP  RCUT                                 
     0     -2.7439560     23  2.200                                             
     0     27.2116520     23  2.200                                             
     1     -1.3605826     23  2.200                                             
     2     -1.3605826     23  2.200                                             
  local pseudopotential read in
  partial core-charges read in
  partial kinetic energy density read in
  atomic valenz-charges read in
  non local Contribution for L=           0  read in
    real space projection operators read in
  non local Contribution for L=           0  read in
    real space projection operators read in
  non local Contribution for L=           1  read in
    real space projection operators read in
    PAW grid and wavefunctions read in
 
   number of l-projection  operators is LMAX  =           3
   number of lm-projection operators is LMMAX =           5
 
 POTCAR:    PAW_PBE Bi 08Apr2002                  
   VRHFIN =Bi:                                                                  
   LEXCH  = PE                                                                  
   EATOM  =   150.8133 eV,   11.0845 Ry                                         
                                                                                
   TITEL  = PAW_PBE Bi 08Apr2002                                                
   LULTRA =        F    use ultrasoft PP ?                                      
   IUNSCR =        1    unscreen: 0-lin 1-nonlin 2-no                           
   RPACOR =    2.200    partial core radius                                     
   POMASS =  208.980; ZVAL   =    5.000    mass and valenz                      
   RCORE  =    3.000    outmost cutoff radius                                   
   RWIGS  =    3.090; RWIGS  =    1.635    wigner-seitz radius (au A)           
   ENMAX  =  105.037; ENMIN  =   78.777 eV                                      
   ICORE  =        3    local potential                                         
   LCOR   =        T    correct aug charges                                     
   LPAW   =        T    paw PP                                                  
   EAUG   =  265.427                                                            
   DEXC   =    0.000                                                            
   RMAX   =    3.067    core radius for proj-oper                               
   RAUG   =    1.300    factor for augmentation sphere                          
   RDEP   =    3.012    radius for radial grids                                 
   RDEPT  =    2.604    core radius for aug-charge                              
                                                                                
   Atomic configuration                                                         
   17 entries                                                                   
     n  l   j            E        occ.                                          
     1  0  0.50    -90639.6582   2.0000                                         
     2  0  0.50    -16282.4667   2.0000                                         
     2  1  1.50    -13922.8287   6.0000                                         
     3  0  0.50     -3930.4763   2.0000                                         
     3  1  1.50     -3256.7013   6.0000                                         
     3  2  2.50     -2581.6169  10.0000                                         
     4  0  0.50      -902.2614   2.0000                                         
     4  1  1.50      -681.5915   6.0000                                         
     4  2  2.50      -429.8249  10.0000                                         
     4  3  3.50      -152.6004  14.0000                                         
     5  0  0.50      -157.7156   2.0000                                         
     5  1  1.50       -95.8054   6.0000                                         
     5  2  2.50       -27.0806  10.0000                                         
     6  0  0.50       -14.4732   2.0000                                         
     6  1  1.50        -4.5702   3.0000                                         
     6  2  2.50        -2.7212   0.0000                                         
     5  3  2.50        -2.7212   0.0000                                         
   Description                                                                  
     l       E           TYP  RCUT    TYP  RCUT                                 
     0    -14.4732299     23  3.000                                             
     0    -12.2452434     23  3.000                                             
     1     -4.5701666     23  3.000                                             
     1    -13.6058260     23  3.000                                             
     2     -2.7211652     23  3.000                                             
     3     -1.3605826      7  3.000                                             
  local pseudopotential read in
  partial core-charges read in
  partial kinetic energy density read in
  kinetic energy density of atom read in
  atomic valenz-charges read in
  non local Contribution for L=           0  read in
    real space projection operators read in
  non local Contribution for L=           0  read in
    real space projection operators read in
  non local Contribution for L=           1  read in
    real space projection operators read in
  non local Contribution for L=           1  read in
    real space projection operators read in
  non local Contribution for L=           2  read in
    real space projection operators read in
    PAW grid and wavefunctions read in
 
   number of l-projection  operators is LMAX  =           5
   number of lm-projection operators is LMMAX =          13
 
 POTCAR:    PAW_PBE S 06Sep2000                   
   VRHFIN =S : s2p4                                                             
   LEXCH  = PE                                                                  
   EATOM  =   276.8230 eV,   20.3459 Ry                                         
                                                                                
   TITEL  = PAW_PBE S 06Sep2000                                                 
   LULTRA =        F    use ultrasoft PP ?                                      
   IUNSCR =        1    unscreen: 0-lin 1-nonlin 2-no                           
   RPACOR =    1.500    partial core radius                                     
   POMASS =   32.066; ZVAL   =    6.000    mass and valenz                      
   RCORE  =    1.900    outmost cutoff radius                                   
   RWIGS  =    2.200; RWIGS  =    1.164    wigner-seitz radius (au A)           
   ENMAX  =  258.689; ENMIN  =  194.016 eV                                      
   ICORE  =        2    local potential                                         
   LCOR   =        T    correct aug charges                                     
   LPAW   =        T    paw PP                                                  
   EAUG   =  335.092                                                            
   DEXC   =    0.000                                                            
   RMAX   =    1.942    core radius for proj-oper                               
   RAUG   =    1.300    factor for augmentation sphere                          
   RDEP   =    1.954    radius for radial grids                                 
   RDEPT  =    1.744    core radius for aug-charge                              
                                                                                
   Atomic configuration                                                         
    6 entries                                                                   
     n  l   j            E        occ.                                          
     1  0  0.50     -2405.8406   2.0000                                         
     2  0  0.50      -211.7007   2.0000                                         
     2  1  1.50      -156.4958   6.0000                                         
     3  0  0.50       -17.2562   2.0000                                         
     3  1  0.50        -7.0085   4.0000                                         
     3  2  1.50        -6.8029   0.0000                                         
   Description                                                                  
     l       E           TYP  RCUT    TYP  RCUT                                 
     0    -17.2561641     23  1.900                                             
     0    -15.8743224     23  1.900                                             
     1     -7.0085400     23  1.900                                             
     1     -2.7779785     23  1.900                                             
     2     -6.8029130     23  1.900                                             
  local pseudopotential read in
  partial core-charges read in
  partial kinetic energy density read in
  atomic valenz-charges read in
  non local Contribution for L=           0  read in
    real space projection operators read in
  non local Contribution for L=           0  read in
    real space projection operators read in
  non local Contribution for L=           1  read in
    real space projection operators read in
  non local Contribution for L=           1  read in
    real space projection operators read in
    PAW grid and wavefunctions read in
 
   number of l-projection  operators is LMAX  =           4
   number of lm-projection operators is LMMAX =           8
 
 Optimization of the real space projectors (new method)

 maximal supplied QI-value         = 17.01
 optimisation between [QCUT,QGAM] = [  8.84, 17.69] = [ 21.90, 87.61] Ry 
 Optimized for a Real-space Cutoff    1.22 Angstroem

   l    n(q)    QCUT    max X(q) W(low)/X(q) W(high)/X(q)  e(spline) 
   0      6     8.844    45.123    0.62E-03    0.70E-03    0.80E-07
   0      6     8.844    12.364    0.51E-03    0.48E-03    0.55E-07
   1      6     8.844     8.302    0.36E-03    0.27E-03    0.23E-07
 Optimization of the real space projectors (new method)

 maximal supplied QI-value         = 12.47
 optimisation between [QCUT,QGAM] = [  8.86, 17.71] = [ 21.96, 87.83] Ry 
 Optimized for a Real-space Cutoff    1.59 Angstroem

   l    n(q)    QCUT    max X(q) W(low)/X(q) W(high)/X(q)  e(spline) 
   0      8     8.855    93.365    0.12E-03    0.22E-03    0.92E-07
   0      8     8.855    75.373    0.13E-03    0.24E-03    0.10E-06
   1      8     8.855    32.978    0.17E-02    0.62E-03    0.17E-06
   1      8     8.855    35.433    0.19E-02    0.68E-03    0.19E-06
   2      7     8.855     8.108    0.22E-03    0.34E-03    0.64E-07
 Optimization of the real space projectors (new method)

 maximal supplied QI-value         = 19.84
 optimisation between [QCUT,QGAM] = [  8.73, 17.66] = [ 21.34, 87.33] Ry 
 Optimized for a Real-space Cutoff    1.22 Angstroem

   l    n(q)    QCUT    max X(q) W(low)/X(q) W(high)/X(q)  e(spline) 
   0      6     8.731   187.594    0.15E-02    0.56E-03    0.90E-07
   0      6     8.731   164.243    0.15E-02    0.56E-03    0.89E-07
   1      6     8.731    67.533    0.37E-03    0.20E-02    0.11E-06
   1      6     8.731    50.729    0.36E-03    0.19E-02    0.10E-06
  PAW_PBE Na 08Apr2002                  :
 energy of atom  1       EATOM=   -5.1581
 kinetic energy error for atom=    0.0001 (will be added to EATOM!!)
  PAW_PBE Bi 08Apr2002                  :
 energy of atom  2       EATOM= -150.8133
 kinetic energy error for atom=    0.0003 (will be added to EATOM!!)
  PAW_PBE S 06Sep2000                   :
 energy of atom  3       EATOM= -276.8230
 kinetic energy error for atom=    0.0077 (will be added to EATOM!!)
 
 
 POSCAR: Na4 Bi8 S14                             
  positions in direct lattice
  No initial velocities read in
 exchange correlation table for  LEXCH =        8
   RHO(1)=    0.500       N(1)  =     2000
   RHO(2)=  100.500       N(2)  =     4000
 


--------------------------------------------------------------------------------------------------------


 ion  position               nearest neighbor table
   1  0.250  0.568  0.812-
   2  0.750  0.432  0.188-
   3  0.750  0.829  0.623-
   4  0.250  0.171  0.377-
   5  0.250  0.946  0.880-  18 2.80  19 2.93  19 2.93  26 3.02  26 3.02  25 3.17
   6  0.750  0.054  0.120-  17 2.80  20 2.93  20 2.93  25 3.02  25 3.02  26 3.17
   7  0.250  0.832  0.275-  21 2.85  23 2.91  23 2.91  17 3.00  17 3.00  25 3.06
   8  0.750  0.168  0.725-  22 2.85  24 2.91  24 2.91  18 3.00  18 3.00  26 3.06
   9  0.750  0.731  0.051-  15 2.79  15 2.79  23 2.96  19 2.98  25 3.21  25 3.21
  10  0.250  0.269  0.949-  16 2.79  16 2.79  24 2.96  20 2.98  26 3.21  26 3.21
  11  0.750  0.607  0.428-  14 2.84  21 2.96  21 2.96  13 2.99  13 2.99  23 3.05
  12  0.250  0.393  0.572-  13 2.84  22 2.96  22 2.96  14 2.99  14 2.99  24 3.05
  13  0.250  0.458  0.393-  12 2.84  11 2.99  11 2.99
  14  0.750  0.542  0.607-  11 2.84  12 2.99  12 2.99
  15  0.250  0.598  0.038-   9 2.79   9 2.79
  16  0.750  0.402  0.962-  10 2.79  10 2.79
  17  0.750  0.986  0.295-   6 2.80   7 3.00   7 3.00
  18  0.250  0.014  0.705-   5 2.80   8 3.00   8 3.00
  19  0.750  0.798  0.863-   5 2.93   5 2.93   9 2.98
  20  0.250  0.202  0.137-   6 2.93   6 2.93  10 2.98
  21  0.250  0.755  0.452-   7 2.85  11 2.96  11 2.96
  22  0.750  0.245  0.548-   8 2.85  12 2.96  12 2.96
  23  0.750  0.692  0.240-   7 2.91   7 2.91   9 2.96  11 3.05
  24  0.250  0.308  0.760-   8 2.91   8 2.91  10 2.96  12 3.05
  25  0.250  0.904  0.083-   6 3.02   6 3.02   7 3.06   5 3.17   9 3.21   9 3.21
  26  0.750  0.096  0.917-   5 3.02   5 3.02   8 3.06   6 3.17  10 3.21  10 3.21
 
  LATTYP: Found a simple monoclinic cell.
 ALAT       =    21.3605926023
 B/A-ratio  =     0.1986841797
 C/A-ratio  =     1.5026816239
 COS(beta)  =    -0.9528717542
  
  Lattice vectors:
  
 A1 = (   0.0000000000, -14.6430014100, -15.5517660100)
 A2 = (  -4.2440118200,   0.0000000000,   0.0000000000)
 A3 = (   0.0000000000,  28.0564101800,  15.5926381300)


Analysis of symmetry for initial positions (statically):
=====================================================================
 Subroutine PRICEL returns:
 Original cell was already a primitive cell.
 

 Routine SETGRP: Setting up the symmetry group for a 
 simple monoclinic supercell.


 Subroutine GETGRP returns: Found  4 space group operations
 (whereof  2 operations were pure point group operations)
 out of a pool of  4 trial point group operations.


The static configuration has the point symmetry S_2 .
 The point group associated with its full space group is C_2h.


Analysis of symmetry for dynamics (positions and initial velocities):
=====================================================================
 Subroutine PRICEL returns:
 Original cell was already a primitive cell.
 

 Routine SETGRP: Setting up the symmetry group for a 
 simple monoclinic supercell.


 Subroutine GETGRP returns: Found  4 space group operations
 (whereof  2 operations were pure point group operations)
 out of a pool of  4 trial point group operations.


The dynamic configuration has the point symmetry S_2 .
 The point group associated with its full space group is C_2h.


 Subroutine INISYM returns: Found  4 space group operations
 (whereof  2 operations are pure point group operations),
 and found     1 'primitive' translations

 
 
 KPOINTS: pymatgen with grid density = 807 / numbe

Automatic generation of k-mesh.
Space group operators:
 irot       det(A)        alpha          n_x          n_y          n_z        tau_x        tau_y        tau_z
    1     1.000000     0.000000     1.000000     0.000000     0.000000     0.000000     0.000000     0.000000
    2    -1.000000     0.000000     1.000000     0.000000     0.000000     0.000000     0.000000     0.000000
    3     1.000000   180.000000     1.000000     0.000000     0.000000    -0.500000    -0.000000    -0.000000
    4    -1.000000   180.000000     1.000000     0.000000     0.000000    -0.500000     0.000000     0.000000
 
 Subroutine IBZKPT returns following result:
 ===========================================
 
 Found      6 irreducible k-points:
 
 Following reciprocal coordinates:
            Coordinates               Weight
  0.000000  0.250000  0.250000      2.000000
  0.200000  0.250000  0.250000      4.000000
  0.400000  0.250000  0.250000      4.000000
  0.000000 -0.250000  0.250000      2.000000
  0.200000 -0.250000  0.250000      4.000000
  0.400000 -0.250000  0.250000      4.000000
 
 Following cartesian coordinates:
            Coordinates               Weight
  0.000000  0.018593  0.014644      2.000000
  0.047125  0.018593  0.014644      4.000000
  0.094250  0.018593  0.014644      4.000000
  0.000000 -0.018692  0.017599      2.000000
  0.047125 -0.018692  0.017599      4.000000
  0.094250 -0.018692  0.017599      4.000000
 


--------------------------------------------------------------------------------------------------------




 Dimension of arrays:
   k-points           NKPTS =      6   k-points in BZ     NKDIM =      6   number of bands    NBANDS=     84
   number of dos      NEDOS =    301   number of ions     NIONS =     26
   non local maximal  LDIM  =      5   non local SUM 2l+1 LMDIM =     13
   total plane-waves  NPLWV =  75600
   max r-space proj   IRMAX =   1503   max aug-charges    IRDMAX=   3100
   dimension x,y,z NGX =    18 NGY =   60 NGZ =   70
   dimension x,y,z NGXF=    28 NGYF=   80 NGZF=   96
   support grid    NGXF=    28 NGYF=   80 NGZF=   96
   ions per type =               4   8  14
   NGX,Y,Z   is equivalent  to a cutoff of   7.05,  7.44,  7.48 a.u.
   NGXF,Y,Z  is equivalent  to a cutoff of  10.97,  9.92, 10.26 a.u.

 SYSTEM =  CIS                                     
 POSCAR =  Na4 Bi8 S14                             

 Startparameter for this run:
   NWRITE =      2    write-flag & timer
   PREC   = medium    normal or accurate (medium, high low for compatibility)
   ISTART =      0    job   : 0-new  1-cont  2-samecut
   ICHARG =      2    charge: 1-file 2-atom 10-const
   ISPIN  =      1    spin polarized calculation?
   LNONCOLLINEAR =      F non collinear calculations
   LSORBIT =      F    spin-orbit coupling
   INIWAV =      1    electr: 0-lowe 1-rand  2-diag
   LASPH  =      T    aspherical Exc in radial PAW
   METAGGA=      F    non-selfconsistent MetaGGA calc.

 Electronic Relaxation 1
   ENCUT  =  300.0 eV  22.05 Ry    4.70 a.u.   5.99 18.94 21.97*2*pi/ulx,y,z
   ENINI  =  300.0     initial cutoff
   ENAUG  =  335.1 eV  augmentation charge cutoff
   NELM   =     60;   NELMIN=  2; NELMDL= -5     # of ELM steps 
   EDIFF  = 0.1E-03   stopping-criterion for ELM
   LREAL  =      T    real-space projection
   NLSPLINE    = F    spline interpolate recip. space projectors
   LCOMPAT=      F    compatible to vasp.4.4
   GGA_COMPAT  = T    GGA compatible to vasp.4.4-vasp.4.6
   LMAXPAW     = -100 max onsite density
   LMAXMIX     =    4 max onsite mixed and CHGCAR
   VOSKOWN=      0    Vosko Wilk Nusair interpolation
   ROPT   =   -0.00200  -0.00200  -0.00200
 Ionic relaxation
   EDIFFG = -.5E-01   stopping-criterion for IOM
   NSW    =     99    number of steps for IOM
   NBLOCK =      1;   KBLOCK =     99    inner block; outer block 
   IBRION =      2    ionic relax: 0-MD 1-quasi-New 2-CG
   NFREE  =      1    steps in history (QN), initial steepest desc. (CG)
   ISIF   =      3    stress and relaxation
   IWAVPR =     11    prediction:  0-non 1-charg 2-wave 3-comb
   ISYM   =      2    0-nonsym 1-usesym 2-fastsym
   LCORR  =      T    Harris-Foulkes like correction to forces

   POTIM  = 0.1000    time-step for ionic-motion
   TEIN   =    0.0    initial temperature
   TEBEG  =    0.0;   TEEND  =   0.0 temperature during run
   SMASS  =  -3.00    Nose mass-parameter (am)
   estimated Nose-frequenzy (Omega)   =  0.10E-29 period in steps =****** mass=  -0.412E-27a.u.
   SCALEE = 1.0000    scale energy and forces
   NPACO  =    256;   APACO  = 16.0  distance and # of slots for P.C.
   PSTRESS=    0.0 pullay stress

  Mass of Ions in am
   POMASS =  22.99208.98 32.07
  Ionic Valenz
   ZVAL   =   1.00  5.00  6.00
  Atomic Wigner-Seitz radii
   RWIGS  =  -1.00 -1.00 -1.00
  virtual crystal weights 
   VCA    =   1.00  1.00  1.00
   NELECT =     128.0000    total number of electrons
   NUPDOWN=      -1.0000    fix difference up-down

 DOS related values:
   EMIN   =  10.00;   EMAX   =-10.00  energy-range for DOS
   EFERMI =   0.00
   ISMEAR =     0;   SIGMA  =   0.05  broadening in eV -4-tet -1-fermi 0-gaus

 Electronic relaxation 2 (details)
   IALGO  =     38    algorithm
   LDIAG  =      T    sub-space diagonalisation (order eigenvalues)
   LSUBROT=      F    optimize rotation matrix (better conditioning)
   TURBO    =      0    0=normal 1=particle mesh
   IRESTART =      0    0=no restart 2=restart with 2 vectors
   NREBOOT  =      0    no. of reboots
   NMIN     =      0    reboot dimension
   EREF     =   0.00    reference energy to select bands
   IMIX   =      4    mixing-type and parameters
     AMIX     =   0.40;   BMIX     =  1.00
     AMIX_MAG =   1.60;   BMIX_MAG =  1.00
     AMIN     =   0.10
     WC   =   100.;   INIMIX=   1;  MIXPRE=   1;  MAXMIX= -45

 Intra band minimization:
   WEIMIN = 0.0010     energy-eigenvalue tresh-hold
   EBREAK =  0.30E-06  absolut break condition
   DEPER  =   0.30     relativ break condition  

   TIME   =   0.40     timestep for ELM

  volume/ion in A,a.u.               =      33.95       229.12
  Fermi-wavevector in a.u.,A,eV,Ry     =   0.860060  1.625278 10.064282  0.739704
  Thomas-Fermi vector in A             =   1.977509
 
 Write flags
   LWAVE        =      F    write WAVECAR
   LDOWNSAMPLE  =      F    k-point downsampling of WAVECAR
   LCHARG       =      F    write CHGCAR
   LVTOT        =      F    write LOCPOT, total local potential
   LVHAR        =      F    write LOCPOT, Hartree potential only
   LELF         =      F    write electronic localiz. function (ELF)
   LORBIT       =     10    0 simple, 1 ext, 2 COOP (PROOUT), +10 PAW based schemes


 Dipole corrections
   LMONO  =      F    monopole corrections only (constant potential shift)
   LDIPOL =      F    correct potential (dipole corrections)
   IDIPOL =      0    1-x, 2-y, 3-z, 4-all directions 
   EPSILON=  1.0000000 bulk dielectric constant

 Exchange correlation treatment:
   GGA     =    --    GGA type
   LEXCH   =     8    internal setting for exchange type
   VOSKOWN=      0    Vosko Wilk Nusair interpolation
   LHFCALC =     F    Hartree Fock is set to
   LHFONE  =     F    Hartree Fock one center treatment
   AEXX    =    0.0000 exact exchange contribution

 Linear response parameters
   LEPSILON=     F    determine dielectric tensor
   LRPA    =     F    only Hartree local field effects (RPA)
   LNABLA  =     F    use nabla operator in PAW spheres
   LVEL    =     F    velocity operator in full k-point grid
   LINTERFAST=   F  fast interpolation
   KINTER  =     0    interpolate to denser k-point grid
   CSHIFT  =0.1000    complex shift for real part using Kramers Kronig
   OMEGAMAX=  -1.0    maximum frequency
   DEG_THRESHOLD= 0.2000000E-02 threshold for treating states as degnerate
   RTIME   =   -0.100 relaxation time in fs
  (WPLASMAI=    0.000 imaginary part of plasma frequency in eV, 0.658/RTIME)
   DFIELD  = 0.0000000 0.0000000 0.0000000 field for delta impulse in time
 
 Orbital magnetization related:
   ORBITALMAG=     F  switch on orbital magnetization
   LCHIMAG   =     F  perturbation theory with respect to B field
   DQ        =  0.001000  dq finite difference perturbation B field
   LLRAUG    =     F  two centre corrections for induced B field



--------------------------------------------------------------------------------------------------------


 conjugate gradient relaxation of ions
 charge density and potential will be updated during run
 non-spin polarized calculation
 Variant of blocked Davidson
 Davidson routine will perform the subspace rotation
 perform sub-space diagonalisation
    after iterative eigenvector-optimisation
 modified Broyden-mixing scheme, WC =      100.0
 initial mixing is a Kerker type mixing with AMIX =  0.4000 and BMIX =      1.0000
 Hartree-type preconditioning will be used
 using additional bands           20
 real space projection scheme for non local part
 use partial core corrections
 calculate Harris-corrections to forces 
   (improved forces if not selfconsistent)
 use gradient corrections 
 use of overlap-Matrix (Vanderbilt PP)
 Gauss-broadening in eV      SIGMA  =   0.05


--------------------------------------------------------------------------------------------------------


  energy-cutoff  :      300.00
  volume of cell :      882.77
      direct lattice vectors                 reciprocal lattice vectors
     4.244011820  0.000000000  0.000000000     0.235626111  0.000000000  0.000000000
     0.000000000 13.413408770  0.040872120     0.000000000  0.074570277 -0.005911398
     0.000000000  1.229592640 15.510893890     0.000000000 -0.000196497  0.064486394

  length of vectors
     4.244011820 13.413471041 15.559554214     0.235626111  0.074804217  0.064486693


 
 k-points in units of 2pi/SCALE and weight: pymatgen with grid density = 807 / numbe
   0.00000000  0.01859345  0.01464375       0.100
   0.04712522  0.01859345  0.01464375       0.200
   0.09425044  0.01859345  0.01464375       0.200
   0.00000000 -0.01869169  0.01759945       0.100
   0.04712522 -0.01869169  0.01759945       0.200
   0.09425044 -0.01869169  0.01759945       0.200
 
 k-points in reciprocal lattice and weights: pymatgen with grid density = 807 / numbe
   0.00000000  0.25000000  0.25000000       0.100
   0.20000000  0.25000000  0.25000000       0.200
   0.40000000  0.25000000  0.25000000       0.200
   0.00000000 -0.25000000  0.25000000       0.100
   0.20000000 -0.25000000  0.25000000       0.200
   0.40000000 -0.25000000  0.25000000       0.200
 
 position of ions in fractional coordinates (direct lattice) 
   0.25000000  0.56849279  0.81209004
   0.75000000  0.43150721  0.18790996
   0.75000000  0.82875309  0.62285478
   0.25000000  0.17124691  0.37714522
   0.25000000  0.94612343  0.87977359
   0.75000000  0.05387657  0.12022641
   0.25000000  0.83155606  0.27488852
   0.75000000  0.16844394  0.72511148
   0.75000000  0.73146608  0.05056020
   0.25000000  0.26853392  0.94943980
   0.75000000  0.60668333  0.42829721
   0.25000000  0.39331667  0.57170279
   0.25000000  0.45798711  0.39320698
   0.75000000  0.54201289  0.60679302
   0.25000000  0.59813812  0.03793755
   0.75000000  0.40186188  0.96206245
   0.75000000  0.98566906  0.29540055
   0.25000000  0.01433094  0.70459945
   0.75000000  0.79785506  0.86286623
   0.25000000  0.20214494  0.13713377
   0.25000000  0.75545718  0.45156839
   0.75000000  0.24454282  0.54843161
   0.75000000  0.69160821  0.24041933
   0.25000000  0.30839179  0.75958067
   0.25000000  0.90357682  0.08303846
   0.75000000  0.09642318  0.91696154
 
 position of ions in cartesian coordinates  (Angst):
   1.06100295  8.62396611 12.61947795
   3.18300886  6.01903530  2.93228806
   3.18300886 11.88226162  9.69490730
   1.06100295  2.76073979  5.85685871
   1.06100295 13.77250344 13.68474487
   3.18300886  0.87049797  1.86702114
   1.06100295 11.49200225  4.29775412
   3.18300886  3.15099916 11.25401189
   3.18300886  9.87362198  0.81413047
   1.06100295  4.76937943 14.73763554
   3.18300886  8.66432260  6.66806901
   1.06100295  5.97867881  8.88369700
   1.06100295  6.62665273  6.11771065
   3.18300886  8.01634868  9.43405536
   1.06100295  8.06971884  0.61289249
   3.18300886  6.57328257 14.93887352
   3.18300886 13.58440436  4.62221297
   1.06100295  1.05859705 10.92955304
   3.18300886 11.76293002 13.41643656
   1.06100295  2.88007139  2.13532945
   1.06100295 10.68850113  7.03510652
   3.18300886  3.95450028  8.51665949
   3.18300886  9.57244147  3.75738621
   1.06100295  5.07055994 11.79437980
   1.06100295 12.22214872  1.32493184
   3.18300886  2.42085269 14.22683417
 


--------------------------------------------------------------------------------------------------------


 k-point  1 :   0.0000 0.2500 0.2500  plane waves:   10345
 k-point  2 :   0.2000 0.2500 0.2500  plane waves:   10416
 k-point  3 :   0.4000 0.2500 0.2500  plane waves:   10443
 k-point  4 :   0.0000-0.2500 0.2500  plane waves:   10347
 k-point  5 :   0.2000-0.2500 0.2500  plane waves:   10416
 k-point  6 :   0.4000-0.2500 0.2500  plane waves:   10459

 maximum and minimum number of plane-waves per node :     10459    10345

 maximum number of plane-waves:     10459
 maximum index in each direction: 
   IXMAX=    5   IYMAX=   19   IZMAX=   21
   IXMIN=   -6   IYMIN=  -19   IZMIN=  -22


 serial   3D FFT for wavefunctions
 parallel 3D FFT for charge:
    minimum data exchange during FFTs selected (reduces bandwidth)


 total amount of memory used by VASP MPI-rank0    44001. kBytes
=======================================================================

   base      :      30000. kBytes
   nonlr-proj:       2679. kBytes
   fftplans  :        905. kBytes
   grid      :       4039. kBytes
   one-center:        210. kBytes
   wavefun   :       6168. kBytes
 
     INWAV:  cpu time    0.0000: real time    0.0003
 Broyden mixing: mesh for mixing (old mesh)
   NGX = 11   NGY = 37   NGZ = 43
  (NGX  = 28   NGY  = 80   NGZ  = 96)
  gives a total of  17501 points

 initial charge density was supplied:
 charge density of overlapping atoms calculated
 number of electron     128.0000000 magnetization 
 keeping initial charge density in first step


--------------------------------------------------------------------------------------------------------


 Maximum index for non-local projection operator         1414
 Maximum index for augmentation-charges          196 (set IRDMAX)


--------------------------------------------------------------------------------------------------------


 First call to EWALD:  gamma=   0.185
 Maximum number of real-space cells 6x 2x 2
 Maximum number of reciprocal cells 1x 4x 4

    FEWALD:  cpu time    0.0028: real time    0.0028


--------------------------------------- Iteration      1(   1)  ---------------------------------------


    POTLOK:  cpu time    0.0136: real time    0.0137
    SETDIJ:  cpu time    0.1648: real time    0.1649
     EDDAV:  cpu time    0.9731: real time    0.9778
       DOS:  cpu time    0.0004: real time    0.0004
    --------------------------------------------
      LOOP:  cpu time    1.1520: real time    1.1568

 eigenvalue-minimisations  :  1008
 total energy-change (2. order) : 0.5723028E+03  (-0.3405913E+04)
 number of electron     128.0000000 magnetization 
 augmentation part      128.0000000 magnetization 

 Free energy of the ion-electron system (eV)
  ---------------------------------------------------
  alpha Z        PSCENC =        54.36321834
  Ewald energy   TEWEN  =     -3311.06114051
  -Hartree energ DENC   =     -1717.05245535
  -exchange      EXHF   =         0.00000000
  -V(xc)+E(xc)   XCENC  =      -863.21572963
  PAW double counting   =      5005.02510699    -3874.88854302
  entropy T*S    EENTRO =        -0.00236697
  eigenvalues    EBANDS =       176.58390051
  atomic energy  EATOM  =      5102.55081770
  Solvation  Ediel_sol  =         0.00000000
  ---------------------------------------------------
  free energy    TOTEN  =       572.30280806 eV

  energy without entropy =      572.30517503  energy(sigma->0) =      572.30399154


--------------------------------------------------------------------------------------------------------




--------------------------------------- Iteration      1(   2)  ---------------------------------------


     EDDAV:  cpu time    0.9441: real time    0.9453
       DOS:  cpu time    0.0002: real time    0.0002
    --------------------------------------------
      LOOP:  cpu time    0.9444: real time    0.9455

 eigenvalue-minimisations  :  1344
 total energy-change (2. order) :-0.6057806E+03  (-0.5850762E+03)
 number of electron     128.0000000 magnetization 
 augmentation part      128.0000000 magnetization 

 Free energy of the ion-electron system (eV)
  ---------------------------------------------------
  alpha Z        PSCENC =        54.36321834
  Ewald energy   TEWEN  =     -3311.06114051
  -Hartree energ DENC   =     -1717.05245535
  -exchange      EXHF   =         0.00000000
  -V(xc)+E(xc)   XCENC  =      -863.21572963
  PAW double counting   =      5005.02510699    -3874.88854302
  entropy T*S    EENTRO =        -0.00000000
  eigenvalues    EBANDS =      -429.19908445
  atomic energy  EATOM  =      5102.55081770
  Solvation  Ediel_sol  =         0.00000000
  ---------------------------------------------------
  free energy    TOTEN  =       -33.47780992 eV

  energy without entropy =      -33.47780992  energy(sigma->0) =      -33.47780992


--------------------------------------------------------------------------------------------------------




--------------------------------------- Iteration      1(   3)  ---------------------------------------


     EDDAV:  cpu time    0.9950: real time    0.9952
       DOS:  cpu time    0.0005: real time    0.0005
    --------------------------------------------
      LOOP:  cpu time    0.9955: real time    0.9957

 eigenvalue-minimisations  :  1246
 total energy-change (2. order) :-0.7720496E+02  (-0.7623856E+02)
 number of electron     128.0000000 magnetization 
 augmentation part      128.0000000 magnetization 

 Free energy of the ion-electron system (eV)
  ---------------------------------------------------
  alpha Z        PSCENC =        54.36321834
  Ewald energy   TEWEN  =     -3311.06114051
  -Hartree energ DENC   =     -1717.05245535
  -exchange      EXHF   =         0.00000000
  -V(xc)+E(xc)   XCENC  =      -863.21572963
  PAW double counting   =      5005.02510699    -3874.88854302
  entropy T*S    EENTRO =        -0.00000000
  eigenvalues    EBANDS =      -506.40404872
  atomic energy  EATOM  =      5102.55081770
  Solvation  Ediel_sol  =         0.00000000
  ---------------------------------------------------
  free energy    TOTEN  =      -110.68277420 eV

  energy without entropy =     -110.68277420  energy(sigma->0) =     -110.68277420


--------------------------------------------------------------------------------------------------------




--------------------------------------- Iteration      1(   4)  ---------------------------------------


     EDDAV:  cpu time    1.3384: real time    1.3402
       DOS:  cpu time    0.0003: real time    0.0003
    --------------------------------------------
      LOOP:  cpu time    1.3387: real time    1.3405

 eigenvalue-minimisations  :  1624
 total energy-change (2. order) :-0.3658545E+01  (-0.3646948E+01)
 number of electron     128.0000000 magnetization 
 augmentation part      128.0000000 magnetization 

 Free energy of the ion-electron system (eV)
  ---------------------------------------------------
  alpha Z        PSCENC =        54.36321834
  Ewald energy   TEWEN  =     -3311.06114051
  -Hartree energ DENC   =     -1717.05245535
  -exchange      EXHF   =         0.00000000
  -V(xc)+E(xc)   XCENC  =      -863.21572963
  PAW double counting   =      5005.02510699    -3874.88854302
  entropy T*S    EENTRO =        -0.00000000
  eigenvalues    EBANDS =      -510.06259341
  atomic energy  EATOM  =      5102.55081770
  Solvation  Ediel_sol  =         0.00000000
  ---------------------------------------------------
  free energy    TOTEN  =      -114.34131889 eV

  energy without entropy =     -114.34131889  energy(sigma->0) =     -114.34131889


--------------------------------------------------------------------------------------------------------




--------------------------------------- Iteration      1(   5)  ---------------------------------------


     EDDAV:  cpu time    1.2858: real time    1.2864
       DOS:  cpu time    0.0002: real time    0.0002
    CHARGE:  cpu time    0.0351: real time    0.0352
    MIXING:  cpu time    0.0008: real time    0.0014
    --------------------------------------------
      LOOP:  cpu time    1.3220: real time    1.3232

 eigenvalue-minimisations  :  1372
 total energy-change (2. order) :-0.4982667E-01  (-0.4977869E-01)
 number of electron     127.9999398 magnetization 
 augmentation part      -23.8290730 magnetization 

 Broyden mixing:
  rms(total) = 0.16598E+01    rms(broyden)= 0.16596E+01
  rms(prec ) = 0.20027E+01
  weight for this iteration     100.00

 Free energy of the ion-electron system (eV)
  ---------------------------------------------------
  alpha Z        PSCENC =        54.36321834
  Ewald energy   TEWEN  =     -3311.06114051
  -Hartree energ DENC   =     -1717.05245535
  -exchange      EXHF   =         0.00000000
  -V(xc)+E(xc)   XCENC  =      -863.21572963
  PAW double counting   =      5005.02510699    -3874.88854302
  entropy T*S    EENTRO =        -0.00000000
  eigenvalues    EBANDS =      -510.11242008
  atomic energy  EATOM  =      5102.55081770
  Solvation  Ediel_sol  =         0.00000000
  ---------------------------------------------------
  free energy    TOTEN  =      -114.39114556 eV

  energy without entropy =     -114.39114556  energy(sigma->0) =     -114.39114556


--------------------------------------------------------------------------------------------------------




--------------------------------------- Iteration      1(   6)  ---------------------------------------


    POTLOK:  cpu time    0.0094: real time    0.0096
    SETDIJ:  cpu time    0.1623: real time    0.1623
     EDDAV:  cpu time    1.2498: real time    1.2699
       DOS:  cpu time    0.0007: real time    0.0007
    CHARGE:  cpu time    0.0442: real time    0.0442
    MIXING:  cpu time    0.0009: real time    0.0009
    --------------------------------------------
      LOOP:  cpu time    1.4673: real time    1.4876

 eigenvalue-minimisations  :  1176
 total energy-change (2. order) : 0.9493240E+01  (-0.2542064E+01)
 number of electron     127.9999401 magnetization 
 augmentation part      -23.8579571 magnetization 

 Broyden mixing:
  rms(total) = 0.11371E+01    rms(broyden)= 0.11370E+01
  rms(prec ) = 0.11802E+01
  weight for this iteration     100.00

 eigenvalues of (default mixing * dielectric matrix)
  average eigenvalue GAMMA=   1.0032
  1.0032

 Free energy of the ion-electron system (eV)
  ---------------------------------------------------
  alpha Z        PSCENC =        54.36321834
  Ewald energy   TEWEN  =     -3311.06114051
  -Hartree energ DENC   =     -1789.51649068
  -exchange      EXHF   =         0.00000000
  -V(xc)+E(xc)   XCENC  =      -857.21148141
  PAW double counting   =      5881.68821474    -4752.59965893
  entropy T*S    EENTRO =        -0.00000000
  eigenvalues    EBANDS =      -433.11138461
  atomic energy  EATOM  =      5102.55081770
  Solvation  Ediel_sol  =         0.00000000
  ---------------------------------------------------
  free energy    TOTEN  =      -104.89790537 eV

  energy without entropy =     -104.89790537  energy(sigma->0) =     -104.89790537


--------------------------------------------------------------------------------------------------------




--------------------------------------- Iteration      1(   7)  ---------------------------------------


    POTLOK:  cpu time    0.0124: real time    0.0136
    SETDIJ:  cpu time    0.1661: real time    0.1665
     EDDAV:  cpu time    1.1911: real time    1.1920
       DOS:  cpu time    0.0002: real time    0.0002
    CHARGE:  cpu time    0.0342: real time    0.0342
    MIXING:  cpu time    0.0004: real time    0.0004
    --------------------------------------------
      LOOP:  cpu time    1.4044: real time    1.4070

 eigenvalue-minimisations  :  1246
 total energy-change (2. order) :-0.1922652E-01  (-0.4329811E+00)
 number of electron     127.9999416 magnetization 
 augmentation part      -24.1354508 magnetization 

 Broyden mixing:
  rms(total) = 0.77427E+00    rms(broyden)= 0.77425E+00
  rms(prec ) = 0.80047E+00
  weight for this iteration     100.00

 eigenvalues of (default mixing * dielectric matrix)
  average eigenvalue GAMMA=   1.4098
  0.9246  1.8950

 Free energy of the ion-electron system (eV)
  ---------------------------------------------------
  alpha Z        PSCENC =        54.36321834
  Ewald energy   TEWEN  =     -3311.06114051
  -Hartree energ DENC   =     -1803.29441511
  -exchange      EXHF   =         0.00000000
  -V(xc)+E(xc)   XCENC  =      -856.25308649
  PAW double counting   =      6757.99600728    -5628.84576187
  entropy T*S    EENTRO =        -0.00000000
  eigenvalues    EBANDS =      -420.37277123
  atomic energy  EATOM  =      5102.55081770
  Solvation  Ediel_sol  =         0.00000000
  ---------------------------------------------------
  free energy    TOTEN  =      -104.91713189 eV

  energy without entropy =     -104.91713189  energy(sigma->0) =     -104.91713189


--------------------------------------------------------------------------------------------------------




--------------------------------------- Iteration      1(   8)  ---------------------------------------


    POTLOK:  cpu time    0.0078: real time    0.0079
    SETDIJ:  cpu time    0.1625: real time    0.1625
     EDDAV:  cpu time    1.6638: real time    1.6648
       DOS:  cpu time    0.0004: real time    0.0003
    CHARGE:  cpu time    0.0448: real time    0.0449
    MIXING:  cpu time    0.0009: real time    0.0009
    --------------------------------------------
      LOOP:  cpu time    1.8801: real time    1.8813

 eigenvalue-minimisations  :  1568
 total energy-change (2. order) : 0.1030737E+00  (-0.5590039E-01)
 number of electron     127.9999421 magnetization 
 augmentation part      -24.2290760 magnetization 

 Broyden mixing:
  rms(total) = 0.22048E+00    rms(broyden)= 0.22048E+00
  rms(prec ) = 0.24131E+00
  weight for this iteration     100.00

 eigenvalues of (default mixing * dielectric matrix)
  average eigenvalue GAMMA=   1.4503
  2.3460  1.0025  1.0025

 Free energy of the ion-electron system (eV)
  ---------------------------------------------------
  alpha Z        PSCENC =        54.36321834
  Ewald energy   TEWEN  =     -3311.06114051
  -Hartree energ DENC   =     -1812.45002786
  -exchange      EXHF   =         0.00000000
  -V(xc)+E(xc)   XCENC  =      -855.82345202
  PAW double counting   =      7826.14997595    -6696.59016565
  entropy T*S    EENTRO =        -0.00000000
  eigenvalues    EBANDS =      -411.95328412
  atomic energy  EATOM  =      5102.55081770
  Solvation  Ediel_sol  =         0.00000000
  ---------------------------------------------------
  free energy    TOTEN  =      -104.81405817 eV

  energy without entropy =     -104.81405817  energy(sigma->0) =     -104.81405817


--------------------------------------------------------------------------------------------------------




--------------------------------------- Iteration      1(   9)  ---------------------------------------


    POTLOK:  cpu time    0.0104: real time    0.0106
    SETDIJ:  cpu time    0.1655: real time    0.1657
     EDDAV:  cpu time    1.1971: real time    1.1982
       DOS:  cpu time    0.0003: real time    0.0003
    CHARGE:  cpu time    0.0393: real time    0.0393
    MIXING:  cpu time    0.0007: real time    0.0007
    --------------------------------------------
      LOOP:  cpu time    1.4134: real time    1.4147

 eigenvalue-minimisations  :  1400
 total energy-change (2. order) : 0.2352408E-01  (-0.1354302E-01)
 number of electron     127.9999418 magnetization 
 augmentation part      -24.2391444 magnetization 

 Broyden mixing:
  rms(total) = 0.88333E-01    rms(broyden)= 0.88331E-01
  rms(prec ) = 0.99769E-01
  weight for this iteration     100.00

 eigenvalues of (default mixing * dielectric matrix)
  average eigenvalue GAMMA=   1.2541
  2.3075  0.9677  0.9677  0.7735

 Free energy of the ion-electron system (eV)
  ---------------------------------------------------
  alpha Z        PSCENC =        54.36321834
  Ewald energy   TEWEN  =     -3311.06114051
  -Hartree energ DENC   =     -1818.85192341
  -exchange      EXHF   =         0.00000000
  -V(xc)+E(xc)   XCENC  =      -855.42455847
  PAW double counting   =      8187.77513483    -7057.96111078
  entropy T*S    EENTRO =        -0.00000000
  eigenvalues    EBANDS =      -406.18097179
  atomic energy  EATOM  =      5102.55081770
  Solvation  Ediel_sol  =         0.00000000
  ---------------------------------------------------
  free energy    TOTEN  =      -104.79053410 eV

  energy without entropy =     -104.79053410  energy(sigma->0) =     -104.79053410


--------------------------------------------------------------------------------------------------------




--------------------------------------- Iteration      1(  10)  ---------------------------------------


    POTLOK:  cpu time    0.0095: real time    0.0095
    SETDIJ:  cpu time    0.1626: real time    0.1626
     EDDAV:  cpu time    1.2375: real time    1.2377
       DOS:  cpu time    0.0003: real time    0.0003
    CHARGE:  cpu time    0.0409: real time    0.0409
    MIXING:  cpu time    0.0007: real time    0.0007
    --------------------------------------------
      LOOP:  cpu time    1.4516: real time    1.4518

 eigenvalue-minimisations  :  1316
 total energy-change (2. order) :-0.5677442E-03  (-0.2212257E-02)
 number of electron     127.9999418 magnetization 
 augmentation part      -24.2456681 magnetization 

 Broyden mixing:
  rms(total) = 0.57850E-01    rms(broyden)= 0.57849E-01
  rms(prec ) = 0.68348E-01
  weight for this iteration     100.00

 eigenvalues of (default mixing * dielectric matrix)
  average eigenvalue GAMMA=   1.3495
  2.1598  1.3066  1.3066  0.9873  0.9873

 Free energy of the ion-electron system (eV)
  ---------------------------------------------------
  alpha Z        PSCENC =        54.36321834
  Ewald energy   TEWEN  =     -3311.06114051
  -Hartree energ DENC   =     -1819.91970370
  -exchange      EXHF   =         0.00000000
  -V(xc)+E(xc)   XCENC  =      -855.41470372
  PAW double counting   =      8135.51048296    -7005.64998803
  entropy T*S    EENTRO =        -0.00000000
  eigenvalues    EBANDS =      -405.17008487
  atomic energy  EATOM  =      5102.55081770
  Solvation  Ediel_sol  =         0.00000000
  ---------------------------------------------------
  free energy    TOTEN  =      -104.79110184 eV

  energy without entropy =     -104.79110184  energy(sigma->0) =     -104.79110184


--------------------------------------------------------------------------------------------------------




--------------------------------------- Iteration      1(  11)  ---------------------------------------


    POTLOK:  cpu time    0.0085: real time    0.0085
    SETDIJ:  cpu time    0.1625: real time    0.1625
     EDDAV:  cpu time    0.9712: real time    0.9821
       DOS:  cpu time    0.0003: real time    0.0003
    CHARGE:  cpu time    0.0363: real time    0.0363
    MIXING:  cpu time    0.0005: real time    0.0005
    --------------------------------------------
      LOOP:  cpu time    1.1794: real time    1.1903

 eigenvalue-minimisations  :  1274
 total energy-change (2. order) :-0.1795566E-02  (-0.9410155E-03)
 number of electron     127.9999419 magnetization 
 augmentation part      -24.2393507 magnetization 

 Broyden mixing:
  rms(total) = 0.22231E-01    rms(broyden)= 0.22230E-01
  rms(prec ) = 0.29714E-01
  weight for this iteration     100.00

 eigenvalues of (default mixing * dielectric matrix)
  average eigenvalue GAMMA=   1.4894
  2.5089  2.5089  1.0511  1.0039  0.9319  0.9319

 Free energy of the ion-electron system (eV)
  ---------------------------------------------------
  alpha Z        PSCENC =        54.36321834
  Ewald energy   TEWEN  =     -3311.06114051
  -Hartree energ DENC   =     -1821.93642947
  -exchange      EXHF   =         0.00000000
  -V(xc)+E(xc)   XCENC  =      -855.38760082
  PAW double counting   =      8056.33123419    -6926.36138348
  entropy T*S    EENTRO =        -0.00000000
  eigenvalues    EBANDS =      -403.29161337
  atomic energy  EATOM  =      5102.55081770
  Solvation  Ediel_sol  =         0.00000000
  ---------------------------------------------------
  free energy    TOTEN  =      -104.79289741 eV

  energy without entropy =     -104.79289741  energy(sigma->0) =     -104.79289741


--------------------------------------------------------------------------------------------------------




--------------------------------------- Iteration      1(  12)  ---------------------------------------


    POTLOK:  cpu time    0.0076: real time    0.0077
    SETDIJ:  cpu time    0.1620: real time    0.1621
     EDDAV:  cpu time    0.9396: real time    0.9407
       DOS:  cpu time    0.0002: real time    0.0002
    CHARGE:  cpu time    0.0367: real time    0.0387
    MIXING:  cpu time    0.0007: real time    0.0007
    --------------------------------------------
      LOOP:  cpu time    1.1470: real time    1.1502

 eigenvalue-minimisations  :  1204
 total energy-change (2. order) :-0.1916233E-02  (-0.7737931E-03)
 number of electron     127.9999420 magnetization 
 augmentation part      -24.2325360 magnetization 

 Broyden mixing:
  rms(total) = 0.11684E-01    rms(broyden)= 0.11684E-01
  rms(prec ) = 0.13588E-01
  weight for this iteration     100.00

 eigenvalues of (default mixing * dielectric matrix)
  average eigenvalue GAMMA=   1.4710
  2.6742  2.6742  0.9393  1.0285  1.0285  0.9763  0.9763

 Free energy of the ion-electron system (eV)
  ---------------------------------------------------
  alpha Z        PSCENC =        54.36321834
  Ewald energy   TEWEN  =     -3311.06114051
  -Hartree energ DENC   =     -1823.87886223
  -exchange      EXHF   =         0.00000000
  -V(xc)+E(xc)   XCENC  =      -855.32650582
  PAW double counting   =      8008.31883680    -6878.27571737
  entropy T*S    EENTRO =        -0.00000000
  eigenvalues    EBANDS =      -401.48546055
  atomic energy  EATOM  =      5102.55081770
  Solvation  Ediel_sol  =         0.00000000
  ---------------------------------------------------
  free energy    TOTEN  =      -104.79481364 eV

  energy without entropy =     -104.79481364  energy(sigma->0) =     -104.79481364


--------------------------------------------------------------------------------------------------------




--------------------------------------- Iteration      1(  13)  ---------------------------------------


    POTLOK:  cpu time    0.0073: real time    0.0073
    SETDIJ:  cpu time    0.1639: real time    0.1639
     EDDAV:  cpu time    1.3641: real time    1.3642
       DOS:  cpu time    0.0004: real time    0.0004
    CHARGE:  cpu time    0.0456: real time    0.0458
    MIXING:  cpu time    0.0011: real time    0.0011
    --------------------------------------------
      LOOP:  cpu time    1.5825: real time    1.5827

 eigenvalue-minimisations  :  1358
 total energy-change (2. order) :-0.5902114E-03  (-0.1174699E-03)
 number of electron     127.9999420 magnetization 
 augmentation part      -24.2299365 magnetization 

 Broyden mixing:
  rms(total) = 0.82246E-02    rms(broyden)= 0.82241E-02
  rms(prec ) = 0.92195E-02
  weight for this iteration     100.00

 eigenvalues of (default mixing * dielectric matrix)
  average eigenvalue GAMMA=   1.5144
  2.6613  2.6613  1.4191  1.4191  1.0718  0.9864  0.9480  0.9480

 Free energy of the ion-electron system (eV)
  ---------------------------------------------------
  alpha Z        PSCENC =        54.36321834
  Ewald energy   TEWEN  =     -3311.06114051
  -Hartree energ DENC   =     -1824.18115468
  -exchange      EXHF   =         0.00000000
  -V(xc)+E(xc)   XCENC  =      -855.31764360
  PAW double counting   =      7992.16021090    -6862.11781746
  entropy T*S    EENTRO =        -0.00000000
  eigenvalues    EBANDS =      -401.19189455
  atomic energy  EATOM  =      5102.55081770
  Solvation  Ediel_sol  =         0.00000000
  ---------------------------------------------------
  free energy    TOTEN  =      -104.79540385 eV

  energy without entropy =     -104.79540385  energy(sigma->0) =     -104.79540385


--------------------------------------------------------------------------------------------------------




--------------------------------------- Iteration      1(  14)  ---------------------------------------


    POTLOK:  cpu time    0.0104: real time    0.0106
    SETDIJ:  cpu time    0.1669: real time    0.1669
     EDDAV:  cpu time    1.1110: real time    1.1110
       DOS:  cpu time    0.0004: real time    0.0004
    CHARGE:  cpu time    0.0451: real time    0.0451
    MIXING:  cpu time    0.0010: real time    0.0010
    --------------------------------------------
      LOOP:  cpu time    1.3349: real time    1.3350

 eigenvalue-minimisations  :  1008
 total energy-change (2. order) :-0.2976110E-03  (-0.2271991E-04)
 number of electron     127.9999420 magnetization 
 augmentation part      -24.2302235 magnetization 

 Broyden mixing:
  rms(total) = 0.26391E-02    rms(broyden)= 0.26390E-02
  rms(prec ) = 0.38717E-02
  weight for this iteration     100.00

 eigenvalues of (default mixing * dielectric matrix)
  average eigenvalue GAMMA=   1.5660
  3.1190  2.7888  1.9756  1.2918  0.9642  0.9642  0.8982  1.0461  1.0461

 Free energy of the ion-electron system (eV)
  ---------------------------------------------------
  alpha Z        PSCENC =        54.36321834
  Ewald energy   TEWEN  =     -3311.06114051
  -Hartree energ DENC   =     -1824.34215880
  -exchange      EXHF   =         0.00000000
  -V(xc)+E(xc)   XCENC  =      -855.30426653
  PAW double counting   =      7993.45133657    -6863.41590688
  entropy T*S    EENTRO =        -0.00000000
  eigenvalues    EBANDS =      -401.03760135
  atomic energy  EATOM  =      5102.55081770
  Solvation  Ediel_sol  =         0.00000000
  ---------------------------------------------------
  free energy    TOTEN  =      -104.79570146 eV

  energy without entropy =     -104.79570146  energy(sigma->0) =     -104.79570146


--------------------------------------------------------------------------------------------------------




--------------------------------------- Iteration      1(  15)  ---------------------------------------


    POTLOK:  cpu time    0.0108: real time    0.0109
    SETDIJ:  cpu time    0.1655: real time    0.1655
     EDDAV:  cpu time    1.2662: real time    1.2663
       DOS:  cpu time    0.0003: real time    0.0003
    CHARGE:  cpu time    0.0468: real time    0.0468
    MIXING:  cpu time    0.0013: real time    0.0013
    --------------------------------------------
      LOOP:  cpu time    1.4909: real time    1.4912

 eigenvalue-minimisations  :  1050
 total energy-change (2. order) :-0.1362187E-03  (-0.2618534E-04)
 number of electron     127.9999420 magnetization 
 augmentation part      -24.2304315 magnetization 

 Broyden mixing:
  rms(total) = 0.18445E-02    rms(broyden)= 0.18445E-02
  rms(prec ) = 0.20028E-02
  weight for this iteration     100.00

 eigenvalues of (default mixing * dielectric matrix)
  average eigenvalue GAMMA=   1.5258
  3.3359  2.5159  2.2989  1.0714  1.0714  1.2106  0.9427  0.9427  0.9343  0.9343

 Free energy of the ion-electron system (eV)
  ---------------------------------------------------
  alpha Z        PSCENC =        54.36321834
  Ewald energy   TEWEN  =     -3311.06114051
  -Hartree energ DENC   =     -1824.59276382
  -exchange      EXHF   =         0.00000000
  -V(xc)+E(xc)   XCENC  =      -855.29445651
  PAW double counting   =      7991.96147075    -6861.92215324
  entropy T*S    EENTRO =        -0.00000000
  eigenvalues    EBANDS =      -400.80083040
  atomic energy  EATOM  =      5102.55081770
  Solvation  Ediel_sol  =         0.00000000
  ---------------------------------------------------
  free energy    TOTEN  =      -104.79583768 eV

  energy without entropy =     -104.79583768  energy(sigma->0) =     -104.79583768


--------------------------------------------------------------------------------------------------------




--------------------------------------- Iteration      1(  16)  ---------------------------------------


    POTLOK:  cpu time    0.0117: real time    0.0118
    SETDIJ:  cpu time    0.1658: real time    0.1659
     EDDAV:  cpu time    1.0303: real time    1.0305
       DOS:  cpu time    0.0002: real time    0.0002
    --------------------------------------------
      LOOP:  cpu time    1.2080: real time    1.2084

 eigenvalue-minimisations  :   924
 total energy-change (2. order) :-0.1563781E-04  (-0.2278013E-05)
 number of electron     127.9999420 magnetization 
 augmentation part      -24.2304315 magnetization 

 Free energy of the ion-electron system (eV)
  ---------------------------------------------------
  alpha Z        PSCENC =        54.36321834
  Ewald energy   TEWEN  =     -3311.06114051
  -Hartree energ DENC   =     -1824.61681735
  -exchange      EXHF   =         0.00000000
  -V(xc)+E(xc)   XCENC  =      -855.29355463
  PAW double counting   =      7993.67931077    -6863.64030066
  entropy T*S    EENTRO =        -0.00000000
  eigenvalues    EBANDS =      -400.77738699
  atomic energy  EATOM  =      5102.55081770
  Solvation  Ediel_sol  =         0.00000000
  ---------------------------------------------------
  free energy    TOTEN  =      -104.79585332 eV

  energy without entropy =     -104.79585332  energy(sigma->0) =     -104.79585332


--------------------------------------------------------------------------------------------------------




 average (electrostatic) potential at core
  the test charge radii are     1.1212  1.4024  0.9698
  (the norm of the test charge is              1.0000)
       1 -42.7624       2 -42.7624       3 -42.9006       4 -42.9006       5 -65.5642
       6 -65.5642       7 -65.4735       8 -65.4735       9 -65.3951      10 -65.3951
      11 -65.4989      12 -65.4989      13 -88.6947      14 -88.6947      15 -88.4942
      16 -88.4942      17 -88.6996      18 -88.6996      19 -88.7560      20 -88.7560
      21 -88.7033      22 -88.7033      23 -88.7718      24 -88.7718      25 -88.8427
      26 -88.8427
 
 
 
 E-fermi :   1.9237     XC(G=0):  -7.6787     alpha+bet : -7.2801


 k-point     1 :       0.0000    0.2500    0.2500
  band No.  band energies     occupation 
      1     -11.2179      2.00000
      2     -10.9562      2.00000
      3     -10.9033      2.00000
      4     -10.5425      2.00000
      5     -10.2508      2.00000
      6     -10.2409      2.00000
      7     -10.1812      2.00000
      8      -9.6338      2.00000
      9      -9.6090      2.00000
     10      -9.5461      2.00000
     11      -9.4579      2.00000
     12      -9.4054      2.00000
     13      -9.3757      2.00000
     14      -9.3547      2.00000
     15      -8.0219      2.00000
     16      -7.7134      2.00000
     17      -7.5384      2.00000
     18      -7.3918      2.00000
     19      -7.2144      2.00000
     20      -6.8878      2.00000
     21      -6.7408      2.00000
     22      -6.4184      2.00000
     23      -2.3433      2.00000
     24      -1.7756      2.00000
     25      -1.5573      2.00000
     26      -1.0866      2.00000
     27      -0.8906      2.00000
     28      -0.8150      2.00000
     29      -0.8131      2.00000
     30      -0.5429      2.00000
     31      -0.4832      2.00000
     32      -0.4632      2.00000
     33      -0.4289      2.00000
     34      -0.3866      2.00000
     35      -0.2722      2.00000
     36      -0.1636      2.00000
     37      -0.1535      2.00000
     38       0.0442      2.00000
     39       0.1109      2.00000
     40       0.1386      2.00000
     41       0.1522      2.00000
     42       0.1648      2.00000
     43       0.1977      2.00000
     44       0.2823      2.00000
     45       0.3510      2.00000
     46       0.4105      2.00000
     47       0.4804      2.00000
     48       0.5105      2.00000
     49       0.5850      2.00000
     50       0.7077      2.00000
     51       0.7814      2.00000
     52       0.8305      2.00000
     53       0.8473      2.00000
     54       0.8623      2.00000
     55       0.9516      2.00000
     56       0.9537      2.00000
     57       1.0046      2.00000
     58       1.0275      2.00000
     59       1.0311      2.00000
     60       1.0868      2.00000
     61       1.1425      2.00000
     62       1.3030      2.00000
     63       1.4386      2.00000
     64       1.6938      2.00000
     65       2.9928      0.00000
     66       3.0294      0.00000
     67       3.1351      0.00000
     68       3.3501      0.00000
     69       3.6239      0.00000
     70       3.6596      0.00000
     71       3.7959      0.00000
     72       3.8854      0.00000
     73       4.1984      0.00000
     74       4.2068      0.00000
     75       4.2631      0.00000
     76       4.3590      0.00000
     77       4.3795      0.00000
     78       4.4026      0.00000
     79       4.4846      0.00000
     80       4.6444      0.00000
     81       4.6665      0.00000
     82       4.7068      0.00000
     83       4.8752      0.00000
     84       4.8962      0.00000

 k-point     2 :       0.2000    0.2500    0.2500
  band No.  band energies     occupation 
      1     -10.9849      2.00000
      2     -10.7323      2.00000
      3     -10.6804      2.00000
      4     -10.3390      2.00000
      5     -10.0554      2.00000
      6     -10.0450      2.00000
      7      -9.9894      2.00000
      8      -9.5405      2.00000
      9      -9.4918      2.00000
     10      -9.4520      2.00000
     11      -9.3980      2.00000
     12      -9.3563      2.00000
     13      -9.3272      2.00000
     14      -9.2895      2.00000
     15      -8.2206      2.00000
     16      -7.9007      2.00000
     17      -7.7687      2.00000
     18      -7.5560      2.00000
     19      -7.4184      2.00000
     20      -7.1630      2.00000
     21      -7.0358      2.00000
     22      -6.7418      2.00000
     23      -2.1308      2.00000
     24      -1.6149      2.00000
     25      -1.5355      2.00000
     26      -1.4967      2.00000
     27      -1.4542      2.00000
     28      -1.3425      2.00000
     29      -1.2653      2.00000
     30      -1.0394      2.00000
     31      -0.9259      2.00000
     32      -0.8862      2.00000
     33      -0.7270      2.00000
     34      -0.6328      2.00000
     35      -0.5743      2.00000
     36      -0.5219      2.00000
     37      -0.4665      2.00000
     38      -0.3169      2.00000
     39      -0.2557      2.00000
     40      -0.1695      2.00000
     41      -0.1335      2.00000
     42      -0.0535      2.00000
     43      -0.0185      2.00000
     44       0.0055      2.00000
     45       0.0757      2.00000
     46       0.2629      2.00000
     47       0.3452      2.00000
     48       0.4804      2.00000
     49       0.5143      2.00000
     50       0.5561      2.00000
     51       0.6683      2.00000
     52       0.7317      2.00000
     53       0.8276      2.00000
     54       0.8879      2.00000
     55       0.9301      2.00000
     56       1.1048      2.00000
     57       1.1624      2.00000
     58       1.1931      2.00000
     59       1.2737      2.00000
     60       1.3417      2.00000
     61       1.3425      2.00000
     62       1.3546      2.00000
     63       1.4107      2.00000
     64       1.4913      2.00000
     65       3.2359      0.00000
     66       3.4830      0.00000
     67       3.5726      0.00000
     68       3.8451      0.00000
     69       3.9198      0.00000
     70       4.0137      0.00000
     71       4.1089      0.00000
     72       4.1403      0.00000
     73       4.2760      0.00000
     74       4.3120      0.00000
     75       4.3758      0.00000
     76       4.4748      0.00000
     77       4.5358      0.00000
     78       4.6106      0.00000
     79       4.7647      0.00000
     80       4.8514      0.00000
     81       4.8834      0.00000
     82       4.9561      0.00000
     83       5.0136      0.00000
     84       5.0882      0.00000

 k-point     3 :       0.4000    0.2500    0.2500
  band No.  band energies     occupation 
      1     -10.3488      2.00000
      2     -10.1402      2.00000
      3     -10.0909      2.00000
      4      -9.8576      2.00000
      5      -9.6641      2.00000
      6      -9.6130      2.00000
      7      -9.6093      2.00000
      8      -9.5869      2.00000
      9      -9.5008      2.00000
     10      -9.4572      2.00000
     11      -9.3968      2.00000
     12      -9.3835      2.00000
     13      -9.1883      2.00000
     14      -9.1128      2.00000
     15      -8.2661      2.00000
     16      -8.2082      2.00000
     17      -8.2027      2.00000
     18      -7.9903      2.00000
     19      -7.8970      2.00000
     20      -7.7563      2.00000
     21      -7.6607      2.00000
     22      -7.5097      2.00000
     23      -2.1946      2.00000
     24      -2.1168      2.00000
     25      -1.9055      2.00000
     26      -1.8041      2.00000
     27      -1.7191      2.00000
     28      -1.7006      2.00000
     29      -1.4711      2.00000
     30      -1.2795      2.00000
     31      -1.2347      2.00000
     32      -1.1117      2.00000
     33      -1.0599      2.00000
     34      -1.0183      2.00000
     35      -0.9809      2.00000
     36      -0.8955      2.00000
     37      -0.7687      2.00000
     38      -0.6942      2.00000
     39      -0.6063      2.00000
     40      -0.5614      2.00000
     41      -0.5244      2.00000
     42      -0.3519      2.00000
     43      -0.3122      2.00000
     44      -0.1887      2.00000
     45      -0.1491      2.00000
     46       0.0696      2.00000
     47       0.4731      2.00000
     48       0.5195      2.00000
     49       0.5680      2.00000
     50       0.6130      2.00000
     51       0.6351      2.00000
     52       0.6644      2.00000
     53       0.7644      2.00000
     54       0.7665      2.00000
     55       0.7906      2.00000
     56       0.8388      2.00000
     57       0.9643      2.00000
     58       1.0002      2.00000
     59       1.0678      2.00000
     60       1.1243      2.00000
     61       1.1488      2.00000
     62       1.2636      2.00000
     63       1.3546      2.00000
     64       1.4130      2.00000
     65       3.4238      0.00000
     66       3.6635      0.00000
     67       3.8599      0.00000
     68       3.9431      0.00000
     69       4.1516      0.00000
     70       4.2787      0.00000
     71       4.3406      0.00000
     72       4.4145      0.00000
     73       4.5299      0.00000
     74       4.5938      0.00000
     75       4.6686      0.00000
     76       4.7523      0.00000
     77       4.8959      0.00000
     78       5.0236      0.00000
     79       5.0432      0.00000
     80       5.0974      0.00000
     81       5.1376      0.00000
     82       5.3364      0.00000
     83       5.4542      0.00000
     84       5.4851      0.00000

 k-point     4 :       0.0000   -0.2500    0.2500
  band No.  band energies     occupation 
      1     -11.1889      2.00000
      2     -11.0856      2.00000
      3     -10.6701      2.00000
      4     -10.5731      2.00000
      5     -10.5410      2.00000
      6     -10.1955      2.00000
      7      -9.9379      2.00000
      8      -9.7489      2.00000
      9      -9.6088      2.00000
     10      -9.5581      2.00000
     11      -9.4570      2.00000
     12      -9.4308      2.00000
     13      -9.3566      2.00000
     14      -9.3239      2.00000
     15      -8.0216      2.00000
     16      -7.7556      2.00000
     17      -7.4892      2.00000
     18      -7.3269      2.00000
     19      -7.2238      2.00000
     20      -7.0378      2.00000
     21      -6.6226      2.00000
     22      -6.4486      2.00000
     23      -2.2570      2.00000
     24      -2.0635      2.00000
     25      -1.1830      2.00000
     26      -1.0097      2.00000
     27      -0.8916      2.00000
     28      -0.8738      2.00000
     29      -0.8010      2.00000
     30      -0.6654      2.00000
     31      -0.6307      2.00000
     32      -0.5374      2.00000
     33      -0.4148      2.00000
     34      -0.2891      2.00000
     35      -0.2160      2.00000
     36      -0.1906      2.00000
     37      -0.1627      2.00000
     38      -0.1343      2.00000
     39       0.0449      2.00000
     40       0.1268      2.00000
     41       0.1392      2.00000
     42       0.1810      2.00000
     43       0.2683      2.00000
     44       0.2885      2.00000
     45       0.3453      2.00000
     46       0.4596      2.00000
     47       0.4778      2.00000
     48       0.5358      2.00000
     49       0.7235      2.00000
     50       0.7762      2.00000
     51       0.7819      2.00000
     52       0.8173      2.00000
     53       0.8437      2.00000
     54       0.8849      2.00000
     55       0.9656      2.00000
     56       0.9663      2.00000
     57       0.9849      2.00000
     58       1.0335      2.00000
     59       1.0375      2.00000
     60       1.0842      2.00000
     61       1.1965      2.00000
     62       1.2388      2.00000
     63       1.3808      2.00000
     64       1.7045      2.00000
     65       2.7631      0.00000
     66       3.1028      0.00000
     67       3.1166      0.00000
     68       3.2948      0.00000
     69       3.5309      0.00000
     70       3.7753      0.00000
     71       3.9209      0.00000
     72       4.1333      0.00000
     73       4.1865      0.00000
     74       4.1896      0.00000
     75       4.2596      0.00000
     76       4.3519      0.00000
     77       4.4196      0.00000
     78       4.4246      0.00000
     79       4.5046      0.00000
     80       4.5359      0.00000
     81       4.6317      0.00000
     82       4.6368      0.00000
     83       4.8368      0.00000
     84       4.9110      0.00000

 k-point     5 :       0.2000   -0.2500    0.2500
  band No.  band energies     occupation 
      1     -10.9562      2.00000
      2     -10.8581      2.00000
      3     -10.4546      2.00000
      4     -10.3652      2.00000
      5     -10.3358      2.00000
      6     -10.0034      2.00000
      7      -9.7600      2.00000
      8      -9.5958      2.00000
      9      -9.5275      2.00000
     10      -9.4804      2.00000
     11      -9.3958      2.00000
     12      -9.3682      2.00000
     13      -9.3164      2.00000
     14      -9.2647      2.00000
     15      -8.2242      2.00000
     16      -7.9683      2.00000
     17      -7.6181      2.00000
     18      -7.5072      2.00000
     19      -7.4882      2.00000
     20      -7.3186      2.00000
     21      -6.8902      2.00000
     22      -6.7896      2.00000
     23      -2.0610      2.00000
     24      -1.8707      2.00000
     25      -1.5410      2.00000
     26      -1.5028      2.00000
     27      -1.3171      2.00000
     28      -1.2334      2.00000
     29      -1.1579      2.00000
     30      -1.0546      2.00000
     31      -0.9066      2.00000
     32      -0.8645      2.00000
     33      -0.7854      2.00000
     34      -0.6716      2.00000
     35      -0.5893      2.00000
     36      -0.5731      2.00000
     37      -0.4500      2.00000
     38      -0.4097      2.00000
     39      -0.2998      2.00000
     40      -0.2553      2.00000
     41      -0.1902      2.00000
     42      -0.0574      2.00000
     43       0.0023      2.00000
     44       0.0546      2.00000
     45       0.2458      2.00000
     46       0.3077      2.00000
     47       0.3409      2.00000
     48       0.5039      2.00000
     49       0.5761      2.00000
     50       0.6422      2.00000
     51       0.6482      2.00000
     52       0.6671      2.00000
     53       0.7188      2.00000
     54       0.8482      2.00000
     55       0.9668      2.00000
     56       1.1055      2.00000
     57       1.1544      2.00000
     58       1.2016      2.00000
     59       1.2565      2.00000
     60       1.2968      2.00000
     61       1.3667      2.00000
     62       1.3740      2.00000
     63       1.4136      2.00000
     64       1.4864      2.00000
     65       3.3349      0.00000
     66       3.4790      0.00000
     67       3.6993      0.00000
     68       3.7753      0.00000
     69       3.8862      0.00000
     70       3.9164      0.00000
     71       4.0261      0.00000
     72       4.1007      0.00000
     73       4.2014      0.00000
     74       4.3413      0.00000
     75       4.4019      0.00000
     76       4.4868      0.00000
     77       4.5798      0.00000
     78       4.6493      0.00000
     79       4.6976      0.00000
     80       4.7966      0.00000
     81       4.9277      0.00000
     82       5.0446      0.00000
     83       5.0790      0.00000
     84       5.1849      0.00000

 k-point     6 :       0.4000   -0.2500    0.2500
  band No.  band energies     occupation 
      1     -10.3241      2.00000
      2     -10.2429      2.00000
      3      -9.9101      2.00000
      4      -9.8590      2.00000
      5      -9.8417      2.00000
      6      -9.6494      2.00000
      7      -9.5971      2.00000
      8      -9.5108      2.00000
      9      -9.4711      2.00000
     10      -9.4339      2.00000
     11      -9.4019      2.00000
     12      -9.3978      2.00000
     13      -9.1899      2.00000
     14      -9.1139      2.00000
     15      -8.3541      2.00000
     16      -8.2034      2.00000
     17      -8.0847      2.00000
     18      -7.9876      2.00000
     19      -7.8798      2.00000
     20      -7.8683      2.00000
     21      -7.5694      2.00000
     22      -7.5504      2.00000
     23      -2.1903      2.00000
     24      -2.1057      2.00000
     25      -1.9170      2.00000
     26      -1.8862      2.00000
     27      -1.6648      2.00000
     28      -1.6010      2.00000
     29      -1.4578      2.00000
     30      -1.3426      2.00000
     31      -1.3061      2.00000
     32      -1.2361      2.00000
     33      -1.0788      2.00000
     34      -0.9202      2.00000
     35      -0.8572      2.00000
     36      -0.8043      2.00000
     37      -0.7770      2.00000
     38      -0.7108      2.00000
     39      -0.6808      2.00000
     40      -0.6141      2.00000
     41      -0.5166      2.00000
     42      -0.3847      2.00000
     43      -0.2669      2.00000
     44      -0.1748      2.00000
     45      -0.0940      2.00000
     46       0.0213      2.00000
     47       0.4906      2.00000
     48       0.5220      2.00000
     49       0.5629      2.00000
     50       0.6401      2.00000
     51       0.6444      2.00000
     52       0.6870      2.00000
     53       0.7484      2.00000
     54       0.7651      2.00000
[...]
      5      -9.4867      2.00000
      6      -9.0693      2.00000
      7      -8.7580      2.00000
      8      -8.5810      2.00000
      9      -8.4388      2.00000
     10      -8.3871      2.00000
     11      -8.3522      2.00000
     12      -8.3339      2.00000
     13      -8.2034      2.00000
     14      -8.1588      2.00000
     15      -6.9398      2.00000
     16      -6.5592      2.00000
     17      -6.1442      2.00000
     18      -6.0332      2.00000
     19      -6.0035      2.00000
     20      -5.7898      2.00000
     21      -5.3056      2.00000
     22      -5.0783      2.00000
     23      -1.2004      2.00000
     24      -1.0186      2.00000
     25      -0.6295      2.00000
     26      -0.4678      2.00000
     27      -0.4020      2.00000
     28      -0.3070      2.00000
     29      -0.2489      2.00000
     30      -0.0765      2.00000
     31       0.0686      2.00000
     32       0.1217      2.00000
     33       0.2989      2.00000
     34       0.3052      2.00000
     35       0.3824      2.00000
     36       0.4875      2.00000
     37       0.6008      2.00000
     38       0.7384      2.00000
     39       0.7983      2.00000
     40       0.8311      2.00000
     41       0.9617      2.00000
     42       1.0744      2.00000
     43       1.0812      2.00000
     44       1.1797      2.00000
     45       1.3468      2.00000
     46       1.4684      2.00000
     47       1.5754      2.00000
     48       1.6568      2.00000
     49       1.6696      2.00000
     50       1.8323      2.00000
     51       1.8928      2.00000
     52       1.9443      2.00000
     53       2.0069      2.00000
     54       2.1074      2.00000
     55       2.3146      2.00000
     56       2.3263      2.00000
     57       2.5172      2.00000
     58       2.5775      2.00000
     59       2.7045      2.00000
     60       2.7108      2.00000
     61       2.7637      2.00000
     62       2.8522      2.00000
     63       2.9155      2.00000
     64       3.0416      2.00000
     65       4.9977      0.00000
     66       5.4054      0.00000
     67       5.5599      0.00000
     68       5.6418      0.00000
     69       5.7307      0.00000
     70       5.7674      0.00000
     71       5.8532      0.00000
     72       5.9136      0.00000
     73       6.0161      0.00000
     74       6.1839      0.00000
     75       6.2490      0.00000
     76       6.2821      0.00000
     77       6.3564      0.00000
     78       6.4859      0.00000
     79       6.6346      0.00000
     80       6.7226      0.00000
     81       6.8623      0.00000
     82       6.8790      0.00000
     83       7.1533      0.00000
     84       7.1943      0.00000

 k-point     6 :       0.4000   -0.2500    0.2500
  band No.  band energies     occupation 
      1      -9.3847      2.00000
      2      -9.3429      2.00000
      3      -8.8998      2.00000
      4      -8.8763      2.00000
      5      -8.8377      2.00000
      6      -8.5854      2.00000
      7      -8.4927      2.00000
      8      -8.4272      2.00000
      9      -8.3811      2.00000
     10      -8.3342      2.00000
     11      -8.3080      2.00000
     12      -8.2851      2.00000
     13      -8.1031      2.00000
     14      -8.0217      2.00000
     15      -7.1383      2.00000
     16      -6.8404      2.00000
     17      -6.7412      2.00000
     18      -6.6889      2.00000
     19      -6.4730      2.00000
     20      -6.4542      2.00000
     21      -6.1099      2.00000
     22      -6.0612      2.00000
     23      -1.2949      2.00000
     24      -1.2266      2.00000
     25      -1.1122      2.00000
     26      -1.0731      2.00000
     27      -0.7971      2.00000
     28      -0.7278      2.00000
     29      -0.6018      2.00000
     30      -0.4155      2.00000
     31      -0.3851      2.00000
     32      -0.3124      2.00000
     33      -0.1141      2.00000
     34       0.0887      2.00000
     35       0.1633      2.00000
     36       0.1964      2.00000
     37       0.2519      2.00000
     38       0.2588      2.00000
     39       0.3541      2.00000
     40       0.4781      2.00000
     41       0.5234      2.00000
     42       0.7145      2.00000
     43       0.8041      2.00000
     44       1.0185      2.00000
     45       1.0533      2.00000
     46       1.1833      2.00000
     47       1.5646      2.00000
     48       1.6954      2.00000
     49       1.7338      2.00000
     50       1.7771      2.00000
     51       1.8149      2.00000
     52       1.8424      2.00000
     53       1.8821      2.00000
     54       1.9528      2.00000
     55       2.0932      2.00000
     56       2.1434      2.00000
     57       2.1519      2.00000
     58       2.1984      2.00000
     59       2.2736      2.00000
     60       2.3789      2.00000
     61       2.6698      2.00000
     62       2.7418      2.00000
     63       2.7725      2.00000
     64       2.9373      2.00000
     65       5.1876      0.00000
     66       5.2520      0.00000
     67       5.5045      0.00000
     68       5.7478      0.00000
     69       5.7666      0.00000
     70       6.0085      0.00000
     71       6.1468      0.00000
     72       6.2442      0.00000
     73       6.3714      0.00000
     74       6.4322      0.00000
     75       6.4859      0.00000
     76       6.5495      0.00000
     77       6.7289      0.00000
     78       6.8708      0.00000
     79       6.9016      0.00000
     80       7.0302      0.00000
     81       7.1633      0.00000
     82       7.1866      0.00000
     83       7.3259      0.00000
     84       7.4271      0.00000


--------------------------------------------------------------------------------------------------------


 soft charge-density along one line, spin component           1
         0         1         2         3         4         5         6         7         8         9
 total charge-density along one line
 
 pseudopotential strength for first ion, spin component:           1
  1.431   6.365  -0.000   0.001   0.000
  6.365  27.941   0.000  -0.000   0.000
 -0.000   0.000   5.653   0.001  -0.000
  0.001  -0.000   0.001   5.655  -0.000
  0.000   0.000  -0.000  -0.000   5.654
 total augmentation occupancy for first ion, spin component:           1
  0.405   0.002  -0.000   0.012   0.000
  0.002   0.000  -0.000   0.000   0.000
 -0.000  -0.000   0.007   0.007  -0.000
  0.012   0.000   0.007   0.027   0.000
  0.000   0.000   0.000   0.000   0.013


------------------------ aborting loop because EDIFF is reached ----------------------------------------


 


 total charge     
 
# of ion       s       p       d       tot
------------------------------------------
    1        0.047   0.030   0.000   0.077
    2        0.047   0.030   0.000   0.077
    3        0.048   0.034   0.000   0.082
    4        0.048   0.034   0.000   0.082
    5        1.838   1.430   0.171   3.440
    6        1.838   1.430   0.171   3.440
    7        1.846   1.405   0.174   3.425
    8        1.846   1.405   0.174   3.425
    9        1.825   1.479   0.164   3.467
   10        1.825   1.479   0.164   3.467
   11        1.848   1.397   0.178   3.423
   12        1.848   1.397   0.178   3.423
   13        1.342   2.357   0.000   3.699
   14        1.342   2.357   0.000   3.699
   15        1.356   2.329   0.000   3.685
   16        1.356   2.329   0.000   3.685
   17        1.345   2.353   0.000   3.698
   18        1.345   2.353   0.000   3.698
   19        1.351   2.331   0.000   3.682
   20        1.351   2.331   0.000   3.682
   21        1.344   2.355   0.000   3.699
   22        1.344   2.355   0.000   3.699
   23        1.353   2.335   0.000   3.688
   24        1.353   2.335   0.000   3.688
   25        1.351   2.334   0.000   3.684
   26        1.351   2.334   0.000   3.684
--------------------------------------------------
tot         33.789  44.335   1.374  79.498
 
    CHARGE:  cpu time    0.0491: real time    0.0492
    FORLOC:  cpu time    0.0020: real time    0.0020
    FORNL :  cpu time    0.2014: real time    0.2020
    STRESS:  cpu time    0.6032: real time    0.6033
    FORCOR:  cpu time    0.0092: real time    0.0092
    FORHAR:  cpu time    0.0040: real time    0.0040
    MIXING:  cpu time    0.0005: real time    0.0005
    OFIELD:  cpu time    0.0000: real time    0.0000

  FORCE on cell =-STRESS in cart. coord.  units (eV):
  Direction    XX          YY          ZZ          XY          YZ          ZX
  --------------------------------------------------------------------------------------
  Alpha Z    68.09495    68.09495    68.09495
  Ewald   -1019.18208 -1552.61154 -1627.93978     0.00000  -384.80457    -0.00000
  Hartree   648.47036   255.79399   201.17404    -0.00000  -296.41302    -0.00000
  E(xc)    -480.76243  -480.28621  -480.65336    -0.00000    -0.31730     0.00000
  Local   -1813.68494  -889.27635  -758.29238    -0.00000   679.33002     0.00000
  n-local  1620.86917  1613.94308  1616.17446    -0.16081     0.67440     0.34109
  augment  -459.42331  -459.29802  -458.99815     0.00000    -0.27426     0.00000
  Kinetic  1435.62822  1443.85934  1440.06202     0.09151     2.05466     0.62927
  Fock        0.00000     0.00000     0.00000     0.00000     0.00000     0.00000
  -------------------------------------------------------------------------------------
  Total       0.00994     0.21924    -0.37820     0.00000     0.24991     0.00000
  in kB       0.02261     0.49842    -0.85980     0.00000     0.56815     0.00000
  external pressure =       -0.11 kB  Pullay stress =        0.00 kB


 VOLUME and BASIS-vectors are now :
 -----------------------------------------------------------------------------
  energy-cutoff  :      300.00
  volume of cell :      704.75
      direct lattice vectors                 reciprocal lattice vectors
     4.053090339  0.000000000  0.000000000     0.246725317  0.000000000  0.000000000
     0.000000000 13.384383464 -0.658781678     0.000000000  0.074627374 -0.001758721
     0.000000000  0.305807810 12.976266627     0.000000000  0.003788697  0.076974481

  length of vectors
     4.053090339 13.400586331 12.979869567     0.246725317  0.074648094  0.077067665


 FORCES acting on ions
    electron-ion (+dipol)            ewald-force                    non-local-force                 convergence-correction
 -----------------------------------------------------------------------------------------------
   -.760E-13 -.365E+01 -.584E+00   0.162E-14 0.360E+01 0.868E+00   0.000E+00 0.540E-01 -.291E+00   -.573E-16 0.773E-03 -.125E-02
   -.709E-13 0.365E+01 0.584E+00   -.166E-14 -.360E+01 -.868E+00   0.000E+00 -.540E-01 0.291E+00   0.140E-15 -.773E-03 0.125E-02
   -.980E-12 0.441E+01 0.281E+01   -.151E-15 -.431E+01 -.258E+01   0.000E+00 -.762E-01 -.267E+00   -.277E-16 0.648E-03 0.858E-03
   -.979E-12 -.441E+01 -.281E+01   -.712E-15 0.431E+01 0.258E+01   0.000E+00 0.762E-01 0.267E+00   -.167E-16 -.648E-03 -.858E-03
   0.200E-11 0.339E+02 0.277E+02   0.195E-13 -.331E+02 -.253E+02   -.347E-17 -.761E+00 -.235E+01   -.100E-14 0.409E-03 0.415E-02
   0.199E-11 -.339E+02 -.277E+02   -.164E-13 0.331E+02 0.253E+02   0.347E-17 0.761E+00 0.235E+01   -.945E-16 -.409E-03 -.415E-02
   0.839E-12 -.484E+01 -.362E+02   0.112E-13 0.628E+01 0.357E+02   0.000E+00 -.147E+01 0.512E+00   -.666E-15 0.127E-01 -.261E-02
   0.815E-12 0.484E+01 0.362E+02   -.108E-13 -.628E+01 -.357E+02   0.000E+00 0.147E+01 -.512E+00   -.534E-15 -.127E-01 0.261E-02
   0.174E-11 0.487E+02 0.191E+02   0.494E-14 -.451E+02 -.173E+02   0.000E+00 -.359E+01 -.184E+01   0.137E-14 0.978E-02 -.267E-02
   0.176E-11 -.487E+02 -.191E+02   -.742E-14 0.451E+02 0.173E+02   0.000E+00 0.359E+01 0.184E+01   -.305E-14 -.978E-02 0.267E-02
   -.176E-12 0.775E+01 -.171E+02   -.894E-14 -.744E+01 0.165E+02   0.000E+00 -.327E+00 0.647E+00   0.119E-14 -.619E-02 0.339E-02
   -.169E-12 -.775E+01 0.171E+02   0.376E-14 0.744E+01 -.165E+02   0.000E+00 0.327E+00 -.647E+00   -.304E-14 0.619E-02 -.339E-02
   0.306E-12 0.543E+02 0.706E+02   0.106E-13 -.556E+02 -.730E+02   0.000E+00 0.122E+01 0.243E+01   -.575E-15 -.155E-02 -.572E-02
   0.290E-12 -.543E+02 -.706E+02   -.938E-14 0.556E+02 0.730E+02   0.000E+00 -.122E+01 -.243E+01   0.520E-14 0.155E-02 0.572E-02
   0.243E-12 0.750E+02 0.309E+02   -.537E-15 -.795E+02 -.306E+02   0.000E+00 0.441E+01 -.292E+00   -.111E-14 0.135E-01 -.360E-02
   0.224E-12 -.750E+02 -.309E+02   0.548E-14 0.795E+02 0.306E+02   0.000E+00 -.441E+01 0.292E+00   0.626E-14 -.135E-01 0.360E-02
   -.414E-12 -.493E+02 -.871E+02   0.656E-15 0.508E+02 0.897E+02   0.000E+00 -.154E+01 -.263E+01   0.359E-14 -.756E-02 0.103E-01
   -.401E-12 0.493E+02 0.871E+02   0.517E-14 -.508E+02 -.897E+02   0.000E+00 0.154E+01 0.263E+01   0.396E-14 0.756E-02 -.103E-01
   0.269E-14 0.909E+02 0.786E+02   0.537E-15 -.932E+02 -.807E+02   0.000E+00 0.225E+01 0.219E+01   0.446E-14 0.130E-01 -.142E-01
   0.149E-13 -.909E+02 -.786E+02   0.193E-14 0.932E+02 0.807E+02   0.000E+00 -.225E+01 -.219E+01   0.195E-15 -.130E-01 0.142E-01
   -.951E-12 -.275E+02 -.809E+02   0.325E-14 0.292E+02 0.835E+02   0.000E+00 -.171E+01 -.259E+01   0.114E-14 -.176E-01 0.419E-02
   -.969E-12 0.275E+02 0.809E+02   0.293E-14 -.292E+02 -.835E+02   0.000E+00 0.171E+01 0.259E+01   0.869E-14 0.176E-01 -.419E-02
   0.230E-11 0.795E+02 0.111E+02   -.538E-14 -.818E+02 -.124E+02   0.000E+00 0.227E+01 0.130E+01   -.148E-15 -.101E-03 -.447E-02
   0.232E-11 -.795E+02 -.111E+02   0.987E-14 0.818E+02 0.124E+02   0.000E+00 -.227E+01 -.130E+01   0.194E-14 0.101E-03 0.447E-02
   0.307E-11 0.202E+02 0.169E+01   0.963E-14 -.208E+02 -.229E+01   -.108E-18 0.550E+00 0.615E+00   -.182E-15 0.173E-01 -.444E-02
   0.305E-11 -.202E+02 -.169E+01   -.938E-14 0.208E+02 0.229E+01   0.108E-18 -.550E+00 -.615E+00   -.249E-15 -.173E-01 0.444E-02
 -----------------------------------------------------------------------------------------------
   0.158E-10 -.491E-09 -.452E-09   0.203E-13 -.117E-12 0.355E-14   0.000E+00 0.000E+00 0.000E+00   0.274E-13 0.272E-11 0.239E-11
 
 
 POSITION                                       TOTAL-FORCE (eV/Angst)
 -----------------------------------------------------------------------------------
      1.01327      7.78862      9.74935         0.000000      0.003733     -0.008202
      3.03982      5.90158      2.56813         0.000000     -0.003733      0.008202
      3.03982     11.83030      7.27461         0.000000      0.018289     -0.036676
      1.01327      1.85989      5.04288         0.000000     -0.018289      0.036676
      1.01327     12.97995     10.51763         0.000000      0.010883     -0.015141
      3.03982      0.71024      1.79985         0.000000     -0.010883      0.015141
      1.01327     11.25266      3.30686         0.000000     -0.014074     -0.013348
      3.03982      2.43753      9.01063         0.000000      0.014074      0.013348
      3.03982      9.81536     -0.22821         0.000000      0.027685     -0.021361
      1.01327      3.87483     12.54569         0.000000     -0.027685      0.021361
      3.03982      8.38268      5.33245         0.000000     -0.031105      0.024988
      1.01327      5.30751      6.98504         0.000000      0.031105     -0.024988
      1.01327      6.53991      4.48519         0.000000     -0.015317      0.021976
      3.03982      7.15028      7.83229         0.000000      0.015317     -0.021976
      1.01327      8.13443     -0.58958         0.000000     -0.017327     -0.003647
      3.03982      5.24995     -0.06920         0.000000      0.017327      0.003647
      3.03982     -0.07697      4.40004         0.000000     -0.019811     -0.008112
      1.01327      0.38278      8.57623         0.000000      0.019811      0.008112
      3.03982     11.09216     10.09397         0.000000     -0.002373      0.020445
      1.01327      2.59803      2.22351         0.000000      0.002373     -0.020445
      1.01327     10.29474      5.92557         0.000000     -0.035583     -0.000528
      3.03982      3.39545      6.39192         0.000000      0.035583      0.000528
      3.03982      9.43338      2.66985         0.000000     -0.017218     -0.008203
      1.01327      4.25682      9.64764         0.000000      0.017218      0.008203
      1.01327     12.08131      0.50507         0.000000      0.028384      0.011840
      3.03982      1.60888     11.81241         0.000000     -0.028384     -0.011840
 -----------------------------------------------------------------------------------
    total drift:                                0.000000     -0.000000     -0.000000


--------------------------------------------------------------------------------------------------------



  FREE ENERGIE OF THE ION-ELECTRON SYSTEM (eV)
  ---------------------------------------------------
  free  energy   TOTEN  =      -109.12910380 eV

  energy  without entropy=     -109.12910380  energy(sigma->0) =     -109.12910380
 
 d Force =-0.6528902E-04[-0.137E-03, 0.609E-05]  d Energy =-0.1641442E-04-0.489E-04
 d Force =-0.1528105E+00[-0.153E+00,-0.152E+00]  d Ewald  =-0.2840733E+00 0.131E+00


--------------------------------------------------------------------------------------------------------


    POTLOK:  cpu time    0.1745: real time    0.1745


--------------------------------------------------------------------------------------------------------




--------------------------------------------------------------------------------------------------------


  
 reached required accuracy - stopping structural energy minimisation
     LOOP+:  cpu time    3.8439: real time    3.8480
    4ORBIT:  cpu time    0.0000: real time    0.0000
 


 total charge     
 
# of ion       s       p       d       tot
------------------------------------------
    1        0.047   0.030   0.000   0.077
    2        0.047   0.030   0.000   0.077
    3        0.048   0.034   0.000   0.082
    4        0.048   0.034   0.000   0.082
    5        1.838   1.430   0.171   3.440
    6        1.838   1.430   0.171   3.440
    7        1.846   1.405   0.174   3.425
    8        1.846   1.405   0.174   3.425
    9        1.825   1.479   0.164   3.467
   10        1.825   1.479   0.164   3.467
   11        1.848   1.397   0.178   3.423
   12        1.848   1.397   0.178   3.423
   13        1.342   2.357   0.000   3.699
   14        1.342   2.357   0.000   3.699
   15        1.356   2.329   0.000   3.685
   16        1.356   2.329   0.000   3.685
   17        1.345   2.353   0.000   3.698
   18        1.345   2.353   0.000   3.698
   19        1.351   2.331   0.000   3.682
   20        1.351   2.331   0.000   3.682
   21        1.344   2.355   0.000   3.699
   22        1.344   2.355   0.000   3.699
   23        1.353   2.335   0.000   3.688
   24        1.353   2.335   0.000   3.688
   25        1.351   2.334   0.000   3.684
   26        1.351   2.334   0.000   3.684
--------------------------------------------------
tot         33.789  44.335   1.374  79.498
 

 total amount of memory used by VASP MPI-rank0    44730. kBytes
=======================================================================

   base      :      30000. kBytes
   nonlr-proj:       3408. kBytes
   fftplans  :        905. kBytes
   grid      :       4039. kBytes
   one-center:        210. kBytes
   wavefun   :       6168. kBytes
 
  
  
 General timing and accounting informations for this job:
 ========================================================
  
                  Total CPU time used (sec):      825.280
                            User time (sec):      809.538
                          System time (sec):       15.742
                         Elapsed time (sec):      826.158
  
                   Maximum memory used (kb):       91920.
                   Average memory used (kb):           0.
  
                          Minor page faults:       539392
                          Major page faults:            0
                 Voluntary context switches:          348
