PROCAR new format
# of k-points:    6         # of bands:   84         # of ions:   26

 k-point     1 :    0.00000000 0.25000000 0.25000000     weight = 0.10000000

band     1 # energy  -10.46958655 # occ.  2.00000000
 
ion      s      p      d    tot
    1  0.000  0.000  0.000  0.000
    2  0.000  0.000  0.000  0.000
    3  0.000  0.000  0.000  0.000
    4  0.000  0.000  0.000  0.000
    5  0.048  0.000  0.000  0.048
    6  0.048  0.000  0.000  0.048
    7  0.054  0.000  0.000  0.055
    8  0.054  0.000  0.000  0.055
    9  0.027  0.000  0.000  0.027
   10  0.027  0.000  0.000  0.027
   11  0.045  0.000  0.000  0.046
   12  0.045  0.000  0.000  0.046
   13  0.020  0.000  0.000  0.020
   14  0.020  0.000  0.000  0.020
   15  0.007  0.000  0.000  0.008
   16  0.007  0.000  0.000  0.008
   17  0.020  0.000  0.000  0.021
   18  0.020  0.000  0.000  0.021
   19  0.018  0.000  0.000  0.018
   20  0.018  0.000  0.000  0.018
   21  0.022  0.000  0.000  0.023
   22  0.022  0.000  0.000  0.023
   23  0.039  0.000  0.000  0.039
   24  0.039  0.000  0.000  0.039
   25  0.043  0.000  0.000  0.043
   26  0.043  0.000  0.000  0.043
tot    0.687  0.006  0.000  0.693
 
band     2 # energy  -10.16878687 # occ.  2.00000000
 
ion      s      p      d    tot
    1  0.000  0.000  0.000  0.000
    2  0.000  0.000  0.000  0.000
    3  0.000  0.000  0.000  0.000
    4  0.000  0.000  0.000  0.000
    5  0.012  0.001  0.000  0.014
    6  0.012  0.001  0.000  0.014
    7  0.101  0.001  0.000  0.101
    8  0.101  0.001  0.000  0.101
    9  0.021  0.001  0.000  0.022
   10  0.021  0.001  0.000  0.022
   11  0.030  0.002  0.000  0.032
   12  0.030  0.002  0.000  0.032
   13  0.002  0.000  0.000  0.002
   14  0.002  0.000  0.000  0.002
   15  0.008  0.000  0.000  0.008
   16  0.008  0.000  0.000  0.008
   17  0.029  0.001  0.000  0.030
   18  0.029  0.001  0.000  0.030
   19  0.001  0.000  0.000  0.001
   20  0.001  0.000  0.000  0.001
   21  0.036  0.001  0.000  0.036
   22  0.036  0.001  0.000  0.036
   23  0.078  0.001  0.000  0.078
   24  0.078  0.001  0.000  0.078
   25  0.024  0.000  0.000  0.024
   26  0.024  0.000  0.000  0.024
tot    0.683  0.015  0.000  0.698
 
band     3 # energy  -10.14248138 # occ.  2.00000000
 
ion      s      p      d    tot
    1  0.000  0.000  0.000  0.000
    2  0.000  0.000  0.000  0.000
    3  0.000  0.000  0.000  0.000
    4  0.000  0.000  0.000  0.000
    5  0.050  0.000  0.000  0.050
    6  0.050  0.000  0.000  0.050
    7  0.001  0.002  0.000  0.003
    8  0.001  0.002  0.000  0.003
    9  0.017  0.000  0.000  0.018
   10  0.017  0.000  0.000  0.018
   11  0.100  0.001  0.000  0.101
   12  0.100  0.001  0.000  0.101
   13  0.066  0.001  0.000  0.068
   14  0.066  0.001  0.000  0.068
   15  0.006  0.000  0.000  0.006
   16  0.006  0.000  0.000  0.006
   17  0.005  0.000  0.000  0.006
   18  0.005  0.000  0.000  0.006
   19  0.026  0.000  0.000  0.026
   20  0.026  0.000  0.000  0.026
   21  0.030  0.001  0.000  0.031
   22  0.030  0.001  0.000  0.031
   23  0.006  0.000  0.000  0.006
   24  0.006  0.000  0.000  0.006
   25  0.035  0.000  0.000  0.035
   26  0.035  0.000  0.000  0.035
tot    0.685  0.013  0.000  0.698
 
band     4 # energy   -9.74524128 # occ.  2.00000000
 
ion      s      p      d    tot
    1  0.000  0.000  0.000  0.000
    2  0.000  0.000  0.000  0.000
    3  0.000  0.000  0.000  0.000
    4  0.000  0.000  0.000  0.000
    5  0.069  0.003  0.000  0.071
    6  0.069  0.003  0.000  0.071
    7  0.003  0.001  0.000  0.004
    8  0.003  0.001  0.000  0.004
    9  0.092  0.002  0.000  0.095
   10  0.092  0.002  0.000  0.095
   11  0.000  0.000  0.000  0.000
   12  0.000  0.000  0.000  0.000
   13  0.000  0.000  0.000  0.000
   14  0.000  0.000  0.000  0.000
   15  0.060  0.001  0.000  0.062
   16  0.060  0.001  0.000  0.062
   17  0.025  0.000  0.000  0.025
   18  0.025  0.000  0.000  0.025
   19  0.094  0.001  0.000  0.095
   20  0.094  0.001  0.000  0.095
   21  0.000  0.000  0.000  0.000
   22  0.000  0.000  0.000  0.000
   23  0.003  0.000  0.000  0.003
   24  0.003  0.000  0.000  0.003
   25  0.000  0.001  0.000  0.001
   26  0.000  0.001  0.000  0.001
tot    0.694  0.020  0.000  0.714
 
band     5 # energy   -9.37818924 # occ.  2.00000000
 
ion      s      p      d    tot
    1  0.000  0.000  0.000  0.000
    2  0.000  0.000  0.000  0.000
    3  0.000  0.000  0.000  0.000
    4  0.000  0.000  0.000  0.000
    5  0.041  0.002  0.000  0.042
    6  0.041  0.002  0.000  0.042
    7  0.008  0.004  0.000  0.012
    8  0.008  0.004  0.000  0.012
    9  0.043  0.001  0.000  0.045
   10  0.043  0.001  0.000  0.045
   11  0.050  0.002  0.000  0.052
   12  0.050  0.002  0.000  0.052
   13  0.008  0.001  0.000  0.009
   14  0.008  0.001  0.000  0.009
   15  0.051  0.001  0.000  0.051
   16  0.051  0.001  0.000  0.051
   17  0.026  0.001  0.000  0.026
   18  0.026  0.001  0.000  0.026
   19  0.011  0.001  0.000  0.012
   20  0.011  0.001  0.000  0.012
   21  0.060  0.001  0.000  0.061
   22  0.060  0.001  0.000  0.061
   23  0.007  0.001  0.000  0.008
   24  0.007  0.001  0.000  0.008
   25  0.036  0.000  0.000  0.037
   26  0.036  0.000  0.000  0.037
tot    0.684  0.026  0.002  0.711
 
band     6 # energy   -9.33203018 # occ.  2.00000000
 
ion      s      p      d    tot
    1  0.000  0.000  0.000  0.000
    2  0.000  0.000  0.000  0.000
    3  0.000  0.000  0.000  0.000
    4  0.000  0.000  0.000  0.000
    5  0.007  0.002  0.000  0.009
    6  0.007  0.002  0.000  0.009
    7  0.073  0.001  0.000  0.074
    8  0.073  0.001  0.000  0.074
    9  0.039  0.002  0.000  0.042
   10  0.039  0.002  0.000  0.042
   11  0.023  0.005  0.000  0.028
   12  0.023  0.005  0.000  0.028
   13  0.047  0.001  0.000  0.047
   14  0.047  0.001  0.000  0.047
   15  0.036  0.001  0.000  0.037
   16  0.036  0.001  0.000  0.037
   17  0.034  0.000  0.000  0.035
   18  0.034  0.000  0.000  0.035
   19  0.024  0.000  0.000  0.024
   20  0.024  0.000  0.000  0.024
   21  0.016  0.001  0.000  0.016
   22  0.016  0.001  0.000  0.016
   23  0.034  0.001  0.000  0.035
   24  0.034  0.001  0.000  0.035
   25  0.009  0.000  0.000  0.009
   26  0.009  0.000  0.000  0.009
tot    0.685  0.028  0.001  0.714
 
band     7 # energy   -9.29216241 # occ.  2.00000000
 
ion      s      p      d    tot
    1  0.000  0.000  0.000  0.000
    2  0.000  0.000  0.000  0.000
    3  0.000  0.000  0.000  0.000
    4  0.000  0.000  0.000  0.000
    5  0.050  0.000  0.000  0.051
    6  0.050  0.000  0.000  0.051
    7  0.009  0.003  0.000  0.012
    8  0.009  0.003  0.000  0.012
    9  0.073  0.005  0.000  0.079
   10  0.073  0.005  0.000  0.079
   11  0.010  0.002  0.000  0.012
   12  0.010  0.002  0.000  0.012
   13  0.020  0.000  0.000  0.020
   14  0.020  0.000  0.000  0.020
   15  0.085  0.002  0.000  0.086
   16  0.085  0.002  0.000  0.086
   17  0.010  0.000  0.000  0.010
   18  0.010  0.000  0.000  0.010
   19  0.013  0.001  0.000  0.013
   20  0.013  0.001  0.000  0.013
   21  0.005  0.000  0.000  0.005
   22  0.005  0.000  0.000  0.005
   23  0.054  0.000  0.000  0.055
   24  0.054  0.000  0.000  0.055
   25  0.015  0.001  0.000  0.016
   26  0.015  0.001  0.000  0.016
tot    0.689  0.030  0.001  0.720
 
band     8 # energy   -8.64684540 # occ.  2.00000000
 
ion      s      p      d    tot
    1  0.000  0.000  0.000  0.000
    2  0.000  0.000  0.000  0.000
    3  0.000  0.000  0.000  0.000
    4  0.000  0.000  0.000  0.000
    5  0.022  0.004  0.000  0.027
    6  0.022  0.004  0.000  0.027
    7  0.034  0.001  0.000  0.035
    8  0.034  0.001  0.000  0.035
    9  0.017  0.006  0.001  0.024
   10  0.017  0.006  0.001  0.024
   11  0.027  0.000  0.000  0.027
   12  0.027  0.000  0.000  0.027
   13  0.015  0.000  0.000  0.015
   14  0.015  0.000  0.000  0.015
   15  0.078  0.001  0.000  0.079
   16  0.078  0.001  0.000  0.079
   17  0.024  0.000  0.000  0.024
   18  0.024  0.000  0.000  0.024
   19  0.077  0.001  0.000  0.078
   20  0.077  0.001  0.000  0.078
   21  0.027  0.000  0.000  0.028
   22  0.027  0.000  0.000  0.028
   23  0.012  0.001  0.000  0.012
   24  0.012  0.001  0.000  0.012
   25  0.010  0.000  0.000  0.010
   26  0.010  0.000  0.000  0.010
tot    0.685  0.029  0.004  0.718
 
band     9 # energy   -8.57778343 # occ.  2.00000000
 
ion      s      p      d    tot
    1  0.000  0.000  0.000  0.000
    2  0.000  0.000  0.000  0.000
    3  0.000  0.000  0.000  0.000
    4  0.000  0.000  0.000  0.000
    5  0.000  0.009  0.000  0.010
    6  0.000  0.009  0.000  0.010
    7  0.001  0.005  0.000  0.006
    8  0.001  0.005  0.000  0.006
    9  0.001  0.004  0.000  0.005
   10  0.001  0.004  0.000  0.005
   11  0.000  0.004  0.000  0.004
   12  0.000  0.004  0.000  0.004
   13  0.019  0.000  0.000  0.019
   14  0.019  0.000  0.000  0.019
   15  0.010  0.000  0.000  0.010
   16  0.010  0.000  0.000  0.010
   17  0.039  0.000  0.000  0.039
   18  0.039  0.000  0.000  0.039
   19  0.059  0.000  0.000  0.059
   20  0.059  0.000  0.000  0.059
   21  0.052  0.000  0.000  0.052
   22  0.052  0.000  0.000  0.052
   23  0.031  0.000  0.000  0.031
   24  0.031  0.000  0.000  0.031
   25  0.099  0.000  0.000  0.099
   26  0.099  0.000  0.000  0.099
tot    0.625  0.045  0.001  0.671
 
band    10 # energy   -8.51590136 # occ.  2.00000000
 
ion      s      p      d    tot
    1  0.000  0.000  0.000  0.000
    2  0.000  0.000  0.000  0.000
    3  0.000  0.000  0.000  0.000
    4  0.000  0.000  0.000  0.000
    5  0.000  0.003  0.000  0.003
    6  0.000  0.003  0.000  0.003
    7  0.000  0.005  0.000  0.006
    8  0.000  0.005  0.000  0.006
    9  0.000  0.002  0.000  0.002
   10  0.000  0.002  0.000  0.002
   11  0.000  0.010  0.000  0.011
   12  0.000  0.010  0.000  0.011
   13  0.084  0.000  0.000  0.084
   14  0.084  0.000  0.000  0.084
   15  0.001  0.000  0.000  0.001
   16  0.001  0.000  0.000  0.001
   17  0.025  0.000  0.000  0.025
   18  0.025  0.000  0.000  0.025
   19  0.026  0.000  0.000  0.026
   20  0.026  0.000  0.000  0.026
   21  0.081  0.000  0.000  0.081
   22  0.081  0.000  0.000  0.081
   23  0.075  0.000  0.000  0.076
   24  0.075  0.000  0.000  0.076
   25  0.021  0.000  0.000  0.021
   26  0.021  0.000  0.000  0.021
tot    0.631  0.043  0.001  0.675
 
band    11 # energy   -8.40079347 # occ.  2.00000000
 
ion      s      p      d    tot
    1  0.000  0.000  0.000  0.000
    2  0.000  0.000  0.000  0.000
    3  0.000  0.000  0.000  0.000
    4  0.000  0.000  0.000  0.000
    5  0.001  0.004  0.000  0.005
    6  0.001  0.004  0.000  0.005
    7  0.003  0.003  0.001  0.007
    8  0.003  0.003  0.001  0.007
    9  0.000  0.001  0.000  0.001
   10  0.000  0.001  0.000  0.001
   11  0.001  0.009  0.000  0.010
   12  0.001  0.009  0.000  0.010
   13  0.046  0.000  0.000  0.047
   14  0.046  0.000  0.000  0.047
   15  0.004  0.000  0.000  0.004
   16  0.004  0.000  0.000  0.004
   17  0.090  0.000  0.000  0.090
   18  0.090  0.000  0.000  0.090
   19  0.001  0.000  0.000  0.001
   20  0.001  0.000  0.000  0.001
   21  0.135  0.000  0.000  0.136
   22  0.135  0.000  0.000  0.136
   23  0.004  0.000  0.000  0.004
   24  0.004  0.000  0.000  0.004
   25  0.034  0.000  0.000  0.034
   26  0.034  0.000  0.000  0.034
tot    0.642  0.034  0.004  0.680
 
band    12 # energy   -8.36739413 # occ.  2.00000000
 
ion      s      p      d    tot
    1  0.000  0.000  0.000  0.000
    2  0.000  0.000  0.000  0.000
    3  0.000  0.000  0.000  0.000
    4  0.000  0.000  0.000  0.000
    5  0.001  0.004  0.000  0.005
    6  0.001  0.004  0.000  0.005
    7  0.006  0.002  0.001  0.009
    8  0.006  0.002  0.001  0.009
    9  0.000  0.003  0.000  0.003
   10  0.000  0.003  0.000  0.003
   11  0.012  0.003  0.002  0.016
   12  0.012  0.003  0.002  0.016
   13  0.126  0.000  0.000  0.126
   14  0.126  0.000  0.000  0.126
   15  0.010  0.000  0.000  0.010
   16  0.010  0.000  0.000  0.010
   17  0.001  0.000  0.000  0.001
   18  0.001  0.000  0.000  0.001
   19  0.016  0.000  0.000  0.016
   20  0.016  0.000  0.000  0.016
   21  0.013  0.000  0.000  0.013
   22  0.013  0.000  0.000  0.013
   23  0.051  0.000  0.000  0.051
   24  0.051  0.000  0.000  0.051
   25  0.093  0.000  0.000  0.093
   26  0.093  0.000  0.000  0.093
tot    0.658  0.026  0.005  0.690
 
band    13 # energy   -8.28884894 # occ.  2.00000000
 
ion      s      p      d    tot
    1  0.000  0.000  0.000  0.000
    2  0.000  0.000  0.000  0.000
    3  0.000  0.000  0.000  0.000
    4  0.000  0.000  0.000  0.000
    5  0.002  0.005  0.001  0.008
    6  0.002  0.005  0.001  0.008
    7  0.000  0.006  0.000  0.007
    8  0.000  0.006  0.000  0.007
    9  0.004  0.002  0.001  0.008
   10  0.004  0.002  0.001  0.008
   11  0.000  0.001  0.000  0.002
   12  0.000  0.001  0.000  0.002
   13  0.007  0.000  0.000  0.007
   14  0.007  0.000  0.000  0.007
   15  0.037  0.000  0.000  0.037
   16  0.037  0.000  0.000  0.037
   17  0.075  0.000  0.000  0.075
   18  0.075  0.000  0.000  0.075
   19  0.077  0.000  0.000  0.077
   20  0.077  0.000  0.000  0.077
   21  0.008  0.000  0.000  0.008
   22  0.008  0.000  0.000  0.008
   23  0.066  0.000  0.000  0.066
   24  0.066  0.000  0.000  0.066
   25  0.050  0.000  0.000  0.050
   26  0.050  0.000  0.000  0.050
tot    0.653  0.031  0.006  0.690
 
band    14 # energy   -8.28084992 # occ.  2.00000000
 
ion      s      p      d    tot
    1  0.000  0.000  0.000  0.000
    2  0.000  0.000  0.000  0.000
    3  0.000  0.000  0.000  0.000
    4  0.000  0.000  0.000  0.000
    5  0.001  0.002  0.002  0.005
    6  0.001  0.002  0.002  0.005
    7  0.002  0.005  0.000  0.007
    8  0.002  0.005  0.000  0.007
    9  0.000  0.002  0.000  0.003
   10  0.000  0.002  0.000  0.003
   11  0.000  0.002  0.001  0.003
   12  0.000  0.002  0.001  0.003
   13  0.049  0.000  0.000  0.049
   14  0.049  0.000  0.000  0.049
   15  0.013  0.000  0.000  0.013
   16  0.013  0.000  0.000  0.013
   17  0.109  0.000  0.000  0.109
   18  0.109  0.000  0.000  0.109
   19  0.034  0.000  0.000  0.034
   20  0.034  0.000  0.000  0.034
   21  0.017  0.000  0.000  0.017
   22  0.017  0.000  0.000  0.017
   23  0.035  0.000  0.000  0.035
   24  0.035  0.000  0.000  0.035
   25  0.066  0.000  0.000  0.066
   26  0.066  0.000  0.000  0.066
tot    0.653  0.026  0.006  0.685
 
band    15 # energy   -6.68010974 # occ.  2.00000000
 
ion      s      p      d    tot
    1  0.000  0.000  0.000  0.000
    2  0.000  0.000  0.000  0.000
    3  0.000  0.000  0.000  0.000
    4  0.000  0.000  0.000  0.000
    5  0.025  0.001  0.000  0.026
    6  0.025  0.001  0.000  0.026
    7  0.093  0.001  0.000  0.094
    8  0.093  0.001  0.000  0.094
    9  0.002  0.000  0.000  0.002
   10  0.002  0.000  0.000  0.002
   11  0.178  0.000  0.001  0.179
   12  0.178  0.000  0.001  0.179
   13  0.021  0.004  0.000  0.025
   14  0.021  0.004  0.000  0.025
   15  0.004  0.000  0.000  0.004
   16  0.004  0.000  0.000  0.004
   17  0.016  0.002  0.000  0.018
   18  0.016  0.002  0.000  0.018
   19  0.014  0.000  0.000  0.015
   20  0.014  0.000  0.000  0.015
   21  0.034  0.004  0.000  0.037
   22  0.034  0.004  0.000  0.037
   23  0.011  0.002  0.000  0.013
   24  0.011  0.002  0.000  0.013
   25  0.000  0.000  0.000  0.000
   26  0.000  0.000  0.000  0.000
tot    0.796  0.028  0.003  0.827
 
band    16 # energy   -6.30544804 # occ.  2.00000000
 
ion      s      p      d    tot
    1  0.000  0.000  0.000  0.000
    2  0.000  0.000  0.000  0.000
    3  0.000  0.000  0.000  0.000
    4  0.000  0.000  0.000  0.000
    5  0.096  0.001  0.000  0.097
    6  0.096  0.001  0.000  0.097
    7  0.129  0.001  0.000  0.130
    8  0.129  0.001  0.000  0.130
    9  0.014  0.003  0.000  0.017
   10  0.014  0.003  0.000  0.017
   11  0.030  0.002  0.000  0.033
   12  0.030  0.002  0.000  0.033
   13  0.024  0.000  0.000  0.024
   14  0.024  0.000  0.000  0.024
   15  0.012  0.000  0.000  0.012
   16  0.012  0.000  0.000  0.012
   17  0.007  0.003  0.000  0.010
   18  0.007  0.003  0.000  0.010
   19  0.029  0.002  0.000  0.030
   20  0.029  0.002  0.000  0.030
   21  0.000  0.002  0.000  0.002
   22  0.000  0.002  0.000  0.002
   23  0.041  0.002  0.000  0.044
   24  0.041  0.002  0.000  0.044
   25  0.008  0.004  0.000  0.011
   26  0.008  0.004  0.000  0.011
tot    0.776  0.040  0.002  0.818
 
band    17 # energy   -6.01569931 # occ.  2.00000000
 
ion      s      p      d    tot
    1  0.000  0.000  0.000  0.000
    2  0.000  0.000  0.000  0.000
    3  0.000  0.000  0.000  0.000
    4  0.000  0.000  0.000  0.000
    5  0.188  0.001  0.000  0.189
    6  0.188  0.001  0.000  0.189
    7  0.013  0.001  0.000  0.014
    8  0.013  0.001  0.000  0.014
    9  0.007  0.000  0.001  0.009
   10  0.007  0.000  0.001  0.009
   11  0.057  0.001  0.000  0.058
   12  0.057  0.001  0.000  0.058
   13  0.003  0.002  0.000  0.005
   14  0.003  0.002  0.000  0.005
   15  0.008  0.000  0.000  0.008
   16  0.008  0.000  0.000  0.008
   17  0.009  0.002  0.000  0.011
   18  0.009  0.002  0.000  0.011
   19  0.060  0.003  0.000  0.063
   20  0.060  0.003  0.000  0.063
   21  0.026  0.001  0.000  0.026
   22  0.026  0.001  0.000  0.026
   23  0.011  0.001  0.000  0.012
   24  0.011  0.001  0.000  0.012
   25  0.016  0.003  0.000  0.018
   26  0.016  0.003  0.000  0.018
tot    0.797  0.027  0.002  0.827
 
band    18 # energy   -5.88295449 # occ.  2.00000000
 
ion      s      p      d    tot
    1  0.000  0.000  0.000  0.000
    2  0.000  0.000  0.000  0.000
    3  0.000  0.000  0.000  0.000
    4  0.000  0.000  0.000  0.000
    5  0.047  0.000  0.000  0.047
    6  0.047  0.000  0.000  0.047
    7  0.064  0.001  0.000  0.065
    8  0.064  0.001  0.000  0.065
    9  0.125  0.005  0.000  0.131
   10  0.125  0.005  0.000  0.131
   11  0.015  0.000  0.000  0.015
   12  0.015  0.000  0.000  0.015
   13  0.009  0.000  0.000  0.009
   14  0.009  0.000  0.000  0.009
   15  0.077  0.002  0.000  0.079
   16  0.077  0.002  0.000  0.079
   17  0.038  0.001  0.000  0.039
   18  0.038  0.001  0.000  0.039
   19  0.004  0.002  0.000  0.006
   20  0.004  0.002  0.000  0.006
   21  0.000  0.001  0.000  0.001
   22  0.000  0.001  0.000  0.001
   23  0.002  0.002  0.000  0.004
   24  0.002  0.002  0.000  0.004
   25  0.004  0.004  0.000  0.008
   26  0.004  0.004  0.000  0.008
tot    0.771  0.037  0.002  0.809
 
band    19 # energy   -5.68622200 # occ.  2.00000000
 
ion      s      p      d    tot
    1  0.000  0.000  0.000  0.000
    2  0.000  0.000  0.000  0.000
    3  0.000  0.000  0.000  0.000
    4  0.000  0.000  0.000  0.000
    5  0.036  0.002  0.000  0.038
    6  0.036  0.002  0.000  0.038
    7  0.078  0.000  0.000  0.078
    8  0.078  0.000  0.000  0.078
    9  0.094  0.005  0.000  0.100
   10  0.094  0.005  0.000  0.100
   11  0.021  0.000  0.000  0.021
   12  0.021  0.000  0.000  0.021
   13  0.001  0.001  0.000  0.002
   14  0.001  0.001  0.000  0.002
   15  0.059  0.001  0.000  0.060
   16  0.059  0.001  0.000  0.060
   17  0.030  0.001  0.000  0.031
   18  0.030  0.001  0.000  0.031
   19  0.025  0.001  0.000  0.026
   20  0.025  0.001  0.000  0.026
   21  0.019  0.001  0.000  0.020
   22  0.019  0.001  0.000  0.020
   23  0.013  0.003  0.000  0.017
   24  0.013  0.003  0.000  0.017
   25  0.001  0.005  0.000  0.006
   26  0.001  0.005  0.000  0.006
tot    0.756  0.045  0.001  0.801
 
band    20 # energy   -5.31417721 # occ.  2.00000000
 
ion      s      p      d    tot
    1  0.000  0.000  0.000  0.000
    2  0.000  0.000  0.000  0.000
    3  0.000  0.000  0.000  0.000
    4  0.000  0.000  0.000  0.000
    5  0.028  0.000  0.000  0.028
    6  0.028  0.000  0.000  0.028
    7  0.013  0.001  0.000  0.015
    8  0.013  0.001  0.000  0.015
    9  0.020  0.001  0.000  0.021
   10  0.020  0.001  0.000  0.021
   11  0.172  0.000  0.000  0.173
   12  0.172  0.000  0.000  0.173
   13  0.075  0.005  0.000  0.080
   14  0.075  0.005  0.000  0.080
   15  0.009  0.001  0.000  0.010
   16  0.009  0.001  0.000  0.010
   17  0.000  0.001  0.000  0.001
   18  0.000  0.001  0.000  0.001
   19  0.012  0.001  0.000  0.012
   20  0.012  0.001  0.000  0.012
   21  0.043  0.003  0.000  0.046
   22  0.043  0.003  0.000  0.046
   23  0.012  0.003  0.000  0.015
   24  0.012  0.003  0.000  0.015
   25  0.010  0.001  0.000  0.011
   26  0.010  0.001  0.000  0.011
tot    0.790  0.033  0.001  0.824
 
band    21 # energy   -5.09547984 # occ.  2.00000000
 
ion      s      p      d    tot
    1  0.000  0.000  0.000  0.000
    2  0.000  0.000  0.000  0.000
    3  0.000  0.000  0.000  0.000
    4  0.000  0.000  0.000  0.000
    5  0.010  0.002  0.000  0.011
    6  0.010  0.002  0.000  0.011
    7  0.082  0.000  0.000  0.083
    8  0.082  0.000  0.000  0.083
    9  0.128  0.002  0.000  0.130
   10  0.128  0.002  0.000  0.130
   11  0.024  0.001  0.000  0.026
   12  0.024  0.001  0.000  0.026
   13  0.001  0.001  0.000  0.002
   14  0.001  0.001  0.000  0.002
   15  0.053  0.003  0.000  0.056
   16  0.053  0.003  0.000  0.056
   17  0.018  0.001  0.000  0.020
   18  0.018  0.001  0.000  0.020
   19  0.001  0.002  0.000  0.003
   20  0.001  0.002  0.000  0.003
   21  0.016  0.001  0.000  0.017
   22  0.016  0.001  0.000  0.017
   23  0.043  0.002  0.000  0.045
   24  0.043  0.002  0.000  0.045
   25  0.025  0.002  0.000  0.027
   26  0.025  0.002  0.000  0.027
tot    0.805  0.033  0.000  0.839
 
band    22 # energy   -4.63051982 # occ.  2.00000000
 
ion      s      p      d    tot
    1  0.000  0.000  0.000  0.000
    2  0.000  0.000  0.000  0.000
    3  0.000  0.000  0.000  0.000
    4  0.000  0.000  0.000  0.000
    5  0.084  0.000  0.000  0.084
    6  0.084  0.000  0.000  0.084
    7  0.047  0.000  0.000  0.047
    8  0.047  0.000  0.000  0.047
    9  0.089  0.000  0.000  0.090
   10  0.089  0.000  0.000  0.090
   11  0.019  0.000  0.000  0.020
   12  0.019  0.000  0.000  0.020
   13  0.006  0.001  0.000  0.008
   14  0.006  0.001  0.000  0.008
   15  0.029  0.002  0.000  0.032
   16  0.029  0.002  0.000  0.032
   17  0.020  0.002  0.000  0.022
   18  0.020  0.002  0.000  0.022
   19  0.032  0.003  0.000  0.035
   20  0.032  0.003  0.000  0.035
   21  0.009  0.001  0.000  0.010
   22  0.009  0.001  0.000  0.010
   23  0.023  0.001  0.000  0.024
   24  0.023  0.001  0.000  0.024
   25  0.053  0.000  0.000  0.053
   26  0.053  0.000  0.000  0.053
tot    0.827  0.024  0.000  0.851
 
band    23 # energy   -1.53196207 # occ.  2.00000000
 
ion      s      p      d    tot
    1  0.000  0.000  0.000  0.000
    2  0.000  0.000  0.000  0.000
    3  0.000  0.000  0.000  0.000
    4  0.000  0.000  0.000  0.000
    5  0.000  0.038  0.000  0.038
    6  0.000  0.038  0.000  0.038
    7  0.000  0.040  0.000  0.041
    8  0.000  0.040  0.000  0.041
    9  0.000  0.021  0.000  0.022
   10  0.000  0.021  0.000  0.022
   11  0.000  0.032  0.000  0.032
   12  0.000  0.032  0.000  0.032
   13  0.001  0.013  0.000  0.014
   14  0.001  0.013  0.000  0.014
   15  0.000  0.001  0.000  0.001
   16  0.000  0.001  0.000  0.001
   17  0.002  0.015  0.000  0.017
   18  0.002  0.015  0.000  0.017
   19  0.001  0.011  0.000  0.012
   20  0.001  0.011  0.000  0.012
   21  0.002  0.014  0.000  0.016
   22  0.002  0.014  0.000  0.016
   23  0.000  0.028  0.000  0.028
   24  0.000  0.028  0.000  0.028
   25  0.000  0.039  0.000  0.039
   26  0.000  0.039  0.000  0.039
tot    0.013  0.506  0.002  0.521
 
band    24 # energy   -0.88806120 # occ.  2.00000000
 
ion      s      p      d    tot
    1  0.000  0.000  0.000  0.000
    2  0.000  0.000  0.000  0.000
    3  0.001  0.000  0.000  0.001
    4  0.001  0.000  0.000  0.001
    5  0.000  0.006  0.001  0.008
    6  0.000  0.006  0.001  0.008
    7  0.000  0.044  0.001  0.045
    8  0.000  0.044  0.001  0.045
    9  0.000  0.046  0.000  0.046
   10  0.000  0.046  0.000  0.046
   11  0.001  0.026  0.001  0.029
   12  0.001  0.026  0.001  0.029
   13  0.001  0.004  0.000  0.005
   14  0.001  0.004  0.000  0.005
   15  0.000  0.006  0.000  0.006
   16  0.000  0.006  0.000  0.006
   17  0.000  0.003  0.000  0.004
   18  0.000  0.003  0.000  0.004
   19  0.001  0.021  0.000  0.022
   20  0.001  0.021  0.000  0.022
   21  0.001  0.024  0.000  0.025
   22  0.001  0.024  0.000  0.025
   23  0.000  0.052  0.000  0.053
   24  0.000  0.052  0.000  0.053
   25  0.001  0.022  0.000  0.023
   26  0.001  0.022  0.000  0.023
tot    0.014  0.512  0.007  0.534
 
band    25 # energy   -0.65722587 # occ.  2.00000000
 
ion      s      p      d    tot
    1  0.001  0.000  0.000  0.001
    2  0.001  0.000  0.000  0.001
    3  0.000  0.000  0.000  0.000
    4  0.000  0.000  0.000  0.000
    5  0.000  0.039  0.000  0.039
    6  0.000  0.039  0.000  0.039
    7  0.000  0.003  0.002  0.006
    8  0.000  0.003  0.002  0.006
    9  0.003  0.002  0.001  0.005
   10  0.003  0.002  0.001  0.005
   11  0.000  0.074  0.001  0.075
   12  0.000  0.074  0.001  0.075
   13  0.002  0.058  0.000  0.060
   14  0.002  0.058  0.000  0.060
   15  0.001  0.001  0.000  0.001
   16  0.001  0.001  0.000  0.001
   17  0.001  0.019  0.000  0.020
   18  0.001  0.019  0.000  0.020
   19  0.000  0.003  0.000  0.003
   20  0.000  0.003  0.000  0.003
   21  0.000  0.005  0.000  0.005
   22  0.000  0.005  0.000  0.005
   23  0.004  0.022  0.000  0.026
   24  0.004  0.022  0.000  0.026
   25  0.001  0.027  0.000  0.028
   26  0.001  0.027  0.000  0.028
tot    0.025  0.507  0.008  0.540
 
band    26 # energy   -0.11797283 # occ.  2.00000000
 
ion      s      p      d    tot
    1  0.000  0.000  0.000  0.000
    2  0.000  0.000  0.000  0.000
    3  0.001  0.001  0.000  0.001
    4  0.001  0.001  0.000  0.001
    5  0.001  0.043  0.002  0.047
    6  0.001  0.043  0.002  0.047
    7  0.001  0.037  0.001  0.038
    8  0.001  0.037  0.001  0.038
    9  0.003  0.021  0.001  0.025
   10  0.003  0.021  0.001  0.025
   11  0.000  0.006  0.001  0.007
   12  0.000  0.006  0.001  0.007
   13  0.001  0.000  0.000  0.001
   14  0.001  0.000  0.000  0.001
   15  0.001  0.010  0.000  0.011
   16  0.001  0.010  0.000  0.011
   17  0.001  0.052  0.000  0.053
   18  0.001  0.052  0.000  0.053
   19  0.000  0.034  0.000  0.034
   20  0.000  0.034  0.000  0.034
   21  0.001  0.025  0.000  0.026
   22  0.001  0.025  0.000  0.026
   23  0.000  0.014  0.000  0.014
   24  0.000  0.014  0.000  0.014
   25  0.003  0.008  0.000  0.010
   26  0.003  0.008  0.000  0.010
tot    0.028  0.500  0.008  0.535
 
band    27 # energy    0.08987828 # occ.  2.00000000
 
ion      s      p      d    tot
    1  0.000  0.000  0.000  0.000
    2  0.000  0.000  0.000  0.000
    3  0.002  0.000  0.000  0.002
    4  0.002  0.000  0.000  0.002
    5  0.000  0.039  0.001  0.039
    6  0.000  0.039  0.001  0.039
    7  0.001  0.019  0.001  0.021
    8  0.001  0.019  0.001  0.021
    9  0.001  0.040  0.002  0.043
   10  0.001  0.040  0.002  0.043
   11  0.000  0.002  0.000  0.002
   12  0.000  0.002  0.000  0.002
   13  0.000  0.003  0.000  0.003
   14  0.000  0.003  0.000  0.003
   15  0.001  0.011  0.000  0.013
   16  0.001  0.011  0.000  0.013
   17  0.000  0.022  0.000  0.022
   18  0.000  0.022  0.000  0.022
   19  0.001  0.053  0.000  0.054
   20  0.001  0.053  0.000  0.054
   21  0.000  0.019  0.000  0.019
   22  0.000  0.019  0.000  0.019
   23  0.004  0.003  0.000  0.007
   24  0.004  0.003  0.000  0.007
   25  0.001  0.043  0.000  0.044
   26  0.001  0.043  0.000  0.044
tot    0.022  0.510  0.008  0.540
 
band    28 # energy    0.19358674 # occ.  2.00000000
 
ion      s      p      d    tot
    1  0.000  0.000  0.000  0.001
    2  0.000  0.000  0.000  0.001
    3  0.001  0.000  0.000  0.001
    4  0.001  0.000  0.000  0.001
    5  0.000  0.007  0.001  0.008
    6  0.000  0.007  0.001  0.008
    7  0.000  0.027  0.001  0.028
    8  0.000  0.027  0.001  0.028
    9  0.001  0.022  0.000  0.023
   10  0.001  0.022  0.000  0.023
   11  0.000  0.042  0.000  0.043
   12  0.000  0.042  0.000  0.043
   13  0.002  0.037  0.000  0.039
   14  0.002  0.037  0.000  0.039
   15  0.001  0.009  0.000  0.010
   16  0.001  0.009  0.000  0.010
   17  0.001  0.017  0.000  0.018
   18  0.001  0.017  0.000  0.018
   19  0.002  0.011  0.000  0.013
   20  0.002  0.011  0.000  0.013
   21  0.001  0.036  0.000  0.037
   22  0.001  0.036  0.000  0.037
   23  0.000  0.035  0.000  0.035
   24  0.000  0.035  0.000  0.035
   25  0.000  0.014  0.000  0.014
   26  0.000  0.014  0.000  0.014
tot    0.018  0.516  0.004  0.539
 
band    29 # energy    0.30396448 # occ.  2.00000000
 
ion      s      p      d    tot
    1  0.000  0.000  0.000  0.000
    2  0.000  0.000  0.000  0.000
    3  0.000  0.000  0.000  0.000
    4  0.000  0.000  0.000  0.000
    5  0.000  0.038  0.000  0.038
    6  0.000  0.038  0.000  0.038
    7  0.000  0.035  0.000  0.035
    8  0.000  0.035  0.000  0.035
    9  0.000  0.027  0.000  0.027
   10  0.000  0.027  0.000  0.027
   11  0.000  0.026  0.000  0.026
   12  0.000  0.026  0.000  0.026
   13  0.000  0.017  0.000  0.017
   14  0.000  0.017  0.000  0.017
   15  0.000  0.016  0.000  0.016
   16  0.000  0.016  0.000  0.016
   17  0.000  0.017  0.000  0.017
   18  0.000  0.017  0.000  0.017
   19  0.000  0.021  0.000  0.021
   20  0.000  0.021  0.000  0.021
   21  0.000  0.019  0.000  0.019
   22  0.000  0.019  0.000  0.019
   23  0.000  0.031  0.000  0.031
   24  0.000  0.031  0.000  0.031
   25  0.000  0.044  0.000  0.044
   26  0.000  0.044  0.000  0.044
tot    0.000  0.582  0.001  0.582
 
band    30 # energy    0.49897486 # occ.  2.00000000
 
ion      s      p      d    tot
    1  0.001  0.000  0.000  0.001
    2  0.001  0.000  0.000  0.001
    3  0.001  0.000  0.000  0.002
    4  0.001  0.000  0.000  0.002
    5  0.001  0.026  0.001  0.028
    6  0.001  0.026  0.001  0.028
    7  0.000  0.020  0.000  0.021
    8  0.000  0.020  0.000  0.021
    9  0.001  0.028  0.001  0.029
   10  0.001  0.028  0.001  0.029
   11  0.000  0.016  0.001  0.017
   12  0.000  0.016  0.001  0.017
   13  0.000  0.016  0.000  0.016
   14  0.000  0.016  0.000  0.016
   15  0.001  0.013  0.000  0.014
   16  0.001  0.013  0.000  0.014