<?xml version="1.0" encoding="ISO-8859-1"?>
<modeling>
 <generator>
  <i name="program" type="string">vasp </i>
  <i name="version" type="string">5.4.4.18Apr17-6-g9f103f2a35  </i>
  <i name="subversion" type="string">(build Oct 27 2022 13:04:57) complex            parallel </i>
  <i name="platform" type="string">LinuxIFC </i>
  <i name="date" type="string">2024 06 29 </i>
  <i name="time" type="string">04:07:44 </i>
 </generator>
 <incar>
  <i type="string" name="SYSTEM"> CIS</i>
  <i type="int" name="ISTART">     0</i>
  <i type="string" name="PREC">medium</i>
  <i type="int" name="ICHARG">     2</i>
  <i type="int" name="IBRION">     2</i>
  <i name="EDIFF">      0.00010000</i>
  <i name="EDIFFG">     -0.05000000</i>
  <i type="int" name="NSW">    99</i>
  <i type="int" name="ISIF">     3</i>
  <i name="ENCUT">    300.00000000</i>
  <i name="POTIM">      0.10000000</i>
  <i type="string" name="LREAL"> Auto</i>
  <i type="int" name="ISMEAR">     0</i>
  <i name="SIGMA">      0.05000000</i>
  <i type="int" name="LMAXMIX">     4</i>
  <i type="logical" name="LWAVE"> F  </i>
  <i type="logical" name="LCHARG"> F  </i>
  <i type="int" name="LORBIT">    10</i>
  <i type="logical" name="LASPH"> T  </i>
  <v type="int" name="KPOINT_BSE">    -1     0     0     0</v>
  <i type="logical" name="LASPH"> T  </i>
 </incar>
 <structure name="primitive_cell" >
  <crystal>
   <varray name="basis" >
    <v>       4.24401182       0.00000000       0.00000000 </v>
    <v>       0.00000000      13.41340877       0.04087212 </v>
    <v>       0.00000000       1.22959264      15.51089389 </v>
   </varray>
   <i name="volume">    882.77017871 </i>
   <varray name="rec_basis" >
    <v>       0.23562611       0.00000000       0.00000000 </v>
    <v>       0.00000000       0.07457028      -0.00591140 </v>
    <v>       0.00000000      -0.00019650       0.06448639 </v>
   </varray>
  </crystal>
  <varray name="positions" >
   <v>       0.25000000      -0.43150721      -0.18790996 </v>
   <v>       0.25000000      -0.40186188       0.03793755 </v>
   <v>       0.25000000       0.30839179      -0.24041933 </v>
   <v>      -0.25000000       0.40186188      -0.03793755 </v>
   <v>      -0.25000000      -0.20214494      -0.13713377 </v>
   <v>      -0.25000000      -0.45798711      -0.39320698 </v>
   <v>       0.25000000       0.26853392      -0.05056020 </v>
   <v>       0.25000000       0.39331667      -0.42829721 </v>
   <v>      -0.25000000      -0.17124691      -0.37714522 </v>
   <v>      -0.25000000      -0.26853392       0.05056020 </v>
   <v>       0.25000000      -0.05387657      -0.12022641 </v>
   <v>       0.25000000      -0.24454282       0.45156839 </v>
   <v>      -0.25000000       0.16844394      -0.27488852 </v>
   <v>       0.25000000       0.01433094      -0.29540055 </v>
   <v>      -0.25000000      -0.39331667       0.42829721 </v>
   <v>      -0.25000000       0.43150721       0.18790996 </v>
   <v>       0.25000000      -0.09642318       0.08303846 </v>
   <v>      -0.25000000       0.24454282      -0.45156839 </v>
   <v>      -0.25000000       0.09642318      -0.08303846 </v>
   <v>       0.25000000       0.20214494       0.13713377 </v>
   <v>       0.25000000       0.45798711       0.39320698 </v>
   <v>      -0.25000000      -0.30839179       0.24041933 </v>
   <v>       0.25000000      -0.16844394       0.27488852 </v>
   <v>      -0.25000000       0.05387657       0.12022641 </v>
   <v>       0.25000000       0.17124691       0.37714522 </v>
   <v>      -0.25000000      -0.01433094       0.29540055 </v>
  </varray>
 </structure>
 <varray name="primitive_index" >
  <v type="int" >        1 </v>
  <v type="int" >       15 </v>
  <v type="int" >       24 </v>
  <v type="int" >       16 </v>
  <v type="int" >       19 </v>
  <v type="int" >       14 </v>
  <v type="int" >       10 </v>
  <v type="int" >       12 </v>
  <v type="int" >        3 </v>
  <v type="int" >        9 </v>
  <v type="int" >        5 </v>
  <v type="int" >       21 </v>
  <v type="int" >        8 </v>
  <v type="int" >       18 </v>
  <v type="int" >       11 </v>
  <v type="int" >        2 </v>
  <v type="int" >       25 </v>
  <v type="int" >       22 </v>
  <v type="int" >       26 </v>
  <v type="int" >       20 </v>
  <v type="int" >       13 </v>
  <v type="int" >       23 </v>
  <v type="int" >        7 </v>
  <v type="int" >        6 </v>
  <v type="int" >        4 </v>
  <v type="int" >       17 </v>
 </varray>
 <kpoints>
  <generation param="Monkhorst-Pack">
   <v type="int" name="divisions">       5        2        2 </v>
   <v name="usershift">      0.00000000       0.00000000       0.00000000 </v>
   <v name="genvec1">      0.20000000       0.00000000       0.00000000 </v>
   <v name="genvec2">      0.00000000       0.50000000      -0.00000000 </v>
   <v name="genvec3">      0.00000000      -0.00000000       0.50000000 </v>
   <v name="shift">      0.00000000       0.50000000       0.50000000 </v>
  </generation>
  <varray name="kpointlist" >
   <v>       0.00000000       0.25000000       0.25000000 </v>
   <v>       0.20000000       0.25000000       0.25000000 </v>
   <v>       0.40000000       0.25000000       0.25000000 </v>
   <v>       0.00000000      -0.25000000       0.25000000 </v>
   <v>       0.20000000      -0.25000000       0.25000000 </v>
   <v>       0.40000000      -0.25000000       0.25000000 </v>
  </varray>
  <varray name="weights" >
   <v>       0.10000000 </v>
   <v>       0.20000000 </v>
   <v>       0.20000000 </v>
   <v>       0.10000000 </v>
   <v>       0.20000000 </v>
   <v>       0.20000000 </v>
  </varray>
 </kpoints>
 <parameters>
  <separator name="general" >
   <i type="string" name="SYSTEM">CIS</i>
   <i type="logical" name="LCOMPAT"> F  </i>
  </separator>
  <separator name="electronic" >
   <i type="string" name="PREC">medium</i>
   <i name="ENMAX">    300.00000000</i>
   <i name="ENAUG">    335.09200000</i>
   <i name="EDIFF">      0.00010000</i>
   <i type="int" name="IALGO">    38</i>
   <i type="int" name="IWAVPR">    11</i>
   <i type="int" name="NBANDS">    84</i>
   <i name="NELECT">    128.00000000</i>
   <i type="int" name="TURBO">     0</i>
   <i type="int" name="IRESTART">     0</i>
   <i type="int" name="NREBOOT">     0</i>
   <i type="int" name="NMIN">     0</i>
   <i name="EREF">      0.00000000</i>
   <separator name="electronic smearing" >
    <i type="int" name="ISMEAR">     0</i>
    <i name="SIGMA">      0.05000000</i>
    <i name="KSPACING">      0.50000000</i>
    <i type="logical" name="KGAMMA"> T  </i>
   </separator>
   <separator name="electronic projectors" >
    <i type="logical" name="LREAL"> T  </i>
    <v name="ROPT">     -0.00200000     -0.00200000     -0.00200000</v>
    <i type="int" name="LMAXPAW">  -100</i>
    <i type="int" name="LMAXMIX">     4</i>
    <i type="logical" name="NLSPLINE"> F  </i>
   </separator>
   <separator name="electronic startup" >
    <i type="int" name="ISTART">     0</i>
    <i type="int" name="ICHARG">     2</i>
    <i type="int" name="INIWAV">     1</i>
   </separator>
   <separator name="electronic spin" >
    <i type="int" name="ISPIN">     1</i>
    <i type="logical" name="LNONCOLLINEAR"> F  </i>
    <v name="MAGMOM">      1.00000000      1.00000000      1.00000000      1.00000000      1.00000000      1.00000000      1.00000000      1.00000000      1.00000000      1.00000000      1.00000000      1.00000000      1.00000000      1.00000000      1.00000000      1.00000000      1.00000000      1.00000000      1.00000000      1.00000000
      1.00000000      1.00000000      1.00000000      1.00000000      1.00000000      1.00000000</v>
    <i name="NUPDOWN">     -1.00000000</i>
    <i type="logical" name="LSORBIT"> F  </i>
    <v name="SAXIS">      0.00000000      0.00000000      1.00000000</v>
    <i type="logical" name="LSPIRAL"> F  </i>
    <v name="QSPIRAL">      0.00000000      0.00000000      0.00000000</v>
    <i type="logical" name="LZEROZ"> F  </i>
   </separator>
   <separator name="electronic exchange-correlation" >
    <i type="logical" name="LASPH"> T  </i>
    <i type="logical" name="LMETAGGA"> F  </i>
   </separator>
   <separator name="electronic convergence" >
    <i type="int" name="NELM">    60</i>
    <i type="int" name="NELMDL">    -5</i>
    <i type="int" name="NELMIN">     2</i>
    <i name="ENINI">    300.00000000</i>
    <separator name="electronic convergence detail" >
     <i type="logical" name="LDIAG"> T  </i>
     <i type="logical" name="LSUBROT"> F  </i>
     <i name="WEIMIN">      0.00100000</i>
     <i name="EBREAK">      0.00000030</i>
     <i name="DEPER">      0.30000000</i>
     <i type="int" name="NRMM">     4</i>
     <i name="TIME">      0.40000000</i>
    </separator>
   </separator>
   <separator name="electronic mixer" >
    <i name="AMIX">      0.40000000</i>
    <i name="BMIX">      1.00000000</i>
    <i name="AMIN">      0.10000000</i>
    <i name="AMIX_MAG">      1.60000000</i>
    <i name="BMIX_MAG">      1.00000000</i>
    <separator name="electronic mixer details" >
     <i type="int" name="IMIX">     4</i>
     <i type="logical" name="MIXFIRST"> F  </i>
     <i type="int" name="MAXMIX">   -45</i>
     <i name="WC">    100.00000000</i>
     <i type="int" name="INIMIX">     1</i>
     <i type="int" name="MIXPRE">     1</i>
     <i type="int" name="MREMOVE">     5</i>
    </separator>
   </separator>
   <separator name="electronic dipolcorrection" >
    <i type="logical" name="LDIPOL"> F  </i>
    <i type="logical" name="LMONO"> F  </i>
    <i type="int" name="IDIPOL">     0</i>
    <i name="EPSILON">      1.00000000</i>
    <v name="DIPOL">   -100.00000000   -100.00000000   -100.00000000</v>
    <i name="EFIELD">      0.00000000</i>
   </separator>
  </separator>
  <separator name="grids" >
   <i type="int" name="NGX">    18</i>
   <i type="int" name="NGY">    60</i>
   <i type="int" name="NGZ">    70</i>
   <i type="int" name="NGXF">    28</i>
   <i type="int" name="NGYF">    80</i>
   <i type="int" name="NGZF">    96</i>
   <i type="logical" name="ADDGRID"> F  </i>
  </separator>
  <separator name="ionic" >
   <i type="int" name="NSW">    99</i>
   <i type="int" name="IBRION">     2</i>
   <i type="int" name="MDALGO">     0</i>
   <i type="int" name="ISIF">     3</i>
   <i name="PSTRESS">      0.00000000</i>
   <i name="EDIFFG">     -0.05000000</i>
   <i type="int" name="NFREE">     1</i>
   <i name="POTIM">      0.10000000</i>
   <i name="SMASS">     -3.00000000</i>
   <i name="SCALEE">      1.00000000</i>
  </separator>
  <separator name="ionic md" >
   <i name="TEBEG">      0.00010000</i>
   <i name="TEEND">      0.00010000</i>
   <i type="int" name="NBLOCK">     1</i>
   <i type="int" name="KBLOCK">    99</i>
   <i type="int" name="NPACO">   256</i>
   <i name="APACO">     16.00000000</i>
  </separator>
  <separator name="symmetry" >
   <i type="int" name="ISYM">     2</i>
   <i name="SYMPREC">      0.00001000</i>
  </separator>
  <separator name="dos" >
   <i type="int" name="LORBIT">    10</i>
   <v name="RWIGS">     -1.00000000     -1.00000000     -1.00000000</v>
   <i type="int" name="NEDOS">   301</i>
   <i name="EMIN">     10.00000000</i>
   <i name="EMAX">    -10.00000000</i>
   <i name="EFERMI">      0.00000000</i>
  </separator>
  <separator name="writing" >
   <i type="int" name="NWRITE">     2</i>
   <i type="logical" name="LWAVE"> F  </i>
   <i type="logical" name="LDOWNSAMPLE"> F  </i>
   <i type="logical" name="LCHARG"> F  </i>
   <i type="logical" name="LPARD"> F  </i>
   <i type="logical" name="LVTOT"> F  </i>
   <i type="logical" name="LVHAR"> F  </i>
   <i type="logical" name="LELF"> F  </i>
   <i type="logical" name="LOPTICS"> F  </i>
   <v name="STM">      0.00000000      0.00000000      0.00000000      0.00000000      0.00000000      0.00000000      0.00000000</v>
  </separator>
  <separator name="performance" >
   <i type="int" name="NPAR">    14</i>
   <i type="int" name="NSIM">     4</i>
   <i type="int" name="NBLK">    -1</i>
   <i type="logical" name="LPLANE"> T  </i>
   <i type="logical" name="LSCALAPACK"> T  </i>
   <i type="logical" name="LSCAAWARE"> F  </i>
   <i type="logical" name="LSCALU"> F  </i>
   <i type="logical" name="LASYNC"> F  </i>
   <i type="logical" name="LORBITALREAL"> F  </i>
  </separator>
  <separator name="miscellaneous" >
   <i type="int" name="IDIOT">     3</i>
   <i type="int" name="ISPECIAL">     0</i>
   <i type="logical" name="LMUSIC"> F  </i>
   <v name="POMASS">     22.99000000    208.98000000     32.06600000</v>
   <v name="DARWINR">      0.00000000      0.00000000      0.00000000</v>
   <v name="DARWINV">      1.00000000      1.00000000      1.00000000</v>
   <i type="logical" name="LCORR"> T  </i>
  </separator>
  <i type="logical" name="GGA_COMPAT"> T  </i>
  <i type="logical" name="LBERRY"> F  </i>
  <i type="int" name="ICORELEVEL">     0</i>
  <i type="logical" name="LDAU"> F  </i>
  <i type="int" name="I_CONSTRAINED_M">     0</i>
  <separator name="electronic exchange-correlation" >
   <i type="string" name="GGA">--</i>
   <i type="int" name="VOSKOWN">     0</i>
   <i type="logical" name="LHFCALC"> F  </i>
   <i type="string" name="PRECFOCK"></i>
   <i type="logical" name="LSYMGRAD"> F  </i>
   <i type="logical" name="LHFONE"> F  </i>
   <i type="logical" name="LRHFCALC"> F  </i>
   <i type="logical" name="LTHOMAS"> F  </i>
   <i type="logical" name="LMODELHF"> F  </i>
   <i name="ENCUT4O">     -1.00000000</i>
   <i type="int" name="EXXOEP">     0</i>
   <i type="int" name="FOURORBIT">     0</i>
   <i name="AEXX">      0.00000000</i>
   <i name="HFALPHA">      0.00000000</i>
   <i name="MCALPHA">      0.00000000</i>
   <i name="ALDAX">      1.00000000</i>
   <i name="AGGAX">      1.00000000</i>
   <i name="ALDAC">      1.00000000</i>
   <i name="AGGAC">      1.00000000</i>
   <i type="int" name="NKREDX">     1</i>
   <i type="int" name="NKREDY">     1</i>
   <i type="int" name="NKREDZ">     1</i>
   <i type="logical" name="SHIFTRED"> F  </i>
   <i type="logical" name="ODDONLY"> F  </i>
   <i type="logical" name="EVENONLY"> F  </i>
   <i type="int" name="LMAXFOCK">     0</i>
   <i type="int" name="NMAXFOCKAE">     0</i>
   <i type="logical" name="LFOCKAEDFT"> F  </i>
   <i name="HFSCREEN">      0.00000000</i>
   <i name="HFSCREENC">      0.00000000</i>
   <i type="int" name="NBANDSGWLOW">     0</i>
  </separator>
  <separator name="vdW DFT" >
   <i type="logical" name="LUSE_VDW"> F  </i>
   <i name="Zab_VDW">     -0.84910000</i>
   <i name="PARAM1">      0.12340000</i>
   <i name="PARAM2">      1.00000000</i>
   <i name="PARAM3">      0.00000000</i>
  </separator>
  <separator name="model GW" >
   <i type="int" name="MODEL_GW">     0</i>
   <i name="MODEL_EPS0">     20.37161951</i>
   <i name="MODEL_ALPHA">      1.00000000</i>
  </separator>
  <separator name="linear response parameters" >
   <i type="logical" name="LEPSILON"> F  </i>
   <i type="logical" name="LRPA"> F  </i>
   <i type="logical" name="LNABLA"> F  </i>
   <i type="logical" name="LVEL"> F  </i>
   <i type="int" name="KINTER">     0</i>
   <i name="CSHIFT">      0.10000000</i>
   <i name="OMEGAMAX">     -1.00000000</i>
   <i name="DEG_THRESHOLD">      0.00200000</i>
   <i name="RTIME">     -0.10000000</i>
   <i name="WPLASMAI">      0.00000000</i>
   <v name="DFIELD">      0.00000000      0.00000000      0.00000000</v>
   <v name="WPLASMA">      0.00000000      0.00000000      0.00000000      0.00000000      0.00000000      0.00000000      0.00000000      0.00000000      0.00000000</v>
  </separator>
  <separator name="orbital magnetization" >
   <i type="logical" name="NUCIND"> F  </i>
   <v name="MAGPOS">      0.00000000      0.00000000      0.00000000</v>
   <i type="logical" name="LNICSALL"> T  </i>
   <i type="logical" name="ORBITALMAG"> F  </i>
   <i type="logical" name="LMAGBLOCH"> F  </i>
   <i type="logical" name="LCHIMAG"> F  </i>
   <i type="logical" name="LGAUGE"> T  </i>
   <i type="int" name="MAGATOM">     0</i>
   <v name="MAGDIPOL">      0.00000000      0.00000000      0.00000000</v>
   <v name="AVECCONST">      0.00000000      0.00000000      0.00000000</v>
  </separator>
  <separator name="response functions" >
   <i type="logical" name="LADDER"> F  </i>
   <i type="logical" name="LRPAFORCE"> F  </i>
   <i type="logical" name="LFXC"> F  </i>
   <i type="logical" name="LHARTREE"> T  </i>
   <i type="int" name="IBSE">     0</i>
   <v type="int" name="KPOINT">    -1     0     0     0</v>
   <i type="logical" name="LTCTE"> F  </i>
   <i type="logical" name="LTETE"> F  </i>
   <i type="logical" name="LTRIPLET"> F  </i>
   <i type="logical" name="LFXCEPS"> F  </i>
   <i type="logical" name="LFXHEG"> F  </i>
   <i type="int" name="NATURALO">     2</i>
   <i type="logical" name="L2ORDER"> F  </i>
   <i type="logical" name="LMP2LT"> F  </i>
   <i type="logical" name="LUSEW"> F  </i>
   <i name="ENCUTGW">     -2.00000000</i>
   <i name="ENCUTGWSOFT">     -2.00000000</i>
   <i name="ENCUTLF">     -1.00000000</i>
   <i type="int" name="LMAXMP2">    -1</i>
   <i name="SCISSOR">      0.00000000</i>
   <i type="int" name="NOMEGA">     0</i>
   <i type="int" name="NOMEGAR">     0</i>
   <i type="int" name="NBANDSGW">    -1</i>
   <i type="int" name="NBANDSO">    -1</i>
   <i type="int" name="NBANDSV">    -1</i>
   <i type="int" name="NELM">     1</i>
   <i type="int" name="NELMHF">     1</i>
   <i type="int" name="DIM">     3</i>
   <i type="int" name="ANTIRES">     0</i>
   <i name="OMEGAMAX">    -30.00000000</i>
   <i name="OMEGAMIN">    -30.00000000</i>
   <i name="OMEGATL">   -200.00000000</i>
   <i type="int" name="OMEGAGRID">   140</i>
   <i name="CSHIFT">     -0.10000000</i>
   <i type="logical" name="SELFENERGY"> F  </i>
   <i type="logical" name="LSPECTRAL"> F  </i>
   <i type="logical" name="LSPECTRALGW"> F  </i>
   <i type="logical" name="LSINGLES"> F  </i>
   <i type="logical" name="LFERMIGW"> F  </i>
   <i type="logical" name="ODDONLYGW"> F  </i>
   <i type="logical" name="EVENONLYGW"> F  </i>
   <i type="int" name="NKREDLFX">     1</i>
   <i type="int" name="NKREDLFY">     1</i>
   <i type="int" name="NKREDLFZ">     1</i>
   <i type="int" name="MAXMEM">  2800</i>
   <i type="int" name="TELESCOPE">     0</i>
   <i type="int" name="TAUPAR">     1</i>
   <i type="int" name="OMEGAPAR">    -1</i>
   <i name="LAMBDA">      1.00000000</i>
  </separator>
  <separator name="External order field" >
   <i name="OFIELD_KAPPA">      0.00000000</i>
   <v name="OFIELD_K">      0.00000000      0.00000000      0.00000000</v>
   <i name="OFIELD_Q6_NEAR">      0.00000000</i>
   <i name="OFIELD_Q6_FAR">      0.00000000</i>
   <i name="OFIELD_A">      0.00000000</i>
  </separator>
 </parameters>
 <atominfo>
  <atoms>      26 </atoms>
  <types>       3 </types>
  <array name="atoms" >
   <dimension dim="1">ion</dimension>
   <field type="string">element</field>
   <field type="int">atomtype</field>
   <set>
    <rc><c>Na</c><c>   1</c></rc>
    <rc><c>Na</c><c>   1</c></rc>
    <rc><c>Na</c><c>   1</c></rc>
    <rc><c>Na</c><c>   1</c></rc>
    <rc><c>Bi</c><c>   2</c></rc>
    <rc><c>Bi</c><c>   2</c></rc>
    <rc><c>Bi</c><c>   2</c></rc>
    <rc><c>Bi</c><c>   2</c></rc>
    <rc><c>Bi</c><c>   2</c></rc>
    <rc><c>Bi</c><c>   2</c></rc>
    <rc><c>Bi</c><c>   2</c></rc>
    <rc><c>Bi</c><c>   2</c></rc>
    <rc><c>S </c><c>   3</c></rc>
    <rc><c>S </c><c>   3</c></rc>
    <rc><c>S </c><c>   3</c></rc>
    <rc><c>S </c><c>   3</c></rc>
    <rc><c>S </c><c>   3</c></rc>
    <rc><c>S </c><c>   3</c></rc>
    <rc><c>S </c><c>   3</c></rc>
    <rc><c>S </c><c>   3</c></rc>
    <rc><c>S </c><c>   3</c></rc>
    <rc><c>S </c><c>   3</c></rc>
    <rc><c>S </c><c>   3</c></rc>
    <rc><c>S </c><c>   3</c></rc>
    <rc><c>S </c><c>   3</c></rc>
    <rc><c>S </c><c>   3</c></rc>
   </set>
  </array>
  <array name="atomtypes" >
   <dimension dim="1">type</dimension>
   <field type="int">atomspertype</field>
   <field type="string">element</field>
   <field>mass</field>
   <field>valence</field>
   <field type="string">pseudopotential</field>
   <set>
    <rc><c>   4</c><c>Na</c><c>     22.99000000</c><c>      1.00000000</c><c>  PAW_PBE Na 08Apr2002                  </c></rc>
    <rc><c>   8</c><c>Bi</c><c>    208.98000000</c><c>      5.00000000</c><c>  PAW_PBE Bi 08Apr2002                  </c></rc>
    <rc><c>  14</c><c>S </c><c>     32.06600000</c><c>      6.00000000</c><c>  PAW_PBE S 06Sep2000                   </c></rc>
   </set>
  </array>
 </atominfo>
 <structure name="initialpos" >
  <crystal>
   <varray name="basis" >
    <v>       4.24401182       0.00000000       0.00000000 </v>
    <v>       0.00000000      13.41340877       0.04087212 </v>
    <v>       0.00000000       1.22959264      15.51089389 </v>
   </varray>
   <i name="volume">    882.77017871 </i>
   <varray name="rec_basis" >
    <v>       0.23562611       0.00000000       0.00000000 </v>
    <v>       0.00000000       0.07457028      -0.00591140 </v>
    <v>       0.00000000      -0.00019650       0.06448639 </v>
   </varray>
  </crystal>
  <varray name="positions" >
   <v>       0.25000000       0.56849279       0.81209004 </v>
   <v>       0.75000000       0.43150721       0.18790996 </v>
   <v>       0.75000000       0.82875309       0.62285478 </v>
   <v>       0.25000000       0.17124691       0.37714522 </v>
   <v>       0.25000000       0.94612343       0.87977359 </v>
   <v>       0.75000000       0.05387657       0.12022641 </v>
   <v>       0.25000000       0.83155606       0.27488852 </v>
   <v>       0.75000000       0.16844394       0.72511148 </v>
   <v>       0.75000000       0.73146608       0.05056020 </v>
   <v>       0.25000000       0.26853392       0.94943980 </v>
   <v>       0.75000000       0.60668333       0.42829721 </v>
   <v>       0.25000000       0.39331667       0.57170279 </v>
   <v>       0.25000000       0.45798711       0.39320698 </v>
   <v>       0.75000000       0.54201289       0.60679302 </v>
   <v>       0.25000000       0.59813812       0.03793755 </v>
   <v>       0.75000000       0.40186188       0.96206245 </v>
   <v>       0.75000000       0.98566906       0.29540055 </v>
   <v>       0.25000000       0.01433094       0.70459945 </v>
   <v>       0.75000000       0.79785506       0.86286623 </v>
   <v>       0.25000000       0.20214494       0.13713377 </v>
   <v>       0.25000000       0.75545718       0.45156839 </v>
   <v>       0.75000000       0.24454282       0.54843161 </v>
   <v>       0.75000000       0.69160821       0.24041933 </v>
   <v>       0.25000000       0.30839179       0.75958067 </v>
   <v>       0.25000000       0.90357682       0.08303846 </v>
   <v>       0.75000000       0.09642318       0.91696154 </v>
  </varray>
 </structure>
 <calculation>
  <scstep>
   <time name="dav">    0.97    0.98</time>
   <time name="total">    1.15    1.16</time>
   <energy>
    <i name="alphaZ">     54.36321834 </i>
    <i name="ewald">  -3311.06114051 </i>
    <i name="hartreedc">  -1717.05245535 </i>
    <i name="XCdc">   -863.21572963 </i>
    <i name="pawpsdc">   5005.02510699 </i>
    <i name="pawaedc">  -3874.88854302 </i>
    <i name="eentropy">     -0.00236697 </i>
    <i name="bandstr">    176.58390051 </i>
    <i name="atom">   5102.55081770 </i>
    <i name="e_fr_energy">    572.30280806 </i>
    <i name="e_wo_entrp">    572.30517503 </i>
    <i name="e_0_energy">    572.30399154 </i>
   </energy>
  </scstep>
  <scstep>
   <time name="dav">    0.94    0.95</time>
   <time name="total">    0.94    0.95</time>
   <energy>
    <i name="e_fr_energy">    -33.47780992 </i>
    <i name="e_wo_entrp">    -33.47780992 </i>
    <i name="e_0_energy">    -33.47780992 </i>
   </energy>
  </scstep>
  <scstep>
   <time name="dav">    1.00    1.00</time>
   <time name="total">    1.00    1.00</time>
   <energy>
    <i name="e_fr_energy">   -110.68277420 </i>
    <i name="e_wo_entrp">   -110.68277420 </i>
    <i name="e_0_energy">   -110.68277420 </i>
   </energy>
  </scstep>
  <scstep>
   <time name="dav">    1.34    1.34</time>
   <time name="total">    1.34    1.34</time>
   <energy>
    <i name="e_fr_energy">   -114.34131889 </i>
    <i name="e_wo_entrp">   -114.34131889 </i>
    <i name="e_0_energy">   -114.34131889 </i>
   </energy>
  </scstep>
  <scstep>
   <time name="dav">    1.29    1.29</time>
   <time name="total">    1.32    1.32</time>
   <energy>
    <i name="e_fr_energy">   -114.39114556 </i>
    <i name="e_wo_entrp">   -114.39114556 </i>
    <i name="e_0_energy">   -114.39114556 </i>
   </energy>
  </scstep>
  <scstep>
   <time name="dav">    1.25    1.27</time>
   <time name="total">    1.47    1.49</time>
   <energy>
    <i name="e_fr_energy">   -104.89790537 </i>
    <i name="e_wo_entrp">   -104.89790537 </i>
    <i name="e_0_energy">   -104.89790537 </i>
   </energy>
  </scstep>
  <scstep>
   <time name="dav">    1.19    1.19</time>
   <time name="total">    1.40    1.41</time>
   <energy>
    <i name="e_fr_energy">   -104.91713189 </i>
    <i name="e_wo_entrp">   -104.91713189 </i>
    <i name="e_0_energy">   -104.91713189 </i>
   </energy>
  </scstep>
  <scstep>
   <time name="dav">    1.66    1.66</time>
   <time name="total">    1.88    1.88</time>
   <energy>
    <i name="e_fr_energy">   -104.81405817 </i>
    <i name="e_wo_entrp">   -104.81405817 </i>
    <i name="e_0_energy">   -104.81405817 </i>
   </energy>
  </scstep>
  <scstep>
   <time name="dav">    1.20    1.20</time>
   <time name="total">    1.41    1.41</time>
   <energy>
    <i name="e_fr_energy">   -104.79053410 </i>
    <i name="e_wo_entrp">   -104.79053410 </i>
    <i name="e_0_energy">   -104.79053410 </i>
   </energy>
  </scstep>
  <scstep>
   <time name="dav">    1.24    1.24</time>
   <time name="total">    1.45    1.45</time>
   <energy>
    <i name="e_fr_energy">   -104.79110184 </i>
    <i name="e_wo_entrp">   -104.79110184 </i>
    <i name="e_0_energy">   -104.79110184 </i>
   </energy>
  </scstep>
  <scstep>
   <time name="dav">    0.97    0.98</time>
   <time name="total">    1.18    1.19</time>
   <energy>
    <i name="e_fr_energy">   -104.79289741 </i>
    <i name="e_wo_entrp">   -104.79289741 </i>
    <i name="e_0_energy">   -104.79289741 </i>
   </energy>
  </scstep>
  <scstep>
   <time name="dav">    0.94    0.94</time>
   <time name="total">    1.15    1.15</time>
   <energy>
    <i name="e_fr_energy">   -104.79481364 </i>
    <i name="e_wo_entrp">   -104.79481364 </i>
    <i name="e_0_energy">   -104.79481364 </i>
   </energy>
  </scstep>
  <scstep>
   <time name="dav">    1.36    1.36</time>
   <time name="total">    1.58    1.58</time>
   <energy>
    <i name="e_fr_energy">   -104.79540385 </i>
    <i name="e_wo_entrp">   -104.79540385 </i>
    <i name="e_0_energy">   -104.79540385 </i>
   </energy>
  </scstep>
  <scstep>
   <time name="dav">    1.11    1.11</time>
   <time name="total">    1.33    1.34</time>
   <energy>
    <i name="e_fr_energy">   -104.79570146 </i>
    <i name="e_wo_entrp">   -104.79570146 </i>
    <i name="e_0_energy">   -104.79570146 </i>
   </energy>
  </scstep>
  <scstep>
   <time name="dav">    1.27    1.27</time>
   <time name="total">    1.49    1.49</time>
   <energy>
    <i name="e_fr_energy">   -104.79583768 </i>
    <i name="e_wo_entrp">   -104.79583768 </i>
    <i name="e_0_energy">   -104.79583768 </i>
   </energy>
  </scstep>
  <scstep>
   <time name="dav">    1.03    1.03</time>
   <time name="total">    1.21    1.21</time>
   <energy>
    <i name="alphaZ">     54.36321834 </i>
    <i name="ewald">  -3311.06114051 </i>
    <i name="hartreedc">  -1824.61681735 </i>
    <i name="XCdc">   -855.29355463 </i>
    <i name="pawpsdc">   7993.67931077 </i>
    <i name="pawaedc">  -6863.64030066 </i>
    <i name="eentropy">     -0.00000000 </i>
    <i name="bandstr">   -400.77738699 </i>
    <i name="atom">   5102.55081770 </i>
    <i name="e_fr_energy">   -104.79585332 </i>
    <i name="e_wo_entrp">   -104.79585332 </i>
    <i name="e_0_energy">   -104.79585332 </i>
   </energy>
  </scstep>
  <structure>
   <crystal>
    <varray name="basis" >
     <v>       4.24401182       0.00000000       0.00000000 </v>
     <v>       0.00000000      13.41340877       0.04087212 </v>
     <v>       0.00000000       1.22959264      15.51089389 </v>
    </varray>
    <i name="volume">    882.77017871 </i>
    <varray name="rec_basis" >
     <v>       0.23562611       0.00000000       0.00000000 </v>
     <v>       0.00000000       0.07457028      -0.00591140 </v>
     <v>       0.00000000      -0.00019650       0.06448639 </v>
    </varray>
   </crystal>
   <varray name="positions" >
    <v>       0.25000000       0.56849279       0.81209004 </v>
    <v>       0.75000000       0.43150721       0.18790996 </v>
    <v>       0.75000000       0.82875309       0.62285478 </v>
    <v>       0.25000000       0.17124691       0.37714522 </v>
    <v>       0.25000000       0.94612343       0.87977359 </v>
    <v>       0.75000000       0.05387657       0.12022641 </v>
    <v>       0.25000000       0.83155606       0.27488852 </v>
    <v>       0.75000000       0.16844394       0.72511148 </v>
    <v>       0.75000000       0.73146608       0.05056020 </v>
    <v>       0.25000000       0.26853392       0.94943980 </v>
    <v>       0.75000000       0.60668333       0.42829721 </v>
    <v>       0.25000000       0.39331667       0.57170279 </v>
    <v>       0.25000000       0.45798711       0.39320698 </v>
    <v>       0.75000000       0.54201289       0.60679302 </v>
    <v>       0.25000000       0.59813812       0.03793755 </v>
    <v>       0.75000000       0.40186188       0.96206245 </v>
    <v>       0.75000000       0.98566906       0.29540055 </v>
    <v>       0.25000000       0.01433094       0.70459945 </v>
    <v>       0.75000000       0.79785506       0.86286623 </v>
    <v>       0.25000000       0.20214494       0.13713377 </v>
    <v>       0.25000000       0.75545718       0.45156839 </v>
    <v>       0.75000000       0.24454282       0.54843161 </v>
    <v>       0.75000000       0.69160821       0.24041933 </v>
    <v>       0.25000000       0.30839179       0.75958067 </v>
    <v>       0.25000000       0.90357682       0.08303846 </v>
    <v>       0.75000000       0.09642318       0.91696154 </v>
   </varray>
  </structure>
  <varray name="forces" >
   <v>       0.00000000      -0.22953126       0.37719120 </v>
   <v>       0.00000000       0.22953126      -0.37719120 </v>
   <v>       0.00000000       0.14861295      -0.06102954 </v>
   <v>       0.00000000      -0.14861295       0.06102954 </v>
   <v>       0.00000000      -0.08910660      -0.41676933 </v>
   <v>       0.00000000       0.08910660       0.41676933 </v>
   <v>       0.00000000      -0.12241584       0.17632119 </v>
   <v>       0.00000000       0.12241584      -0.17632119 </v>
   <v>       0.00000000      -0.67747673      -0.07082433 </v>
   <v>       0.00000000       0.67747673       0.07082433 </v>
   <v>       0.00000000       0.03891373       0.23497297 </v>
   <v>       0.00000000      -0.03891373      -0.23497297 </v>
   <v>       0.00000000       0.21377988       0.42529443 </v>
   <v>       0.00000000      -0.21377988      -0.42529443 </v>
   <v>       0.00000000       0.69509722      -0.05046024 </v>
   <v>       0.00000000      -0.69509722       0.05046024 </v>
   <v>       0.00000000       0.10803695      -0.47944554 </v>
   <v>       0.00000000      -0.10803695       0.47944554 </v>
   <v>       0.00000000       0.38048085       0.17601809 </v>
   <v>       0.00000000      -0.38048085      -0.17601809 </v>
   <v>       0.00000000      -0.25718267      -0.17266687 </v>
   <v>       0.00000000       0.25718267       0.17266687 </v>
   <v>       0.00000000       0.38575803       0.01481941 </v>
   <v>       0.00000000      -0.38575803      -0.01481941 </v>
   <v>       0.00000000       0.13837225       0.15575514 </v>
   <v>       0.00000000      -0.13837225      -0.15575514 </v>
  </varray>
  <varray name="stress" >
   <v>     -48.27390406       0.00000000       0.00000000 </v>
   <v>       0.00000000     -52.57344826      -6.62916541 </v>
   <v>       0.00000000      -6.62916500     -56.29904709 </v>
  </varray>
  <energy>
   <i name="e_fr_energy">   -104.79585332 </i>
   <i name="e_wo_entrp">   -104.79585332 </i>
   <i name="e_0_energy">     -0.00000000 </i>
  </energy>
  <time name="totalsc">   22.57   22.62</time>
 </calculation>
 <calculation>
  <scstep>
   <time name="dav">    1.05    1.05</time>
   <time name="total">    1.26    1.26</time>
   <energy>
    <i name="alphaZ">     56.14822375 </i>
    <i name="ewald">  -3345.79721058 </i>
    <i name="hartreedc">  -1845.65579148 </i>
    <i name="XCdc">   -853.10357212 </i>
    <i name="pawpsdc">   7992.90119794 </i>
    <i name="pawaedc">  -6862.86132362 </i>
    <i name="eentropy">     -0.00000000 </i>
    <i name="bandstr">   -350.31658766 </i>
    <i name="atom">   5102.55081770 </i>
    <i name="e_fr_energy">   -106.13424606 </i>
    <i name="e_wo_entrp">   -106.13424606 </i>
    <i name="e_0_energy">   -106.13424606 </i>
   </energy>
  </scstep>
  <scstep>
   <time name="dav">    1.12    1.12</time>
   <time name="total">    1.33    1.33</time>
   <energy>
    <i name="e_fr_energy">   -105.74604687 </i>
    <i name="e_wo_entrp">   -105.74604687 </i>
    <i name="e_0_energy">   -105.74604687 </i>
   </energy>
  </scstep>
  <scstep>
   <time name="dav">    1.20    1.20</time>
   <time name="total">    1.41    1.41</time>
   <energy>
    <i name="e_fr_energy">   -105.69391306 </i>
    <i name="e_wo_entrp">   -105.69391306 </i>
    <i name="e_0_energy">   -105.69391306 </i>
   </energy>
  </scstep>
  <scstep>
   <time name="dav">    1.30    1.30</time>
   <time name="total">    1.51    1.51</time>
   <energy>
    <i name="e_fr_energy">   -105.68608971 </i>
    <i name="e_wo_entrp">   -105.68608971 </i>
    <i name="e_0_energy">   -105.68608971 </i>
   </energy>
  </scstep>
  <scstep>
   <time name="dav">    1.48    1.48</time>
   <time name="total">    1.70    1.70</time>
   <energy>
    <i name="e_fr_energy">   -105.68322854 </i>
    <i name="e_wo_entrp">   -105.68322854 </i>
    <i name="e_0_energy">   -105.68322854 </i>
   </energy>
  </scstep>
  <scstep>
   <time name="dav">    1.48    1.48</time>
   <time name="total">    1.70    1.70</time>
   <energy>
    <i name="e_fr_energy">   -105.68171308 </i>
    <i name="e_wo_entrp">   -105.68171308 </i>
    <i name="e_0_energy">   -105.68171308 </i>
   </energy>
  </scstep>
  <scstep>
   <time name="dav">    1.23    1.23</time>
   <time name="total">    1.45    1.45</time>
   <energy>
    <i name="e_fr_energy">   -105.68182594 </i>
    <i name="e_wo_entrp">   -105.68182594 </i>
    <i name="e_0_energy">   -105.68182594 </i>
   </energy>
  </scstep>
  <scstep>
   <time name="dav">    0.71    0.71</time>
   <time name="total">    0.89    0.89</time>
   <energy>
    <i name="alphaZ">     56.14822375 </i>
    <i name="ewald">  -3345.79721058 </i>
    <i name="hartreedc">  -1814.60616928 </i>
    <i name="XCdc">   -853.97074415 </i>
    <i name="pawpsdc">   8176.12713492 </i>
    <i name="pawaedc">  -7046.38800408 </i>
    <i name="eentropy">     -0.00000000 </i>
    <i name="bandstr">   -379.74587489 </i>
    <i name="atom">   5102.55081770 </i>
    <i name="e_fr_energy">   -105.68182661 </i>
    <i name="e_wo_entrp">   -105.68182661 </i>
    <i name="e_0_energy">   -105.68182661 </i>
   </energy>
  </scstep>
  <structure>
   <crystal>
    <varray name="basis" >
     <v>       4.20212148       0.00000000       0.00000000 </v>
     <v>       0.00000000      13.26916490       0.02222041 </v>
     <v>       0.00000000       1.19535079      15.33067603 </v>
    </varray>
    <i name="volume">    854.70607555 </i>
    <varray name="rec_basis" >
     <v>       0.23797503       0.00000000       0.00000000 </v>
     <v>       0.00000000       0.07537253      -0.00587688 </v>
     <v>       0.00000000      -0.00010925       0.06523721 </v>
    </varray>
   </crystal>
   <varray name="positions" >
    <v>       0.25000000       0.56830613       0.81232516 </v>
    <v>       0.75000000       0.43169387       0.18767484 </v>
    <v>       0.75000000       0.82886350       0.62281653 </v>
    <v>       0.25000000       0.17113650       0.37718347 </v>
    <v>       0.25000000       0.94608309       0.87951445 </v>
    <v>       0.75000000       0.05391691       0.12048555 </v>
    <v>       0.25000000       0.83145793       0.27499846 </v>
    <v>       0.75000000       0.16854207       0.72500154 </v>
    <v>       0.75000000       0.73098268       0.05051742 </v>
    <v>       0.25000000       0.26901732       0.94948258 </v>
    <v>       0.75000000       0.60669793       0.42844334 </v>
    <v>       0.25000000       0.39330207       0.57155666 </v>
    <v>       0.25000000       0.45811667       0.39347119 </v>
    <v>       0.75000000       0.54188333       0.60652881 </v>
    <v>       0.25000000       0.59864112       0.03790484 </v>
    <v>       0.75000000       0.40135888       0.96209516 </v>
    <v>       0.75000000       0.98577414       0.29510203 </v>
    <v>       0.25000000       0.01422586       0.70489797 </v>
    <v>       0.75000000       0.79811877       0.86297503 </v>
    <v>       0.25000000       0.20188123       0.13702497 </v>
    <v>       0.25000000       0.75528199       0.45146144 </v>
    <v>       0.75000000       0.24471801       0.54853856 </v>
    <v>       0.75000000       0.69188492       0.24042782 </v>
    <v>       0.25000000       0.30811508       0.75957218 </v>
    <v>       0.25000000       0.90366749       0.08313511 </v>
    <v>       0.75000000       0.09633251       0.91686489 </v>
   </varray>
  </structure>
  <varray name="forces" >
   <v>       0.00000000      -0.21856051       0.37532357 </v>
   <v>       0.00000000       0.21856051      -0.37532357 </v>
   <v>       0.00000000       0.14984627      -0.05765467 </v>
   <v>       0.00000000      -0.14984627       0.05765467 </v>
   <v>       0.00000000      -0.08636567      -0.28331225 </v>
   <v>       0.00000000       0.08636567       0.28331225 </v>
   <v>       0.00000000      -0.05240805       0.13067156 </v>
   <v>       0.00000000       0.05240805      -0.13067156 </v>
   <v>       0.00000000      -0.47928990      -0.06245930 </v>
   <v>       0.00000000       0.47928990       0.06245930 </v>
   <v>       0.00000000       0.02353101       0.16660322 </v>
   <v>       0.00000000      -0.02353101      -0.16660322 </v>
   <v>       0.00000000       0.08781524       0.24193887 </v>
   <v>       0.00000000      -0.08781524      -0.24193887 </v>
   <v>       0.00000000       0.44417890      -0.08787129 </v>
   <v>       0.00000000      -0.44417890       0.08787129 </v>
   <v>       0.00000000       0.20331752      -0.25628590 </v>
   <v>       0.00000000      -0.20331752       0.25628590 </v>
   <v>       0.00000000       0.19735807       0.02707443 </v>
   <v>       0.00000000      -0.19735807      -0.02707443 </v>
   <v>       0.00000000      -0.17506103       0.04297533 </v>
   <v>       0.00000000       0.17506103      -0.04297533 </v>
   <v>       0.00000000       0.21247210      -0.02040234 </v>
   <v>       0.00000000      -0.21247210       0.02040234 </v>
   <v>       0.00000000       0.09621762       0.14027992 </v>
   <v>       0.00000000      -0.09621762      -0.14027992 </v>
  </varray>
  <varray name="stress" >
   <v>     -38.32725428       0.00000000       0.00000000 </v>
   <v>       0.00000000     -42.80585463      -6.69694980 </v>
   <v>       0.00000000      -6.69694963     -46.59369160 </v>
  </varray>
  <energy>
   <i name="e_fr_energy">   -105.68182661 </i>
   <i name="e_wo_entrp">   -105.68182661 </i>
   <i name="e_0_energy">     -0.00000000 </i>
  </energy>
  <time name="totalsc">   12.49   12.49</time>
 </calculation>
 <calculation>
  <scstep>
   <time name="dav">    1.16    1.16</time>
   <time name="total">    1.38    1.38</time>
   <energy>
    <i name="alphaZ">     60.61683854 </i>
    <i name="ewald">  -3429.84089707 </i>
    <i name="hartreedc">  -1864.20258546 </i>
    <i name="XCdc">   -848.74469839 </i>
    <i name="pawpsdc">   8174.43757812 </i>
    <i name="pawaedc">  -7044.69129677 </i>
    <i name="eentropy">     -0.00000000 </i>
    <i name="bandstr">   -259.47119331 </i>
    <i name="atom">   5102.55081770 </i>
    <i name="e_fr_energy">   -109.34543665 </i>
    <i name="e_wo_entrp">   -109.34543665 </i>
    <i name="e_0_energy">   -109.34543665 </i>
   </energy>
  </scstep>
  <scstep>
   <time name="dav">    1.18    1.18</time>
   <time name="total">    1.39    1.39</time>
   <energy>
    <i name="e_fr_energy">   -107.21772927 </i>
    <i name="e_wo_entrp">   -107.21772927 </i>
    <i name="e_0_energy">   -107.21772927 </i>
   </energy>
  </scstep>
  <scstep>
   <time name="dav">    1.47    1.48</time>
   <time name="total">    1.70    1.70</time>
   <energy>
    <i name="e_fr_energy">   -106.91631350 </i>
    <i name="e_wo_entrp">   -106.91631350 </i>
    <i name="e_0_energy">   -106.91631350 </i>
   </energy>
  </scstep>
  <scstep>
   <time name="dav">    1.50    1.50</time>
   <time name="total">    1.73    1.73</time>
   <energy>
    <i name="e_fr_energy">   -106.88140830 </i>
    <i name="e_wo_entrp">   -106.88140830 </i>
    <i name="e_0_energy">   -106.88140830 </i>
   </energy>
  </scstep>
  <scstep>
   <time name="dav">    1.20    1.20</time>
   <time name="total">    1.41    1.41</time>
   <energy>
    <i name="e_fr_energy">   -106.86333998 </i>
    <i name="e_wo_entrp">   -106.86333998 </i>
    <i name="e_0_energy">   -106.86333998 </i>
   </energy>
  </scstep>
  <scstep>
   <time name="dav">    1.23    1.23</time>
   <time name="total">    1.44    1.44</time>
   <energy>
    <i name="e_fr_energy">   -106.85411499 </i>
    <i name="e_wo_entrp">   -106.85411499 </i>
    <i name="e_0_energy">   -106.85411499 </i>
   </energy>
  </scstep>
  <scstep>
   <time name="dav">    1.27    1.27</time>
   <time name="total">    1.48    1.48</time>
   <energy>
    <i name="e_fr_energy">   -106.85458510 </i>
    <i name="e_wo_entrp">   -106.85458510 </i>
    <i name="e_0_energy">   -106.85458510 </i>
   </energy>
  </scstep>
  <scstep>
   <time name="dav">    1.04    1.04</time>
   <time name="total">    1.22    1.22</time>
   <energy>
    <i name="alphaZ">     60.61683854 </i>
    <i name="ewald">  -3429.84089707 </i>
    <i name="hartreedc">  -1790.80753446 </i>
    <i name="XCdc">   -850.71247535 </i>
    <i name="pawpsdc">   8714.81522046 </i>
    <i name="pawaedc">  -7585.89677487 </i>
    <i name="eentropy">     -0.00000000 </i>
    <i name="bandstr">   -327.57977402 </i>
    <i name="atom">   5102.55081770 </i>
    <i name="e_fr_energy">   -106.85457906 </i>
    <i name="e_wo_entrp">   -106.85457906 </i>
    <i name="e_0_energy">   -106.85457906 </i>
   </energy>
  </scstep>
  <structure>
   <crystal>
    <varray name="basis" >
     <v>       4.10463920       0.00000000       0.00000000 </v>
     <v>       0.00000000      12.93349753      -0.02118365 </v>
     <v>       0.00000000       1.11566717      14.91129424 </v>
    </varray>
    <i name="volume">    791.69796916 </i>
    <varray name="rec_basis" >
     <v>       0.24362677       0.00000000       0.00000000 </v>
     <v>       0.00000000       0.07730913      -0.00578429 </v>
     <v>       0.00000000       0.00010983       0.06705504 </v>
    </varray>
   </crystal>
   <varray name="positions" >
    <v>       0.25000000       0.56786791       0.81287822 </v>
    <v>       0.75000000       0.43213209       0.18712178 </v>
    <v>       0.75000000       0.82912305       0.62272677 </v>
    <v>       0.25000000       0.17087695       0.37727323 </v>
    <v>       0.25000000       0.94598729       0.87890419 </v>
    <v>       0.75000000       0.05401271       0.12109581 </v>
    <v>       0.25000000       0.83122749       0.27525703 </v>
    <v>       0.75000000       0.16877251       0.72474297 </v>
    <v>       0.75000000       0.72984551       0.05041534 </v>
    <v>       0.25000000       0.27015449       0.94958466 </v>
    <v>       0.75000000       0.60673278       0.42878742 </v>
    <v>       0.25000000       0.39326722       0.57121258 </v>
    <v>       0.25000000       0.45842233       0.39409363 </v>
    <v>       0.75000000       0.54157767       0.60590637 </v>
    <v>       0.25000000       0.59982411       0.03782922 </v>
    <v>       0.75000000       0.40017589       0.96217078 </v>
    <v>       0.75000000       0.98602024       0.29439949 </v>
    <v>       0.25000000       0.01397976       0.70560051 </v>
    <v>       0.75000000       0.79873945       0.86323192 </v>
    <v>       0.25000000       0.20126055       0.13676808 </v>
    <v>       0.25000000       0.75486953       0.45120916 </v>
    <v>       0.75000000       0.24513047       0.54879084 </v>
    <v>       0.75000000       0.69253579       0.24044858 </v>
    <v>       0.25000000       0.30746421       0.75955142 </v>
    <v>       0.25000000       0.90388111       0.08336291 </v>
    <v>       0.75000000       0.09611889       0.91663709 </v>
   </varray>
  </structure>
  <varray name="forces" >
   <v>       0.00000000      -0.18631609       0.36066442 </v>
   <v>       0.00000000       0.18631609      -0.36066442 </v>
   <v>       0.00000000       0.15274429      -0.04406555 </v>
   <v>       0.00000000      -0.15274429       0.04406555 </v>
   <v>       0.00000000      -0.08763654       0.06637327 </v>
   <v>       0.00000000       0.08763654      -0.06637327 </v>
   <v>       0.00000000       0.11812406       0.01904747 </v>
   <v>       0.00000000      -0.11812406      -0.01904747 </v>
   <v>       0.00000000       0.00193204      -0.02258806 </v>
   <v>       0.00000000      -0.00193204       0.02258806 </v>
   <v>       0.00000000       0.04401037      -0.05071969 </v>
   <v>       0.00000000      -0.04401037       0.05071969 </v>
   <v>       0.00000000      -0.23863283      -0.31024353 </v>
   <v>       0.00000000       0.23863283       0.31024353 </v>
   <v>       0.00000000      -0.29232370      -0.15189217 </v>
   <v>       0.00000000       0.29232370       0.15189217 </v>
   <v>       0.00000000       0.49491787       0.33480768 </v>
   <v>       0.00000000      -0.49491787      -0.33480768 </v>
   <v>       0.00000000      -0.27895507      -0.35033926 </v>
   <v>       0.00000000       0.27895507       0.35033926 </v>
   <v>       0.00000000       0.15637614       0.58297864 </v>
   <v>       0.00000000      -0.15637614      -0.58297864 </v>
   <v>       0.00000000      -0.25262866      -0.04506446 </v>
   <v>       0.00000000       0.25262866       0.04506446 </v>
   <v>       0.00000000      -0.00083794       0.01573968 </v>
   <v>       0.00000000       0.00083794      -0.01573968 </v>
  </varray>
  <varray name="stress" >
   <v>      -6.83126677       0.00000000       0.00000000 </v>
   <v>       0.00000000     -13.36794207      -8.30532226 </v>
   <v>       0.00000000      -8.30532333     -16.27204827 </v>
  </varray>
  <energy>
   <i name="e_fr_energy">   -106.85457906 </i>
   <i name="e_wo_entrp">   -106.85457906 </i>
   <i name="e_0_energy">     -0.00000000 </i>
  </energy>
  <time name="totalsc">   13.09   13.10</time>
 </calculation>
 <calculation>
  <scstep>
   <time name="dav">    1.32    1.32</time>
   <time name="total">    1.54    1.54</time>
   <energy>
    <i name="alphaZ">     62.21982039 </i>
    <i name="ewald">  -3458.98092893 </i>
    <i name="hartreedc">  -1807.20905705 </i>
    <i name="XCdc">   -848.94404932 </i>
    <i name="pawpsdc">   8713.80310118 </i>
    <i name="pawaedc">  -7584.85850952 </i>
    <i name="eentropy">     -0.00000000 </i>
    <i name="bandstr">   -285.78469196 </i>
    <i name="atom">   5102.55081770 </i>
    <i name="e_fr_energy">   -107.20349750 </i>
    <i name="e_wo_entrp">   -107.20349750 </i>
    <i name="e_0_energy">   -107.20349750 </i>
   </energy>
  </scstep>
  <scstep>
   <time name="dav">    1.27    1.27</time>
   <time name="total">    1.49    1.49</time>
   <energy>
    <i name="e_fr_energy">   -106.96507512 </i>
    <i name="e_wo_entrp">   -106.96507512 </i>
    <i name="e_0_energy">   -106.96507512 </i>
   </energy>
  </scstep>
  <scstep>
   <time name="dav">    1.37    1.37</time>
   <time name="total">    1.59    1.59</time>
   <energy>
    <i name="e_fr_energy">   -106.92928928 </i>
    <i name="e_wo_entrp">   -106.92928928 </i>
    <i name="e_0_energy">   -106.92928928 </i>
   </energy>
  </scstep>
  <scstep>
   <time name="dav">    1.17    1.17</time>
   <time name="total">    1.38    1.38</time>
   <energy>
    <i name="e_fr_energy">   -106.92459721 </i>
    <i name="e_wo_entrp">   -106.92459721 </i>
    <i name="e_0_energy">   -106.92459721 </i>
   </energy>
  </scstep>
  <scstep>
   <time name="dav">    0.95    0.95</time>
   <time name="total">    1.17    1.17</time>
   <energy>
    <i name="e_fr_energy">   -106.92287908 </i>
    <i name="e_wo_entrp">   -106.92287908 </i>
    <i name="e_0_energy">   -106.92287908 </i>
   </energy>
  </scstep>
  <scstep>
   <time name="dav">    1.26    1.26</time>
   <time name="total">    1.47    1.48</time>
   <energy>
    <i name="e_fr_energy">   -106.92218425 </i>
    <i name="e_wo_entrp">   -106.92218425 </i>
    <i name="e_0_energy">   -106.92218425 </i>
   </energy>
  </scstep>
  <scstep>
   <time name="dav">    1.23    1.24</time>
   <time name="total">    1.41    1.41</time>
   <energy>
    <i name="alphaZ">     62.21982039 </i>
    <i name="ewald">  -3458.98092893 </i>
    <i name="hartreedc">  -1782.68882145 </i>
    <i name="XCdc">   -849.57752132 </i>
    <i name="pawpsdc">   8931.66076454 </i>
    <i name="pawaedc">  -7803.04332662 </i>
    <i name="eentropy">     -0.00000000 </i>
    <i name="bandstr">   -309.06302760 </i>
    <i name="atom">   5102.55081770 </i>
    <i name="e_fr_energy">   -106.92222328 </i>
    <i name="e_wo_entrp">   -106.92222328 </i>
    <i name="e_0_energy">   -106.92222328 </i>
   </energy>
  </scstep>
  <structure>
   <crystal>
    <varray name="basis" >
     <v>       4.07198642       0.00000000       0.00000000 </v>
     <v>       0.00000000      12.82106202      -0.03572233 </v>
     <v>       0.00000000       1.08897626      14.77081765 </v>
    </varray>
    <i name="volume">    771.30129377 </i>
    <varray name="rec_basis" >
     <v>       0.24558039       0.00000000       0.00000000 </v>
     <v>       0.00000000       0.07798064      -0.00574911 </v>
     <v>       0.00000000       0.00018859       0.06768716 </v>
    </varray>
   </crystal>
   <varray name="positions" >
    <v>       0.25000000       0.56771805       0.81306826 </v>
    <v>       0.75000000       0.43228195       0.18693174 </v>
    <v>       0.75000000       0.82921212       0.62269611 </v>
    <v>       0.25000000       0.17078788       0.37730389 </v>
    <v>       0.25000000       0.94595361       0.87869394 </v>
    <v>       0.75000000       0.05404639       0.12130606 </v>
    <v>       0.25000000       0.83114864       0.27534585 </v>
    <v>       0.75000000       0.16885136       0.72465415 </v>
    <v>       0.75000000       0.72945468       0.05037906 </v>
    <v>       0.25000000       0.27054532       0.94962094 </v>
    <v>       0.75000000       0.60674518       0.42890595 </v>
    <v>       0.25000000       0.39325482       0.57109405 </v>
    <v>       0.25000000       0.45852813       0.39430828 </v>
    <v>       0.75000000       0.54147187       0.60569172 </v>
    <v>       0.25000000       0.60023046       0.03780434 </v>
    <v>       0.75000000       0.39976954       0.96219566 </v>
    <v>       0.75000000       0.98610391       0.29415779 </v>
    <v>       0.25000000       0.01389609       0.70584221 </v>
    <v>       0.75000000       0.79895301       0.86332100 </v>
    <v>       0.25000000       0.20104699       0.13667900 </v>
    <v>       0.25000000       0.75472751       0.45112187 </v>
    <v>       0.75000000       0.24527249       0.54887813 </v>
    <v>       0.75000000       0.69275944       0.24045637 </v>
    <v>       0.25000000       0.30724056       0.75954363 </v>
    <v>       0.25000000       0.90395479       0.08344158 </v>
    <v>       0.75000000       0.09604521       0.91655842 </v>
   </varray>
  </structure>
  <varray name="forces" >
   <v>       0.00000000      -0.17484354       0.35543266 </v>
   <v>       0.00000000       0.17484354      -0.35543266 </v>
   <v>       0.00000000       0.15175210      -0.04185601 </v>
   <v>       0.00000000      -0.15175210       0.04185601 </v>
   <v>       0.00000000      -0.08342680       0.16991442 </v>
   <v>       0.00000000       0.08342680      -0.16991442 </v>
   <v>       0.00000000       0.19597883      -0.00258568 </v>
   <v>       0.00000000      -0.19597883       0.00258568 </v>
   <v>       0.00000000       0.20559381      -0.02224263 </v>
   <v>       0.00000000      -0.20559381       0.02224263 </v>
   <v>       0.00000000       0.06243227      -0.15834098 </v>
   <v>       0.00000000      -0.06243227       0.15834098 </v>
   <v>       0.00000000      -0.36258132      -0.53881761 </v>
   <v>       0.00000000       0.36258132       0.53881761 </v>
   <v>       0.00000000      -0.56450906      -0.20551963 </v>
   <v>       0.00000000       0.56450906       0.20551963 </v>
   <v>       0.00000000       0.57704652       0.60315746 </v>
   <v>       0.00000000      -0.57704652      -0.60315746 </v>
   <v>       0.00000000      -0.45523789      -0.50975334 </v>
   <v>       0.00000000       0.45523789       0.50975334 </v>
   <v>       0.00000000       0.27235829       0.79164168 </v>
   <v>       0.00000000      -0.27235829      -0.79164168 </v>
   <v>       0.00000000      -0.42456245      -0.07554041 </v>
   <v>       0.00000000       0.42456245       0.07554041 </v>
   <v>       0.00000000      -0.06237865      -0.01658839 </v>
   <v>       0.00000000       0.06237865       0.01658839 </v>
  </varray>
  <varray name="stress" >
   <v>       6.87102568       0.00000000       0.00000000 </v>
   <v>       0.00000000      -0.77561920      -8.87597018 </v>
   <v>       0.00000000      -8.87597076      -3.05473436 </v>
  </varray>
  <energy>
   <i name="e_fr_energy">   -106.92222328 </i>
   <i name="e_wo_entrp">   -106.92222328 </i>
   <i name="e_0_energy">     -0.00000000 </i>
  </energy>
  <time name="totalsc">   11.62   11.64</time>
 </calculation>
 <calculation>
  <scstep>
   <time name="dav">    1.18    1.18</time>
   <time name="total">    1.39    1.39</time>
   <energy>
    <i name="alphaZ">     61.99294144 </i>
    <i name="ewald">  -3454.88911844 </i>
    <i name="hartreedc">  -1780.31050544 </i>
    <i name="XCdc">   -849.83084264 </i>
    <i name="pawpsdc">   8927.58775681 </i>
    <i name="pawaedc">  -7798.96882710 </i>
    <i name="eentropy">     -0.00000000 </i>
    <i name="bandstr">   -315.06145680 </i>
    <i name="atom">   5102.55081770 </i>
    <i name="e_fr_energy">   -106.92923446 </i>
    <i name="e_wo_entrp">   -106.92923446 </i>
    <i name="e_0_energy">   -106.92923446 </i>
   </energy>
  </scstep>
  <scstep>
   <time name="dav">    1.32    1.32</time>
   <time name="total">    1.53    1.53</time>
   <energy>
    <i name="e_fr_energy">   -106.92469578 </i>
    <i name="e_wo_entrp">   -106.92469578 </i>
    <i name="e_0_energy">   -106.92469578 </i>
   </energy>
  </scstep>
  <scstep>
   <time name="dav">    1.06    1.06</time>
   <time name="total">    1.27    1.27</time>
   <energy>
    <i name="e_fr_energy">   -106.92399330 </i>
    <i name="e_wo_entrp">   -106.92399330 </i>
    <i name="e_0_energy">   -106.92399330 </i>
   </energy>
  </scstep>
  <scstep>
   <time name="dav">    0.91    0.91</time>
   <time name="total">    1.13    1.13</time>
   <energy>
    <i name="e_fr_energy">   -106.92386693 </i>
    <i name="e_wo_entrp">   -106.92386693 </i>
    <i name="e_0_energy">   -106.92386693 </i>
   </energy>
  </scstep>
  <scstep>
   <time name="dav">    0.75    0.75</time>
   <time name="total">    0.92    0.92</time>
   <energy>
    <i name="alphaZ">     61.99294144 </i>
    <i name="ewald">  -3454.88911844 </i>
    <i name="hartreedc">  -1783.51534825 </i>
    <i name="XCdc">   -849.74972607 </i>
    <i name="pawpsdc">   8885.72097159 </i>
    <i name="pawaedc">  -7757.05873783 </i>
    <i name="eentropy">     -0.00000000 </i>
    <i name="bandstr">   -311.97561275 </i>
    <i name="atom">   5102.55081770 </i>
    <i name="e_fr_energy">   -106.92381260 </i>
    <i name="e_wo_entrp">   -106.92381260 </i>
    <i name="e_0_energy">   -106.92381260 </i>
   </energy>
  </scstep>
  <structure>
   <crystal>
    <varray name="basis" >
     <v>       4.07653915       0.00000000       0.00000000 </v>
     <v>       0.00000000      12.83673871      -0.03369522 </v>
     <v>       0.00000000       1.09269773      14.79040406 </v>
    </varray>
    <i name="volume">    774.12406722 </i>
    <varray name="rec_basis" >
     <v>       0.24530612       0.00000000       0.00000000 </v>
     <v>       0.00000000       0.07788630      -0.00575415 </v>
     <v>       0.00000000       0.00017744       0.06759830 </v>
    </varray>
   </crystal>
   <varray name="positions" >
    <v>       0.25000000       0.56773909       0.81304153 </v>
    <v>       0.75000000       0.43226091       0.18695847 </v>
    <v>       0.75000000       0.82919960       0.62270041 </v>
    <v>       0.25000000       0.17080040       0.37729959 </v>
    <v>       0.25000000       0.94595838       0.87872354 </v>
    <v>       0.75000000       0.05404162       0.12127646 </v>
    <v>       0.25000000       0.83115972       0.27533336 </v>
    <v>       0.75000000       0.16884028       0.72466664 </v>
    <v>       0.75000000       0.72950965       0.05038422 </v>
    <v>       0.25000000       0.27049035       0.94961578 </v>
    <v>       0.75000000       0.60674341       0.42888927 </v>
    <v>       0.25000000       0.39325659       0.57111073 </v>
    <v>       0.25000000       0.45851321       0.39427805 </v>
    <v>       0.75000000       0.54148679       0.60572195 </v>
    <v>       0.25000000       0.60017331       0.03780779 </v>
    <v>       0.75000000       0.39982669       0.96219221 </v>
    <v>       0.75000000       0.98609219       0.29419180 </v>
    <v>       0.25000000       0.01390781       0.70580820 </v>
    <v>       0.75000000       0.79892296       0.86330843 </v>
    <v>       0.25000000       0.20107704       0.13669157 </v>
    <v>       0.25000000       0.75474750       0.45113417 </v>
    <v>       0.75000000       0.24525250       0.54886583 </v>
    <v>       0.75000000       0.69272798       0.24045524 </v>
    <v>       0.25000000       0.30727202       0.75954476 </v>
    <v>       0.25000000       0.90394442       0.08343049 </v>
    <v>       0.75000000       0.09605558       0.91656951 </v>
   </varray>
  </structure>
  <varray name="forces" >
   <v>       0.00000000      -0.17640772       0.35688093 </v>
   <v>       0.00000000       0.17640772      -0.35688093 </v>
   <v>       0.00000000       0.15054739      -0.04168334 </v>
   <v>       0.00000000      -0.15054739       0.04168334 </v>
   <v>       0.00000000      -0.09028277       0.15789678 </v>
   <v>       0.00000000       0.09028277      -0.15789678 </v>
   <v>       0.00000000       0.17992517      -0.01237704 </v>
   <v>       0.00000000      -0.17992517       0.01237704 </v>
   <v>       0.00000000       0.18261172      -0.02147426 </v>
   <v>       0.00000000      -0.18261172       0.02147426 </v>
   <v>       0.00000000       0.06636776      -0.13139881 </v>
   <v>       0.00000000      -0.06636776       0.13139881 </v>
   <v>       0.00000000      -0.34115052      -0.49995023 </v>
   <v>       0.00000000       0.34115052       0.49995023 </v>
   <v>       0.00000000      -0.50531451      -0.20185248 </v>
   <v>       0.00000000       0.50531451       0.20185248 </v>
   <v>       0.00000000       0.55972852       0.55453219 </v>
   <v>       0.00000000      -0.55972852      -0.55453219 </v>
   <v>       0.00000000      -0.41330415      -0.47991320 </v>
   <v>       0.00000000       0.41330415       0.47991320 </v>
   <v>       0.00000000       0.26638009       0.74542551 </v>
   <v>       0.00000000      -0.26638009      -0.74542551 </v>
   <v>       0.00000000      -0.41246785      -0.05520303 </v>
   <v>       0.00000000       0.41246785       0.05520303 </v>
   <v>       0.00000000      -0.04363910      -0.01143462 </v>
   <v>       0.00000000       0.04363910       0.01143462 </v>
  </varray>
  <varray name="stress" >
   <v>       5.11889652       0.00000000       0.00000000 </v>
   <v>       0.00000000      -2.23742993      -8.61682087 </v>
   <v>       0.00000000      -8.61682232      -4.64425591 </v>
  </varray>
  <energy>
   <i name="e_fr_energy">   -106.92381260 </i>
   <i name="e_wo_entrp">   -106.92381260 </i>
   <i name="e_0_energy">     -0.00000000 </i>
  </energy>
  <time name="totalsc">    7.61    7.61</time>
 </calculation>
 <calculation>
  <scstep>
   <time name="dav">    0.94    0.94</time>
   <time name="total">    1.15    1.15</time>
   <energy>
    <i name="alphaZ">     62.26891117 </i>
    <i name="ewald">  -3482.87166087 </i>
    <i name="hartreedc">  -1765.44361551 </i>
    <i name="XCdc">   -849.56337033 </i>
    <i name="pawpsdc">   8891.78987275 </i>
    <i name="pawaedc">  -7763.11961939 </i>
    <i name="eentropy">     -0.00000000 </i>
    <i name="bandstr">   -302.65650884 </i>
    <i name="atom">   5102.55081770 </i>
    <i name="e_fr_energy">   -107.04517332 </i>
    <i name="e_wo_entrp">   -107.04517332 </i>
    <i name="e_0_energy">   -107.04517332 </i>
   </energy>
  </scstep>
  <scstep>
   <time name="dav">    1.40    1.40</time>
   <time name="total">    1.62    1.62</time>
   <energy>
    <i name="e_fr_energy">   -107.04148187 </i>
    <i name="e_wo_entrp">   -107.04148187 </i>
    <i name="e_0_energy">   -107.04148187 </i>
   </energy>
  </scstep>
  <scstep>
   <time name="dav">    1.41    1.42</time>
   <time name="total">    1.63    1.63</time>
   <energy>
    <i name="e_fr_energy">   -107.03736808 </i>
    <i name="e_wo_entrp">   -107.03736808 </i>
    <i name="e_0_energy">   -107.03736808 </i>
   </energy>
  </scstep>
  <scstep>
   <time name="dav">    1.44    1.44</time>
   <time name="total">    1.66    1.66</time>
   <energy>
    <i name="e_fr_energy">   -107.03529420 </i>
    <i name="e_wo_entrp">   -107.03529420 </i>
    <i name="e_0_energy">   -107.03529420 </i>
   </energy>
  </scstep>
  <scstep>
   <time name="dav">    0.88    0.88</time>
   <time name="total">    1.09    1.09</time>
   <energy>
    <i name="e_fr_energy">   -107.03514736 </i>
    <i name="e_wo_entrp">   -107.03514736 </i>
    <i name="e_0_energy">   -107.03514736 </i>
   </energy>
  </scstep>
  <scstep>
   <time name="dav">    0.92    0.92</time>
   <time name="total">    1.09    1.09</time>
   <energy>
    <i name="alphaZ">     62.26891117 </i>
    <i name="ewald">  -3482.87166087 </i>
    <i name="hartreedc">  -1758.77000072 </i>
    <i name="XCdc">   -849.70014621 </i>
    <i name="pawpsdc">   8900.25960112 </i>
    <i name="pawaedc">  -7771.58790945 </i>
    <i name="eentropy">     -0.00000000 </i>
    <i name="bandstr">   -309.18470972 </i>
    <i name="atom">   5102.55081770 </i>
    <i name="e_fr_energy">   -107.03509696 </i>
    <i name="e_wo_entrp">   -107.03509696 </i>
    <i name="e_0_energy">   -107.03509696 </i>
   </energy>
  </scstep>
  <structure>
   <crystal>
    <varray name="basis" >
     <v>       4.07761082       0.00000000       0.00000000 </v>
     <v>       0.00000000      12.81174048      -0.06745208 </v>
     <v>       0.00000000       1.05156153      14.74703200 </v>
    </varray>
    <i name="volume">    770.69322497 </i>
    <varray name="rec_basis" >
     <v>       0.24524165       0.00000000       0.00000000 </v>
     <v>       0.00000000       0.07802412      -0.00556364 </v>
     <v>       0.00000000       0.00035688       0.06778481 </v>
    </varray>
   </crystal>
   <varray name="positions" >
    <v>       0.25000000       0.56747173       0.81344337 </v>
    <v>       0.75000000       0.43252827       0.18655663 </v>
    <v>       0.75000000       0.82939832       0.62265251 </v>
    <v>       0.25000000       0.17060168       0.37734749 </v>
    <v>       0.25000000       0.94583048       0.87885481 </v>
    <v>       0.75000000       0.05416952       0.12114519 </v>
    <v>       0.25000000       0.83136467       0.27533495 </v>
    <v>       0.75000000       0.16863533       0.72466505 </v>
    <v>       0.75000000       0.72966939       0.05035654 </v>
    <v>       0.25000000       0.27033061       0.94964346 </v>
    <v>       0.75000000       0.60683684       0.42877108 </v>
    <v>       0.25000000       0.39316316       0.57122892 </v>
    <v>       0.25000000       0.45816426       0.39378945 </v>
    <v>       0.75000000       0.54183574       0.60621055 </v>
    <v>       0.25000000       0.59964795       0.03759194 </v>
    <v>       0.75000000       0.40035205       0.96240806 </v>
    <v>       0.75000000       0.98672893       0.29473371 </v>
    <v>       0.25000000       0.01327107       0.70526629 </v>
    <v>       0.75000000       0.79850249       0.86282071 </v>
    <v>       0.25000000       0.20149751       0.13717929 </v>
    <v>       0.25000000       0.75497908       0.45189879 </v>
    <v>       0.75000000       0.24502092       0.54810121 </v>
    <v>       0.75000000       0.69227237       0.24039778 </v>
    <v>       0.25000000       0.30772763       0.75960222 </v>
    <v>       0.25000000       0.90390462       0.08343088 </v>
    <v>       0.75000000       0.09609538       0.91656912 </v>
   </varray>
  </structure>
  <varray name="forces" >
   <v>       0.00000000      -0.16818239       0.34955652 </v>
   <v>       0.00000000       0.16818239      -0.34955652 </v>
   <v>       0.00000000       0.14598956      -0.04107203 </v>
   <v>       0.00000000      -0.14598956       0.04107203 </v>
   <v>       0.00000000      -0.12198998       0.10581830 </v>
   <v>       0.00000000       0.12198998      -0.10581830 </v>
   <v>       0.00000000       0.15970190       0.07731962 </v>
   <v>       0.00000000      -0.15970190      -0.07731962 </v>
   <v>       0.00000000       0.10190341      -0.04703561 </v>
   <v>       0.00000000      -0.10190341       0.04703561 </v>
   <v>       0.00000000       0.03415604      -0.10879031 </v>
   <v>       0.00000000      -0.03415604       0.10879031 </v>
   <v>       0.00000000      -0.32306671      -0.47949426 </v>
   <v>       0.00000000       0.32306671       0.47949426 </v>
   <v>       0.00000000      -0.47400924      -0.20606603 </v>
   <v>       0.00000000       0.47400924       0.20606603 </v>
   <v>       0.00000000       0.52491220       0.53009095 </v>
   <v>       0.00000000      -0.52491220      -0.53009095 </v>
   <v>       0.00000000      -0.40821438      -0.46620467 </v>
   <v>       0.00000000       0.40821438       0.46620467 </v>
   <v>       0.00000000       0.30446681       0.70472121 </v>
   <v>       0.00000000      -0.30446681      -0.70472121 </v>
   <v>       0.00000000      -0.39009611      -0.05427388 </v>
   <v>       0.00000000       0.39009611       0.05427388 </v>
   <v>       0.00000000      -0.05492117      -0.01583410 </v>
   <v>       0.00000000       0.05492117       0.01583410 </v>
  </varray>
  <varray name="stress" >
   <v>       4.37037534       0.00000000       0.00000000 </v>
   <v>       0.00000000      -2.48135424      -8.19990935 </v>
   <v>       0.00000000      -8.19990978      -4.88251430 </v>
  </varray>
  <energy>
   <i name="e_fr_energy">   -107.03509696 </i>
   <i name="e_wo_entrp">   -107.03509696 </i>
   <i name="e_0_energy">     -0.00000000 </i>
  </energy>
  <time name="totalsc">    9.60    9.60</time>
 </calculation>
 <calculation>
  <scstep>
   <time name="dav">    1.07    1.07</time>
   <time name="total">    1.29    1.29</time>
   <energy>
    <i name="alphaZ">     63.11395074 </i>
    <i name="ewald">  -3565.25405280 </i>
    <i name="hartreedc">  -1705.72772458 </i>
    <i name="XCdc">   -849.13344379 </i>
    <i name="pawpsdc">   8896.49819406 </i>
    <i name="pawaedc">  -7767.82758348 </i>
    <i name="eentropy">     -0.00000000 </i>
    <i name="bandstr">   -281.63689204 </i>
    <i name="atom">   5102.55081770 </i>
    <i name="e_fr_energy">   -107.41673419 </i>
    <i name="e_wo_entrp">   -107.41673419 </i>
    <i name="e_0_energy">   -107.41673419 </i>
   </energy>
  </scstep>
  <scstep>
   <time name="dav">    1.15    1.15</time>
   <time name="total">    1.37    1.37</time>
   <energy>
    <i name="e_fr_energy">   -107.37743196 </i>
    <i name="e_wo_entrp">   -107.37743196 </i>
    <i name="e_0_energy">   -107.37743196 </i>
   </energy>
  </scstep>
  <scstep>
   <time name="dav">    1.25    1.26</time>
   <time name="total">    1.47    1.47</time>
   <energy>
    <i name="e_fr_energy">   -107.33950846 </i>
    <i name="e_wo_entrp">   -107.33950846 </i>
    <i name="e_0_energy">   -107.33950846 </i>
   </energy>
  </scstep>
  <scstep>
   <time name="dav">    1.47    1.47</time>
   <time name="total">    1.68    1.68</time>
   <energy>
    <i name="e_fr_energy">   -107.32269621 </i>
    <i name="e_wo_entrp">   -107.32269621 </i>
    <i name="e_0_energy">   -107.32269621 </i>
   </energy>
  </scstep>
  <scstep>
   <time name="dav">    1.33    1.33</time>
   <time name="total">    1.54    1.54</time>
   <energy>
    <i name="e_fr_energy">   -107.32098650 </i>
    <i name="e_wo_entrp">   -107.32098650 </i>
    <i name="e_0_energy">   -107.32098650 </i>
   </energy>
  </scstep>
  <scstep>
   <time name="dav">    1.29    1.30</time>
   <time name="total">    1.50    1.51</time>
   <energy>
    <i name="e_fr_energy">   -107.32043173 </i>
    <i name="e_wo_entrp">   -107.32043173 </i>
    <i name="e_0_energy">   -107.32043173 </i>
   </energy>
  </scstep>
  <scstep>
   <time name="dav">    0.65    0.65</time>
   <time name="total">    0.82    0.82</time>
   <energy>
    <i name="alphaZ">     63.11395074 </i>
    <i name="ewald">  -3565.25405280 </i>
    <i name="hartreedc">  -1685.46269035 </i>
    <i name="XCdc">   -849.56278778 </i>
    <i name="pawpsdc">   8900.38483598 </i>
    <i name="pawaedc">  -7771.71391217 </i>
    <i name="eentropy">     -0.00000000 </i>
    <i name="bandstr">   -301.37663633 </i>
    <i name="atom">   5102.55081770 </i>
    <i name="e_fr_energy">   -107.32047502 </i>
    <i name="e_wo_entrp">   -107.32047502 </i>
    <i name="e_0_energy">   -107.32047502 </i>
   </energy>
  </scstep>
  <structure>
   <crystal>
    <varray name="basis" >
     <v>       4.08082586       0.00000000       0.00000000 </v>
     <v>       0.00000000      12.73674579      -0.16872266 </v>
     <v>       0.00000000       0.92815294      14.61691581 </v>
    </varray>
    <i name="volume">    760.37432939 </i>
    <varray name="rec_basis" >
     <v>       0.24504844       0.00000000       0.00000000 </v>
     <v>       0.00000000       0.07844700      -0.00498127 </v>
     <v>       0.00000000       0.00090551       0.06835639 </v>
    </varray>
   </crystal>
   <varray name="positions" >
    <v>       0.25000000       0.56667179       0.81465059 </v>
    <v>       0.75000000       0.43332821       0.18534941 </v>
    <v>       0.75000000       0.82999510       0.62250974 </v>
    <v>       0.25000000       0.17000490       0.37749026 </v>
    <v>       0.25000000       0.94544728       0.87924891 </v>
    <v>       0.75000000       0.05455272       0.12075109 </v>
    <v>       0.25000000       0.83198062       0.27534117 </v>
    <v>       0.75000000       0.16801938       0.72465883 </v>
    <v>       0.75000000       0.73014918       0.05027433 </v>
    <v>       0.25000000       0.26985082       0.94972567 </v>
    <v>       0.75000000       0.60711656       0.42841613 </v>
    <v>       0.25000000       0.39288344       0.57158387 </v>
    <v>       0.25000000       0.45711121       0.39231689 </v>
    <v>       0.75000000       0.54288879       0.60768311 </v>
    <v>       0.25000000       0.59806714       0.03693887 </v>
    <v>       0.75000000       0.40193286       0.96306113 </v>
    <v>       0.75000000       0.98864736       0.29636862 </v>
    <v>       0.25000000       0.01135264       0.70363138 </v>
    <v>       0.75000000       0.79723449       0.86135034 </v>
    <v>       0.25000000       0.20276551       0.13864966 </v>
    <v>       0.25000000       0.75568184       0.45420100 </v>
    <v>       0.75000000       0.24431816       0.54579900 </v>
    <v>       0.75000000       0.69090261       0.24022175 </v>
    <v>       0.25000000       0.30909739       0.75977825 </v>
    <v>       0.25000000       0.90378501       0.08343176 </v>
    <v>       0.75000000       0.09621499       0.91656824 </v>
   </varray>
  </structure>
  <varray name="forces" >
   <v>       0.00000000      -0.14306573       0.32387162 </v>
   <v>       0.00000000       0.14306573      -0.32387162 </v>
   <v>       0.00000000       0.13042693      -0.04159446 </v>
   <v>       0.00000000      -0.13042693       0.04159446 </v>
   <v>       0.00000000      -0.24910045      -0.07601390 </v>
   <v>       0.00000000       0.24910045       0.07601390 </v>
   <v>       0.00000000       0.15495491       0.27924699 </v>
   <v>       0.00000000      -0.15495491      -0.27924699 </v>
   <v>       0.00000000      -0.10593745      -0.16690320 </v>
   <v>       0.00000000       0.10593745       0.16690320 </v>
   <v>       0.00000000      -0.03667453       0.03365101 </v>
   <v>       0.00000000       0.03667453      -0.03365101 </v>
   <v>       0.00000000      -0.27616273      -0.42690757 </v>
   <v>       0.00000000       0.27616273       0.42690757 </v>
   <v>       0.00000000      -0.35366985      -0.22913920 </v>
   <v>       0.00000000       0.35366985       0.22913920 </v>
   <v>       0.00000000       0.44839943       0.44579078 </v>
   <v>       0.00000000      -0.44839943      -0.44579078 </v>
   <v>       0.00000000      -0.35091807      -0.43129509 </v>
   <v>       0.00000000       0.35091807       0.43129509 </v>
   <v>       0.00000000       0.30632919       0.56877874 </v>
   <v>       0.00000000      -0.30632919      -0.56877874 </v>
   <v>       0.00000000      -0.30565500      -0.07053987 </v>
   <v>       0.00000000       0.30565500       0.07053987 </v>
   <v>       0.00000000      -0.04815956      -0.02857571 </v>
   <v>       0.00000000       0.04815956       0.02857571 </v>
  </varray>
  <varray name="stress" >
   <v>       3.56186876       0.00000000       0.00000000 </v>
   <v>       0.00000000      -1.38980690      -6.02511805 </v>
   <v>       0.00000000      -6.02511900      -2.37291559 </v>
  </varray>
  <energy>
   <i name="e_fr_energy">   -107.32047502 </i>
   <i name="e_wo_entrp">   -107.32047502 </i>
   <i name="e_0_energy">     -0.00000000 </i>
  </energy>
  <time name="totalsc">   11.12   11.13</time>
 </calculation>
 <calculation>
  <scstep>
   <time name="dav">    0.96    0.96</time>
   <time name="total">    1.18    1.18</time>
   <energy>
    <i name="alphaZ">     64.88518028 </i>
    <i name="ewald">  -3723.37155677 </i>
    <i name="hartreedc">  -1586.83286703 </i>
    <i name="XCdc">   -848.38009854 </i>
    <i name="pawpsdc">   8895.67938043 </i>
    <i name="pawaedc">  -7767.00690195 </i>
    <i name="eentropy">     -0.00000000 </i>
    <i name="bandstr">   -245.63908155 </i>
    <i name="atom">   5102.55081770 </i>
    <i name="e_fr_energy">   -108.11512743 </i>
    <i name="e_wo_entrp">   -108.11512743 </i>
    <i name="e_0_energy">   -108.11512743 </i>
   </energy>
  </scstep>
  <scstep>
   <time name="dav">    1.39    1.39</time>
   <time name="total">    1.61    1.61</time>
   <energy>
    <i name="e_fr_energy">   -107.92467005 </i>
    <i name="e_wo_entrp">   -107.92467005 </i>
    <i name="e_0_energy">   -107.92467005 </i>
   </energy>
  </scstep>
  <scstep>
   <time name="dav">    1.40    1.40</time>
   <time name="total">    1.62    1.62</time>
   <energy>
    <i name="e_fr_energy">   -107.77159789 </i>
    <i name="e_wo_entrp">   -107.77159789 </i>
    <i name="e_0_energy">   -107.77159789 </i>
   </energy>
  </scstep>
  <scstep>
   <time name="dav">    1.26    1.26</time>
   <time name="total">    1.48    1.49</time>
   <energy>
    <i name="e_fr_energy">   -107.71291095 </i>
    <i name="e_wo_entrp">   -107.71291095 </i>
    <i name="e_0_energy">   -107.71291095 </i>
   </energy>
  </scstep>
  <scstep>
   <time name="dav">    1.21    1.22</time>
   <time name="total">    1.43    1.44</time>
   <energy>
    <i name="e_fr_energy">   -107.70533190 </i>
    <i name="e_wo_entrp">   -107.70533190 </i>
    <i name="e_0_energy">   -107.70533190 </i>
   </energy>
  </scstep>
  <scstep>
   <time name="dav">    1.17    1.17</time>
   <time name="total">    1.38    1.38</time>
   <energy>
    <i name="e_fr_energy">   -107.70211638 </i>
    <i name="e_wo_entrp">   -107.70211638 </i>
    <i name="e_0_energy">   -107.70211638 </i>
   </energy>
  </scstep>
  <scstep>
   <time name="dav">    1.48    1.48</time>
   <time name="total">    1.69    1.69</time>
   <energy>
    <i name="e_fr_energy">   -107.70237874 </i>
    <i name="e_wo_entrp">   -107.70237874 </i>
    <i name="e_0_energy">   -107.70237874 </i>
   </energy>
  </scstep>
  <scstep>
   <time name="dav">    0.88    0.88</time>
   <time name="total">    1.06    1.06</time>
   <energy>
    <i name="alphaZ">     64.88518028 </i>
    <i name="ewald">  -3723.37155677 </i>
    <i name="hartreedc">  -1547.07432717 </i>
    <i name="XCdc">   -849.25050364 </i>
    <i name="pawpsdc">   8920.43153534 </i>
    <i name="pawaedc">  -7791.77474063 </i>
    <i name="eentropy">     -0.00000000 </i>
    <i name="bandstr">   -284.09887559 </i>
    <i name="atom">   5102.55081770 </i>
    <i name="e_fr_energy">   -107.70247046 </i>
    <i name="e_wo_entrp">   -107.70247046 </i>
    <i name="e_0_energy">   -107.70247046 </i>
   </energy>
  </scstep>
  <structure>
   <crystal>
    <varray name="basis" >
     <v>       4.08725592       0.00000000       0.00000000 </v>
     <v>       0.00000000      12.58675641      -0.37126382 </v>
     <v>       0.00000000       0.68133576      14.35668343 </v>
    </varray>
    <i name="volume">    739.61770252 </i>
    <varray name="rec_basis" >
     <v>       0.24466293       0.00000000       0.00000000 </v>
     <v>       0.00000000       0.07933753      -0.00376518 </v>
     <v>       0.00000000       0.00205167       0.06955660 </v>
    </varray>
   </crystal>
   <varray name="positions" >
    <v>       0.25000000       0.56508513       0.81707561 </v>
    <v>       0.75000000       0.43491487       0.18292439 </v>
    <v>       0.75000000       0.83119251       0.62222997 </v>
    <v>       0.25000000       0.16880749       0.37777003 </v>
    <v>       0.25000000       0.94468386       0.88003886 </v>
    <v>       0.75000000       0.05531614       0.11996114 </v>
    <v>       0.25000000       0.83321927       0.27536233 </v>
    <v>       0.75000000       0.16678073       0.72463767 </v>
    <v>       0.75000000       0.73111244       0.05011516 </v>
    <v>       0.25000000       0.26888756       0.94988484 </v>
    <v>       0.75000000       0.60767259       0.42770375 </v>
    <v>       0.25000000       0.39232741       0.57229625 </v>
    <v>       0.25000000       0.45496718       0.38933052 </v>
    <v>       0.75000000       0.54503282       0.61066948 </v>
    <v>       0.25000000       0.59487673       0.03559886 </v>
    <v>       0.75000000       0.40512327       0.96440114 </v>
    <v>       0.75000000       0.99253440       0.29969470 </v>
    <v>       0.25000000       0.00746560       0.70030530 </v>
    <v>       0.75000000       0.79465828       0.85836537 </v>
[...]
        <r>  0.0026  0.0013  0.0000 </r>
        <r>  0.0005  0.0329  0.0015 </r>
        <r>  0.0005  0.0329  0.0015 </r>
        <r>  0.0004  0.0505  0.0003 </r>
        <r>  0.0004  0.0505  0.0003 </r>
        <r>  0.0004  0.0603  0.0025 </r>
        <r>  0.0004  0.0603  0.0025 </r>
        <r>  0.0002  0.0385  0.0014 </r>
        <r>  0.0002  0.0385  0.0014 </r>
        <r>  0.0006  0.0094  0.0000 </r>
        <r>  0.0006  0.0094  0.0000 </r>
        <r>  0.0013  0.0084  0.0000 </r>
        <r>  0.0013  0.0084  0.0000 </r>
        <r>  0.0018  0.0101  0.0000 </r>
        <r>  0.0018  0.0101  0.0000 </r>
        <r>  0.0035  0.0192  0.0000 </r>
        <r>  0.0035  0.0192  0.0000 </r>
        <r>  0.0073  0.0179  0.0000 </r>
        <r>  0.0073  0.0179  0.0000 </r>
        <r>  0.0054  0.0052  0.0000 </r>
        <r>  0.0054  0.0052  0.0000 </r>
        <r>  0.0044  0.0046  0.0000 </r>
        <r>  0.0044  0.0046  0.0000 </r>
       </set>
       <set comment="band 70">
        <r>  0.0007  0.0012  0.0000 </r>
        <r>  0.0007  0.0012  0.0000 </r>
        <r>  0.0012  0.0007  0.0000 </r>
        <r>  0.0012  0.0007  0.0000 </r>
        <r>  0.0006  0.0819  0.0010 </r>
        <r>  0.0006  0.0819  0.0010 </r>
        <r>  0.0004  0.0350  0.0006 </r>
        <r>  0.0004  0.0350  0.0006 </r>
        <r>  0.0006  0.0224  0.0037 </r>
        <r>  0.0006  0.0224  0.0037 </r>
        <r>  0.0002  0.0384  0.0004 </r>
        <r>  0.0002  0.0384  0.0004 </r>
        <r>  0.0025  0.0084  0.0000 </r>
        <r>  0.0025  0.0084  0.0000 </r>
        <r>  0.0002  0.0141  0.0000 </r>
        <r>  0.0002  0.0141  0.0000 </r>
        <r>  0.0050  0.0102  0.0000 </r>
        <r>  0.0050  0.0102  0.0000 </r>
        <r>  0.0049  0.0214  0.0000 </r>
        <r>  0.0049  0.0214  0.0000 </r>
        <r>  0.0015  0.0105  0.0000 </r>
        <r>  0.0015  0.0105  0.0000 </r>
        <r>  0.0008  0.0092  0.0000 </r>
        <r>  0.0008  0.0092  0.0000 </r>
        <r>  0.0023  0.0060  0.0000 </r>
        <r>  0.0023  0.0060  0.0000 </r>
       </set>
       <set comment="band 71">
        <r>  0.0002  0.0004  0.0000 </r>
        <r>  0.0002  0.0004  0.0000 </r>
        <r>  0.0010  0.0010  0.0000 </r>
        <r>  0.0010  0.0010  0.0000 </r>
        <r>  0.0001  0.0511  0.0010 </r>
        <r>  0.0001  0.0511  0.0010 </r>
        <r>  0.0006  0.0312  0.0008 </r>
        <r>  0.0006  0.0312  0.0008 </r>
        <r>  0.0005  0.0184  0.0020 </r>
        <r>  0.0005  0.0184  0.0020 </r>
        <r>  0.0002  0.0748  0.0008 </r>
        <r>  0.0002  0.0748  0.0008 </r>
        <r>  0.0044  0.0197  0.0000 </r>
        <r>  0.0044  0.0197  0.0000 </r>
        <r>  0.0006  0.0070  0.0000 </r>
        <r>  0.0006  0.0070  0.0000 </r>
        <r>  0.0045  0.0147  0.0000 </r>
        <r>  0.0045  0.0147  0.0000 </r>
        <r>  0.0017  0.0147  0.0000 </r>
        <r>  0.0017  0.0147  0.0000 </r>
        <r>  0.0056  0.0231  0.0000 </r>
        <r>  0.0056  0.0231  0.0000 </r>
        <r>  0.0006  0.0086  0.0000 </r>
        <r>  0.0006  0.0086  0.0000 </r>
        <r>  0.0009  0.0078  0.0000 </r>
        <r>  0.0009  0.0078  0.0000 </r>
       </set>
       <set comment="band 72">
        <r>  0.0016  0.0008  0.0000 </r>
        <r>  0.0016  0.0008  0.0000 </r>
        <r>  0.0026  0.0006  0.0000 </r>
        <r>  0.0026  0.0006  0.0000 </r>
        <r>  0.0003  0.0610  0.0019 </r>
        <r>  0.0003  0.0610  0.0019 </r>
        <r>  0.0001  0.0562  0.0012 </r>
        <r>  0.0001  0.0562  0.0012 </r>
        <r>  0.0009  0.0474  0.0031 </r>
        <r>  0.0009  0.0474  0.0031 </r>
        <r>  0.0002  0.0392  0.0001 </r>
        <r>  0.0002  0.0392  0.0001 </r>
        <r>  0.0002  0.0111  0.0000 </r>
        <r>  0.0002  0.0111  0.0000 </r>
        <r>  0.0031  0.0148  0.0000 </r>
        <r>  0.0031  0.0148  0.0000 </r>
        <r>  0.0006  0.0063  0.0000 </r>
        <r>  0.0006  0.0063  0.0000 </r>
        <r>  0.0010  0.0159  0.0000 </r>
        <r>  0.0010  0.0159  0.0000 </r>
        <r>  0.0013  0.0157  0.0000 </r>
        <r>  0.0013  0.0157  0.0000 </r>
        <r>  0.0004  0.0134  0.0000 </r>
        <r>  0.0004  0.0134  0.0000 </r>
        <r>  0.0004  0.0025  0.0000 </r>
        <r>  0.0004  0.0025  0.0000 </r>
       </set>
       <set comment="band 73">
        <r>  0.0005  0.0005  0.0000 </r>
        <r>  0.0005  0.0005  0.0000 </r>
        <r>  0.0018  0.0019  0.0000 </r>
        <r>  0.0018  0.0019  0.0000 </r>
        <r>  0.0017  0.0396  0.0009 </r>
        <r>  0.0017  0.0396  0.0009 </r>
        <r>  0.0007  0.0794  0.0005 </r>
        <r>  0.0007  0.0794  0.0005 </r>
        <r>  0.0014  0.0359  0.0026 </r>
        <r>  0.0014  0.0359  0.0026 </r>
        <r>  0.0000  0.0268  0.0001 </r>
        <r>  0.0000  0.0268  0.0001 </r>
        <r>  0.0011  0.0121  0.0000 </r>
        <r>  0.0011  0.0121  0.0000 </r>
        <r>  0.0022  0.0180  0.0000 </r>
        <r>  0.0022  0.0180  0.0000 </r>
        <r>  0.0034  0.0234  0.0000 </r>
        <r>  0.0034  0.0234  0.0000 </r>
        <r>  0.0001  0.0105  0.0000 </r>
        <r>  0.0001  0.0105  0.0000 </r>
        <r>  0.0020  0.0079  0.0000 </r>
        <r>  0.0020  0.0079  0.0000 </r>
        <r>  0.0027  0.0198  0.0000 </r>
        <r>  0.0027  0.0198  0.0000 </r>
        <r>  0.0000  0.0029  0.0000 </r>
        <r>  0.0000  0.0029  0.0000 </r>
       </set>
       <set comment="band 74">
        <r>  0.0011  0.0007  0.0000 </r>
        <r>  0.0011  0.0007  0.0000 </r>
        <r>  0.0000  0.0005  0.0000 </r>
        <r>  0.0000  0.0005  0.0000 </r>
        <r>  0.0009  0.0731  0.0017 </r>
        <r>  0.0009  0.0731  0.0017 </r>
        <r>  0.0002  0.0184  0.0004 </r>
        <r>  0.0002  0.0184  0.0004 </r>
        <r>  0.0040  0.0565  0.0032 </r>
        <r>  0.0040  0.0565  0.0032 </r>
        <r>  0.0003  0.0442  0.0005 </r>
        <r>  0.0003  0.0442  0.0005 </r>
        <r>  0.0025  0.0142  0.0000 </r>
        <r>  0.0025  0.0142  0.0000 </r>
        <r>  0.0004  0.0244  0.0000 </r>
        <r>  0.0004  0.0244  0.0000 </r>
        <r>  0.0000  0.0067  0.0000 </r>
        <r>  0.0000  0.0067  0.0000 </r>
        <r>  0.0009  0.0338  0.0000 </r>
        <r>  0.0009  0.0338  0.0000 </r>
        <r>  0.0006  0.0142  0.0000 </r>
        <r>  0.0006  0.0142  0.0000 </r>
        <r>  0.0008  0.0032  0.0000 </r>
        <r>  0.0008  0.0032  0.0000 </r>
        <r>  0.0007  0.0030  0.0000 </r>
        <r>  0.0007  0.0030  0.0000 </r>
       </set>
       <set comment="band 75">
        <r>  0.0006  0.0014  0.0000 </r>
        <r>  0.0006  0.0014  0.0000 </r>
        <r>  0.0022  0.0003  0.0000 </r>
        <r>  0.0022  0.0003  0.0000 </r>
        <r>  0.0000  0.0447  0.0014 </r>
        <r>  0.0000  0.0447  0.0014 </r>
        <r>  0.0005  0.0587  0.0005 </r>
        <r>  0.0005  0.0587  0.0005 </r>
        <r>  0.0011  0.0110  0.0020 </r>
        <r>  0.0011  0.0110  0.0020 </r>
        <r>  0.0001  0.0804  0.0003 </r>
        <r>  0.0001  0.0804  0.0003 </r>
        <r>  0.0022  0.0234  0.0000 </r>
        <r>  0.0022  0.0234  0.0000 </r>
        <r>  0.0001  0.0103  0.0000 </r>
        <r>  0.0001  0.0103  0.0000 </r>
        <r>  0.0007  0.0157  0.0000 </r>
        <r>  0.0007  0.0157  0.0000 </r>
        <r>  0.0005  0.0130  0.0000 </r>
        <r>  0.0005  0.0130  0.0000 </r>
        <r>  0.0014  0.0171  0.0000 </r>
        <r>  0.0014  0.0171  0.0000 </r>
        <r>  0.0019  0.0166  0.0000 </r>
        <r>  0.0019  0.0166  0.0000 </r>
        <r>  0.0006  0.0041  0.0000 </r>
        <r>  0.0006  0.0041  0.0000 </r>
       </set>
       <set comment="band 76">
        <r>  0.0018  0.0004  0.0000 </r>
        <r>  0.0018  0.0004  0.0000 </r>
        <r>  0.0014  0.0005  0.0000 </r>
        <r>  0.0014  0.0005  0.0000 </r>
        <r>  0.0013  0.0930  0.0008 </r>
        <r>  0.0013  0.0930  0.0008 </r>
        <r>  0.0001  0.0282  0.0002 </r>
        <r>  0.0001  0.0282  0.0002 </r>
        <r>  0.0065  0.0419  0.0030 </r>
        <r>  0.0065  0.0419  0.0030 </r>
        <r>  0.0002  0.0253  0.0004 </r>
        <r>  0.0002  0.0253  0.0004 </r>
        <r>  0.0000  0.0049  0.0000 </r>
        <r>  0.0000  0.0049  0.0000 </r>
        <r>  0.0006  0.0372  0.0000 </r>
        <r>  0.0006  0.0372  0.0000 </r>
        <r>  0.0011  0.0102  0.0000 </r>
        <r>  0.0011  0.0102  0.0000 </r>
        <r>  0.0007  0.0276  0.0000 </r>
        <r>  0.0007  0.0276  0.0000 </r>
        <r>  0.0001  0.0056  0.0000 </r>
        <r>  0.0001  0.0056  0.0000 </r>
        <r>  0.0002  0.0089  0.0000 </r>
        <r>  0.0002  0.0089  0.0000 </r>
        <r>  0.0004  0.0066  0.0000 </r>
        <r>  0.0004  0.0066  0.0000 </r>
       </set>
       <set comment="band 77">
        <r>  0.0071  0.0006  0.0000 </r>
        <r>  0.0071  0.0006  0.0000 </r>
        <r>  0.0036  0.0014  0.0000 </r>
        <r>  0.0036  0.0014  0.0000 </r>
        <r>  0.0006  0.0147  0.0005 </r>
        <r>  0.0006  0.0147  0.0005 </r>
        <r>  0.0000  0.0563  0.0004 </r>
        <r>  0.0000  0.0563  0.0004 </r>
        <r>  0.0005  0.0201  0.0022 </r>
        <r>  0.0005  0.0201  0.0022 </r>
        <r>  0.0003  0.0825  0.0010 </r>
        <r>  0.0003  0.0825  0.0010 </r>
        <r>  0.0010  0.0129  0.0000 </r>
        <r>  0.0010  0.0129  0.0000 </r>
        <r>  0.0017  0.0112  0.0000 </r>
        <r>  0.0017  0.0112  0.0000 </r>
        <r>  0.0027  0.0162  0.0000 </r>
        <r>  0.0027  0.0162  0.0000 </r>
        <r>  0.0011  0.0058  0.0000 </r>
        <r>  0.0011  0.0058  0.0000 </r>
        <r>  0.0002  0.0250  0.0000 </r>
        <r>  0.0002  0.0250  0.0000 </r>
        <r>  0.0017  0.0242  0.0000 </r>
        <r>  0.0017  0.0242  0.0000 </r>
        <r>  0.0000  0.0027  0.0000 </r>
        <r>  0.0000  0.0027  0.0000 </r>
       </set>
       <set comment="band 78">
        <r>  0.0034  0.0020  0.0000 </r>
        <r>  0.0034  0.0020  0.0000 </r>
        <r>  0.0055  0.0009  0.0000 </r>
        <r>  0.0055  0.0009  0.0000 </r>
        <r>  0.0000  0.0124  0.0006 </r>
        <r>  0.0000  0.0124  0.0006 </r>
        <r>  0.0002  0.0514  0.0005 </r>
        <r>  0.0002  0.0514  0.0005 </r>
        <r>  0.0001  0.0102  0.0006 </r>
        <r>  0.0001  0.0102  0.0006 </r>
        <r>  0.0000  0.0984  0.0006 </r>
        <r>  0.0000  0.0984  0.0006 </r>
        <r>  0.0028  0.0316  0.0000 </r>
        <r>  0.0028  0.0316  0.0000 </r>
        <r>  0.0013  0.0042  0.0000 </r>
        <r>  0.0013  0.0042  0.0000 </r>
        <r>  0.0007  0.0094  0.0000 </r>
        <r>  0.0007  0.0094  0.0000 </r>
        <r>  0.0010  0.0041  0.0000 </r>
        <r>  0.0010  0.0041  0.0000 </r>
        <r>  0.0023  0.0263  0.0000 </r>
        <r>  0.0023  0.0263  0.0000 </r>
        <r>  0.0004  0.0200  0.0000 </r>
        <r>  0.0004  0.0200  0.0000 </r>
        <r>  0.0000  0.0066  0.0000 </r>
        <r>  0.0000  0.0066  0.0000 </r>
       </set>
       <set comment="band 79">
        <r>  0.0008  0.0007  0.0000 </r>
        <r>  0.0008  0.0007  0.0000 </r>
        <r>  0.0012  0.0027  0.0000 </r>
        <r>  0.0012  0.0027  0.0000 </r>
        <r>  0.0001  0.0065  0.0005 </r>
        <r>  0.0001  0.0065  0.0005 </r>
        <r>  0.0005  0.1517  0.0009 </r>
        <r>  0.0005  0.1517  0.0009 </r>
        <r>  0.0005  0.0129  0.0015 </r>
        <r>  0.0005  0.0129  0.0015 </r>
        <r>  0.0000  0.0210  0.0003 </r>
        <r>  0.0000  0.0210  0.0003 </r>
        <r>  0.0017  0.0056  0.0000 </r>
        <r>  0.0017  0.0056  0.0000 </r>
        <r>  0.0013  0.0090  0.0000 </r>
        <r>  0.0013  0.0090  0.0000 </r>
        <r>  0.0013  0.0232  0.0000 </r>
        <r>  0.0013  0.0232  0.0000 </r>
        <r>  0.0004  0.0038  0.0000 </r>
        <r>  0.0004  0.0038  0.0000 </r>
        <r>  0.0006  0.0111  0.0000 </r>
        <r>  0.0006  0.0111  0.0000 </r>
        <r>  0.0003  0.0459  0.0000 </r>
        <r>  0.0003  0.0459  0.0000 </r>
        <r>  0.0000  0.0048  0.0000 </r>
        <r>  0.0000  0.0048  0.0000 </r>
       </set>
       <set comment="band 80">
        <r>  0.0032  0.0012  0.0000 </r>
        <r>  0.0032  0.0012  0.0000 </r>
        <r>  0.0009  0.0019  0.0000 </r>
        <r>  0.0009  0.0019  0.0000 </r>
        <r>  0.0003  0.0127  0.0004 </r>
        <r>  0.0003  0.0127  0.0004 </r>
        <r>  0.0002  0.0732  0.0007 </r>
        <r>  0.0002  0.0732  0.0007 </r>
        <r>  0.0001  0.0108  0.0008 </r>
        <r>  0.0001  0.0108  0.0008 </r>
        <r>  0.0001  0.0981  0.0012 </r>
        <r>  0.0001  0.0981  0.0012 </r>
        <r>  0.0002  0.0280  0.0000 </r>
        <r>  0.0002  0.0280  0.0000 </r>
        <r>  0.0006  0.0054  0.0000 </r>
        <r>  0.0006  0.0054  0.0000 </r>
        <r>  0.0002  0.0116  0.0000 </r>
        <r>  0.0002  0.0116  0.0000 </r>
        <r>  0.0005  0.0087  0.0000 </r>
        <r>  0.0005  0.0087  0.0000 </r>
        <r>  0.0003  0.0246  0.0000 </r>
        <r>  0.0003  0.0246  0.0000 </r>
        <r>  0.0005  0.0271  0.0000 </r>
        <r>  0.0005  0.0271  0.0000 </r>
        <r>  0.0001  0.0057  0.0000 </r>
        <r>  0.0001  0.0057  0.0000 </r>
       </set>
       <set comment="band 81">
        <r>  0.0001  0.0004  0.0000 </r>
        <r>  0.0001  0.0004  0.0000 </r>
        <r>  0.0002  0.0007  0.0000 </r>
        <r>  0.0002  0.0007  0.0000 </r>
        <r>  0.0000  0.0469  0.0005 </r>
        <r>  0.0000  0.0469  0.0005 </r>
        <r>  0.0003  0.0471  0.0006 </r>
        <r>  0.0003  0.0471  0.0006 </r>
        <r>  0.0003  0.0341  0.0027 </r>
        <r>  0.0003  0.0341  0.0027 </r>
        <r>  0.0002  0.0691  0.0003 </r>
        <r>  0.0002  0.0691  0.0003 </r>
        <r>  0.0015  0.0133  0.0000 </r>
        <r>  0.0015  0.0133  0.0000 </r>
        <r>  0.0000  0.0014  0.0000 </r>
        <r>  0.0000  0.0014  0.0000 </r>
        <r>  0.0009  0.0161  0.0000 </r>
        <r>  0.0009  0.0161  0.0000 </r>
        <r>  0.0011  0.0057  0.0000 </r>
        <r>  0.0011  0.0057  0.0000 </r>
        <r>  0.0015  0.0127  0.0000 </r>
        <r>  0.0015  0.0127  0.0000 </r>
        <r>  0.0001  0.0277  0.0000 </r>
        <r>  0.0001  0.0277  0.0000 </r>
        <r>  0.0001  0.0325  0.0000 </r>
        <r>  0.0001  0.0325  0.0000 </r>
       </set>
       <set comment="band 82">
        <r>  0.0001  0.0003  0.0000 </r>
        <r>  0.0001  0.0003  0.0000 </r>
        <r>  0.0002  0.0003  0.0000 </r>
        <r>  0.0002  0.0003  0.0000 </r>
        <r>  0.0000  0.0566  0.0012 </r>
        <r>  0.0000  0.0566  0.0012 </r>
        <r>  0.0003  0.0721  0.0008 </r>
        <r>  0.0003  0.0721  0.0008 </r>
        <r>  0.0000  0.0163  0.0025 </r>
        <r>  0.0000  0.0163  0.0025 </r>
        <r>  0.0001  0.0544  0.0002 </r>
        <r>  0.0001  0.0544  0.0002 </r>
        <r>  0.0008  0.0132  0.0000 </r>
        <r>  0.0008  0.0132  0.0000 </r>
        <r>  0.0001  0.0020  0.0000 </r>
        <r>  0.0001  0.0020  0.0000 </r>
        <r>  0.0005  0.0180  0.0000 </r>
        <r>  0.0005  0.0180  0.0000 </r>
        <r>  0.0004  0.0052  0.0000 </r>
        <r>  0.0004  0.0052  0.0000 </r>
        <r>  0.0004  0.0201  0.0000 </r>
        <r>  0.0004  0.0201  0.0000 </r>
        <r>  0.0010  0.0161  0.0000 </r>
        <r>  0.0010  0.0161  0.0000 </r>
        <r>  0.0005  0.0394  0.0000 </r>
        <r>  0.0005  0.0394  0.0000 </r>
       </set>
       <set comment="band 83">
        <r>  0.0002  0.0010  0.0000 </r>
        <r>  0.0002  0.0010  0.0000 </r>
        <r>  0.0003  0.0017  0.0000 </r>
        <r>  0.0003  0.0017  0.0000 </r>
        <r>  0.0001  0.0036  0.0014 </r>
        <r>  0.0001  0.0036  0.0014 </r>
        <r>  0.0000  0.0281  0.0009 </r>
        <r>  0.0000  0.0281  0.0009 </r>
        <r>  0.0007  0.0663  0.0035 </r>
        <r>  0.0007  0.0663  0.0035 </r>
        <r>  0.0006  0.0730  0.0006 </r>
        <r>  0.0006  0.0730  0.0006 </r>
        <r>  0.0009  0.0175  0.0000 </r>
        <r>  0.0009  0.0175  0.0000 </r>
        <r>  0.0003  0.0079  0.0000 </r>
        <r>  0.0003  0.0079  0.0000 </r>
        <r>  0.0003  0.0061  0.0000 </r>
        <r>  0.0003  0.0061  0.0000 </r>
        <r>  0.0030  0.0096  0.0000 </r>
        <r>  0.0030  0.0096  0.0000 </r>
        <r>  0.0024  0.0065  0.0000 </r>
        <r>  0.0024  0.0065  0.0000 </r>
        <r>  0.0005  0.0516  0.0000 </r>
        <r>  0.0005  0.0516  0.0000 </r>
        <r>  0.0001  0.0117  0.0000 </r>
        <r>  0.0001  0.0117  0.0000 </r>
       </set>
       <set comment="band 84">
        <r>  0.0025  0.0006  0.0000 </r>
        <r>  0.0025  0.0006  0.0000 </r>
        <r>  0.0024  0.0004  0.0000 </r>
        <r>  0.0024  0.0004  0.0000 </r>
        <r>  0.0004  0.0488  0.0007 </r>
        <r>  0.0004  0.0488  0.0007 </r>
        <r>  0.0002  0.0401  0.0009 </r>
        <r>  0.0002  0.0401  0.0009 </r>
        <r>  0.0005  0.0549  0.0010 </r>
        <r>  0.0005  0.0549  0.0010 </r>
        <r>  0.0001  0.0231  0.0017 </r>
        <r>  0.0001  0.0231  0.0017 </r>
        <r>  0.0007  0.0065  0.0000 </r>
        <r>  0.0007  0.0065  0.0000 </r>
        <r>  0.0045  0.0096  0.0000 </r>
        <r>  0.0045  0.0096  0.0000 </r>
        <r>  0.0019  0.0110  0.0000 </r>
        <r>  0.0019  0.0110  0.0000 </r>
        <r>  0.0009  0.0064  0.0000 </r>
        <r>  0.0009  0.0064  0.0000 </r>
        <r>  0.0011  0.0084  0.0000 </r>
        <r>  0.0011  0.0084  0.0000 </r>
        <r>  0.0002  0.0266  0.0000 </r>
        <r>  0.0002  0.0266  0.0000 </r>
        <r>  0.0001  0.0486  0.0000 </r>
        <r>  0.0001  0.0486  0.0000 </r>
       </set>
      </set>
     </set>
    </set>
   </array>
  </projected>
 </calculation>
 <structure name="finalpos" >
  <crystal>
   <varray name="basis" >
    <v>       4.05309034       0.00000000       0.00000000 </v>
    <v>       0.00000000      13.38438346      -0.65878168 </v>
    <v>       0.00000000       0.30580781      12.97626663 </v>
   </varray>
   <i name="volume">    704.75454630 </i>
   <varray name="rec_basis" >
    <v>       0.24672532       0.00000000       0.00000000 </v>
    <v>       0.00000000       0.07462737      -0.00175872 </v>
    <v>       0.00000000       0.00378870       0.07697448 </v>
   </varray>
  </crystal>
  <varray name="positions" >
   <v>       0.25000000       0.56409754       0.77996010 </v>
   <v>       0.75000000       0.43590246       0.22003990 </v>
   <v>       0.75000000       0.87007057       0.60478056 </v>
   <v>       0.25000000       0.12992943       0.39521944 </v>
   <v>       0.25000000       0.95016173       0.85876647 </v>
   <v>       0.75000000       0.04983827       0.14123353 </v>
   <v>       0.25000000       0.83394085       0.29717646 </v>
   <v>       0.75000000       0.16605915       0.70282354 </v>
   <v>       0.75000000       0.73289592       0.01962132 </v>
   <v>       0.25000000       0.26710408       0.98037868 </v>
   <v>       0.75000000       0.61619907       0.44222180 </v>
   <v>       0.25000000       0.38380093       0.55777820 </v>
   <v>       0.25000000       0.48016800       0.37002316 </v>
   <v>       0.75000000       0.51983200       0.62997684 </v>
   <v>       0.25000000       0.60808800      -0.01456390 </v>
   <v>       0.75000000       0.39191200       0.01456390 </v>
   <v>       0.75000000      -0.01348234       0.33839896 </v>
   <v>       0.25000000       0.01348234       0.66160104 </v>
   <v>       0.75000000       0.81002636       0.81900306 </v>
   <v>       0.25000000       0.18997364       0.18099694 </v>
   <v>       0.25000000       0.75784788       0.49512131 </v>
   <v>       0.75000000       0.24215212       0.50487869 </v>
   <v>       0.75000000       0.69929255       0.24125043 </v>
   <v>       0.25000000       0.30070745       0.75874957 </v>
   <v>       0.25000000       0.90070852       0.08465023 </v>
   <v>       0.75000000       0.09929148       0.91534977 </v>
  </varray>
 </structure>
</modeling>
