/etc/profile: 第 79 行:ulimit: stack size: 无法修改 limit 值: 不允许的操作
/home/customer/.bashrc: 第 12 行:ulimit: stack size: 无法修改 limit 值: 不允许的操作
Intel(R) Parallel Studio XE 2018 Update 3 for Linux*
Copyright (C) 2009-2018 Intel Corporation. All rights reserved.
 running on   14 total cores
 distrk:  each k-point on   14 cores,    1 groups
 distr:  one band on    1 cores,   14 groups
 using from now: INCAR     
 vasp.5.4.4.18Apr17-6-g9f103f2a35 (build Oct 27 2022 13:04:57) complex          
  
 POSCAR found type information on POSCAR  Na Bi S 
 POSCAR found :  3 types and      26 ions
 scaLAPACK will be used

 ----------------------------------------------------------------------------- 
|                                                                             |
|           W    W    AA    RRRRR   N    N  II  N    N   GGGG   !!!           |
|           W    W   A  A   R    R  NN   N  II  NN   N  G    G  !!!           |
|           W    W  A    A  R    R  N N  N  II  N N  N  G       !!!           |
|           W WW W  AAAAAA  RRRRR   N  N N  II  N  N N  G  GGG   !            |
|           WW  WW  A    A  R   R   N   NN  II  N   NN  G    G                |
|           W    W  A    A  R    R  N    N  II  N    N   GGGG   !!!           |
|                                                                             |
|      For optimal performance we recommend to set                            |
|        NCORE= 4 - approx SQRT( number of cores)                             |
|      NCORE specifies how many cores store one orbital (NPAR=cpu/NCORE).     |
|      This setting can  greatly improve the performance of VASP for DFT.     |
|      The default,   NCORE=1            might be grossly inefficient         |
|      on modern multi-core architectures or massively parallel machines.     |
|      Do your own testing !!!!                                               |
|      Unfortunately you need to use the default for GW and RPA calculations. |
|      (for HF NCORE is supported but not extensively tested yet)             |
|                                                                             |
 ----------------------------------------------------------------------------- 

 LDA part: xc-table for Pade appr. of Perdew
 POSCAR, INCAR and KPOINTS ok, starting setup
 FFT: planning ...
 WAVECAR not read
 entering main loop
       N       E                     dE             d eps       ncg     rms          rms(c)
DAV:   1     0.572302808060E+03    0.57230E+03   -0.34059E+04  1008   0.778E+02
DAV:   2    -0.334778099245E+02   -0.60578E+03   -0.58508E+03  1344   0.168E+02
DAV:   3    -0.110682774200E+03   -0.77205E+02   -0.76239E+02  1246   0.658E+01
DAV:   4    -0.114341318892E+03   -0.36585E+01   -0.36469E+01  1624   0.157E+01
DAV:   5    -0.114391145563E+03   -0.49827E-01   -0.49779E-01  1372   0.200E+00    0.166E+01
DAV:   6    -0.104897905367E+03    0.94932E+01   -0.25421E+01  1176   0.112E+01    0.114E+01
DAV:   7    -0.104917131885E+03   -0.19227E-01   -0.43298E+00  1246   0.468E+00    0.774E+00
DAV:   8    -0.104814058174E+03    0.10307E+00   -0.55900E-01  1568   0.212E+00    0.220E+00
DAV:   9    -0.104790534099E+03    0.23524E-01   -0.13543E-01  1400   0.124E+00    0.883E-01
DAV:  10    -0.104791101843E+03   -0.56774E-03   -0.22123E-02  1316   0.374E-01    0.578E-01
DAV:  11    -0.104792897410E+03   -0.17956E-02   -0.94102E-03  1274   0.267E-01    0.222E-01
DAV:  12    -0.104794813643E+03   -0.19162E-02   -0.77379E-03  1204   0.211E-01    0.117E-01
DAV:  13    -0.104795403854E+03   -0.59021E-03   -0.11747E-03  1358   0.735E-02    0.822E-02
DAV:  14    -0.104795701465E+03   -0.29761E-03   -0.22720E-04  1008   0.377E-02    0.264E-02
DAV:  15    -0.104795837684E+03   -0.13622E-03   -0.26185E-04  1050   0.360E-02    0.184E-02
DAV:  16    -0.104795853322E+03   -0.15638E-04   -0.22780E-05   924   0.120E-02
   1 F= -.10479585E+03 E0= -.10479585E+03  d E =-.104796E+03
 curvature:   0.00 expect dE= 0.000E+00 dE for cont linesearch  0.000E+00
 trial: gam= 0.00000 g(F)=  0.461E-01 g(S)=  0.941E+00 ort = 0.000E+00 (trialstep = 0.100E+01)
 search vector abs. value=  0.987E+00
 bond charge predicted
       N       E                     dE             d eps       ncg     rms          rms(c)
DAV:   1    -0.106134246060E+03   -0.13384E+01   -0.96135E+00  1190   0.774E+00    0.449E+00
DAV:   2    -0.105746046869E+03    0.38820E+00   -0.10135E+00  1162   0.249E+00    0.159E+00
DAV:   3    -0.105693913059E+03    0.52134E-01   -0.21865E-01  1288   0.110E+00    0.688E-01
DAV:   4    -0.105686089707E+03    0.78234E-02   -0.16553E-02  1428   0.349E-01    0.562E-01
DAV:   5    -0.105683228543E+03    0.28612E-02   -0.47262E-03  1386   0.161E-01    0.370E-01
DAV:   6    -0.105681713083E+03    0.15155E-02   -0.52980E-03  1386   0.161E-01    0.179E-01
DAV:   7    -0.105681825940E+03   -0.11286E-03   -0.96706E-04  1358   0.670E-02    0.575E-02
DAV:   8    -0.105681826607E+03   -0.66767E-06   -0.43034E-05   756   0.200E-02
   2 F= -.10568183E+03 E0= -.10568183E+03  d E =-.885973E+00
 trial-energy change:   -0.885973  1 .order   -0.880043   -0.986963   -0.773122
 step:   3.3271(harm=  4.6154)  dis= 0.02231  next Energy=  -106.656121 (dE=-0.186E+01)
 bond charge predicted
       N       E                     dE             d eps       ncg     rms          rms(c)
DAV:   1    -0.109345436649E+03   -0.36636E+01   -0.53687E+01  1176   0.187E+01    0.113E+01
DAV:   2    -0.107217729269E+03    0.21277E+01   -0.54737E+00  1120   0.584E+00    0.444E+00
DAV:   3    -0.106916313496E+03    0.30142E+00   -0.13410E+00  1274   0.265E+00    0.186E+00
DAV:   4    -0.106881408305E+03    0.34905E-01   -0.76570E-02  1414   0.788E-01    0.155E+00
DAV:   5    -0.106863339976E+03    0.18068E-01   -0.26302E-02  1386   0.378E-01    0.103E+00
DAV:   6    -0.106854114992E+03    0.92250E-02   -0.28958E-02  1414   0.374E-01    0.397E-01
DAV:   7    -0.106854585103E+03   -0.47011E-03   -0.54737E-03  1470   0.158E-01    0.154E-01
DAV:   8    -0.106854579062E+03    0.60402E-05   -0.22857E-04   952   0.442E-02
   3 F= -.10685458E+03 E0= -.10685458E+03  d E =-.205873E+01
 curvature:  -2.01 expect dE=-0.172E+00 dE for cont linesearch -0.768E-01
 ZBRENT: extrapolating
 opt :   4.1066  next Energy=  -106.930184 (dE=-0.213E+01)
 bond charge predicted
       N       E                     dE             d eps       ncg     rms          rms(c)
DAV:   1    -0.107203497505E+03   -0.34891E+00   -0.60107E+00  1162   0.624E+00    0.372E+00
DAV:   2    -0.106965075124E+03    0.23842E+00   -0.61261E-01  1134   0.197E+00    0.138E+00
DAV:   3    -0.106929289284E+03    0.35786E-01   -0.15071E-01  1232   0.883E-01    0.522E-01
DAV:   4    -0.106924597210E+03    0.46921E-02   -0.94295E-03  1414   0.279E-01    0.411E-01
DAV:   5    -0.106922879082E+03    0.17181E-02   -0.31280E-03  1372   0.130E-01    0.287E-01
DAV:   6    -0.106922184254E+03    0.69483E-03   -0.21938E-03  1372   0.104E-01    0.155E-01
DAV:   7    -0.106922223280E+03   -0.39025E-04   -0.52627E-04  1204   0.487E-02
   4 F= -.10692222E+03 E0= -.10692222E+03  d E =-.212637E+01
 curvature:  -1.98 expect dE=-0.158E+00 dE for cont linesearch -0.198E-02
 ZBRENT: bracketing found
 ZBRENT: interpolating
 opt :   3.9979  next Energy=  -106.923931 (dE=-0.213E+01)
 bond charge predicted
       N       E                     dE             d eps       ncg     rms          rms(c)
DAV:   1    -0.106929234460E+03   -0.70502E-02   -0.11694E-01  1204   0.862E-01    0.509E-01
DAV:   2    -0.106924695776E+03    0.45387E-02   -0.11982E-02  1148   0.276E-01    0.182E-01
DAV:   3    -0.106923993302E+03    0.70247E-03   -0.28515E-03  1246   0.122E-01    0.706E-02
DAV:   4    -0.106923866932E+03    0.12637E-03   -0.16644E-04   910   0.400E-02    0.477E-02
DAV:   5    -0.106923812604E+03    0.54328E-04   -0.81937E-05   658   0.246E-02
   5 F= -.10692381E+03 E0= -.10692381E+03  d E =-.212796E+01
 curvature:  -1.71 expect dE=-0.122E+00 dE for cont linesearch -0.285E-04
 trial: gam= 0.07634 g(F)=  0.538E-01 g(S)=  0.174E-01 ort =-0.406E-02 (trialstep = 0.160E+01)
 search vector abs. value=  0.764E-01
 bond charge predicted
       N       E                     dE             d eps       ncg     rms          rms(c)
DAV:   1    -0.107045173316E+03   -0.12131E+00   -0.20237E+00  1008   0.337E+00    0.114E+00
DAV:   2    -0.107041481865E+03    0.36915E-02   -0.12592E-01  1176   0.100E+00    0.467E-01
DAV:   3    -0.107037368083E+03    0.41138E-02   -0.59071E-03  1288   0.230E-01    0.323E-01
DAV:   4    -0.107035294197E+03    0.20739E-02   -0.46246E-03  1260   0.170E-01    0.168E-01
DAV:   5    -0.107035147359E+03    0.14684E-03   -0.11049E-03  1400   0.824E-02    0.576E-02
DAV:   6    -0.107035096963E+03    0.50396E-04   -0.15051E-04   910   0.310E-02
   6 F= -.10703510E+03 E0= -.10703510E+03  d E =-.111284E+00
 ZBRENT: can't locate minimum, use default step
 trial-energy change:   -0.111284  1 .order   -0.111221   -0.113521   -0.108920
 step:   6.3983(harm= 39.4716)  dis= 0.04520  next Energy=  -108.324446 (dE=-0.140E+01)
 bond charge predicted
       N       E                     dE             d eps       ncg     rms          rms(c)
DAV:   1    -0.107416734186E+03   -0.38159E+00   -0.18233E+01  1008   0.101E+01    0.349E+00
DAV:   2    -0.107377431964E+03    0.39302E-01   -0.11428E+00  1190   0.302E+00    0.136E+00
DAV:   3    -0.107339508463E+03    0.37924E-01   -0.58093E-02  1288   0.716E-01    0.976E-01
DAV:   4    -0.107322696215E+03    0.16812E-01   -0.37830E-02  1260   0.484E-01    0.541E-01
DAV:   5    -0.107320986500E+03    0.17097E-02   -0.85821E-03  1400   0.229E-01    0.188E-01
DAV:   6    -0.107320431734E+03    0.55477E-03   -0.20393E-03  1302   0.107E-01    0.108E-01
DAV:   7    -0.107320475016E+03   -0.43283E-04   -0.32543E-04  1064   0.473E-02
   7 F= -.10732048E+03 E0= -.10732048E+03  d E =-.396662E+00
 curvature:  -5.04 expect dE=-0.236E+00 dE for cont linesearch -0.190E+00
 ZBRENT: increasing intervall
 opt :  15.9958  next Energy=  -107.696080 (dE=-0.772E+00)
 bond charge predicted
       N       E                     dE             d eps       ncg     rms          rms(c)
DAV:   1    -0.108115127432E+03   -0.79470E+00   -0.73985E+01  1008   0.202E+01    0.802E+00
DAV:   2    -0.107924670052E+03    0.19046E+00   -0.47270E+00  1176   0.612E+00    0.286E+00
DAV:   3    -0.107771597888E+03    0.15307E+00   -0.27019E-01  1274   0.153E+00    0.219E+00
DAV:   4    -0.107712910951E+03    0.58687E-01   -0.13994E-01  1260   0.929E-01    0.131E+00
DAV:   5    -0.107705331899E+03    0.75791E-02   -0.28453E-02  1400   0.421E-01    0.486E-01
DAV:   6    -0.107702116380E+03    0.32155E-02   -0.10609E-02  1260   0.253E-01    0.215E-01
DAV:   7    -0.107702378745E+03   -0.26236E-03   -0.24554E-03  1568   0.116E-01    0.105E-01
DAV:   8    -0.107702470461E+03   -0.91716E-04   -0.19591E-04   938   0.462E-02
   8 F= -.10770247E+03 E0= -.10770247E+03  d E =-.778658E+00
 curvature:  -9.98 expect dE=-0.462E+00 dE for cont linesearch -0.949E-01
 ZBRENT: increasing intervall
 opt :  35.1907  next Energy=  -107.707763 (dE=-0.784E+00)
 bond charge predicted
       N       E                     dE             d eps       ncg     rms          rms(c)
DAV:   1    -0.109420667185E+03   -0.17183E+01   -0.30417E+02  1008   0.409E+01    0.247E+01
DAV:   2    -0.108456307196E+03    0.96436E+00   -0.20797E+01  1176   0.127E+01    0.718E+00
DAV:   3    -0.107860908777E+03    0.59540E+00   -0.14530E+00  1260   0.348E+00    0.665E+00
DAV:   4    -0.107691181185E+03    0.16973E+00   -0.47649E-01  1260   0.174E+00    0.432E+00
DAV:   5    -0.107650526954E+03    0.40654E-01   -0.86209E-02  1428   0.727E-01    0.190E+00
DAV:   6    -0.107630369976E+03    0.20157E-01   -0.61379E-02  1232   0.637E-01    0.451E-01
DAV:   7    -0.107631818696E+03   -0.14487E-02   -0.15811E-02  1330   0.317E-01    0.220E-01
DAV:   8    -0.107632049993E+03   -0.23130E-03   -0.13745E-03  1428   0.102E-01    0.140E-01
DAV:   9    -0.107632270395E+03   -0.22040E-03   -0.48259E-04  1106   0.590E-02    0.502E-02
DAV:  10    -0.107632314205E+03   -0.43810E-04   -0.52989E-05   756   0.233E-02
   9 F= -.10763231E+03 E0= -.10763231E+03  d E =-.708502E+00
 curvature:  -0.56 expect dE=-0.983E-01 dE for cont linesearch -0.710E-02
 ZBRENT: bracketing found
 ZBRENT: interpolating
 opt :  24.8910  next Energy=  -107.822313 (dE=-0.899E+00)
 bond charge predicted
       N       E                     dE             d eps       ncg     rms          rms(c)
DAV:   1    -0.108189685822E+03   -0.55742E+00   -0.88113E+01  1008   0.226E+01    0.934E+00
DAV:   2    -0.108103869173E+03    0.85817E-01   -0.54181E+00  1176   0.678E+00    0.414E+00
DAV:   3    -0.107936764864E+03    0.16710E+00   -0.28424E-01  1344   0.161E+00    0.306E+00
DAV:   4    -0.107813696647E+03    0.12307E+00   -0.26884E-01  1260   0.121E+00    0.132E+00
DAV:   5    -0.107807018199E+03    0.66784E-02   -0.59928E-02  1428   0.592E-01    0.414E-01
DAV:   6    -0.107805326550E+03    0.16916E-02   -0.61311E-03  1512   0.200E-01    0.285E-01
DAV:   7    -0.107805512260E+03   -0.18571E-03   -0.16652E-03  1260   0.111E-01    0.124E-01
DAV:   8    -0.107805564457E+03   -0.52197E-04   -0.59987E-04  1246   0.662E-02
  10 F= -.10780556E+03 E0= -.10780556E+03  d E =-.881752E+00
 curvature:  -9.41 expect dE=-0.791E+00 dE for cont linesearch -0.956E-04
 trial: gam= 1.08418 g(F)=  0.726E-01 g(S)=  0.115E-01 ort = 0.881E-03 (trialstep = 0.272E+01)
 search vector abs. value=  0.176E+00
 bond charge predicted
       N       E                     dE             d eps       ncg     rms          rms(c)
DAV:   1    -0.107964408191E+03   -0.15890E+00   -0.99134E+00  1008   0.756E+00    0.212E+00
DAV:   2    -0.108019453503E+03   -0.55045E-01   -0.70269E-01  1232   0.230E+00    0.884E-01
DAV:   3    -0.108013659990E+03    0.57935E-02   -0.19967E-02  1288   0.478E-01    0.684E-01
DAV:   4    -0.108010717847E+03    0.29421E-02   -0.79519E-03  1288   0.236E-01    0.414E-01
DAV:   5    -0.108010067689E+03    0.65016E-03   -0.23563E-03  1302   0.133E-01    0.147E-01
DAV:   6    -0.108010021286E+03    0.46403E-04   -0.83843E-04  1288   0.776E-02
  11 F= -.10801002E+03 E0= -.10801002E+03  d E =-.204457E+00
 trial-energy change:   -0.204457  1 .order   -0.203785   -0.231234   -0.176335
 step:   9.6519(harm= 11.4583)  dis= 0.09342  next Energy=  -108.245787 (dE=-0.440E+00)
 bond charge predicted
       N       E                     dE             d eps       ncg     rms          rms(c)
DAV:   1    -0.108001544919E+03    0.85228E-02   -0.63778E+01  1008   0.191E+01    0.695E+00
DAV:   2    -0.108353836242E+03   -0.35229E+00   -0.45928E+00  1246   0.587E+00    0.268E+00
DAV:   3    -0.108315348198E+03    0.38488E-01   -0.13414E-01  1302   0.124E+00    0.230E+00
DAV:   4    -0.108299295357E+03    0.16053E-01   -0.49017E-02  1288   0.581E-01    0.142E+00
DAV:   5    -0.108294693911E+03    0.46014E-02   -0.12771E-02  1330   0.317E-01    0.531E-01
DAV:   6    -0.108294224454E+03    0.46946E-03   -0.66381E-03  1274   0.220E-01    0.185E-01
DAV:   7    -0.108294218707E+03    0.57472E-05   -0.15833E-03  1246   0.117E-01    0.142E-01
DAV:   8    -0.108294221340E+03   -0.26339E-05   -0.37952E-04  1036   0.526E-02
  12 F= -.10829422E+03 E0= -.10829422E+03  d E =-.488657E+00
 curvature: -11.34 expect dE=-0.472E+00 dE for cont linesearch -0.213E-01
 ZBRENT: extrapolating
 opt :  12.3507  next Energy=  -108.318733 (dE=-0.513E+00)
 bond charge predicted
       N       E                     dE             d eps       ncg     rms          rms(c)
DAV:   1    -0.108273288739E+03    0.20930E-01   -0.96515E+00  1036   0.746E+00    0.206E+00
DAV:   2    -0.108326146092E+03   -0.52857E-01   -0.68442E-01  1232   0.228E+00    0.837E-01
DAV:   3    -0.108320687671E+03    0.54584E-02   -0.20249E-02  1302   0.481E-01    0.634E-01
DAV:   4    -0.108318153510E+03    0.25342E-02   -0.69496E-03  1288   0.221E-01    0.402E-01
DAV:   5    -0.108317432724E+03    0.72079E-03   -0.19689E-03  1274   0.125E-01    0.168E-01
DAV:   6    -0.108317358058E+03    0.74666E-04   -0.11715E-03  1274   0.918E-02    0.719E-02
DAV:   7    -0.108317355079E+03    0.29789E-05   -0.25012E-04   826   0.486E-02
  13 F= -.10831736E+03 E0= -.10831736E+03  d E =-.511791E+00
 curvature: -13.06 expect dE=-0.716E+00 dE for cont linesearch -0.435E-04
 trial: gam= 0.58610 g(F)=  0.182E-01 g(S)=  0.367E-01 ort =-0.765E-03 (trialstep = 0.465E+01)
 search vector abs. value=  0.114E+00
 bond charge predicted
       N       E                     dE             d eps       ncg     rms          rms(c)
DAV:   1    -0.108689807740E+03   -0.37245E+00   -0.16080E+01  1008   0.100E+01    0.407E+00
DAV:   2    -0.108523441791E+03    0.16637E+00   -0.15171E+00  1316   0.326E+00    0.199E+00
DAV:   3    -0.108489787726E+03    0.33654E-01   -0.14653E-01  1246   0.107E+00    0.951E-01
DAV:   4    -0.108477596132E+03    0.12192E-01   -0.31351E-02  1260   0.456E-01    0.562E-01
DAV:   5    -0.108474866662E+03    0.27295E-02   -0.50876E-03  1372   0.202E-01    0.324E-01
DAV:   6    -0.108473789048E+03    0.10776E-02   -0.43009E-03  1260   0.151E-01    0.217E-01
DAV:   7    -0.108473918849E+03   -0.12980E-03   -0.76174E-04  1344   0.635E-02    0.643E-02
DAV:   8    -0.108473925476E+03   -0.66270E-05   -0.43302E-05   756   0.207E-02
  14 F= -.10847393E+03 E0= -.10847393E+03  d E =-.156570E+00
 trial-energy change:   -0.156570  1 .order   -0.156563   -0.252746   -0.060379
 step:   6.1049(harm=  6.1049)  dis= 0.05815  next Energy=  -108.483394 (dE=-0.166E+00)
 bond charge predicted
       N       E                     dE             d eps       ncg     rms          rms(c)
DAV:   1    -0.108500401660E+03   -0.26483E-01   -0.15653E+00  1008   0.313E+00    0.121E+00
DAV:   2    -0.108484034015E+03    0.16368E-01   -0.14759E-01  1330   0.103E+00    0.634E-01
DAV:   3    -0.108480875017E+03    0.31590E-02   -0.14135E-02  1232   0.329E-01    0.321E-01
DAV:   4    -0.108479528538E+03    0.13465E-02   -0.33029E-03  1274   0.148E-01    0.170E-01
DAV:   5    -0.108479269055E+03    0.25948E-03   -0.60091E-04  1260   0.690E-02    0.977E-02
DAV:   6    -0.108479208138E+03    0.60917E-04   -0.32328E-04  1078   0.426E-02
  15 F= -.10847921E+03 E0= -.10847921E+03  d E =-.161853E+00
 curvature:  -6.42 expect dE=-0.158E+00 dE for cont linesearch -0.131E-02
 trial: gam= 0.50543 g(F)=  0.179E-01 g(S)=  0.679E-02 ort =-0.483E-02 (trialstep = 0.494E+01)
 search vector abs. value=  0.490E-01
 bond charge predicted
       N       E                     dE             d eps       ncg     rms          rms(c)
DAV:   1    -0.108514278649E+03   -0.35010E-01   -0.97969E+00  1008   0.767E+00    0.192E+00
DAV:   2    -0.108567999415E+03   -0.53721E-01   -0.72747E-01  1288   0.226E+00    0.796E-01
DAV:   3    -0.108564753222E+03    0.32462E-02   -0.21296E-02  1288   0.489E-01    0.629E-01
DAV:   4    -0.108563401241E+03    0.13520E-02   -0.39800E-03  1288   0.171E-01    0.435E-01
DAV:   5    -0.108562750853E+03    0.65039E-03   -0.10442E-03  1274   0.964E-02    0.207E-01
DAV:   6    -0.108562616518E+03    0.13433E-03   -0.10613E-03  1302   0.898E-02    0.678E-02
DAV:   7    -0.108562631347E+03   -0.14829E-04   -0.22746E-04   840   0.444E-02
  16 F= -.10856263E+03 E0= -.10856263E+03  d E =-.834232E-01
 trial-energy change:   -0.083423  1 .order   -0.081520   -0.109679   -0.053361
 step:   8.4153(harm=  9.6169)  dis= 0.06260  next Energy=  -108.582083 (dE=-0.103E+00)
 bond charge predicted
       N       E                     dE             d eps       ncg     rms          rms(c)
DAV:   1    -0.108565414322E+03   -0.27978E-02   -0.48589E+00  1008   0.538E+00    0.132E+00
DAV:   2    -0.108591733557E+03   -0.26319E-01   -0.35696E-01  1288   0.158E+00    0.540E-01
DAV:   3    -0.108590122970E+03    0.16106E-02   -0.10472E-02  1302   0.342E-01    0.405E-01
DAV:   4    -0.108589446964E+03    0.67601E-03   -0.20153E-03  1274   0.122E-01    0.271E-01
DAV:   5    -0.108589147228E+03    0.29974E-03   -0.53540E-04  1232   0.688E-02    0.128E-01
DAV:   6    -0.108589098417E+03    0.48811E-04   -0.44275E-04  1162   0.584E-02
  17 F= -.10858910E+03 E0= -.10858910E+03  d E =-.109890E+00
 curvature:  -9.90 expect dE=-0.955E-01 dE for cont linesearch -0.370E-02
 ZBRENT: increasing intervall
 opt :  15.3696  next Energy=  -108.573412 (dE=-0.942E-01)
 bond charge predicted
       N       E                     dE             d eps       ncg     rms          rms(c)
DAV:   1    -0.108476934901E+03    0.11221E+00   -0.19414E+01  1008   0.108E+01    0.293E+00
DAV:   2    -0.108582963446E+03   -0.10603E+00   -0.14475E+00  1288   0.318E+00    0.115E+00
DAV:   3    -0.108576495887E+03    0.64676E-02   -0.44191E-02  1302   0.706E-01    0.905E-01
DAV:   4    -0.108573861884E+03    0.26340E-02   -0.81200E-03  1288   0.245E-01    0.620E-01
DAV:   5    -0.108572663798E+03    0.11981E-02   -0.19649E-03  1274   0.132E-01    0.303E-01
DAV:   6    -0.108572387559E+03    0.27624E-03   -0.19858E-03  1316   0.125E-01    0.982E-02
DAV:   7    -0.108572420947E+03   -0.33387E-04   -0.47550E-04  1176   0.614E-02
  18 F= -.10857242E+03 E0= -.10857242E+03  d E =-.932128E-01
 curvature:  42.03 expect dE= 0.707E+00 dE for cont linesearch  0.707E-01
 ZBRENT: bracketing found
 ZBRENT: interpolating
 opt :  10.6423  next Energy=  -108.593859 (dE=-0.115E+00)
 bond charge predicted
       N       E                     dE             d eps       ncg     rms          rms(c)
DAV:   1    -0.108551455899E+03    0.20932E-01   -0.88778E+00  1008   0.721E+00    0.182E+00
DAV:   2    -0.108597725704E+03   -0.46270E-01   -0.62023E-01  1274   0.212E+00    0.811E-01
DAV:   3    -0.108595081586E+03    0.26441E-02   -0.18314E-02  1330   0.446E-01    0.569E-01
DAV:   4    -0.108593556170E+03    0.15254E-02   -0.35541E-03  1274   0.165E-01    0.359E-01
DAV:   5    -0.108592941593E+03    0.61458E-03   -0.14075E-03  1260   0.107E-01    0.153E-01
DAV:   6    -0.108592900282E+03    0.41311E-04   -0.59040E-04  1190   0.664E-02
  19 F= -.10859290E+03 E0= -.10859290E+03  d E =-.113692E+00
 curvature:  -2.83 expect dE=-0.291E-01 dE for cont linesearch -0.273E-04
 trial: gam= 0.11163 g(F)=  0.717E-02 g(S)=  0.311E-02 ort =-0.687E-03 (trialstep = 0.608E+01)
 search vector abs. value=  0.107E-01
 bond charge predicted
       N       E                     dE             d eps       ncg     rms          rms(c)
DAV:   1    -0.108652116142E+03   -0.59175E-01   -0.34105E+00  1050   0.467E+00    0.169E+00
DAV:   2    -0.108637682222E+03    0.14434E-01   -0.27470E-01  1232   0.148E+00    0.901E-01
DAV:   3    -0.108633091222E+03    0.45910E-02   -0.23716E-02  1316   0.419E-01    0.568E-01
DAV:   4    -0.108629943583E+03    0.31476E-02   -0.44808E-03  1316   0.193E-01    0.282E-01
DAV:   5    -0.108628995375E+03    0.94821E-03   -0.24221E-03  1274   0.132E-01    0.116E-01
DAV:   6    -0.108628978660E+03    0.16715E-04   -0.42406E-04  1148   0.548E-02
  20 F= -.10862898E+03 E0= -.10862898E+03  d E =-.360784E-01
 trial-energy change:   -0.036078  1 .order   -0.037676   -0.062024   -0.013328
 step:   8.3601(harm=  7.7427)  dis= 0.01936  next Energy=  -108.631395 (dE=-0.385E-01)
 bond charge predicted
       N       E                     dE             d eps       ncg     rms          rms(c)
DAV:   1    -0.108632999913E+03   -0.40045E-02   -0.47963E-01  1036   0.175E+00    0.625E-01
DAV:   2    -0.108630932166E+03    0.20677E-02   -0.38676E-02  1232   0.554E-01    0.320E-01
DAV:   3    -0.108630227399E+03    0.70477E-03   -0.32146E-03  1316   0.155E-01    0.200E-01
DAV:   4    -0.108629770363E+03    0.45704E-03   -0.63592E-04  1260   0.718E-02    0.101E-01
DAV:   5    -0.108629625438E+03    0.14492E-03   -0.29220E-04   924   0.483E-02    0.381E-02
DAV:   6    -0.108629617748E+03    0.76900E-05   -0.85575E-05   714   0.267E-02
  21 F= -.10862962E+03 E0= -.10862962E+03  d E =-.367175E-01
 curvature:  -3.51 expect dE=-0.361E-01 dE for cont linesearch -0.421E-03
 trial: gam= 1.12037 g(F)=  0.463E-02 g(S)=  0.565E-02 ort =-0.113E-02 (trialstep = 0.331E+01)
 search vector abs. value=  0.212E-01
 bond charge predicted
       N       E                     dE             d eps       ncg     rms          rms(c)
DAV:   1    -0.108645623028E+03   -0.15998E-01   -0.18077E+00  1008   0.331E+00    0.763E-01
DAV:   2    -0.108656767461E+03   -0.11144E-01   -0.13006E-01  1260   0.994E-01    0.304E-01
DAV:   3    -0.108656273738E+03    0.49372E-03   -0.36031E-03  1442   0.198E-01    0.223E-01
DAV:   4    -0.108655951999E+03    0.32174E-03   -0.87801E-04  1302   0.866E-02    0.135E-01
DAV:   5    -0.108655904632E+03    0.47366E-04   -0.21214E-04   826   0.450E-02
  22 F= -.10865590E+03 E0= -.10865590E+03  d E =-.262869E-01
 ZBRENT: can't locate minimum, use default step
 trial-energy change:   -0.026287  1 .order   -0.026350   -0.029793   -0.022908
 step:  13.2310(harm= 14.3133)  dis= 0.05544  next Energy=  -108.694077 (dE=-0.645E-01)
 bond charge predicted
       N       E                     dE             d eps       ncg     rms          rms(c)
DAV:   1    -0.108599245428E+03    0.56707E-01   -0.16224E+01  1008   0.992E+00    0.244E+00
DAV:   2    -0.108698754846E+03   -0.99509E-01   -0.11703E+00  1218   0.298E+00    0.926E-01
DAV:   3    -0.108694581526E+03    0.41733E-02   -0.32606E-02  1414   0.595E-01    0.661E-01
DAV:   4    -0.108691520406E+03    0.30611E-02   -0.82145E-03  1344   0.271E-01    0.409E-01
DAV:   5    -0.108691280412E+03    0.23999E-03   -0.24611E-03  1386   0.137E-01    0.173E-01
DAV:   6    -0.108691200007E+03    0.80405E-04   -0.50346E-04  1246   0.788E-02
  23 F= -.10869120E+03 E0= -.10869120E+03  d E =-.615823E-01
 curvature: -16.69 expect dE=-0.132E+00 dE for cont linesearch -0.215E-03
 trial: gam= 0.50522 g(F)=  0.520E-02 g(S)=  0.273E-02 ort =-0.523E-03 (trialstep = 0.529E+01)
 search vector abs. value=  0.128E-01
 bond charge predicted
       N       E                     dE             d eps       ncg     rms          rms(c)
DAV:   1    -0.108719652598E+03   -0.28372E-01   -0.24692E+00  1008   0.408E+00    0.119E+00
DAV:   2    -0.108721476503E+03   -0.18239E-02   -0.18358E-01  1260   0.121E+00    0.522E-01
DAV:   3    -0.108717495409E+03    0.39811E-02   -0.10906E-02  1428   0.313E-01    0.338E-01
DAV:   4    -0.108715408491E+03    0.20869E-02   -0.26639E-03  1232   0.147E-01    0.171E-01
DAV:   5    -0.108714764066E+03    0.64443E-03   -0.13979E-03  1274   0.112E-01    0.930E-02
DAV:   6    -0.108714769375E+03   -0.53092E-05   -0.34487E-04  1022   0.515E-02
  24 F= -.10871477E+03 E0= -.10871477E+03  d E =-.235694E-01
 trial-energy change:   -0.023569  1 .order   -0.023984   -0.040577   -0.007391
 step:   6.5925(harm=  6.4711)  dis= 0.01665  next Energy=  -108.715671 (dE=-0.245E-01)
 bond charge predicted
       N       E                     dE             d eps       ncg     rms          rms(c)
DAV:   1    -0.108715920124E+03   -0.11561E-02   -0.15100E-01  1064   0.101E+00    0.309E-01
DAV:   2    -0.108716037268E+03   -0.11714E-03   -0.11373E-02  1260   0.300E-01    0.127E-01
DAV:   3    -0.108715790424E+03    0.24684E-03   -0.70634E-04  1372   0.797E-02    0.764E-02
DAV:   4    -0.108715671327E+03    0.11910E-03   -0.13270E-04   756   0.359E-02    0.405E-02
DAV:   5    -0.108715632640E+03    0.38686E-04   -0.13473E-04   756   0.354E-02
  25 F= -.10871563E+03 E0= -.10871563E+03  d E =-.244326E-01
 curvature:  -5.35 expect dE=-0.149E-01 dE for cont linesearch -0.658E-07
 trial: gam= 0.33418 g(F)=  0.188E-02 g(S)=  0.916E-03 ort = 0.125E-04 (trialstep = 0.555E+01)
 search vector abs. value=  0.423E-02
 bond charge predicted
       N       E                     dE             d eps       ncg     rms          rms(c)
DAV:   1    -0.108723258854E+03   -0.75875E-02   -0.93319E-01  1036   0.241E+00    0.617E-01
DAV:   2    -0.108728331096E+03   -0.50722E-02   -0.68089E-02  1288   0.726E-01    0.293E-01
DAV:   3    -0.108727956119E+03    0.37498E-03   -0.23970E-03  1442   0.153E-01    0.190E-01
DAV:   4    -0.108727690243E+03    0.26588E-03   -0.46390E-04  1204   0.604E-02    0.116E-01
DAV:   5    -0.108727572091E+03    0.11815E-03   -0.19454E-04   798   0.472E-02    0.571E-02
DAV:   6    -0.108727570761E+03    0.13303E-05   -0.17787E-04   826   0.377E-02
  26 F= -.10872757E+03 E0= -.10872757E+03  d E =-.119381E-01
 trial-energy change:   -0.011938  1 .order   -0.012008   -0.015531   -0.008486
 step:  12.2403(harm= 12.2403)  dis= 0.02091  next Energy=  -108.732752 (dE=-0.171E-01)
 bond charge predicted
       N       E                     dE             d eps       ncg     rms          rms(c)
DAV:   1    -0.108726792394E+03    0.77970E-03   -0.13562E+00  1022   0.291E+00    0.747E-01
DAV:   2    -0.108734129848E+03   -0.73375E-02   -0.98944E-02  1274   0.874E-01    0.355E-01
DAV:   3    -0.108733617596E+03    0.51225E-03   -0.35652E-03  1414   0.187E-01    0.226E-01
DAV:   4    -0.108733235027E+03    0.38257E-03   -0.68073E-04  1330   0.733E-02    0.140E-01
DAV:   5    -0.108733069932E+03    0.16510E-03   -0.28485E-04   910   0.553E-02    0.699E-02
DAV:   6    -0.108733064694E+03    0.52375E-05   -0.20798E-04   756   0.425E-02
  27 F= -.10873306E+03 E0= -.10873306E+03  d E =-.174321E-01
 curvature:  -9.26 expect dE=-0.151E-01 dE for cont linesearch -0.232E-03
 trial: gam= 0.53853 g(F)=  0.103E-02 g(S)=  0.606E-03 ort = 0.326E-03 (trialstep = 0.689E+01)
 search vector abs. value=  0.321E-02
 bond charge predicted
       N       E                     dE             d eps       ncg     rms          rms(c)
DAV:   1    -0.108745579693E+03   -0.12510E-01   -0.12588E+00  1008   0.275E+00    0.869E-01
DAV:   2    -0.108745759960E+03   -0.18027E-03   -0.93776E-02  1176   0.840E-01    0.417E-01
DAV:   3    -0.108744561399E+03    0.11986E-02   -0.47510E-03  1330   0.200E-01    0.256E-01
DAV:   4    -0.108743816105E+03    0.74529E-03   -0.14681E-03  1260   0.105E-01    0.135E-01
DAV:   5    -0.108743736353E+03    0.79752E-04   -0.34234E-04   994   0.498E-02
  28 F= -.10874374E+03 E0= -.10874374E+03  d E =-.106717E-01
 trial-energy change:   -0.010672  1 .order   -0.010896   -0.012456   -0.009335
 step:  27.4972(harm= 27.4972)  dis= 0.03954  next Energy=  -108.757920 (dE=-0.249E-01)
 bond charge predicted
       N       E                     dE             d eps       ncg     rms          rms(c)
DAV:   1    -0.108767912676E+03   -0.24097E-01   -0.11264E+01  1008   0.821E+00    0.264E+00
DAV:   2    -0.108767839299E+03    0.73378E-04   -0.83815E-01  1148   0.251E+00    0.120E+00
DAV:   3    -0.108756536976E+03    0.11302E-01   -0.42700E-02  1330   0.602E-01    0.742E-01
DAV:   4    -0.108750252786E+03    0.62842E-02   -0.12256E-02  1260   0.302E-01    0.425E-01
DAV:   5    -0.108749411199E+03    0.84159E-03   -0.29005E-03  1372   0.141E-01    0.199E-01
DAV:   6    -0.108749073050E+03    0.33815E-03   -0.13324E-03  1288   0.870E-02    0.114E-01
DAV:   7    -0.108749105289E+03   -0.32239E-04   -0.22998E-04   826   0.413E-02
  29 F= -.10874911E+03 E0= -.10874911E+03  d E =-.160406E-01
 curvature: -24.42 expect dE=-0.228E+00 dE for cont linesearch -0.421E-02
 ZBRENT: interpolating
 opt :  20.1923  next Energy=  -108.751823 (dE=-0.188E-01)
 bond charge predicted
       N       E                     dE             d eps       ncg     rms          rms(c)
DAV:   1    -0.108753584306E+03   -0.45113E-02   -0.14148E+00  1008   0.292E+00    0.913E-01
DAV:   2    -0.108754009897E+03   -0.42559E-03   -0.10535E-01  1162   0.897E-01    0.477E-01
DAV:   3    -0.108752689333E+03    0.13206E-02   -0.53353E-03  1344   0.213E-01    0.306E-01
DAV:   4    -0.108751687505E+03    0.10018E-02   -0.17902E-03  1260   0.116E-01    0.151E-01
DAV:   5    -0.108751558196E+03    0.12931E-03   -0.48560E-04  1176   0.570E-02    0.666E-02
DAV:   6    -0.108751519327E+03    0.38869E-04   -0.10923E-04   728   0.273E-02
  30 F= -.10875152E+03 E0= -.10875152E+03  d E =-.184546E-01
 curvature: -15.76 expect dE=-0.791E-01 dE for cont linesearch -0.251E-05
 trial: gam= 3.16897 g(F)=  0.128E-02 g(S)=  0.373E-02 ort = 0.226E-04 (trialstep = 0.820E+00)
 search vector abs. value=  0.374E-01
 bond charge predicted
       N       E                     dE             d eps       ncg     rms          rms(c)
DAV:   1    -0.108754544602E+03   -0.29864E-02   -0.19679E-01  1008   0.108E+00    0.269E-01
DAV:   2    -0.108755583208E+03   -0.10386E-02   -0.13860E-02  1246   0.325E-01    0.110E-01
DAV:   3    -0.108755484912E+03    0.98296E-04   -0.39007E-04  1190   0.681E-02
  31 F= -.10875548E+03 E0= -.10875548E+03  d E =-.396558E-02
 ZBRENT: can't locate minimum, use default step
 trial-energy change:   -0.003966  1 .order   -0.003960   -0.004172   -0.003748
 step:   3.2793(harm=  8.0738)  dis= 0.01888  next Energy=  -108.772061 (dE=-0.205E-01)
 bond charge predicted
       N       E                     dE             d eps       ncg     rms          rms(c)
DAV:   1    -0.108756460303E+03   -0.87709E-03   -0.17553E+00  1008   0.323E+00    0.763E-01
DAV:   2    -0.108765292145E+03   -0.88318E-02   -0.12130E-01  1246   0.964E-01    0.353E-01
DAV:   3    -0.108764368452E+03    0.92369E-03   -0.35079E-03  1386   0.199E-01    0.264E-01
DAV:   4    -0.108763842996E+03    0.52546E-03   -0.99897E-04  1274   0.887E-02    0.172E-01
DAV:   5    -0.108763671245E+03    0.17175E-03   -0.28854E-04   882   0.523E-02    0.713E-02
DAV:   6    -0.108763650670E+03    0.20575E-04   -0.26757E-04   896   0.486E-02
  32 F= -.10876365E+03 E0= -.10876365E+03  d E =-.121313E-01
 curvature: -16.71 expect dE=-0.438E-01 dE for cont linesearch -0.214E-02
 ZBRENT: increasing intervall
 opt :   8.1981  next Energy=  -108.762679 (dE=-0.112E-01)
 bond charge predicted
       N       E                     dE             d eps       ncg     rms          rms(c)
DAV:   1    -0.108735944277E+03    0.27727E-01   -0.70810E+00  1008   0.649E+00    0.165E+00
DAV:   2    -0.108773208063E+03   -0.37264E-01   -0.49926E-01  1232   0.195E+00    0.676E-01
DAV:   3    -0.108769838978E+03    0.33691E-02   -0.14604E-02  1386   0.409E-01    0.511E-01
DAV:   4    -0.108768033423E+03    0.18056E-02   -0.38222E-03  1260   0.173E-01    0.338E-01
DAV:   5    -0.108767462794E+03    0.57063E-03   -0.10163E-03  1316   0.932E-02    0.149E-01
DAV:   6    -0.108767334088E+03    0.12871E-03   -0.81091E-04  1260   0.858E-02    0.449E-02
DAV:   7    -0.108767340314E+03   -0.62263E-05   -0.19559E-04   742   0.424E-02
  33 F= -.10876734E+03 E0= -.10876734E+03  d E =-.158210E-01
 curvature:   7.60 expect dE= 0.245E-01 dE for cont linesearch  0.301E-03
 ZBRENT: bracketing found
 ZBRENT: interpolating
 opt :   6.4392  next Energy=  -108.768411 (dE=-0.169E-01)
 bond charge predicted
       N       E                     dE             d eps       ncg     rms          rms(c)
DAV:   1    -0.108764053741E+03    0.32803E-02   -0.89786E-01  1008   0.232E+00    0.541E-01
DAV:   2    -0.108768776842E+03   -0.47231E-02   -0.62721E-02  1204   0.694E-01    0.244E-01
DAV:   3    -0.108768367612E+03    0.40923E-03   -0.19070E-03  1400   0.145E-01    0.174E-01
DAV:   4    -0.108768099383E+03    0.26823E-03   -0.49256E-04  1134   0.637E-02    0.109E-01
DAV:   5    -0.108768024732E+03    0.74650E-04   -0.13890E-04   714   0.370E-02
  34 F= -.10876802E+03 E0= -.10876802E+03  d E =-.165054E-01
 curvature: -27.02 expect dE=-0.728E-01 dE for cont linesearch -0.280E-05
 trial: gam= 0.15885 g(F)=  0.185E-02 g(S)=  0.839E-03 ort = 0.623E-04 (trialstep = 0.194E+01)
 search vector abs. value=  0.366E-02
 bond charge predicted
       N       E                     dE             d eps       ncg     rms          rms(c)
DAV:   1    -0.108773492619E+03   -0.53932E-02   -0.89076E-02  1008   0.752E-01    0.255E-01
DAV:   2    -0.108772966670E+03    0.52595E-03   -0.72914E-03  1274   0.240E-01    0.134E-01
DAV:   3    -0.108772824486E+03    0.14218E-03   -0.59097E-04  1204   0.659E-02    0.765E-02
DAV:   4    -0.108772739384E+03    0.85101E-04   -0.94887E-05   714   0.285E-02
  35 F= -.10877274E+03 E0= -.10877274E+03  d E =-.471465E-02
 ZBRENT: can't locate minimum, use default step
 trial-energy change:   -0.004715  1 .order   -0.004901   -0.005254   -0.004547
 step:   7.7748(harm= 14.4512)  dis= 0.01118  next Energy=  -108.787556 (dE=-0.195E-01)
 bond charge predicted
       N       E                     dE             d eps       ncg     rms          rms(c)
DAV:   1    -0.108787637559E+03   -0.14813E-01   -0.77909E-01  1008   0.222E+00    0.763E-01
DAV:   2    -0.108782359689E+03    0.52779E-02   -0.63268E-02  1260   0.704E-01    0.398E-01
DAV:   3    -0.108781124208E+03    0.12355E-02   -0.53993E-03  1372   0.197E-01    0.222E-01
DAV:   4    -0.108780438225E+03    0.68598E-03   -0.93993E-04  1246   0.830E-02    0.105E-01
DAV:   5    -0.108780274344E+03    0.16388E-03   -0.31979E-04   980   0.459E-02    0.585E-02
DAV:   6    -0.108780256775E+03    0.17569E-04   -0.99447E-05   714   0.276E-02
  36 F= -.10878026E+03 E0= -.10878026E+03  d E =-.122320E-01
 curvature:  -6.99 expect dE=-0.106E-01 dE for cont linesearch -0.604E-03
 ZBRENT: extrapolating
 opt :   9.6188  next Energy=  -108.780775 (dE=-0.128E-01)
 bond charge predicted
       N       E                     dE             d eps       ncg     rms          rms(c)
DAV:   1    -0.108781423865E+03   -0.11495E-02   -0.78069E-02  1008   0.705E-01    0.234E-01
DAV:   2    -0.108780946781E+03    0.47708E-03   -0.63204E-03  1260   0.222E-01    0.122E-01
DAV:   3    -0.108780818698E+03    0.12808E-03   -0.49408E-04  1190   0.610E-02    0.700E-02
DAV:   4    -0.108780742107E+03    0.76592E-04   -0.92299E-05   714   0.277E-02
  37 F= -.10878074E+03 E0= -.10878074E+03  d E =-.127174E-01
 curvature:  -6.00 expect dE=-0.113E-01 dE for cont linesearch -0.683E-04
 trial: gam= 0.64299 g(F)=  0.103E-02 g(S)=  0.850E-03 ort = 0.204E-03 (trialstep = 0.348E+01)
 search vector abs. value=  0.366E-02
 bond charge predicted
       N       E                     dE             d eps       ncg     rms          rms(c)
DAV:   1    -0.108785188427E+03   -0.43697E-02   -0.31585E-01  1008   0.140E+00    0.374E-01
DAV:   2    -0.108786430630E+03   -0.12422E-02   -0.24134E-02  1288   0.430E-01    0.190E-01
DAV:   3    -0.108786311447E+03    0.11918E-03   -0.10547E-03  1344   0.953E-02    0.123E-01
DAV:   4    -0.108786214125E+03    0.97322E-04   -0.14226E-04   756   0.381E-02
  38 F= -.10878621E+03 E0= -.10878621E+03  d E =-.547202E-02
 trial-energy change:   -0.005472  1 .order   -0.005640   -0.007005   -0.004275
 step:   8.9239(harm=  8.9239)  dis= 0.01441  next Energy=  -108.789728 (dE=-0.899E-02)
 bond charge predicted
       N       E                     dE             d eps       ncg     rms          rms(c)
DAV:   1    -0.108786117702E+03    0.19375E-03   -0.76691E-01  1008   0.217E+00    0.587E-01
DAV:   2    -0.108788936957E+03   -0.28193E-02   -0.58180E-02  1288   0.670E-01    0.287E-01
DAV:   3    -0.108788624246E+03    0.31271E-03   -0.26506E-03  1358   0.150E-01    0.180E-01
DAV:   4    -0.108788389545E+03    0.23470E-03   -0.38440E-04  1120   0.586E-02    0.936E-02
DAV:   5    -0.108788322034E+03    0.67511E-04   -0.20213E-04   756   0.431E-02
  39 F= -.10878832E+03 E0= -.10878832E+03  d E =-.757993E-02
 curvature:  -8.10 expect dE=-0.122E-01 dE for cont linesearch -0.125E-03
 trial: gam= 0.94596 g(F)=  0.122E-02 g(S)=  0.284E-03 ort =-0.237E-03 (trialstep = 0.386E+01)
 search vector abs. value=  0.433E-02
 bond charge predicted
       N       E                     dE             d eps       ncg     rms          rms(c)
DAV:   1    -0.108790221582E+03   -0.18320E-02   -0.45055E-01  1008   0.164E+00    0.388E-01
DAV:   2    -0.108792653729E+03   -0.24321E-02   -0.31524E-02  1260   0.495E-01    0.158E-01
DAV:   3    -0.108792486434E+03    0.16729E-03   -0.87805E-04  1330   0.976E-02    0.115E-01
DAV:   4    -0.108792352925E+03    0.13351E-03   -0.25831E-04   896   0.499E-02    0.583E-02
DAV:   5    -0.108792347100E+03    0.58252E-05   -0.13115E-04   728   0.342E-02
  40 F= -.10879235E+03 E0= -.10879235E+03  d E =-.402507E-02
 ZBRENT: can't locate minimum, use default step
 trial-energy change:   -0.004025  1 .order   -0.004347   -0.004933   -0.003761
 step:  15.4479(harm= 16.2503)  dis= 0.03419  next Energy=  -108.798701 (dE=-0.104E-01)
 bond charge predicted
       N       E                     dE             d eps       ncg     rms          rms(c)
DAV:   1    -0.108780722546E+03    0.11630E-01   -0.40836E+00  1008   0.495E+00    0.118E+00
DAV:   2    -0.108803136747E+03   -0.22414E-01   -0.28678E-01  1260   0.149E+00    0.499E-01
DAV:   3    -0.108801614618E+03    0.15221E-02   -0.78589E-03  1372   0.291E-01    0.359E-01
DAV:   4    -0.108800412187E+03    0.12024E-02   -0.24971E-03  1302   0.147E-01    0.193E-01
DAV:   5    -0.108800336258E+03    0.75929E-04   -0.86755E-04  1162   0.798E-02
  41 F= -.10880034E+03 E0= -.10880034E+03  d E =-.120142E-01
 curvature: -27.40 expect dE=-0.617E-01 dE for cont linesearch -0.937E-03
 trial: gam= 0.75263 g(F)=  0.160E-02 g(S)=  0.655E-03 ort = 0.385E-03 (trialstep = 0.506E+01)
 search vector abs. value=  0.528E-02
 bond charge predicted
       N       E                     dE             d eps       ncg     rms          rms(c)
DAV:   1    -0.108812111170E+03   -0.11699E-01   -0.86403E-01  1008   0.233E+00    0.674E-01
DAV:   2    -0.108811426755E+03    0.68442E-03   -0.64591E-02  1330   0.716E-01    0.351E-01
DAV:   3    -0.108810460005E+03    0.96675E-03   -0.36561E-03  1274   0.171E-01    0.215E-01
DAV:   4    -0.108809867473E+03    0.59253E-03   -0.93506E-04  1316   0.849E-02    0.897E-02
DAV:   5    -0.108809741144E+03    0.12633E-03   -0.26103E-04   812   0.492E-02    0.424E-02
DAV:   6    -0.108809737760E+03    0.33838E-05   -0.10543E-04   714   0.297E-02
  42 F= -.10880974E+03 E0= -.10880974E+03  d E =-.940150E-02
 trial-energy change:   -0.009402  1 .order   -0.009645   -0.012857   -0.006432
 step:  10.1302(harm= 10.1302)  dis= 0.02276  next Energy=  -108.813201 (dE=-0.129E-01)
 bond charge predicted
       N       E                     dE             d eps       ncg     rms          rms(c)
DAV:   1    -0.108814674429E+03   -0.49333E-02   -0.87083E-01  1008   0.234E+00    0.663E-01
DAV:   2    -0.108814102360E+03    0.57207E-03   -0.64535E-02  1316   0.717E-01    0.351E-01
DAV:   3    -0.108813125147E+03    0.97721E-03   -0.36541E-03  1274   0.172E-01    0.218E-01
DAV:   4    -0.108812498084E+03    0.62706E-03   -0.97770E-04  1302   0.868E-02    0.920E-02
DAV:   5    -0.108812368421E+03    0.12966E-03   -0.26968E-04   826   0.500E-02    0.441E-02
DAV:   6    -0.108812363777E+03    0.46436E-05   -0.10612E-04   686   0.296E-02
  43 F= -.10881236E+03 E0= -.10881236E+03  d E =-.120275E-01
 curvature: -10.53 expect dE=-0.436E-01 dE for cont linesearch -0.364E-04
 trial: gam= 2.04894 g(F)=  0.143E-02 g(S)=  0.271E-02 ort =-0.135E-03 (trialstep = 0.125E+01)
 search vector abs. value=  0.257E-01
 bond charge predicted
       N       E                     dE             d eps       ncg     rms          rms(c)
DAV:   1    -0.108815858413E+03   -0.34900E-02   -0.26539E-01  1008   0.126E+00    0.302E-01
DAV:   2    -0.108816977719E+03   -0.11193E-02   -0.18312E-02  1288   0.382E-01    0.133E-01
DAV:   3    -0.108816832899E+03    0.14482E-03   -0.69104E-04  1316   0.805E-02    0.940E-02
DAV:   4    -0.108816740739E+03    0.92160E-04   -0.12273E-04   700   0.350E-02
  44 F= -.10881674E+03 E0= -.10881674E+03  d E =-.437696E-02
 ZBRENT: can't locate minimum, use default step
 trial-energy change:   -0.004377  1 .order   -0.004616   -0.004810   -0.004421
 step:   4.9832(harm= 15.4195)  dis= 0.02500  next Energy=  -108.842131 (dE=-0.298E-01)
 bond charge predicted
       N       E                     dE             d eps       ncg     rms          rms(c)
DAV:   1    -0.108819860942E+03   -0.30280E-02   -0.23669E+00  1008   0.377E+00    0.903E-01
DAV:   2    -0.108829520233E+03   -0.96593E-02   -0.16199E-01  1274   0.114E+00    0.400E-01
DAV:   3    -0.108828280369E+03    0.12399E-02   -0.65820E-03  1400   0.246E-01    0.281E-01
DAV:   4    -0.108827461071E+03    0.81930E-03   -0.12792E-03  1288   0.104E-01    0.171E-01
DAV:   5    -0.108827204795E+03    0.25628E-03   -0.65340E-04  1176   0.747E-02    0.785E-02
DAV:   6    -0.108827200516E+03    0.42790E-05   -0.17453E-04   728   0.407E-02
  45 F= -.10882720E+03 E0= -.10882720E+03  d E =-.148367E-01
 curvature: -23.54 expect dE=-0.849E-01 dE for cont linesearch -0.521E-02
 ZBRENT: increasing intervall
 opt :  12.4579  next Energy=  -108.836363 (dE=-0.240E-01)
 bond charge predicted
       N       E                     dE             d eps       ncg     rms          rms(c)
DAV:   1    -0.108807743291E+03    0.19462E-01   -0.95526E+00  1008   0.759E+00    0.190E+00
DAV:   2    -0.108848314767E+03   -0.40571E-01   -0.66501E-01  1302   0.230E+00    0.792E-01
DAV:   3    -0.108842982225E+03    0.53325E-02   -0.24631E-02  1344   0.480E-01    0.585E-01
DAV:   4    -0.108839906819E+03    0.30754E-02   -0.48933E-03  1316   0.200E-01    0.359E-01
DAV:   5    -0.108838813825E+03    0.10930E-02   -0.24589E-03  1232   0.145E-01    0.157E-01
DAV:   6    -0.108838796881E+03    0.16944E-04   -0.88528E-04  1288   0.819E-02
  46 F= -.10883880E+03 E0= -.10883880E+03  d E =-.264331E-01
 curvature: -41.39 expect dE=-0.202E+00 dE for cont linesearch -0.819E-04
 trial: gam= 0.53030 g(F)=  0.315E-02 g(S)=  0.173E-02 ort = 0.226E-03 (trialstep = 0.349E+01)
 search vector abs. value=  0.124E-01
 bond charge predicted
       N       E                     dE             d eps       ncg     rms          rms(c)
DAV:   1    -0.108851779761E+03   -0.12966E-01   -0.11497E+00  1008   0.264E+00    0.872E-01
DAV:   2    -0.108852759717E+03   -0.97996E-03   -0.87352E-02  1274   0.826E-01    0.381E-01
DAV:   3    -0.108851860285E+03    0.89943E-03   -0.47446E-03  1344   0.191E-01    0.230E-01
DAV:   4    -0.108851299797E+03    0.56049E-03   -0.95760E-04  1246   0.858E-02    0.112E-01
DAV:   5    -0.108851217504E+03    0.82293E-04   -0.31800E-04   966   0.476E-02
  47 F= -.10885122E+03 E0= -.10885122E+03  d E =-.124206E-01
 trial-energy change:   -0.012421  1 .order   -0.013132   -0.017445   -0.008820
 step:   7.0552(harm=  7.0552)  dis= 0.02420  next Energy=  -108.856438 (dE=-0.176E-01)
 bond charge predicted
       N       E                     dE             d eps       ncg     rms          rms(c)
DAV:   1    -0.108854988485E+03   -0.36887E-02   -0.11862E+00  1022   0.268E+00    0.874E-01
DAV:   2    -0.108855722222E+03   -0.73374E-03   -0.89404E-02  1274   0.838E-01    0.397E-01
DAV:   3    -0.108854735733E+03    0.98649E-03   -0.48943E-03  1330   0.194E-01    0.242E-01
DAV:   4    -0.108854122586E+03    0.61315E-03   -0.10170E-03  1246   0.881E-02    0.119E-01
DAV:   5    -0.108854031284E+03    0.91302E-04   -0.35235E-04  1008   0.496E-02
  48 F= -.10885403E+03 E0= -.10885403E+03  d E =-.152344E-01
 curvature:  -8.72 expect dE=-0.308E-01 dE for cont linesearch -0.122E-03
 trial: gam= 0.88856 g(F)=  0.135E-02 g(S)=  0.218E-02 ort =-0.416E-03 (trialstep = 0.414E+01)
 search vector abs. value=  0.126E-01
 bond charge predicted
       N       E                     dE             d eps       ncg     rms          rms(c)
DAV:   1    -0.108859931216E+03   -0.58086E-02   -0.15093E+00  1008   0.299E+00    0.774E-01
DAV:   2    -0.108867054557E+03   -0.71233E-02   -0.10480E-01  1358   0.917E-01    0.346E-01
DAV:   3    -0.108866474469E+03    0.58009E-03   -0.35858E-03  1386   0.181E-01    0.261E-01
DAV:   4    -0.108866066527E+03    0.40794E-03   -0.65211E-04  1260   0.714E-02    0.141E-01
DAV:   5    -0.108865944321E+03    0.12221E-03   -0.35919E-04  1036   0.556E-02    0.498E-02
DAV:   6    -0.108865948924E+03   -0.46023E-05   -0.11143E-04   714   0.317E-02
  49 F= -.10886595E+03 E0= -.10886595E+03  d E =-.119176E-01
 ZBRENT: can't locate minimum, use default step
 trial-energy change:   -0.011918  1 .order   -0.012070   -0.013086   -0.011055
 step:  16.5495(harm= 26.6546)  dis= 0.05174  next Energy=  -108.896183 (dE=-0.422E-01)
 bond charge predicted
       N       E                     dE             d eps       ncg     rms          rms(c)
DAV:   1    -0.108821101832E+03    0.44842E-01   -0.13596E+01  1008   0.899E+00    0.254E+00
DAV:   2    -0.108886279758E+03   -0.65178E-01   -0.94857E-01  1358   0.276E+00    0.109E+00
DAV:   3    -0.108880911786E+03    0.53680E-02   -0.32290E-02  1400   0.546E-01    0.852E-01
DAV:   4    -0.108877459858E+03    0.34519E-02   -0.53774E-03  1288   0.205E-01    0.470E-01
DAV:   5    -0.108876248237E+03    0.12116E-02   -0.35360E-03  1260   0.169E-01    0.172E-01
DAV:   6    -0.108876308938E+03   -0.60702E-04   -0.11620E-03  1414   0.866E-02    0.115E-01
DAV:   7    -0.108876298708E+03    0.10230E-04   -0.10394E-04   742   0.309E-02
  50 F= -.10887630E+03 E0= -.10887630E+03  d E =-.222674E-01
 curvature: -42.24 expect dE=-0.314E+00 dE for cont linesearch -0.119E-02
 trial: gam= 1.71694 g(F)=  0.531E-02 g(S)=  0.212E-02 ort =-0.594E-03 (trialstep = 0.196E+01)
 search vector abs. value=  0.424E-01
 bond charge predicted
       N       E                     dE             d eps       ncg     rms          rms(c)
DAV:   1    -0.108886081523E+03   -0.97726E-02   -0.10619E+00  1008   0.256E+00    0.640E-01
DAV:   2    -0.108888902615E+03   -0.28211E-02   -0.76213E-02  1330   0.777E-01    0.322E-01
DAV:   3    -0.108888081263E+03    0.82135E-03   -0.27762E-03  1330   0.157E-01    0.232E-01
DAV:   4    -0.108887501038E+03    0.58023E-03   -0.78637E-04  1190   0.793E-02    0.107E-01
DAV:   5    -0.108887376201E+03    0.12484E-03   -0.32640E-04   952   0.515E-02    0.392E-02
DAV:   6    -0.108887377895E+03   -0.16938E-05   -0.65258E-05   714   0.258E-02
  51 F= -.10888738E+03 E0= -.10888738E+03  d E =-.110792E-01
 ZBRENT: can't locate minimum, use default step
 trial-energy change:   -0.011079  1 .order   -0.011123   -0.012565   -0.009680
 step:   7.8406(harm=  8.5394)  dis= 0.04417  next Energy=  -108.903668 (dE=-0.274E-01)
 bond charge predicted
       N       E                     dE             d eps       ncg     rms          rms(c)
DAV:   1    -0.108888961564E+03   -0.15854E-02   -0.94641E+00  1008   0.763E+00    0.199E+00
DAV:   2    -0.108913320163E+03   -0.24359E-01   -0.67773E-01  1330   0.232E+00    0.999E-01
DAV:   3    -0.108906046460E+03    0.72737E-02   -0.25218E-02  1330   0.472E-01    0.733E-01
DAV:   4    -0.108900845149E+03    0.52013E-02   -0.70434E-03  1218   0.237E-01    0.335E-01
DAV:   5    -0.108899755354E+03    0.10898E-02   -0.33916E-03  1302   0.158E-01    0.122E-01
DAV:   6    -0.108899766559E+03   -0.11205E-04   -0.45338E-04  1204   0.607E-02
  52 F= -.10889977E+03 E0= -.10889977E+03  d E =-.234679E-01
 curvature: -27.92 expect dE=-0.251E+00 dE for cont linesearch -0.290E-03
 trial: gam= 0.96686 g(F)=  0.425E-02 g(S)=  0.474E-02 ort =-0.664E-03 (trialstep = 0.281E+01)
 search vector abs. value=  0.473E-01
 bond charge predicted
       N       E                     dE             d eps       ncg     rms          rms(c)
DAV:   1    -0.108913901586E+03   -0.14146E-01   -0.21832E+00  1008   0.364E+00    0.929E-01
DAV:   2    -0.108922483513E+03   -0.85819E-02   -0.16556E-01  1358   0.113E+00    0.429E-01
DAV:   3    -0.108921251889E+03    0.12316E-02   -0.59538E-03  1274   0.234E-01    0.290E-01
DAV:   4    -0.108920552952E+03    0.69894E-03   -0.11701E-03  1358   0.958E-02    0.170E-01
DAV:   5    -0.108920277673E+03    0.27528E-03   -0.54488E-04  1246   0.672E-02    0.806E-02
DAV:   6    -0.108920262465E+03    0.15208E-04   -0.15917E-04   756   0.373E-02
  53 F= -.10892026E+03 E0= -.10892026E+03  d E =-.204959E-01
 ZBRENT: can't locate minimum, use default step
 trial-energy change:   -0.020496  1 .order   -0.020946   -0.023432   -0.018460
 step:  11.2365(harm= 13.2381)  dis= 0.06382  next Energy=  -108.954979 (dE=-0.552E-01)
 bond charge predicted
       N       E                     dE             d eps       ncg     rms          rms(c)
DAV:   1    -0.108883160008E+03    0.37118E-01   -0.19661E+01  1008   0.109E+01    0.296E+00
DAV:   2    -0.108958758081E+03   -0.75598E-01   -0.14828E+00  1330   0.338E+00    0.125E+00
DAV:   3    -0.108947794921E+03    0.10963E-01   -0.56194E-02  1302   0.722E-01    0.865E-01
DAV:   4    -0.108941786688E+03    0.60082E-02   -0.98792E-03  1302   0.281E-01    0.560E-01
DAV:   5    -0.108939256938E+03    0.25298E-02   -0.40725E-03  1316   0.186E-01    0.268E-01
DAV:   6    -0.108938895149E+03    0.36179E-03   -0.22401E-03  1330   0.127E-01    0.118E-01
DAV:   7    -0.108938928434E+03   -0.33285E-04   -0.33968E-04  1050   0.534E-02
  54 F= -.10893893E+03 E0= -.10893893E+03  d E =-.391619E-01
 curvature: -36.18 expect dE=-0.361E+00 dE for cont linesearch -0.162E-02
 trial: gam= 1.11680 g(F)=  0.398E-02 g(S)=  0.601E-02 ort =-0.146E-02 (trialstep = 0.323E+01)
 search vector abs. value=  0.658E-01
 bond charge predicted
       N       E                     dE             d eps       ncg     rms          rms(c)
DAV:   1    -0.108936139401E+03    0.27557E-02   -0.42637E+00  1008   0.505E+00    0.129E+00
DAV:   2    -0.108963335578E+03   -0.27196E-01   -0.31676E-01  1358   0.156E+00    0.520E-01
DAV:   3    -0.108961913288E+03    0.14223E-02   -0.73983E-03  1358   0.278E-01    0.406E-01
DAV:   4    -0.108961229413E+03    0.68388E-03   -0.14904E-03  1288   0.105E-01    0.262E-01
DAV:   5    -0.108960918958E+03    0.31045E-03   -0.63198E-04  1190   0.742E-02    0.115E-01
DAV:   6    -0.108960906709E+03    0.12249E-04   -0.39263E-04  1064   0.539E-02
  55 F= -.10896091E+03 E0= -.10896091E+03  d E =-.219783E-01
 trial-energy change:   -0.021978  1 .order   -0.021898   -0.027063   -0.016734
 step:   8.4735(harm=  8.4735)  dis= 0.05557  next Energy=  -108.974381 (dE=-0.355E-01)
 bond charge predicted
       N       E                     dE             d eps       ncg     rms          rms(c)
DAV:   1    -0.108906955722E+03    0.53963E-01   -0.11176E+01  1008   0.818E+00    0.221E+00
DAV:   2    -0.108978127145E+03   -0.71171E-01   -0.83406E-01  1358   0.253E+00    0.850E-01
DAV:   3    -0.108974439393E+03    0.36878E-02   -0.19753E-02  1344   0.454E-01    0.666E-01
DAV:   4    -0.108972649086E+03    0.17903E-02   -0.40217E-03  1302   0.174E-01    0.426E-01
DAV:   5    -0.108971942068E+03    0.70702E-03   -0.14390E-03  1302   0.112E-01    0.187E-01
DAV:   6    -0.108971889898E+03    0.52170E-04   -0.10053E-03  1288   0.865E-02    0.742E-02
DAV:   7    -0.108971897879E+03   -0.79814E-05   -0.16112E-04   714   0.388E-02
  56 F= -.10897190E+03 E0= -.10897190E+03  d E =-.329694E-01
 curvature: -33.30 expect dE=-0.240E+00 dE for cont linesearch -0.771E-03
 trial: gam= 0.54070 g(F)=  0.454E-02 g(S)=  0.268E-02 ort =-0.123E-02 (trialstep = 0.428E+01)
 search vector abs. value=  0.251E-01
 bond charge predicted
       N       E                     dE             d eps       ncg     rms          rms(c)
DAV:   1    -0.108994064383E+03   -0.22174E-01   -0.27336E+00  1008   0.406E+00    0.121E+00
DAV:   2    -0.108997624056E+03   -0.35597E-02   -0.20656E-01  1358   0.127E+00    0.624E-01
DAV:   3    -0.108995222713E+03    0.24013E-02   -0.88531E-03  1302   0.275E-01    0.420E-01
DAV:   4    -0.108993593209E+03    0.16295E-02   -0.21880E-03  1260   0.124E-01    0.191E-01
DAV:   5    -0.108993236710E+03    0.35650E-03   -0.10132E-03  1288   0.821E-02    0.712E-02
DAV:   6    -0.108993231655E+03    0.50553E-05   -0.13168E-04   714   0.351E-02
  57 F= -.10899323E+03 E0= -.10899323E+03  d E =-.213338E-01
 trial-energy change:   -0.021334  1 .order   -0.021458   -0.028063   -0.014852
 step:   9.0961(harm=  9.0961)  dis= 0.03659  next Energy=  -109.001704 (dE=-0.298E-01)
 bond charge predicted
       N       E                     dE             d eps       ncg     rms          rms(c)
DAV:   1    -0.109000141123E+03   -0.69044E-02   -0.34404E+00  1008   0.455E+00    0.134E+00
DAV:   2    -0.109004729685E+03   -0.45886E-02   -0.25858E-01  1372   0.142E+00    0.699E-01
DAV:   3    -0.109001682365E+03    0.30473E-02   -0.10802E-02  1288   0.303E-01    0.477E-01
DAV:   4    -0.108999635909E+03    0.20465E-02   -0.27434E-03  1260   0.139E-01    0.221E-01
DAV:   5    -0.108999168654E+03    0.46726E-03   -0.13085E-03  1344   0.940E-02    0.838E-02
DAV:   6    -0.108999163526E+03    0.51272E-05   -0.18204E-04   742   0.403E-02
  58 F= -.10899916E+03 E0= -.10899916E+03  d E =-.272656E-01
 curvature: -17.43 expect dE=-0.925E-01 dE for cont linesearch -0.381E-03
 trial: gam= 0.70079 g(F)=  0.256E-02 g(S)=  0.275E-02 ort =-0.740E-03 (trialstep = 0.524E+01)
 search vector abs. value=  0.166E-01
 bond charge predicted
       N       E                     dE             d eps       ncg     rms          rms(c)
DAV:   1    -0.109013871179E+03   -0.14703E-01   -0.27959E+00  1008   0.416E+00    0.108E+00
DAV:   2    -0.109019001987E+03   -0.51308E-02   -0.19660E-01  1274   0.125E+00    0.496E-01
DAV:   3    -0.109016486019E+03    0.25160E-02   -0.10974E-02  1372   0.310E-01    0.330E-01
DAV:   4    -0.109014928655E+03    0.15574E-02   -0.18460E-03  1274   0.125E-01    0.179E-01
DAV:   5    -0.109014482101E+03    0.44655E-03   -0.10493E-03  1246   0.927E-02    0.689E-02
DAV:   6    -0.109014476107E+03    0.59936E-05   -0.22626E-04   840   0.434E-02
  59 F= -.10901448E+03 E0= -.10901448E+03  d E =-.153126E-01
 trial-energy change:   -0.015313  1 .order   -0.015970   -0.025114   -0.006825
 step:   8.1969(harm=  7.2023)  dis= 0.02837  next Energy=  -109.016280 (dE=-0.171E-01)
 bond charge predicted
       N       E                     dE             d eps       ncg     rms          rms(c)
DAV:   1    -0.109014323226E+03    0.15887E-03   -0.88958E-01  1008   0.235E+00    0.606E-01
DAV:   2    -0.109015990754E+03   -0.16675E-02   -0.62936E-02  1274   0.707E-01    0.279E-01
DAV:   3    -0.109015183719E+03    0.80704E-03   -0.34814E-03  1386   0.175E-01    0.185E-01
DAV:   4    -0.109014687959E+03    0.49576E-03   -0.58531E-04  1176   0.704E-02    0.101E-01
DAV:   5    -0.109014546547E+03    0.14141E-03   -0.32888E-04  1008   0.532E-02    0.387E-02
DAV:   6    -0.109014548385E+03   -0.18371E-05   -0.86384E-05   700   0.280E-02
  60 F= -.10901455E+03 E0= -.10901455E+03  d E =-.153849E-01
 curvature:  -9.26 expect dE=-0.374E-01 dE for cont linesearch -0.663E-03
 ZBRENT: interpolating
 opt :   6.8514  next Energy=  -109.015282 (dE=-0.161E-01)
 bond charge predicted
       N       E                     dE             d eps       ncg     rms          rms(c)
DAV:   1    -0.109015340836E+03   -0.79429E-03   -0.18332E-01  1008   0.107E+00    0.264E-01
DAV:   2    -0.109015684842E+03   -0.34401E-03   -0.12940E-02  1316   0.322E-01    0.138E-01
DAV:   3    -0.109015513517E+03    0.17132E-03   -0.68410E-04  1260   0.772E-02    0.928E-02
DAV:   4    -0.109015397725E+03    0.11579E-03   -0.98633E-05   686   0.320E-02    0.464E-02
DAV:   5    -0.109015356803E+03    0.40922E-04   -0.12674E-04   672   0.339E-02
  61 F= -.10901536E+03 E0= -.10901536E+03  d E =-.161933E-01
 curvature: -10.25 expect dE=-0.279E-01 dE for cont linesearch -0.176E-04
 trial: gam= 0.44519 g(F)=  0.221E-02 g(S)=  0.512E-03 ort =-0.169E-03 (trialstep = 0.557E+01)
 search vector abs. value=  0.586E-02
 bond charge predicted
       N       E                     dE             d eps       ncg     rms          rms(c)
DAV:   1    -0.109022784380E+03   -0.73867E-02   -0.95668E-01  1008   0.236E+00    0.542E-01
DAV:   2    -0.109028790035E+03   -0.60057E-02   -0.72645E-02  1372   0.738E-01    0.268E-01
DAV:   3    -0.109028549230E+03    0.24081E-03   -0.21831E-03  1288   0.145E-01    0.183E-01
DAV:   4    -0.109028410214E+03    0.13902E-03   -0.35089E-04  1092   0.508E-02    0.120E-01
DAV:   5    -0.109028332253E+03    0.77961E-04   -0.15696E-04   742   0.394E-02
  62 F= -.10902833E+03 E0= -.10902833E+03  d E =-.129754E-01
 ZBRENT: can't locate minimum, use default step
 trial-energy change:   -0.012975  1 .order   -0.013047   -0.014723   -0.011372
 step:  22.2648(harm= 24.4568)  dis= 0.05242  next Energy=  -109.047701 (dE=-0.323E-01)
 bond charge predicted
       N       E                     dE             d eps       ncg     rms          rms(c)
DAV:   1    -0.108991157137E+03    0.37253E-01   -0.85569E+00  1008   0.706E+00    0.176E+00
DAV:   2    -0.109044419236E+03   -0.53262E-01   -0.65009E-01  1372   0.221E+00    0.813E-01
DAV:   3    -0.109042349800E+03    0.20694E-02   -0.19745E-02  1288   0.436E-01    0.563E-01
DAV:   4    -0.109041127084E+03    0.12227E-02   -0.32586E-03  1316   0.152E-01    0.365E-01
DAV:   5    -0.109040551217E+03    0.57587E-03   -0.13842E-03  1232   0.108E-01    0.191E-01
DAV:   6    -0.109040531722E+03    0.19495E-04   -0.86995E-04  1302   0.753E-02
  63 F= -.10904053E+03 E0= -.10904053E+03  d E =-.251749E-01
 curvature: -26.73 expect dE=-0.974E-01 dE for cont linesearch -0.256E-03
 trial: gam= 1.43597 g(F)=  0.236E-02 g(S)=  0.128E-02 ort =-0.237E-03 (trialstep = 0.347E+01)
 search vector abs. value=  0.150E-01
 bond charge predicted
       N       E                     dE             d eps       ncg     rms          rms(c)
DAV:   1    -0.109053213837E+03   -0.12663E-01   -0.92694E-01  1008   0.235E+00    0.817E-01
DAV:   2    -0.109051715779E+03    0.14981E-02   -0.77675E-02  1386   0.756E-01    0.436E-01
DAV:   3    -0.109050710464E+03    0.10053E-02   -0.42568E-03  1218   0.184E-01    0.262E-01
DAV:   4    -0.109050067462E+03    0.64300E-03   -0.12943E-03  1260   0.951E-02    0.130E-01
DAV:   5    -0.109049921328E+03    0.14613E-03   -0.36131E-04   966   0.507E-02    0.622E-02
DAV:   6    -0.109049910064E+03    0.11264E-04   -0.65755E-05   672   0.229E-02
  64 F= -.10904991E+03 E0= -.10904991E+03  d E =-.937834E-02
 trial-energy change:   -0.009378  1 .order   -0.009989   -0.011456   -0.008522
 step:  13.5455(harm= 13.5455)  dis= 0.05135  next Energy=  -109.062899 (dE=-0.224E-01)
 bond charge predicted
       N       E                     dE             d eps       ncg     rms          rms(c)
DAV:   1    -0.109075274751E+03   -0.25353E-01   -0.76964E+00  1008   0.677E+00    0.239E+00
DAV:   2    -0.109062733368E+03    0.12541E-01   -0.63834E-01  1372   0.217E+00    0.129E+00
DAV:   3    -0.109054634157E+03    0.80992E-02   -0.34315E-02  1218   0.522E-01    0.823E-01
DAV:   4    -0.109048961368E+03    0.56728E-02   -0.11052E-02  1260   0.278E-01    0.408E-01
DAV:   5    -0.109047832048E+03    0.11293E-02   -0.35044E-03  1274   0.151E-01    0.182E-01
DAV:   6    -0.109047773309E+03    0.58739E-04   -0.46544E-04  1120   0.542E-02
  65 F= -.10904777E+03 E0= -.10904777E+03  d E =-.724159E-02
 curvature: -30.86 expect dE=-0.323E+00 dE for cont linesearch -0.107E-01
 ZBRENT: interpolating
 opt :   8.6886  next Energy=  -109.053325 (dE=-0.128E-01)
 bond charge predicted
       N       E                     dE             d eps       ncg     rms          rms(c)
DAV:   1    -0.109061519256E+03   -0.13687E-01   -0.18146E+00  1008   0.327E+00    0.113E+00
DAV:   2    -0.109058435502E+03    0.30838E-02   -0.15040E-01  1358   0.105E+00    0.577E-01
DAV:   3    -0.109056492664E+03    0.19428E-02   -0.84529E-03  1176   0.260E-01    0.326E-01
DAV:   4    -0.109055433426E+03    0.10592E-02   -0.24611E-03  1260   0.130E-01    0.161E-01
DAV:   5    -0.109055241001E+03    0.19243E-03   -0.59155E-04  1134   0.651E-02    0.757E-02
DAV:   6    -0.109055219967E+03    0.21033E-04   -0.10311E-04   672   0.274E-02
  66 F= -.10905522E+03 E0= -.10905522E+03  d E =-.146882E-01
 curvature: -15.98 expect dE=-0.848E-01 dE for cont linesearch -0.161E-03
 trial: gam= 1.53545 g(F)=  0.240E-02 g(S)=  0.291E-02 ort =-0.389E-03 (trialstep = 0.172E+01)
 search vector abs. value=  0.396E-01
 bond charge predicted
       N       E                     dE             d eps       ncg     rms          rms(c)
DAV:   1    -0.109059005645E+03   -0.37646E-02   -0.58764E-01  1008   0.184E+00    0.459E-01
DAV:   2    -0.109062662529E+03   -0.36569E-02   -0.43880E-02  1316   0.571E-01    0.206E-01
DAV:   3    -0.109062484903E+03    0.17763E-03   -0.11809E-03  1260   0.111E-01    0.141E-01
DAV:   4    -0.109062386182E+03    0.98721E-04   -0.26102E-04  1008   0.452E-02
  67 F= -.10906239E+03 E0= -.10906239E+03  d E =-.716621E-02
 trial-energy change:   -0.007166  1 .order   -0.006939   -0.008077   -0.005802
 step:   6.0915(harm=  6.0915)  dis= 0.03724  next Energy=  -109.069560 (dE=-0.143E-01)
 bond charge predicted
       N       E                     dE             d eps       ncg     rms          rms(c)
DAV:   1    -0.109052850304E+03    0.96346E-02   -0.37930E+00  1008   0.467E+00    0.116E+00
DAV:   2    -0.109076038639E+03   -0.23188E-01   -0.27914E-01  1316   0.144E+00    0.549E-01
DAV:   3    -0.109074896350E+03    0.11423E-02   -0.75108E-03  1274   0.278E-01    0.376E-01
DAV:   4    -0.109074220384E+03    0.67597E-03   -0.18060E-03  1260   0.116E-01    0.240E-01
DAV:   5    -0.109074037941E+03    0.18244E-03   -0.48873E-04  1134   0.629E-02    0.125E-01
DAV:   6    -0.109074006562E+03    0.31379E-04   -0.40742E-04  1092   0.555E-02
  68 F= -.10907401E+03 E0= -.10907401E+03  d E =-.187866E-01
 curvature: -25.61 expect dE=-0.914E-01 dE for cont linesearch -0.278E-02
 ZBRENT: increasing intervall
 opt :  14.8437  next Energy=  -109.080718 (dE=-0.255E-01)
 bond charge predicted
       N       E                     dE             d eps       ncg     rms          rms(c)
DAV:   1    -0.108984374688E+03    0.89663E-01   -0.15268E+01  1008   0.938E+00    0.263E+00
DAV:   2    -0.109079232746E+03   -0.94858E-01   -0.11363E+00  1288   0.290E+00    0.111E+00
DAV:   3    -0.109074892477E+03    0.43403E-02   -0.30436E-02  1274   0.562E-01    0.778E-01
DAV:   4    -0.109072317156E+03    0.25753E-02   -0.69388E-03  1246   0.229E-01    0.497E-01
DAV:   5    -0.109071650841E+03    0.66631E-03   -0.18862E-03  1274   0.121E-01    0.250E-01
DAV:   6    -0.109071543436E+03    0.10741E-03   -0.14435E-03  1274   0.103E-01    0.106E-01
DAV:   7    -0.109071553072E+03   -0.96364E-05   -0.30490E-04  1036   0.508E-02
  69 F= -.10907155E+03 E0= -.10907155E+03  d E =-.163331E-01
 curvature: -61.73 expect dE=-0.398E+00 dE for cont linesearch -0.780E-02
 ZBRENT: bracketing found
 ZBRENT: interpolating
 opt :  10.3029  next Energy=  -109.078375 (dE=-0.232E-01)
 bond charge predicted
       N       E                     dE             d eps       ncg     rms          rms(c)
DAV:   1    -0.109053744903E+03    0.17799E-01   -0.40918E+00  1008   0.484E+00    0.117E+00
DAV:   2    -0.109078824266E+03   -0.25079E-01   -0.30254E-01  1274   0.149E+00    0.504E-01
DAV:   3    -0.109077512106E+03    0.13122E-02   -0.80882E-03  1274   0.293E-01    0.365E-01
DAV:   4    -0.109076899197E+03    0.61291E-03   -0.19125E-03  1232   0.118E-01    0.234E-01
DAV:   5    -0.109076718751E+03    0.18045E-03   -0.38032E-04  1078   0.578E-02    0.124E-01
DAV:   6    -0.109076664391E+03    0.54360E-04   -0.47196E-04  1106   0.594E-02
  70 F= -.10907666E+03 E0= -.10907666E+03  d E =-.214444E-01
 curvature: -34.56 expect dE=-0.149E+00 dE for cont linesearch -0.263E-05
 trial: gam= 0.30546 g(F)=  0.250E-02 g(S)=  0.182E-02 ort =-0.549E-04 (trialstep = 0.343E+01)
 search vector abs. value=  0.798E-02
 bond charge predicted
       N       E                     dE             d eps       ncg     rms          rms(c)
DAV:   1    -0.109091189729E+03   -0.14471E-01   -0.62144E-01  1008   0.198E+00    0.655E-01
DAV:   2    -0.109089025919E+03    0.21638E-02   -0.46017E-02  1260   0.616E-01    0.320E-01
DAV:   3    -0.109088217187E+03    0.80873E-03   -0.39692E-03  1246   0.168E-01    0.177E-01
DAV:   4    -0.109087802018E+03    0.41517E-03   -0.51588E-04  1246   0.674E-02    0.940E-02
DAV:   5    -0.109087677744E+03    0.12427E-03   -0.30912E-04   924   0.479E-02    0.473E-02
DAV:   6    -0.109087679207E+03   -0.14629E-05   -0.62045E-05   672   0.227E-02
  71 F= -.10908768E+03 E0= -.10908768E+03  d E =-.110148E-01
 trial-energy change:   -0.011015  1 .order   -0.011330   -0.014771   -0.007889
 step:   7.3680(harm=  7.3680)  dis= 0.01559  next Energy=  -109.092515 (dE=-0.159E-01)
 bond charge predicted
       N       E                     dE             d eps       ncg     rms          rms(c)
DAV:   1    -0.109095229185E+03   -0.75514E-02   -0.81595E-01  1008   0.227E+00    0.751E-01
DAV:   2    -0.109092497677E+03    0.27315E-02   -0.60535E-02  1274   0.705E-01    0.360E-01
DAV:   3    -0.109091417318E+03    0.10804E-02   -0.51169E-03  1260   0.191E-01    0.200E-01
DAV:   4    -0.109090876483E+03    0.54084E-03   -0.67080E-04  1316   0.764E-02    0.106E-01
DAV:   5    -0.109090716585E+03    0.15990E-03   -0.40088E-04  1036   0.538E-02    0.525E-02
DAV:   6    -0.109090717861E+03   -0.12761E-05   -0.66359E-05   672   0.240E-02
  72 F= -.10909072E+03 E0= -.10909072E+03  d E =-.140535E-01
 curvature:  -6.83 expect dE=-0.209E-01 dE for cont linesearch -0.142E-03
 trial: gam= 0.78493 g(F)=  0.173E-02 g(S)=  0.133E-02 ort =-0.407E-03 (trialstep = 0.422E+01)
 search vector abs. value=  0.734E-02
 bond charge predicted
       N       E                     dE             d eps       ncg     rms          rms(c)
DAV:   1    -0.109095868663E+03   -0.51521E-02   -0.87865E-01  1008   0.232E+00    0.623E-01
DAV:   2    -0.109100011664E+03   -0.41430E-02   -0.65950E-02  1302   0.715E-01    0.304E-01
DAV:   3    -0.109099653178E+03    0.35849E-03   -0.27493E-03  1302   0.158E-01    0.209E-01
DAV:   4    -0.109099376572E+03    0.27661E-03   -0.37266E-04  1078   0.565E-02    0.128E-01
DAV:   5    -0.109099227704E+03    0.14887E-03   -0.33538E-04   994   0.520E-02    0.583E-02
DAV:   6    -0.109099225175E+03    0.25287E-05   -0.87236E-05   672   0.271E-02
  73 F= -.10909923E+03 E0= -.10909923E+03  d E =-.850731E-02
 trial-energy change:   -0.008507  1 .order   -0.008392   -0.011571   -0.005214
 step:   7.6807(harm=  7.6807)  dis= 0.02220  next Energy=  -109.101248 (dE=-0.105E-01)
 bond charge predicted
       N       E                     dE             d eps       ncg     rms          rms(c)
DAV:   1    -0.109098742575E+03    0.48513E-03   -0.59009E-01  1036   0.190E+00    0.520E-01
DAV:   2    -0.109101520497E+03   -0.27779E-02   -0.44498E-02  1288   0.587E-01    0.242E-01
DAV:   3    -0.109101296807E+03    0.22369E-03   -0.19450E-03  1330   0.133E-01    0.158E-01
DAV:   4    -0.109101111477E+03    0.18533E-03   -0.22702E-04   812   0.470E-02    0.966E-02
DAV:   5    -0.109101019528E+03    0.91949E-04   -0.32271E-04   938   0.495E-02
  74 F= -.10910102E+03 E0= -.10910102E+03  d E =-.103017E-01
 curvature: -10.28 expect dE=-0.198E-01 dE for cont linesearch -0.260E-04
 trial: gam= 0.36550 g(F)=  0.946E-03 g(S)=  0.979E-03 ort =-0.136E-03 (trialstep = 0.491E+01)
 search vector abs. value=  0.281E-02
 bond charge predicted
       N       E                     dE             d eps       ncg     rms          rms(c)
DAV:   1    -0.109107639327E+03   -0.65278E-02   -0.56431E-01  1008   0.191E+00    0.571E-01
DAV:   2    -0.109108116423E+03   -0.47710E-03   -0.39526E-02  1232   0.567E-01    0.260E-01
DAV:   3    -0.109107397852E+03    0.71857E-03   -0.20432E-03  1540   0.132E-01    0.171E-01
DAV:   4    -0.109106936351E+03    0.46150E-03   -0.57188E-04  1176   0.663E-02    0.772E-02
DAV:   5    -0.109106843217E+03    0.93134E-04   -0.22818E-04   742   0.428E-02
  75 F= -.10910684E+03 E0= -.10910684E+03  d E =-.582369E-02
 trial-energy change:   -0.005824  1 .order   -0.006240   -0.009215   -0.003265
 step:   7.6072(harm=  7.6072)  dis= 0.01057  next Energy=  -109.108155 (dE=-0.714E-02)
 bond charge predicted
       N       E                     dE             d eps       ncg     rms          rms(c)
DAV:   1    -0.109107882425E+03   -0.94607E-03   -0.16850E-01  1022   0.104E+00    0.322E-01
DAV:   2    -0.109107982385E+03   -0.99960E-04   -0.11751E-02  1232   0.308E-01    0.137E-01
DAV:   3    -0.109107754715E+03    0.22767E-03   -0.61139E-04  1344   0.724E-02    0.861E-02
DAV:   4    -0.109107615386E+03    0.13933E-03   -0.13609E-04   686   0.362E-02    0.393E-02
DAV:   5    -0.109107587554E+03    0.27832E-04   -0.12902E-04   672   0.324E-02
  76 F= -.10910759E+03 E0= -.10910759E+03  d E =-.656803E-02
 curvature:  -5.69 expect dE=-0.887E-02 dE for cont linesearch -0.828E-05
 trial: gam= 0.84462 g(F)=  0.413E-03 g(S)=  0.115E-02 ort =-0.639E-04 (trialstep = 0.443E+01)
 search vector abs. value=  0.345E-02
 bond charge predicted
       N       E                     dE             d eps       ncg     rms          rms(c)
DAV:   1    -0.109114536084E+03   -0.69207E-02   -0.48082E-01  1008   0.173E+00    0.587E-01
DAV:   2    -0.109113398602E+03    0.11375E-02   -0.37939E-02  1274   0.539E-01    0.296E-01
DAV:   3    -0.109112664538E+03    0.73406E-03   -0.21228E-03  1260   0.135E-01    0.176E-01
DAV:   4    -0.109112288948E+03    0.37559E-03   -0.73265E-04  1288   0.722E-02    0.867E-02
DAV:   5    -0.109112220917E+03    0.68031E-04   -0.15944E-04   700   0.362E-02
  77 F= -.10911222E+03 E0= -.10911222E+03  d E =-.463336E-02
 trial-energy change:   -0.004633  1 .order   -0.005088   -0.006665   -0.003511
 step:   9.3654(harm=  9.3654)  dis= 0.01240  next Energy=  -109.114630 (dE=-0.704E-02)
 bond charge predicted
       N       E                     dE             d eps       ncg     rms          rms(c)
DAV:   1    -0.109115593583E+03   -0.33046E-02   -0.58712E-01  1022   0.191E+00    0.645E-01
DAV:   2    -0.109114056456E+03    0.15371E-02   -0.45960E-02  1260   0.592E-01    0.317E-01
DAV:   3    -0.109113138896E+03    0.91756E-03   -0.25915E-03  1260   0.149E-01    0.189E-01
DAV:   4    -0.109112683217E+03    0.45568E-03   -0.87687E-04  1302   0.790E-02    0.982E-02
DAV:   5    -0.109112596840E+03    0.86377E-04   -0.19256E-04   714   0.397E-02
  78 F= -.10911260E+03 E0= -.10911260E+03  d E =-.500929E-02
 curvature: -10.75 expect dE=-0.190E-01 dE for cont linesearch -0.190E-03
 trial: gam= 1.11819 g(F)=  0.710E-03 g(S)=  0.105E-02 ort =-0.247E-03 (trialstep = 0.338E+01)
 search vector abs. value=  0.553E-02
 bond charge predicted
       N       E                     dE             d eps       ncg     rms          rms(c)
DAV:   1    -0.109116175373E+03   -0.34922E-02   -0.43824E-01  1008   0.164E+00    0.468E-01
DAV:   2    -0.109117154018E+03   -0.97865E-03   -0.30949E-02  1218   0.490E-01    0.200E-01
DAV:   3    -0.109116678877E+03    0.47514E-03   -0.12003E-03  1344   0.108E-01    0.135E-01
DAV:   4    -0.109116409578E+03    0.26930E-03   -0.44390E-04  1092   0.588E-02    0.813E-02
DAV:   5    -0.109116350382E+03    0.59196E-04   -0.19968E-04   686   0.407E-02
  79 F= -.10911635E+03 E0= -.10911635E+03  d E =-.375354E-02
 trial-energy change:   -0.003754  1 .order   -0.004313   -0.005035   -0.003591
 step:  11.7948(harm= 11.7948)  dis= 0.02080  next Energy=  -109.121373 (dE=-0.878E-02)
 bond charge predicted
       N       E                     dE             d eps       ncg     rms          rms(c)
DAV:   1    -0.109117181876E+03   -0.77230E-03   -0.27377E+00  1008   0.409E+00    0.117E+00
DAV:   2    -0.109123357570E+03   -0.61757E-02   -0.19367E-01  1232   0.123E+00    0.512E-01
DAV:   3    -0.109120347903E+03    0.30097E-02   -0.74777E-03  1358   0.271E-01    0.343E-01
DAV:   4    -0.109118656567E+03    0.16913E-02   -0.28902E-03  1260   0.147E-01    0.205E-01
DAV:   5    -0.109118283605E+03    0.37296E-03   -0.11312E-03  1274   0.899E-02    0.789E-02
DAV:   6    -0.109118251579E+03    0.32026E-04   -0.17150E-04   700   0.384E-02
  80 F= -.10911825E+03 E0= -.10911825E+03  d E =-.565474E-02
 curvature: -21.91 expect dE=-0.570E-01 dE for cont linesearch -0.727E-03
 ZBRENT: interpolating
 opt :   9.3760  next Energy=  -109.118770 (dE=-0.617E-02)
 bond charge predicted
       N       E                     dE             d eps       ncg     rms          rms(c)
DAV:   1    -0.109118996730E+03   -0.71312E-03   -0.23001E-01  1022   0.118E+00    0.339E-01
DAV:   2    -0.109119565900E+03   -0.56917E-03   -0.16248E-02  1204   0.358E-01    0.167E-01
DAV:   3    -0.109119325594E+03    0.24031E-03   -0.62823E-04  1260   0.787E-02    0.111E-01
DAV:   4    -0.109119153795E+03    0.17180E-03   -0.26507E-04   910   0.465E-02    0.626E-02
DAV:   5    -0.109119116949E+03    0.36846E-04   -0.12573E-04   630   0.320E-02
  81 F= -.10911912E+03 E0= -.10911912E+03  d E =-.652011E-02
 curvature: -15.61 expect dE=-0.320E-01 dE for cont linesearch -0.958E-04
 trial: gam= 0.88212 g(F)=  0.114E-02 g(S)=  0.908E-03 ort =-0.184E-03 (trialstep = 0.420E+01)
 search vector abs. value=  0.603E-02
 bond charge predicted
       N       E                     dE             d eps       ncg     rms          rms(c)
DAV:   1    -0.109122672052E+03   -0.35183E-02   -0.66443E-01  1008   0.203E+00    0.556E-01
DAV:   2    -0.109124902273E+03   -0.22302E-02   -0.49478E-02  1246   0.630E-01    0.294E-01
DAV:   3    -0.109124606241E+03    0.29603E-03   -0.20943E-03  1372   0.132E-01    0.200E-01
DAV:   4    -0.109124328104E+03    0.27814E-03   -0.40960E-04  1064   0.576E-02    0.945E-02
DAV:   5    -0.109124264837E+03    0.63267E-04   -0.17632E-04   672   0.383E-02
  82 F= -.10912426E+03 E0= -.10912426E+03  d E =-.514789E-02
 trial-energy change:   -0.005148  1 .order   -0.005100   -0.007929   -0.002271
 step:   5.8912(harm=  5.8912)  dis= 0.01256  next Energy=  -109.124672 (dE=-0.556E-02)
 bond charge predicted
       N       E                     dE             d eps       ncg     rms          rms(c)
DAV:   1    -0.109124514908E+03   -0.18680E-03   -0.10473E-01  1022   0.810E-01    0.228E-01
DAV:   2    -0.109124837397E+03   -0.32249E-03   -0.79568E-03  1302   0.250E-01    0.112E-01
DAV:   3    -0.109124784014E+03    0.53382E-04   -0.30783E-04  1050   0.517E-02
  83 F= -.10912478E+03 E0= -.10912478E+03  d E =-.566706E-02
 curvature:  -9.41 expect dE=-0.931E-02 dE for cont linesearch -0.297E-04
 trial: gam= 0.27442 g(F)=  0.738E-03 g(S)=  0.251E-03 ort = 0.138E-03 (trialstep = 0.454E+01)
 search vector abs. value=  0.152E-02
 bond charge predicted
       N       E                     dE             d eps       ncg     rms          rms(c)
DAV:   1    -0.109127803563E+03   -0.29662E-02   -0.15608E-01  1008   0.102E+00    0.286E-01
DAV:   2    -0.109128478815E+03   -0.67525E-03   -0.13401E-02  1330   0.328E-01    0.149E-01
DAV:   3    -0.109128406791E+03    0.72024E-04   -0.87033E-04  1274   0.845E-02
  84 F= -.10912841E+03 E0= -.10912841E+03  d E =-.362278E-02
 trial-energy change:   -0.003623  1 .order   -0.003657   -0.004664   -0.002650
 step:  10.5174(harm= 10.5174)  dis= 0.01365  next Energy=  -109.130184 (dE=-0.540E-02)
 bond charge predicted
       N       E                     dE             d eps       ncg     rms          rms(c)
DAV:   1    -0.109128321833E+03    0.15698E-03   -0.26712E-01  1008   0.133E+00    0.362E-01
DAV:   2    -0.109129056640E+03   -0.73481E-03   -0.22137E-02  1330   0.427E-01    0.211E-01
DAV:   3    -0.109128849762E+03    0.20688E-03   -0.15941E-03  1372   0.113E-01    0.124E-01
DAV:   4    -0.109128672840E+03    0.17692E-03   -0.18303E-04   728   0.420E-02    0.737E-02
DAV:   5    -0.109128590253E+03    0.82587E-04   -0.36410E-04  1078   0.550E-02
  85 F= -.10912859E+03 E0= -.10912859E+03  d E =-.380624E-02
 curvature:  -7.78 expect dE=-0.589E-02 dE for cont linesearch -0.581E-03
 ZBRENT: interpolating
 opt :   8.3307  next Energy=  -109.128958 (dE=-0.417E-02)
 bond charge predicted
       N       E                     dE             d eps       ncg     rms          rms(c)
DAV:   1    -0.109128980152E+03   -0.30731E-03   -0.36384E-02  1036   0.490E-01    0.128E-01
DAV:   2    -0.109129145448E+03   -0.16530E-03   -0.31121E-03  1316   0.159E-01    0.684E-02
DAV:   3    -0.109129120212E+03    0.25235E-04   -0.14239E-04   700   0.384E-02
  86 F= -.10912912E+03 E0= -.10912912E+03  d E =-.433620E-02
 curvature:  -4.93 expect dE=-0.215E-02 dE for cont linesearch -0.503E-04
 ZBRENT: interpolating
 opt :   7.2746  next Energy=  -109.129197 (dE=-0.441E-02)
 bond charge predicted
       N       E                     dE             d eps       ncg     rms          rms(c)
DAV:   1    -0.109129104533E+03    0.40915E-04   -0.79730E-03  1050   0.231E-01    0.564E-02
DAV:   2    -0.109129103798E+03    0.73520E-06   -0.62652E-04  1302   0.727E-02
  87 F= -.10912910E+03 E0= -.10912910E+03  d E =-.431978E-02
 curvature:  -7.58 expect dE=-0.232E-02 dE for cont linesearch -0.135E-04
 trial: gam= 0.31415 g(F)=  0.189E-03 g(S)=  0.117E-03 ort = 0.521E-04 (trialstep = 0.509E+01)
 search vector abs. value=  0.489E-03
 reached required accuracy - stopping structural energy minimisation
