CIS                                     
           1
     4.244012    0.000000    0.000000
     0.000000   13.413409    0.040872
     0.000000    1.229593   15.510894
   Na   Bi   S 
   4   8  14
Direct configuration=     1
   0.25000000  0.56849279  0.81209004
   0.75000000  0.43150721  0.18790996
   0.75000000  0.82875309  0.62285478
   0.25000000  0.17124691  0.37714522
   0.25000000  0.94612343  0.87977359
   0.75000000  0.05387657  0.12022641
   0.25000000  0.83155606  0.27488852
   0.75000000  0.16844394  0.72511148
   0.75000000  0.73146608  0.05056020
   0.25000000  0.26853392  0.94943980
   0.75000000  0.60668333  0.42829721
   0.25000000  0.39331667  0.57170279
   0.25000000  0.45798711  0.39320698
   0.75000000  0.54201289  0.60679302
   0.25000000  0.59813812  0.03793755
   0.75000000  0.40186188  0.96206245
   0.75000000  0.98566906  0.29540055
   0.25000000  0.01433094  0.70459945
   0.75000000  0.79785506  0.86286623
   0.25000000  0.20214494  0.13713377
   0.25000000  0.75545718  0.45156839
   0.75000000  0.24454282  0.54843161
   0.75000000  0.69160821  0.24041933
   0.25000000  0.30839179  0.75958067
   0.25000000  0.90357682  0.08303846
   0.75000000  0.09642318  0.91696154
CIS                                     
           1
     4.202121    0.000000    0.000000
     0.000000   13.269165    0.022220
     0.000000    1.195351   15.330676
   Na   Bi   S 
   4   8  14
Direct configuration=     2
   0.25000000  0.56830613  0.81232516
   0.75000000  0.43169387  0.18767484
   0.75000000  0.82886350  0.62281653
   0.25000000  0.17113650  0.37718347
   0.25000000  0.94608309  0.87951445
   0.75000000  0.05391691  0.12048555
   0.25000000  0.83145793  0.27499846
   0.75000000  0.16854207  0.72500154
   0.75000000  0.73098268  0.05051742
   0.25000000  0.26901732  0.94948258
   0.75000000  0.60669793  0.42844334
   0.25000000  0.39330207  0.57155666
   0.25000000  0.45811667  0.39347119
   0.75000000  0.54188333  0.60652881
   0.25000000  0.59864112  0.03790484
   0.75000000  0.40135888  0.96209516
   0.75000000  0.98577414  0.29510203
   0.25000000  0.01422586  0.70489797
   0.75000000  0.79811877  0.86297503
   0.25000000  0.20188123  0.13702497
   0.25000000  0.75528199  0.45146144
   0.75000000  0.24471801  0.54853856
   0.75000000  0.69188492  0.24042782
   0.25000000  0.30811508  0.75957218
   0.25000000  0.90366749  0.08313511
   0.75000000  0.09633251  0.91686489
CIS                                     
           1
     4.104639    0.000000    0.000000
     0.000000   12.933498   -0.021184
     0.000000    1.115667   14.911294
   Na   Bi   S 
   4   8  14
Direct configuration=     3
   0.25000000  0.56786791  0.81287822
   0.75000000  0.43213209  0.18712178
   0.75000000  0.82912305  0.62272677
   0.25000000  0.17087695  0.37727323
   0.25000000  0.94598729  0.87890419
   0.75000000  0.05401271  0.12109581
   0.25000000  0.83122749  0.27525703
   0.75000000  0.16877251  0.72474297
   0.75000000  0.72984551  0.05041534
   0.25000000  0.27015449  0.94958466
   0.75000000  0.60673278  0.42878742
   0.25000000  0.39326722  0.57121258
   0.25000000  0.45842233  0.39409363
   0.75000000  0.54157767  0.60590637
   0.25000000  0.59982411  0.03782922
   0.75000000  0.40017589  0.96217078
   0.75000000  0.98602024  0.29439949
   0.25000000  0.01397976  0.70560051
   0.75000000  0.79873945  0.86323192
   0.25000000  0.20126055  0.13676808
   0.25000000  0.75486953  0.45120916
   0.75000000  0.24513047  0.54879084
   0.75000000  0.69253579  0.24044858
   0.25000000  0.30746421  0.75955142
   0.25000000  0.90388111  0.08336291
   0.75000000  0.09611889  0.91663709
CIS                                     
           1
     4.071986    0.000000    0.000000
     0.000000   12.821062   -0.035722
     0.000000    1.088976   14.770818
   Na   Bi   S 
   4   8  14
Direct configuration=     4
   0.25000000  0.56771805  0.81306826
   0.75000000  0.43228195  0.18693174
   0.75000000  0.82921212  0.62269611
   0.25000000  0.17078788  0.37730389
   0.25000000  0.94595361  0.87869394
   0.75000000  0.05404639  0.12130606
   0.25000000  0.83114864  0.27534585
   0.75000000  0.16885136  0.72465415
   0.75000000  0.72945468  0.05037906
   0.25000000  0.27054532  0.94962094
   0.75000000  0.60674518  0.42890595
   0.25000000  0.39325482  0.57109405
   0.25000000  0.45852813  0.39430828
   0.75000000  0.54147187  0.60569172
   0.25000000  0.60023046  0.03780434
   0.75000000  0.39976954  0.96219566
   0.75000000  0.98610391  0.29415779
   0.25000000  0.01389609  0.70584221
   0.75000000  0.79895301  0.86332100
   0.25000000  0.20104699  0.13667900
   0.25000000  0.75472751  0.45112187
   0.75000000  0.24527249  0.54887813
   0.75000000  0.69275944  0.24045637
   0.25000000  0.30724056  0.75954363
   0.25000000  0.90395479  0.08344158
   0.75000000  0.09604521  0.91655842
CIS                                     
           1
     4.076539    0.000000    0.000000
     0.000000   12.836739   -0.033695
     0.000000    1.092698   14.790404
   Na   Bi   S 
   4   8  14
Direct configuration=     5
   0.25000000  0.56773909  0.81304153
   0.75000000  0.43226091  0.18695847
   0.75000000  0.82919960  0.62270041
   0.25000000  0.17080040  0.37729959
   0.25000000  0.94595838  0.87872354
   0.75000000  0.05404162  0.12127646
   0.25000000  0.83115972  0.27533336
   0.75000000  0.16884028  0.72466664
   0.75000000  0.72950965  0.05038422
   0.25000000  0.27049035  0.94961578
   0.75000000  0.60674341  0.42888927
   0.25000000  0.39325659  0.57111073
   0.25000000  0.45851321  0.39427805
   0.75000000  0.54148679  0.60572195
   0.25000000  0.60017331  0.03780779
   0.75000000  0.39982669  0.96219221
   0.75000000  0.98609219  0.29419180
   0.25000000  0.01390781  0.70580820
   0.75000000  0.79892296  0.86330843
   0.25000000  0.20107704  0.13669157
   0.25000000  0.75474750  0.45113417
   0.75000000  0.24525250  0.54886583
   0.75000000  0.69272798  0.24045524
   0.25000000  0.30727202  0.75954476
   0.25000000  0.90394442  0.08343049
   0.75000000  0.09605558  0.91656951
CIS                                     
           1
     4.077611    0.000000    0.000000
     0.000000   12.811740   -0.067452
     0.000000    1.051562   14.747032
   Na   Bi   S 
   4   8  14
Direct configuration=     6
   0.25000000  0.56747173  0.81344337
   0.75000000  0.43252827  0.18655663
   0.75000000  0.82939832  0.62265251
   0.25000000  0.17060168  0.37734749
   0.25000000  0.94583048  0.87885481
   0.75000000  0.05416952  0.12114519
   0.25000000  0.83136467  0.27533495
   0.75000000  0.16863533  0.72466505
   0.75000000  0.72966939  0.05035654
   0.25000000  0.27033061  0.94964346
   0.75000000  0.60683684  0.42877108
   0.25000000  0.39316316  0.57122892
   0.25000000  0.45816426  0.39378945
   0.75000000  0.54183574  0.60621055
   0.25000000  0.59964795  0.03759194
   0.75000000  0.40035205  0.96240806
   0.75000000  0.98672893  0.29473371
   0.25000000  0.01327107  0.70526629
   0.75000000  0.79850249  0.86282071
   0.25000000  0.20149751  0.13717929
   0.25000000  0.75497908  0.45189879
   0.75000000  0.24502092  0.54810121
   0.75000000  0.69227237  0.24039778
   0.25000000  0.30772763  0.75960222
   0.25000000  0.90390462  0.08343088
   0.75000000  0.09609538  0.91656912
CIS                                     
           1
     4.080826    0.000000    0.000000
     0.000000   12.736746   -0.168723
     0.000000    0.928153   14.616916
   Na   Bi   S 
   4   8  14
Direct configuration=     7
   0.25000000  0.56667179  0.81465059
   0.75000000  0.43332821  0.18534941
   0.75000000  0.82999510  0.62250974
   0.25000000  0.17000490  0.37749026
   0.25000000  0.94544728  0.87924891
   0.75000000  0.05455272  0.12075109
   0.25000000  0.83198062  0.27534117
   0.75000000  0.16801938  0.72465883
   0.75000000  0.73014918  0.05027433
   0.25000000  0.26985082  0.94972567
   0.75000000  0.60711656  0.42841613
   0.25000000  0.39288344  0.57158387
   0.25000000  0.45711121  0.39231689
   0.75000000  0.54288879  0.60768311
   0.25000000  0.59806714  0.03693887
   0.75000000  0.40193286  0.96306113
   0.75000000  0.98864736  0.29636862
   0.25000000  0.01135264  0.70363138
   0.75000000  0.79723449  0.86135034
   0.25000000  0.20276551  0.13864966
   0.25000000  0.75568184  0.45420100
   0.75000000  0.24431816  0.54579900
   0.75000000  0.69090261  0.24022175
   0.25000000  0.30909739  0.75977825
   0.25000000  0.90378501  0.08343176
   0.75000000  0.09621499  0.91656824
CIS                                     
           1
     4.087256    0.000000    0.000000
     0.000000   12.586756   -0.371264
     0.000000    0.681336   14.356683
   Na   Bi   S 
   4   8  14
Direct configuration=     8
   0.25000000  0.56508513  0.81707561
   0.75000000  0.43491487  0.18292439
   0.75000000  0.83119251  0.62222997
   0.25000000  0.16880749  0.37777003
   0.25000000  0.94468386  0.88003886
   0.75000000  0.05531614  0.11996114
   0.25000000  0.83321927  0.27536233
   0.75000000  0.16678073  0.72463767
   0.75000000  0.73111244  0.05011516
   0.25000000  0.26888756  0.94988484
   0.75000000  0.60767259  0.42770375
   0.25000000  0.39232741  0.57229625
   0.25000000  0.45496718  0.38933052
   0.75000000  0.54503282  0.61066948
   0.25000000  0.59487673  0.03559886
   0.75000000  0.40512327  0.96440114
   0.75000000  0.99253440  0.29969470
   0.25000000  0.00746560  0.70030530
   0.75000000  0.79465828  0.85836537
   0.25000000  0.20534172  0.14163463
   0.25000000  0.75713653  0.45885673
   0.75000000  0.24286347  0.54114327
   0.75000000  0.68814518  0.23984737
   0.25000000  0.31185482  0.76015263
   0.25000000  0.90354452  0.08343187
   0.75000000  0.09645548  0.91656813
CIS                                     
           1
     4.100116    0.000000    0.000000
     0.000000   12.286778   -0.776346
     0.000000    0.187701   13.836219
   Na   Bi   S 
   4   8  14
Direct configuration=     9
   0.25000000  0.56196668  0.82197022
   0.75000000  0.43803332  0.17802978
   0.75000000  0.83360359  0.62169451
   0.25000000  0.16639641  0.37830549
   0.25000000  0.94316942  0.88162616
   0.75000000  0.05683058  0.11837384
   0.25000000  0.83572494  0.27544110
   0.75000000  0.16427506  0.72455890
   0.75000000  0.73305449  0.04981861
   0.25000000  0.26694551  0.95018139
   0.75000000  0.60877053  0.42626847
   0.25000000  0.39122947  0.57373153
   0.25000000  0.45052025  0.38318493
   0.75000000  0.54947975  0.61681507
   0.25000000  0.58837498  0.03277711
   0.75000000  0.41162502  0.96722289
   0.75000000  0.00051881  0.30658256
   0.25000000 -0.00051881  0.69341744
   0.75000000  0.78933744  0.85221017
   0.25000000  0.21066256  0.14778983
   0.25000000  0.76025151  0.46838331
   0.75000000  0.23974849  0.53161669
   0.75000000  0.68255497  0.23900527
   0.25000000  0.31744503  0.76099473
   0.25000000  0.90305820  0.08342517
   0.75000000  0.09694180  0.91657483
CIS                                     
           1
     4.093216    0.000000    0.000000
     0.000000   12.447741   -0.558986
     0.000000    0.452577   14.115490
   Na   Bi   S 
   4   8  14
Direct configuration=    10
   0.25000000  0.56357613  0.81929048
   0.75000000  0.43642387  0.18070952
   0.75000000  0.83229024  0.62195366
   0.25000000  0.16770976  0.37804634
   0.25000000  0.94396780  0.88076540
   0.75000000  0.05603220  0.11923460
   0.25000000  0.83434658  0.27535598
   0.75000000  0.16565342  0.72464402
   0.75000000  0.73199376  0.04995216
   0.25000000  0.26800624  0.95004784
   0.75000000  0.60819776  0.42705125
   0.25000000  0.39180224  0.57294875
   0.25000000  0.45309401  0.38668697
   0.75000000  0.54690599  0.61331303
   0.25000000  0.59200715  0.03445835
   0.75000000  0.40799285  0.96554165
   0.75000000 -0.00401431  0.30260824
   0.25000000  0.00401431  0.69739176
   0.75000000  0.79239156  0.85573193
   0.25000000  0.20760844  0.14426807
   0.25000000  0.75833778  0.46301671
   0.75000000  0.24166222  0.53698329
   0.75000000  0.68564428  0.23956697
   0.25000000  0.31435572  0.76043303
   0.25000000  0.90332554  0.08343690
   0.75000000  0.09667446  0.91656310
CIS                                     
           1
     4.101067    0.000000    0.000000
     0.000000   12.431827   -0.604864
     0.000000    0.399676   14.108858
   Na   Bi   S 
   4   8  14
Direct configuration=    11
   0.25000000  0.56296063  0.82041594
   0.75000000  0.43703937  0.17958406
   0.75000000  0.83276866  0.62181301
   0.25000000  0.16723134  0.37818699
   0.25000000  0.94238349  0.87984563
   0.75000000  0.05761651  0.12015437
   0.25000000  0.83492126  0.27724419
   0.75000000  0.16507874  0.72275581
   0.75000000  0.73062151  0.04899831
   0.25000000  0.26937849  0.95100169
   0.75000000  0.60762621  0.42762098
   0.25000000  0.39237379  0.57237902
   0.25000000  0.45199979  0.38515571
   0.75000000  0.54800021  0.61484429
   0.25000000  0.59141730  0.03343662
   0.75000000  0.40858270  0.96656338
   0.75000000 -0.00233474  0.30406063
   0.25000000  0.00233474  0.69593937
   0.75000000  0.79120665  0.85413786
   0.25000000  0.20879335  0.14586214
   0.25000000  0.75981479  0.46477543
   0.75000000  0.24018521  0.53522457
   0.75000000  0.68469940  0.23915452
   0.25000000  0.31530060  0.76084548
   0.25000000  0.90310029  0.08333380
   0.75000000  0.09689971  0.91666620
CIS                                     
           1
     4.121073    0.000000    0.000000
     0.000000   12.391280   -0.721759
     0.000000    0.264887   14.091960
   Na   Bi   S 
   4   8  14
Direct configuration=    12
   0.25000000  0.56140265  0.82328026
   0.75000000  0.43859735  0.17671974
   0.75000000  0.83398757  0.62145841
   0.25000000  0.16601243  0.37854159
   0.25000000  0.93833204  0.87748724
   0.75000000  0.06166796  0.12251276
   0.25000000  0.83640763  0.28206326
   0.75000000  0.16359237  0.71793674
   0.75000000  0.72711065  0.04655479
   0.25000000  0.27288935  0.95344521
   0.75000000  0.60617434  0.42906875
   0.25000000  0.39382566  0.57093125
   0.25000000  0.44919197  0.38124236
   0.75000000  0.55080803  0.61875764
   0.25000000  0.58990158  0.03082662
   0.75000000  0.41009842  0.96917338
   0.75000000  0.00196544  0.30777782
   0.25000000 -0.00196544  0.69222218
   0.75000000  0.78816678  0.85006361
   0.25000000  0.21183322  0.14993639
   0.25000000  0.76360157  0.46927197
   0.75000000  0.23639843  0.53072803
   0.75000000  0.68228460  0.23809496
   0.25000000  0.31771540  0.76190504
   0.25000000  0.90252458  0.08306904
   0.75000000  0.09747542  0.91693096
CIS                                     
           1
     4.128863    0.000000    0.000000
     0.000000   12.375494   -0.767272
     0.000000    0.212406   14.085381
   Na   Bi   S 
   4   8  14
Direct configuration=    13
   0.25000000  0.56080627  0.82439232
   0.75000000  0.43919373  0.17560768
   0.75000000  0.83446212  0.62132412
   0.25000000  0.16553788  0.37867588
   0.25000000  0.93673978  0.87655406
   0.75000000  0.06326022  0.12344594
   0.25000000  0.83700847  0.28394775
   0.75000000  0.16299153  0.71605225
   0.75000000  0.72572916  0.04559019
   0.25000000  0.27427084  0.95440981
   0.75000000  0.60561342  0.42962865
   0.25000000  0.39438658  0.57037135
   0.25000000  0.44807885  0.37970678
   0.75000000  0.55192115  0.62029322
   0.25000000  0.58929859  0.02980365
   0.75000000  0.41070141  0.97019635
   0.75000000  0.00366058  0.30924180
   0.25000000 -0.00366058  0.69075820
   0.75000000  0.78696235  0.84846451
   0.25000000  0.21303765  0.15153549
   0.25000000  0.76509949  0.47103823
   0.75000000  0.23490051  0.52896177
   0.75000000  0.68133701  0.23767375
   0.25000000  0.31866299  0.76232625
   0.25000000  0.90229861  0.08296389
   0.75000000  0.09770139  0.91703611
CIS                                     
           1
     4.092967    0.000000    0.000000
     0.000000   12.267457   -0.743335
     0.000000    0.229797   13.956353
   Na   Bi   S 
   4   8  14
Direct configuration=    14
   0.25000000  0.56009799  0.82569735
   0.75000000  0.43990201  0.17430265
   0.75000000  0.83498607  0.62114658
   0.25000000  0.16501393  0.37885342
   0.25000000  0.93512075  0.87447301
   0.75000000  0.06487925  0.12552699
   0.25000000  0.83747519  0.28711541
   0.75000000  0.16252481  0.71288459
   0.75000000  0.72374848  0.04417011
   0.25000000  0.27625152  0.95582989
   0.75000000  0.60484918  0.43114120
   0.25000000  0.39515082  0.56885880
   0.25000000  0.44762600  0.37882055
   0.75000000  0.55237400  0.62117945
   0.25000000  0.58898687  0.02778145
   0.75000000  0.41101313  0.97221855
   0.75000000  0.00512449  0.31055561
   0.25000000 -0.00512449  0.68944439
   0.75000000  0.78485608  0.84643588
   0.25000000  0.21514392  0.15356412
   0.25000000  0.76659698  0.47197230
   0.75000000  0.23340302  0.52802770
   0.75000000  0.68168886  0.23779372
   0.25000000  0.31831114  0.76220628
   0.25000000  0.90240289  0.08325994
   0.75000000  0.09759711  0.91674006
CIS                                     
           1
     4.081700    0.000000    0.000000
     0.000000   12.233546   -0.735821
     0.000000    0.235255   13.915854
   Na   Bi   S 
   4   8  14
Direct configuration=    15
   0.25000000  0.55987306  0.82611099
   0.75000000  0.44012694  0.17388901
   0.75000000  0.83515207  0.62109014
   0.25000000  0.16484793  0.37890986
   0.25000000  0.93460912  0.87381447
   0.75000000  0.06539088  0.12618553
   0.25000000  0.83762140  0.28811859
   0.75000000  0.16237860  0.71188141
   0.75000000  0.72312201  0.04372107
   0.25000000  0.27687799  0.95627893
   0.75000000  0.60460644  0.43162061
   0.25000000  0.39539356  0.56837939
   0.25000000  0.44748305  0.37854001
   0.75000000  0.55251695  0.62145999
   0.25000000  0.58888918  0.02714104
   0.75000000  0.41111082  0.97285896
   0.75000000  0.00558738  0.31097120
   0.25000000 -0.00558738  0.68902880
   0.75000000  0.78419015  0.84579413
   0.25000000  0.21580985  0.15420587
   0.25000000  0.76707069  0.47226758
   0.75000000  0.23292931  0.52773242
   0.75000000  0.68180021  0.23783159
   0.25000000  0.31819979  0.76216841
   0.25000000  0.90243576  0.08335368
   0.75000000  0.09756424  0.91664632
CIS                                     
           1
     4.072935    0.000000    0.000000
     0.000000   12.227394   -0.694189
     0.000000    0.282346   13.913380
   Na   Bi   S 
   4   8  14
Direct configuration=    16
   0.25000000  0.55945816  0.82662413
   0.75000000  0.44054184  0.17337587
   0.75000000  0.83543498  0.62101281
   0.25000000  0.16456502  0.37898719
   0.25000000  0.93439988  0.87269473
   0.75000000  0.06560012  0.12730527
   0.25000000  0.83802072  0.28986686
   0.75000000  0.16197928  0.71013314
   0.75000000  0.72372263  0.04289632
   0.25000000  0.27627737  0.95710368
   0.75000000  0.60447333  0.43238955
   0.25000000  0.39552667  0.56761045
   0.25000000  0.44781361  0.37809076
   0.75000000  0.55218639  0.62190924
   0.25000000  0.58750575  0.02523794
   0.75000000  0.41249425  0.97476206
   0.75000000  0.00604934  0.31244736
   0.25000000 -0.00604934  0.68755264
   0.75000000  0.78122852  0.84366087
   0.25000000  0.21877148  0.15633913
   0.25000000  0.76746063  0.47289776
   0.75000000  0.23253937  0.52710224
   0.75000000  0.68291623  0.23884476
   0.25000000  0.31708377  0.76115524
   0.25000000  0.90283305  0.08407472
   0.75000000  0.09716695  0.91592528
CIS                                     
           1
     4.066763    0.000000    0.000000
     0.000000   12.223062   -0.664874
     0.000000    0.315504   13.911637
   Na   Bi   S 
   4   8  14
Direct configuration=    17
   0.25000000  0.55916445  0.82698631
   0.75000000  0.44083555  0.17301369
   0.75000000  0.83563451  0.62095778
   0.25000000  0.16436549  0.37904222
   0.25000000  0.93425550  0.87190672
   0.75000000  0.06574450  0.12809328
   0.25000000  0.83829732  0.29109704
   0.75000000  0.16170268  0.70890296
   0.75000000  0.72414803  0.04231433
   0.25000000  0.27585197  0.95768567
   0.75000000  0.60437747  0.43293127
   0.25000000  0.39562253  0.56706873
   0.25000000  0.44804772  0.37777373
   0.75000000  0.55195228  0.62222627
   0.25000000  0.58653622  0.02390079
   0.75000000  0.41346378  0.97609921
   0.75000000  0.00637081  0.31348582
   0.25000000 -0.00637081  0.68651418
   0.75000000  0.77914770  0.84216495
   0.25000000  0.22085230  0.15783505
   0.25000000  0.76773364  0.47334068
   0.75000000  0.23226636  0.52665932
   0.75000000  0.68369977  0.23955584
   0.25000000  0.31630023  0.76044416
   0.25000000  0.90311101  0.08458159
   0.75000000  0.09688899  0.91541841
CIS                                     
           1
     4.054419    0.000000    0.000000
     0.000000   12.214398   -0.606243
     0.000000    0.381821   13.908153
   Na   Bi   S 
   4   8  14
Direct configuration=    18
   0.25000000  0.55857484  0.82771189
   0.75000000  0.44142516  0.17228811
   0.75000000  0.83603404  0.62084687
   0.25000000  0.16396596  0.37915313
   0.25000000  0.93397089  0.87033130
   0.75000000  0.06602911  0.12966870
   0.25000000  0.83884408  0.29355623
   0.75000000  0.16115592  0.70644377
   0.75000000  0.72500234  0.04114857
   0.25000000  0.27499766  0.95885143
   0.75000000  0.60418272  0.43401510
   0.25000000  0.39581728  0.56598490
   0.25000000  0.44851785  0.37713871
   0.75000000  0.55148215  0.62286129
   0.25000000  0.58460363  0.02123056
   0.75000000  0.41539637  0.97876944
   0.75000000  0.00700839  0.31556137
   0.25000000 -0.00700839  0.68443863
   0.75000000  0.77499248  0.83918181
   0.25000000  0.22500752  0.16081819
   0.25000000  0.76827750  0.47422537
   0.75000000  0.23172250  0.52577463
   0.75000000  0.68526363  0.24097471
   0.25000000  0.31473637  0.75902529
   0.25000000  0.90366439  0.08559418
   0.75000000  0.09633561  0.91440582
CIS                                     
           1
     4.062810    0.000000    0.000000
     0.000000   12.220288   -0.646098
     0.000000    0.336741   13.910522
   Na   Bi   S 
   4   8  14
Direct configuration=    19
   0.25000000  0.55897865  0.82721698
   0.75000000  0.44102135  0.17278302
   0.75000000  0.83576182  0.62092340
   0.25000000  0.16423818  0.37907660
   0.25000000  0.93415871  0.87140142
   0.75000000  0.06584129  0.12859858
   0.25000000  0.83848118  0.29188609
   0.75000000  0.16151882  0.70811391
   0.75000000  0.72441682  0.04194345
   0.25000000  0.27558318  0.95805655
   0.75000000  0.60431922  0.43327778
   0.25000000  0.39568078  0.56672222
   0.25000000  0.44819565  0.37757172
   0.75000000  0.55180435  0.62242828
   0.25000000  0.58590859  0.02304023
   0.75000000  0.41409141  0.97695977
   0.75000000  0.00658228  0.31415227
   0.25000000 -0.00658228  0.68584773
   0.75000000  0.77780842  0.84119787
   0.25000000  0.22219158  0.15880213
   0.25000000  0.76791076  0.47362553
   0.75000000  0.23208924  0.52637447
   0.75000000  0.68420492  0.24001464
   0.25000000  0.31579508  0.75998536
   0.25000000  0.90329164  0.08490742
   0.75000000  0.09670836  0.91509258
CIS                                     
           1
     4.069572    0.000000    0.000000
     0.000000   12.251129   -0.658016
     0.000000    0.327995   13.985633
   Na   Bi   S 
   4   8  14
Direct configuration=    20
   0.25000000  0.55888693  0.82662982
   0.75000000  0.44111307  0.17337018
   0.75000000  0.83566636  0.62096474
   0.25000000  0.16433364  0.37903526
   0.25000000  0.93407124  0.87100331
   0.75000000  0.06592876  0.12899669
   0.25000000  0.83837705  0.29131801
   0.75000000  0.16162295  0.70868199
   0.75000000  0.72505973  0.04159724
   0.25000000  0.27494027  0.95840276
   0.75000000  0.60477522  0.43264408
   0.25000000  0.39522478  0.56735592
   0.25000000  0.44934473  0.37766777
   0.75000000  0.55065527  0.62233223
   0.25000000  0.58652770  0.02324061
   0.75000000  0.41347230  0.97675939
   0.75000000  0.00646380  0.31482883
   0.25000000 -0.00646380  0.68517117
   0.75000000  0.77706061  0.84069915
   0.25000000  0.22293939  0.15930085
   0.25000000  0.76707333  0.47429190
   0.75000000  0.23292667  0.52570810
   0.75000000  0.68514672  0.24072371
   0.25000000  0.31485328  0.75927629
   0.25000000  0.90417001  0.08527385
   0.75000000  0.09582999  0.91472615
CIS                                     
           1
     4.072110    0.000000    0.000000
     0.000000   12.262703   -0.662489
     0.000000    0.324714   14.013819
   Na   Bi   S 
   4   8  14
Direct configuration=    21
   0.25000000  0.55885240  0.82641063
   0.75000000  0.44114760  0.17358937
   0.75000000  0.83563065  0.62098015
   0.25000000  0.16436935  0.37901985
   0.25000000  0.93403837  0.87085468
   0.75000000  0.06596163  0.12914532
   0.25000000  0.83833790  0.29110594
   0.75000000  0.16166210  0.70889406
   0.75000000  0.72530026  0.04146819
   0.25000000  0.27469974  0.95853181
   0.75000000  0.60494570  0.43240767
   0.25000000  0.39505430  0.56759233
   0.25000000  0.44977487  0.37770394
   0.75000000  0.55022513  0.62229606
   0.25000000  0.58675950  0.02331557
   0.75000000  0.41324050  0.97668443
   0.75000000  0.00641967  0.31508133
   0.25000000 -0.00641967  0.68491867
   0.75000000  0.77678054  0.84051280
   0.25000000  0.22321946  0.15948720
   0.25000000  0.76676008  0.47454040
   0.75000000  0.23323992  0.52545960
   0.75000000  0.68549947  0.24098864
   0.25000000  0.31450053  0.75901136
   0.25000000  0.90449891  0.08541086
   0.75000000  0.09550109  0.91458914
CIS                                     
           1
     4.071534    0.000000    0.000000
     0.000000   12.270518   -0.658439
     0.000000    0.328674   13.997625
   Na   Bi   S 
   4   8  14
Direct configuration=    22
   0.25000000  0.55878764  0.82578369
   0.75000000  0.44121236  0.17421631
   0.75000000  0.83549343  0.62096576
   0.25000000  0.16450657  0.37903424
   0.25000000  0.93382628  0.87017210
   0.75000000  0.06617372  0.12982790
   0.25000000  0.83823375  0.29083840
   0.75000000  0.16176625  0.70916160
   0.75000000  0.72582249  0.04112111
   0.25000000  0.27417751  0.95887889
   0.75000000  0.60529787  0.43210158
   0.25000000  0.39470213  0.56789842
   0.25000000  0.45089384  0.37813388
   0.75000000  0.54910616  0.62186612
   0.25000000  0.58766590  0.02352575
   0.75000000  0.41233410  0.97647425
   0.75000000  0.00641601  0.31529023
   0.25000000 -0.00641601  0.68470977
   0.75000000  0.77615087  0.84042272
   0.25000000  0.22384913  0.15957728
   0.25000000  0.76604338  0.47471758
   0.75000000  0.23395662  0.52528242
   0.75000000  0.68639857  0.24135111
   0.25000000  0.31360143  0.75864889
   0.25000000  0.90543971  0.08570698
   0.75000000  0.09456029  0.91429302
CIS                                     
           1
     4.069807    0.000000    0.000000
     0.000000   12.293964   -0.646290
     0.000000    0.340554   13.949043
   Na   Bi   S 
   4   8  14
Direct configuration=    23
   0.25000000  0.55859415  0.82390078
   0.75000000  0.44140585  0.17609922
   0.75000000  0.83508207  0.62092269
   0.25000000  0.16491793  0.37907731
   0.25000000  0.93319113  0.86812223
   0.75000000  0.06680887  0.13187777
   0.25000000  0.83792178  0.29003496
   0.75000000  0.16207822  0.70996504
   0.75000000  0.72738857  0.04007817
   0.25000000  0.27261143  0.95992183
   0.75000000  0.60635402  0.43118191
   0.25000000  0.39364598  0.56881809
   0.25000000  0.45424818  0.37942410
   0.75000000  0.54575182  0.62057590
   0.25000000  0.59038318  0.02415613
   0.75000000  0.40961682  0.97584387
   0.75000000  0.00640481  0.31591765
   0.25000000 -0.00640481  0.68408235
   0.75000000  0.77426316  0.84015279
   0.25000000  0.22573684  0.15984721
   0.25000000  0.76389445  0.47525042
   0.75000000  0.23610555  0.52474958
   0.75000000  0.68909379  0.24243890
   0.25000000  0.31090621  0.75756110
   0.25000000  0.90826005  0.08659546
   0.75000000  0.09173995  0.91340454
CIS                                     
           1
     4.077799    0.000000    0.000000
     0.000000   12.334744   -0.620084
     0.000000    0.368452   13.892642
   Na   Bi   S 
   4   8  14
Direct configuration=    24
   0.25000000  0.55859193  0.82309033
   0.75000000  0.44140807  0.17690967
   0.75000000  0.83487523  0.62077661
   0.25000000  0.16512477  0.37922339
   0.25000000  0.93277244  0.86714469
   0.75000000  0.06722756  0.13285531
   0.25000000  0.83832466  0.29059694
   0.75000000  0.16167534  0.70940306
   0.75000000  0.72840066  0.03983498
   0.25000000  0.27159934  0.96016502
   0.75000000  0.60623622  0.43160859
   0.25000000  0.39376378  0.56839141
   0.25000000  0.45513041  0.37961675
   0.75000000  0.54486959  0.62038325
   0.25000000  0.59089941  0.02421241
   0.75000000  0.40910059  0.97578759
   0.75000000  0.00666861  0.31596132
   0.25000000 -0.00666861  0.68403868
   0.75000000  0.77370172  0.84007586
   0.25000000  0.22629828  0.15992414
   0.25000000  0.76395468  0.47515621
   0.75000000  0.23604532  0.52484379
   0.75000000  0.68992987  0.24171211
   0.25000000  0.31007013  0.75828789
   0.25000000  0.90908936  0.08703587
   0.75000000  0.09091064  0.91296413
CIS                                     
           1
     4.079762    0.000000    0.000000
     0.000000   12.344761   -0.613647
     0.000000    0.375305   13.878787
   Na   Bi   S 
   4   8  14
Direct configuration=    25
   0.25000000  0.55859186  0.82289046
   0.75000000  0.44140814  0.17710954
   0.75000000  0.83482467  0.62074068
   0.25000000  0.16517533  0.37925932
   0.25000000  0.93267049  0.86690383
   0.75000000  0.06732951  0.13309617
   0.25000000  0.83842297  0.29073533
   0.75000000  0.16157703  0.70926467
   0.75000000  0.72864860  0.03977450
   0.25000000  0.27135140  0.96022550
   0.75000000  0.60620713  0.43171387
   0.25000000  0.39379287  0.56828613
   0.25000000  0.45534630  0.37966382
   0.75000000  0.54465370  0.62033618
   0.25000000  0.59102578  0.02422603
   0.75000000  0.40897422  0.97577397
   0.75000000  0.00673317  0.31597196