  16  16   1   0
  0.2775666E+02  0.6954631E-09  0.7270598E-09  0.8783002E-09  0.1000000E-15
  1.000000000000000E-004
  CAR 
 CIS                                     
      7.55209898    -12.05581430  301      1.21424951      1.00000000
    -12.056  0.0000E+00  0.0000E+00
    -11.990  0.0000E+00  0.0000E+00
    -11.925  0.0000E+00  0.0000E+00
    -11.860  0.0000E+00  0.0000E+00
    -11.794  0.0000E+00  0.0000E+00
    -11.729  0.0000E+00  0.0000E+00
    -11.664  0.0000E+00  0.0000E+00
    -11.598  0.0000E+00  0.0000E+00
    -11.533  0.0000E+00  0.0000E+00
    -11.468  0.0000E+00  0.0000E+00
    -11.402  0.1023E-12  0.6689E-14
    -11.337  0.6269E-08  0.4097E-09
    -11.271  0.1422E-04  0.9300E-06
    -11.206  0.1361E-02  0.8985E-04
    -11.141  0.8301E-02  0.6324E-03
    -11.075  0.2150E-01  0.2038E-02
    -11.010  0.4961E-01  0.5280E-02
    -10.945  0.7777E-01  0.1036E-01
    -10.879  0.9214E-01  0.1639E-01
    -10.814  0.1254E+00  0.2458E-01
    -10.749  0.1106E+00  0.3181E-01
    -10.683  0.1035E+00  0.3857E-01
    -10.618  0.1022E+00  0.4525E-01
    -10.553  0.1693E+00  0.5631E-01
    -10.487  0.1823E+00  0.6823E-01
    -10.422  0.2688E+00  0.8580E-01
    -10.356  0.4004E+00  0.1120E+00
    -10.291  0.4997E+00  0.1446E+00
    -10.226  0.2405E+00  0.1603E+00
    -10.160  0.1927E-01  0.1616E+00
    -10.095  0.1257E-03  0.1616E+00
    -10.030  0.4230E-07  0.1616E+00
     -9.964  0.6115E-12  0.1616E+00
     -9.899  0.0000E+00  0.1616E+00
     -9.834  0.0000E+00  0.1616E+00
     -9.768  0.0000E+00  0.1616E+00
     -9.703  0.0000E+00  0.1616E+00
     -9.638  0.0000E+00  0.1616E+00
     -9.572  0.0000E+00  0.1616E+00
     -9.507  0.0000E+00  0.1616E+00
     -9.441  0.0000E+00  0.1616E+00
     -9.376  0.0000E+00  0.1616E+00
     -9.311  0.0000E+00  0.1616E+00
     -9.245  0.0000E+00  0.1616E+00
     -9.180  0.0000E+00  0.1616E+00
     -9.115  0.0000E+00  0.1616E+00
     -9.049  0.0000E+00  0.1616E+00
     -8.984  0.0000E+00  0.1616E+00
     -8.919  0.0000E+00  0.1616E+00
     -8.853  0.0000E+00  0.1616E+00
     -8.788  0.0000E+00  0.1616E+00
     -8.722  0.0000E+00  0.1616E+00
     -8.657  0.0000E+00  0.1616E+00
     -8.592  0.0000E+00  0.1616E+00
     -8.526  0.0000E+00  0.1616E+00
     -8.461  0.0000E+00  0.1616E+00
     -8.396  0.0000E+00  0.1616E+00
     -8.330  0.0000E+00  0.1616E+00
     -8.265  0.0000E+00  0.1616E+00
     -8.200  0.0000E+00  0.1616E+00
     -8.134  0.0000E+00  0.1616E+00
     -8.069  0.0000E+00  0.1616E+00
     -8.004  0.0000E+00  0.1616E+00
     -7.938  0.0000E+00  0.1616E+00
     -7.873  0.0000E+00  0.1616E+00
     -7.807  0.0000E+00  0.1616E+00
     -7.742  0.0000E+00  0.1616E+00
     -7.677  0.0000E+00  0.1616E+00
     -7.611  0.0000E+00  0.1616E+00
     -7.546  0.0000E+00  0.1616E+00
     -7.481  0.0000E+00  0.1616E+00
     -7.415  0.0000E+00  0.1616E+00
     -7.350  0.0000E+00  0.1616E+00
     -7.285  0.0000E+00  0.1616E+00
     -7.219  0.0000E+00  0.1616E+00
     -7.154  0.0000E+00  0.1616E+00
     -7.088  0.0000E+00  0.1616E+00
     -7.023  0.0000E+00  0.1616E+00
     -6.958  0.0000E+00  0.1616E+00
     -6.892  0.0000E+00  0.1616E+00
     -6.827  0.0000E+00  0.1616E+00
     -6.762  0.0000E+00  0.1616E+00
     -6.696  0.0000E+00  0.1616E+00
     -6.631  0.0000E+00  0.1616E+00
     -6.566  0.0000E+00  0.1616E+00
     -6.500  0.0000E+00  0.1616E+00
     -6.435  0.0000E+00  0.1616E+00
     -6.370  0.0000E+00  0.1616E+00
     -6.304  0.0000E+00  0.1616E+00
     -6.239  0.0000E+00  0.1616E+00
     -6.173  0.0000E+00  0.1616E+00
     -6.108  0.0000E+00  0.1616E+00
     -6.043  0.0000E+00  0.1616E+00
     -5.977  0.0000E+00  0.1616E+00
     -5.912  0.0000E+00  0.1616E+00
     -5.847  0.0000E+00  0.1616E+00
     -5.781  0.0000E+00  0.1616E+00
     -5.716  0.0000E+00  0.1616E+00
     -5.651  0.0000E+00  0.1616E+00
     -5.585  0.0000E+00  0.1616E+00
     -5.520  0.0000E+00  0.1616E+00
     -5.454  0.0000E+00  0.1616E+00
     -5.389  0.0000E+00  0.1616E+00
     -5.324  0.0000E+00  0.1616E+00
     -5.258  0.0000E+00  0.1616E+00
     -5.193  0.0000E+00  0.1616E+00
     -5.128  0.0000E+00  0.1616E+00
     -5.062  0.0000E+00  0.1616E+00
     -4.997  0.0000E+00  0.1616E+00
     -4.932  0.0000E+00  0.1616E+00
     -4.866  0.0000E+00  0.1616E+00
     -4.801  0.0000E+00  0.1616E+00
     -4.736  0.0000E+00  0.1616E+00
     -4.670  0.0000E+00  0.1616E+00
     -4.605  0.0000E+00  0.1616E+00
     -4.539  0.0000E+00  0.1616E+00
     -4.474  0.0000E+00  0.1616E+00
     -4.409  0.4752E-14  0.1616E+00
     -4.343  0.8028E-09  0.1616E+00
     -4.278  0.5009E-05  0.1616E+00
     -4.213  0.1275E-02  0.1617E+00
     -4.147  0.1679E-01  0.1628E+00
     -4.082  0.2601E-01  0.1645E+00
     -4.017  0.6485E-01  0.1687E+00
     -3.951  0.7187E-01  0.1734E+00
     -3.886  0.1225E+00  0.1814E+00
     -3.820  0.1280E+00  0.1898E+00
     -3.755  0.1123E+00  0.1971E+00
     -3.690  0.6912E-01  0.2017E+00
     -3.624  0.4727E-01  0.2048E+00
     -3.559  0.6331E-02  0.2052E+00
     -3.494  0.2608E-01  0.2069E+00
     -3.428  0.6818E-01  0.2113E+00
     -3.363  0.7039E-01  0.2159E+00
     -3.298  0.1151E+00  0.2235E+00
     -3.232  0.6807E-01  0.2279E+00
     -3.167  0.4528E-01  0.2309E+00
     -3.102  0.4977E-01  0.2341E+00
     -3.036  0.6456E-01  0.2383E+00
     -2.971  0.2707E-01  0.2401E+00
     -2.905  0.6642E-02  0.2405E+00
     -2.840  0.1483E-01  0.2415E+00
     -2.775  0.7967E-02  0.2420E+00
     -2.709  0.5660E-02  0.2424E+00
     -2.644  0.4333E-03  0.2424E+00
     -2.579  0.1666E-05  0.2424E+00
     -2.513  0.2551E-09  0.2424E+00
     -2.448  0.1416E-14  0.2424E+00
     -2.383  0.0000E+00  0.2424E+00
     -2.317  0.0000E+00  0.2424E+00
     -2.252  0.0000E+00  0.2424E+00
     -2.186  0.0000E+00  0.2424E+00
     -2.121  0.1845E-12  0.2424E+00
     -2.056  0.1190E-07  0.2424E+00
     -1.990  0.2975E-04  0.2424E+00
     -1.925  0.3563E-02  0.2427E+00
     -1.860  0.3549E-01  0.2450E+00
     -1.794  0.7355E-01  0.2498E+00
     -1.729  0.4011E-01  0.2524E+00
     -1.664  0.6024E-01  0.2563E+00
     -1.598  0.1166E+00  0.2640E+00
     -1.533  0.1340E+00  0.2727E+00
     -1.468  0.1758E+00  0.2842E+00
     -1.402  0.1089E+00  0.2913E+00
     -1.337  0.8962E-01  0.2972E+00
     -1.271  0.7980E-01  0.3024E+00
     -1.206  0.1171E+00  0.3101E+00
     -1.141  0.1631E+00  0.3207E+00
     -1.075  0.2244E+00  0.3354E+00
     -1.010  0.1613E+00  0.3459E+00
     -0.945  0.9224E-01  0.3520E+00
     -0.879  0.9435E-01  0.3581E+00
     -0.814  0.1099E+00  0.3653E+00
     -0.749  0.1244E+00  0.3734E+00
     -0.683  0.1648E+00  0.3842E+00
     -0.618  0.1584E+00  0.3946E+00
     -0.553  0.1586E+00  0.4049E+00
     -0.487  0.1864E+00  0.4171E+00
     -0.422  0.2103E+00  0.4309E+00
     -0.356  0.2170E+00  0.4450E+00
     -0.291  0.2106E+00  0.4588E+00
     -0.226  0.1825E+00  0.4707E+00
     -0.160  0.1629E+00  0.4814E+00
     -0.095  0.1354E+00  0.4902E+00
     -0.030  0.1549E+00  0.5004E+00
      0.036  0.2301E+00  0.5154E+00
      0.101  0.1879E+00  0.5277E+00
      0.166  0.1705E+00  0.5388E+00
      0.232  0.1711E+00  0.5500E+00
      0.297  0.2049E+00  0.5634E+00
      0.363  0.1520E+00  0.5733E+00
      0.428  0.2158E+00  0.5874E+00
      0.493  0.3038E+00  0.6073E+00
      0.559  0.2119E+00  0.6211E+00
      0.624  0.9308E-01  0.6272E+00
      0.689  0.9612E-01  0.6335E+00
      0.755  0.6447E-01  0.6377E+00
      0.820  0.7379E-01  0.6425E+00
      0.885  0.3482E-01  0.6448E+00
      0.951  0.1873E-01  0.6460E+00
      1.016  0.6188E-02  0.6464E+00
      1.081  0.2604E-03  0.6465E+00
      1.147  0.6324E-06  0.6465E+00
      1.212  0.6220E-10  0.6465E+00
      1.278  0.2211E-15  0.6465E+00
      1.343  0.0000E+00  0.6465E+00
      1.408  0.0000E+00  0.6465E+00
      1.474  0.0000E+00  0.6465E+00
      1.539  0.0000E+00  0.6465E+00
      1.604  0.0000E+00  0.6465E+00
      1.670  0.0000E+00  0.6465E+00
      1.735  0.0000E+00  0.6465E+00
      1.800  0.0000E+00  0.6465E+00
      1.866  0.0000E+00  0.6465E+00
      1.931  0.0000E+00  0.6465E+00
      1.997  0.0000E+00  0.6465E+00
      2.062  0.0000E+00  0.6465E+00
      2.127  0.0000E+00  0.6465E+00
      2.193  0.0000E+00  0.6465E+00
      2.258  0.5084E-17  0.6465E+00
      2.323  0.3376E-11  0.6465E+00
      2.389  0.7990E-07  0.6465E+00
      2.454  0.7185E-04  0.6465E+00
      2.519  0.2890E-02  0.6467E+00
      2.585  0.7172E-02  0.6471E+00
      2.650  0.1301E-02  0.6472E+00
      2.715  0.1309E-04  0.6472E+00
      2.781  0.5520E-08  0.6472E+00
      2.846  0.8847E-13  0.6472E+00
      2.912  0.4397E-09  0.6472E+00
      2.977  0.3012E-05  0.6472E+00
      3.042  0.8292E-03  0.6473E+00
      3.108  0.1271E-01  0.6481E+00
      3.173  0.2363E-01  0.6496E+00
      3.238  0.1065E-01  0.6503E+00
      3.304  0.3366E-01  0.6525E+00
      3.369  0.7685E-01  0.6576E+00
      3.434  0.8388E-01  0.6630E+00
      3.500  0.3584E-01  0.6654E+00
      3.565  0.1086E+00  0.6725E+00
      3.631  0.1908E+00  0.6850E+00
      3.696  0.1188E+00  0.6927E+00
      3.761  0.3874E-01  0.6953E+00
      3.827  0.4381E-01  0.6981E+00
      3.892  0.1049E+00  0.7050E+00
      3.957  0.5729E-01  0.7087E+00
      4.023  0.5502E-01  0.7123E+00
      4.088  0.6710E-01  0.7167E+00
      4.153  0.5519E-01  0.7203E+00
      4.219  0.5438E-01  0.7239E+00
      4.284  0.1713E-01  0.7250E+00
      4.349  0.1132E-01  0.7257E+00
      4.415  0.2106E-02  0.7259E+00
      4.480  0.1242E-01  0.7267E+00
      4.546  0.8817E-02  0.7272E+00
      4.611  0.4146E-03  0.7273E+00
      4.676  0.9239E-06  0.7273E+00
      4.742  0.8013E-10  0.7273E+00
      4.807  0.1284E-10  0.7273E+00
      4.872  0.3266E-06  0.7273E+00
      4.938  0.3403E-03  0.7273E+00
      5.003  0.1946E-01  0.7286E+00
      5.068  0.1066E+00  0.7355E+00
      5.134  0.8562E-01  0.7411E+00
      5.199  0.2600E-01  0.7428E+00
      5.265  0.5219E-01  0.7462E+00
      5.330  0.1019E+00  0.7529E+00
      5.395  0.2201E+00  0.7673E+00
      5.461  0.1485E+00  0.7770E+00
      5.526  0.5459E-01  0.7806E+00
      5.591  0.6223E-01  0.7846E+00
      5.657  0.1258E+00  0.7928E+00
      5.722  0.7782E-01  0.7979E+00
      5.787  0.8346E-01  0.8034E+00
      5.853  0.5189E-01  0.8068E+00
      5.918  0.1115E+00  0.8141E+00
      5.983  0.1441E+00  0.8235E+00
      6.049  0.1077E+00  0.8305E+00
      6.114  0.4821E-01  0.8337E+00
      6.180  0.5523E-01  0.8373E+00
      6.245  0.4654E-01  0.8403E+00
      6.310  0.6062E-01  0.8443E+00
      6.376  0.1837E-01  0.8455E+00
      6.441  0.5282E-02  0.8458E+00
      6.506  0.5863E-02  0.8462E+00
      6.572  0.1579E-02  0.8463E+00
      6.637  0.1458E-01  0.8473E+00
      6.702  0.1678E-01  0.8484E+00
      6.768  0.1880E-02  0.8485E+00
      6.833  0.1560E-04  0.8485E+00
      6.899  0.6411E-08  0.8485E+00
      6.964  0.1029E-12  0.8485E+00
      7.029  0.0000E+00  0.8485E+00
      7.095  0.0000E+00  0.8485E+00
      7.160  0.0000E+00  0.8485E+00
      7.225  0.0000E+00  0.8485E+00
      7.291  0.0000E+00  0.8485E+00
      7.356  0.0000E+00  0.8485E+00
      7.421  0.0000E+00  0.8485E+00
      7.487  0.0000E+00  0.8485E+00
      7.552  0.0000E+00  0.8485E+00
      7.55209898    -12.05581430  301      1.21424951      1.00000000
    -12.056  0.0000E+00  0.0000E+00  0.0000E+00
    -11.990  0.0000E+00  0.0000E+00  0.0000E+00
    -11.925  0.0000E+00  0.0000E+00  0.0000E+00
    -11.860  0.0000E+00  0.0000E+00  0.0000E+00
    -11.794  0.0000E+00  0.0000E+00  0.0000E+00
    -11.729  0.0000E+00  0.0000E+00  0.0000E+00
    -11.664  0.0000E+00  0.0000E+00  0.0000E+00
    -11.598  0.0000E+00  0.0000E+00  0.0000E+00
    -11.533  0.0000E+00  0.0000E+00  0.0000E+00
    -11.468  0.0000E+00  0.0000E+00  0.0000E+00
    -11.402  0.1218E-13  0.2514E-16  0.0000E+00
    -11.337  0.7461E-09  0.1540E-11  0.0000E+00
    -11.271  0.1693E-05  0.3502E-08  0.0000E+00
    -11.206  0.1618E-03  0.3853E-06  0.0000E+00
    -11.141  0.9650E-03  0.1536E-04  0.0000E+00
    -11.075  0.2145E-02  0.2509E-03  0.0000E+00
    -11.010  0.4539E-02  0.8733E-03  0.0000E+00
    -10.945  0.6050E-02  0.2070E-02  0.0000E+00
    -10.879  0.5744E-02  0.3168E-02  0.0000E+00
    -10.814  0.4590E-02  0.5755E-02  0.0000E+00
    -10.749  0.1709E-02  0.5679E-02  0.0000E+00
    -10.683  0.1150E-02  0.5555E-02  0.0000E+00
    -10.618  0.2227E-02  0.6780E-02  0.0000E+00
    -10.553  0.7116E-02  0.1136E-01  0.0000E+00
    -10.487  0.6239E-02  0.8625E-02  0.0000E+00
    -10.422  0.1440E-01  0.1129E-01  0.0000E+00
    -10.356  0.1795E-01  0.2158E-01  0.0000E+00
    -10.291  0.1203E-01  0.3290E-01  0.0000E+00
    -10.226  0.3085E-02  0.1647E-01  0.0000E+00
    -10.160  0.1434E-03  0.1337E-02  0.0000E+00
    -10.095  0.6151E-06  0.8574E-05  0.0000E+00
    -10.030  0.1460E-09  0.2838E-08  0.0000E+00
     -9.964  0.1534E-14  0.4104E-13  0.0000E+00
     -9.899  0.0000E+00  0.0000E+00  0.0000E+00
     -9.834  0.0000E+00  0.0000E+00  0.0000E+00
     -9.768  0.0000E+00  0.0000E+00  0.0000E+00
     -9.703  0.0000E+00  0.0000E+00  0.0000E+00
     -9.638  0.0000E+00  0.0000E+00  0.0000E+00
     -9.572  0.0000E+00  0.0000E+00  0.0000E+00
     -9.507  0.0000E+00  0.0000E+00  0.0000E+00
     -9.441  0.0000E+00  0.0000E+00  0.0000E+00
     -9.376  0.0000E+00  0.0000E+00  0.0000E+00
     -9.311  0.0000E+00  0.0000E+00  0.0000E+00
     -9.245  0.0000E+00  0.0000E+00  0.0000E+00
     -9.180  0.0000E+00  0.0000E+00  0.0000E+00
     -9.115  0.0000E+00  0.0000E+00  0.0000E+00
     -9.049  0.0000E+00  0.0000E+00  0.0000E+00
     -8.984  0.0000E+00  0.0000E+00  0.0000E+00
     -8.919  0.0000E+00  0.0000E+00  0.0000E+00
     -8.853  0.0000E+00  0.0000E+00  0.0000E+00
     -8.788  0.0000E+00  0.0000E+00  0.0000E+00
     -8.722  0.0000E+00  0.0000E+00  0.0000E+00
     -8.657  0.0000E+00  0.0000E+00  0.0000E+00
     -8.592  0.0000E+00  0.0000E+00  0.0000E+00
     -8.526  0.0000E+00  0.0000E+00  0.0000E+00
     -8.461  0.0000E+00  0.0000E+00  0.0000E+00
     -8.396  0.0000E+00  0.0000E+00  0.0000E+00
     -8.330  0.0000E+00  0.0000E+00  0.0000E+00
     -8.265  0.0000E+00  0.0000E+00  0.0000E+00
     -8.200  0.0000E+00  0.0000E+00  0.0000E+00
     -8.134  0.0000E+00  0.0000E+00  0.0000E+00
     -8.069  0.0000E+00  0.0000E+00  0.0000E+00
     -8.004  0.0000E+00  0.0000E+00  0.0000E+00
     -7.938  0.0000E+00  0.0000E+00  0.0000E+00
     -7.873  0.0000E+00  0.0000E+00  0.0000E+00
     -7.807  0.0000E+00  0.0000E+00  0.0000E+00
     -7.742  0.0000E+00  0.0000E+00  0.0000E+00
     -7.677  0.0000E+00  0.0000E+00  0.0000E+00
     -7.611  0.0000E+00  0.0000E+00  0.0000E+00
     -7.546  0.0000E+00  0.0000E+00  0.0000E+00
     -7.481  0.0000E+00  0.0000E+00  0.0000E+00
     -7.415  0.0000E+00  0.0000E+00  0.0000E+00
     -7.350  0.0000E+00  0.0000E+00  0.0000E+00
     -7.285  0.0000E+00  0.0000E+00  0.0000E+00
     -7.219  0.0000E+00  0.0000E+00  0.0000E+00
     -7.154  0.0000E+00  0.0000E+00  0.0000E+00
     -7.088  0.0000E+00  0.0000E+00  0.0000E+00
     -7.023  0.0000E+00  0.0000E+00  0.0000E+00
     -6.958  0.0000E+00  0.0000E+00  0.0000E+00
     -6.892  0.0000E+00  0.0000E+00  0.0000E+00
     -6.827  0.0000E+00  0.0000E+00  0.0000E+00
     -6.762  0.0000E+00  0.0000E+00  0.0000E+00
     -6.696  0.0000E+00  0.0000E+00  0.0000E+00
     -6.631  0.0000E+00  0.0000E+00  0.0000E+00
     -6.566  0.0000E+00  0.0000E+00  0.0000E+00
     -6.500  0.0000E+00  0.0000E+00  0.0000E+00
     -6.435  0.0000E+00  0.0000E+00  0.0000E+00
     -6.370  0.0000E+00  0.0000E+00  0.0000E+00
     -6.304  0.0000E+00  0.0000E+00  0.0000E+00
     -6.239  0.0000E+00  0.0000E+00  0.0000E+00
     -6.173  0.0000E+00  0.0000E+00  0.0000E+00
     -6.108  0.0000E+00  0.0000E+00  0.0000E+00
     -6.043  0.0000E+00  0.0000E+00  0.0000E+00
     -5.977  0.0000E+00  0.0000E+00  0.0000E+00
     -5.912  0.0000E+00  0.0000E+00  0.0000E+00
     -5.847  0.0000E+00  0.0000E+00  0.0000E+00
     -5.781  0.0000E+00  0.0000E+00  0.0000E+00
     -5.716  0.0000E+00  0.0000E+00  0.0000E+00
     -5.651  0.0000E+00  0.0000E+00  0.0000E+00
     -5.585  0.0000E+00  0.0000E+00  0.0000E+00
     -5.520  0.0000E+00  0.0000E+00  0.0000E+00
     -5.454  0.0000E+00  0.0000E+00  0.0000E+00
     -5.389  0.0000E+00  0.0000E+00  0.0000E+00
     -5.324  0.0000E+00  0.0000E+00  0.0000E+00
     -5.258  0.0000E+00  0.0000E+00  0.0000E+00
     -5.193  0.0000E+00  0.0000E+00  0.0000E+00
     -5.128  0.0000E+00  0.0000E+00  0.0000E+00
     -5.062  0.0000E+00  0.0000E+00  0.0000E+00
     -4.997  0.0000E+00  0.0000E+00  0.0000E+00
     -4.932  0.0000E+00  0.0000E+00  0.0000E+00
     -4.866  0.0000E+00  0.0000E+00  0.0000E+00
     -4.801  0.0000E+00  0.0000E+00  0.0000E+00
     -4.736  0.0000E+00  0.0000E+00  0.0000E+00
     -4.670  0.0000E+00  0.0000E+00  0.0000E+00
     -4.605  0.0000E+00  0.0000E+00  0.0000E+00
     -4.539  0.0000E+00  0.0000E+00  0.0000E+00
     -4.474  0.0000E+00  0.0000E+00  0.0000E+00
     -4.409  0.2400E-17  0.2074E-15  0.0000E+00
     -4.343  0.4032E-12  0.3397E-10  0.0000E+00
     -4.278  0.2497E-08  0.2031E-06  0.0000E+00
     -4.213  0.6303E-06  0.4886E-04  0.0000E+00
     -4.147  0.9196E-05  0.6008E-03  0.0000E+00
     -4.082  0.8094E-04  0.8039E-03  0.0000E+00
     -4.017  0.4360E-03  0.1772E-02  0.0000E+00
     -3.951  0.4915E-03  0.2115E-02  0.0000E+00
     -3.886  0.7859E-03  0.3646E-02  0.0000E+00
     -3.820  0.1718E-02  0.6575E-02  0.0000E+00
     -3.755  0.2403E-02  0.8745E-02  0.0000E+00
     -3.690  0.1293E-02  0.6628E-02  0.0000E+00
     -3.624  0.9304E-03  0.4896E-02  0.0000E+00
     -3.559  0.9800E-04  0.6410E-03  0.0000E+00
     -3.494  0.1788E-03  0.2274E-02  0.0000E+00
     -3.428  0.5966E-03  0.5127E-02  0.0000E+00
     -3.363  0.3991E-02  0.3941E-02  0.0000E+00
     -3.298  0.7955E-02  0.5935E-02  0.0000E+00
     -3.232  0.3498E-02  0.3877E-02  0.0000E+00
     -3.167  0.1521E-02  0.2125E-02  0.0000E+00
     -3.102  0.6778E-02  0.2035E-02  0.0000E+00
     -3.036  0.1138E-01  0.3651E-02  0.0000E+00
     -2.971  0.4926E-02  0.1993E-02  0.0000E+00
     -2.905  0.1592E-02  0.2417E-03  0.0000E+00
     -2.840  0.3823E-02  0.3771E-03  0.0000E+00
     -2.775  0.2691E-02  0.1204E-03  0.0000E+00
     -2.709  0.2175E-02  0.5164E-04  0.0000E+00
     -2.644  0.1668E-03  0.3912E-05  0.0000E+00
     -2.579  0.6413E-06  0.1504E-07  0.0000E+00
     -2.513  0.9819E-10  0.2303E-11  0.0000E+00
     -2.448  0.5450E-15  0.1278E-16  0.0000E+00
     -2.383  0.0000E+00  0.0000E+00  0.0000E+00
     -2.317  0.0000E+00  0.0000E+00  0.0000E+00
     -2.252  0.0000E+00  0.0000E+00  0.0000E+00
     -2.186  0.0000E+00  0.0000E+00  0.0000E+00
     -2.121  0.7698E-15  0.5845E-13  0.0000E+00
     -2.056  0.6942E-10  0.3752E-08  0.0000E+00
     -1.990  0.3170E-06  0.9238E-05  0.0000E+00
     -1.925  0.7936E-04  0.1062E-02  0.0000E+00
     -1.860  0.1384E-02  0.9719E-02  0.0000E+00
     -1.794  0.4233E-02  0.1804E-01  0.0000E+00
     -1.729  0.4302E-02  0.8768E-02  0.0000E+00
     -1.664  0.6357E-02  0.1282E-01  0.0000E+00
     -1.598  0.1384E-01  0.2277E-01  0.0000E+00
     -1.533  0.3588E-01  0.2464E-01  0.0000E+00
     -1.468  0.4469E-01  0.3439E-01  0.0000E+00
     -1.402  0.2522E-01  0.1544E-01  0.0000E+00
     -1.337  0.1568E-01  0.9119E-02  0.0000E+00
     -1.271  0.2465E-01  0.1499E-01  0.0000E+00
     -1.206  0.2416E-01  0.1891E-01  0.0000E+00
     -1.141  0.4451E-01  0.3088E-01  0.0000E+00
     -1.075  0.9516E-01  0.4125E-01  0.0000E+00
     -1.010  0.4639E-01  0.3144E-01  0.0000E+00
     -0.945  0.1803E-01  0.1436E-01  0.0000E+00
     -0.879  0.1820E-01  0.1499E-01  0.0000E+00
     -0.814  0.2660E-01  0.1548E-01  0.0000E+00
     -0.749  0.3942E-01  0.2182E-01  0.0000E+00
     -0.683  0.5304E-01  0.3373E-01  0.0000E+00
     -0.618  0.4785E-01  0.3373E-01  0.0000E+00
     -0.553  0.4094E-01  0.3625E-01  0.0000E+00
     -0.487  0.4101E-01  0.5189E-01  0.0000E+00
     -0.422  0.5245E-01  0.4887E-01  0.0000E+00
     -0.356  0.4487E-01  0.3731E-01  0.0000E+00
     -0.291  0.7791E-01  0.4002E-01  0.0000E+00
     -0.226  0.6769E-01  0.4277E-01  0.0000E+00
     -0.160  0.3949E-01  0.5414E-01  0.0000E+00
     -0.095  0.2059E-01  0.6221E-01  0.0000E+00
     -0.030  0.1940E-01  0.7946E-01  0.0000E+00
      0.036  0.3169E-01  0.8508E-01  0.0000E+00
      0.101  0.3313E-01  0.5863E-01  0.0000E+00
      0.166  0.2780E-01  0.6199E-01  0.0000E+00
      0.232  0.1842E-01  0.9613E-01  0.0000E+00
      0.297  0.1839E-01  0.1303E+00  0.0000E+00
      0.363  0.8981E-02  0.9633E-01  0.0000E+00
      0.428  0.6233E-02  0.1356E+00  0.0000E+00
      0.493  0.7730E-02  0.1997E+00  0.0000E+00
      0.559  0.4556E-02  0.1178E+00  0.0000E+00
      0.624  0.8544E-03  0.4643E-01  0.0000E+00
      0.689  0.6520E-03  0.4139E-01  0.0000E+00
      0.755  0.3792E-03  0.2479E-01  0.0000E+00
      0.820  0.2575E-03  0.2566E-01  0.0000E+00
      0.885  0.6460E-04  0.1103E-01  0.0000E+00
      0.951  0.8322E-05  0.4764E-02  0.0000E+00
      1.016  0.1208E-05  0.1577E-02  0.0000E+00
      1.081  0.1473E-07  0.6643E-04  0.0000E+00
      1.147  0.1437E-10  0.1613E-06  0.0000E+00
      1.212  0.1062E-14  0.1586E-10  0.0000E+00
      1.278  0.3554E-20  0.5638E-16  0.0000E+00
      1.343  0.0000E+00  0.0000E+00  0.0000E+00
      1.408  0.0000E+00  0.0000E+00  0.0000E+00
      1.474  0.0000E+00  0.0000E+00  0.0000E+00
      1.539  0.0000E+00  0.0000E+00  0.0000E+00
      1.604  0.0000E+00  0.0000E+00  0.0000E+00
      1.670  0.0000E+00  0.0000E+00  0.0000E+00
      1.735  0.0000E+00  0.0000E+00  0.0000E+00
      1.800  0.0000E+00  0.0000E+00  0.0000E+00
      1.866  0.0000E+00  0.0000E+00  0.0000E+00
      1.931  0.0000E+00  0.0000E+00  0.0000E+00
      1.997  0.0000E+00  0.0000E+00  0.0000E+00
      2.062  0.0000E+00  0.0000E+00  0.0000E+00
      2.127  0.0000E+00  0.0000E+00  0.0000E+00
      2.193  0.0000E+00  0.0000E+00  0.0000E+00
      2.258  0.3847E-17  0.4462E-19  0.0000E+00
      2.323  0.2554E-11  0.2963E-13  0.0000E+00
      2.389  0.6046E-07  0.7013E-09  0.0000E+00
      2.454  0.5437E-04  0.6306E-06  0.0000E+00
      2.519  0.2187E-02  0.2537E-04  0.0000E+00
      2.585  0.5427E-02  0.6295E-04  0.0000E+00
      2.650  0.9845E-03  0.1142E-04  0.0000E+00
      2.715  0.9904E-05  0.1149E-06  0.0000E+00
      2.781  0.4177E-08  0.4845E-10  0.0000E+00
      2.846  0.6557E-13  0.1265E-14  0.0000E+00
      2.912  0.7225E-10  0.9624E-10  0.0000E+00
      2.977  0.4953E-06  0.6589E-06  0.0000E+00
      3.042  0.1380E-03  0.1805E-03  0.0000E+00
      3.108  0.2353E-02  0.2627E-02  0.0000E+00
      3.173  0.6010E-02  0.3924E-02  0.0000E+00
      3.238  0.3059E-02  0.1737E-02  0.0000E+00
      3.304  0.5548E-02  0.1092E-01  0.0000E+00
      3.369  0.6228E-02  0.2997E-01  0.0000E+00
      3.434  0.4154E-02  0.2886E-01  0.0000E+00
      3.500  0.1785E-02  0.1129E-01  0.0000E+00
      3.565  0.2895E-02  0.3343E-01  0.0000E+00
      3.631  0.4848E-02  0.4926E-01  0.0000E+00
      3.696  0.3274E-02  0.3068E-01  0.0000E+00
      3.761  0.1386E-02  0.7683E-02  0.0000E+00
      3.827  0.1720E-02  0.9930E-02  0.0000E+00
      3.892  0.6251E-02  0.2067E-01  0.0000E+00
      3.957  0.3944E-02  0.1036E-01  0.0000E+00
      4.023  0.3528E-02  0.6585E-02  0.0000E+00
      4.088  0.3888E-02  0.1108E-01  0.0000E+00
      4.153  0.2281E-02  0.1230E-01  0.0000E+00
      4.219  0.1678E-02  0.1052E-01  0.0000E+00
      4.284  0.1546E-02  0.2468E-02  0.0000E+00
      4.349  0.1439E-02  0.1230E-02  0.0000E+00
      4.415  0.1440E-03  0.2135E-03  0.0000E+00
      4.480  0.3344E-03  0.1200E-02  0.0000E+00
      4.546  0.2371E-03  0.8520E-03  0.0000E+00
      4.611  0.1115E-04  0.4006E-04  0.0000E+00
      4.676  0.2485E-07  0.8928E-07  0.0000E+00
      4.742  0.2155E-11  0.7744E-11  0.0000E+00
      4.807  0.8068E-11  0.3235E-11  0.0000E+00
      4.872  0.2031E-06  0.8309E-07  0.0000E+00
      4.938  0.2056E-03  0.8809E-04  0.0000E+00
      5.003  0.1069E-01  0.5054E-02  0.0000E+00
      5.068  0.4685E-01  0.2596E-01  0.0000E+00
      5.134  0.2900E-01  0.1884E-01  0.0000E+00
      5.199  0.7529E-02  0.6268E-02  0.0000E+00
      5.265  0.9151E-02  0.1164E-01  0.0000E+00
      5.330  0.1639E-01  0.3277E-01  0.0000E+00
      5.395  0.3831E-01  0.9094E-01  0.0000E+00
      5.461  0.2482E-01  0.4948E-01  0.0000E+00
      5.526  0.1447E-01  0.1439E-01  0.0000E+00
      5.591  0.2056E-01  0.2148E-01  0.0000E+00
      5.657  0.3026E-01  0.5777E-01  0.0000E+00
      5.722  0.1126E-01  0.2875E-01  0.0000E+00
      5.787  0.9998E-02  0.2171E-01  0.0000E+00
      5.853  0.6584E-02  0.1534E-01  0.0000E+00
      5.918  0.1633E-01  0.3331E-01  0.0000E+00
      5.983  0.1604E-01  0.5756E-01  0.0000E+00
      6.049  0.1631E-01  0.5232E-01  0.0000E+00
      6.114  0.1186E-01  0.2305E-01  0.0000E+00
      6.180  0.1598E-01  0.1608E-01  0.0000E+00
      6.245  0.1184E-01  0.1799E-01  0.0000E+00
      6.310  0.1309E-01  0.4244E-01  0.0000E+00
      6.376  0.2689E-02  0.1598E-01  0.0000E+00
      6.441  0.1717E-02  0.3135E-02  0.0000E+00
      6.506  0.2034E-02  0.3274E-02  0.0000E+00
      6.572  0.4508E-03  0.1015E-02  0.0000E+00
      6.637  0.3305E-02  0.9661E-02  0.0000E+00
      6.702  0.2878E-02  0.1054E-01  0.0000E+00
      6.768  0.1946E-03  0.1101E-02  0.0000E+00
      6.833  0.9242E-06  0.8708E-05  0.0000E+00
      6.899  0.2810E-09  0.3517E-08  0.0000E+00
      6.964  0.4101E-14  0.5617E-13  0.0000E+00
      7.029  0.0000E+00  0.0000E+00  0.0000E+00
      7.095  0.0000E+00  0.0000E+00  0.0000E+00
      7.160  0.0000E+00  0.0000E+00  0.0000E+00
      7.225  0.0000E+00  0.0000E+00  0.0000E+00
      7.291  0.0000E+00  0.0000E+00  0.0000E+00
      7.356  0.0000E+00  0.0000E+00  0.0000E+00
      7.421  0.0000E+00  0.0000E+00  0.0000E+00
      7.487  0.0000E+00  0.0000E+00  0.0000E+00
      7.552  0.0000E+00  0.0000E+00  0.0000E+00
      7.55209898    -12.05581430  301      1.21424951      1.00000000
    -12.056  0.0000E+00  0.0000E+00  0.0000E+00
    -11.990  0.0000E+00  0.0000E+00  0.0000E+00
    -11.925  0.0000E+00  0.0000E+00  0.0000E+00
    -11.860  0.0000E+00  0.0000E+00  0.0000E+00
    -11.794  0.0000E+00  0.0000E+00  0.0000E+00
    -11.729  0.0000E+00  0.0000E+00  0.0000E+00
    -11.664  0.0000E+00  0.0000E+00  0.0000E+00
    -11.598  0.0000E+00  0.0000E+00  0.0000E+00
    -11.533  0.0000E+00  0.0000E+00  0.0000E+00
    -11.468  0.0000E+00  0.0000E+00  0.0000E+00
    -11.402  0.1218E-13  0.2514E-16  0.0000E+00
    -11.337  0.7461E-09  0.1540E-11  0.0000E+00
    -11.271  0.1693E-05  0.3502E-08  0.0000E+00
    -11.206  0.1618E-03  0.3853E-06  0.0000E+00
    -11.141  0.9650E-03  0.1536E-04  0.0000E+00
    -11.075  0.2143E-02  0.2506E-03  0.0000E+00
    -11.010  0.4427E-02  0.8522E-03  0.0000E+00
    -10.945  0.5624E-02  0.2005E-02  0.0000E+00
    -10.879  0.5635E-02  0.3097E-02  0.0000E+00
    -10.814  0.5373E-02  0.5737E-02  0.0000E+00
    -10.749  0.2559E-02  0.6728E-02  0.0000E+00
    -10.683  0.1773E-02  0.6856E-02  0.0000E+00
    -10.618  0.2065E-02  0.5123E-02  0.0000E+00
    -10.553  0.4881E-02  0.6511E-02  0.0000E+00
    -10.487  0.6758E-02  0.1086E-01  0.0000E+00
    -10.422  0.1218E-01  0.1567E-01  0.0000E+00
    -10.356  0.2004E-01  0.2129E-01  0.0000E+00
    -10.291  0.1242E-01  0.3088E-01  0.0000E+00
    -10.226  0.3135E-02  0.1642E-01  0.0000E+00
    -10.160  0.1401E-03  0.1374E-02  0.0000E+00
    -10.095  0.5735E-06  0.9326E-05  0.0000E+00
    -10.030  0.1357E-09  0.3215E-08  0.0000E+00
     -9.964  0.1447E-14  0.4669E-13  0.0000E+00
     -9.899  0.0000E+00  0.0000E+00  0.0000E+00
     -9.834  0.0000E+00  0.0000E+00  0.0000E+00
     -9.768  0.0000E+00  0.0000E+00  0.0000E+00
     -9.703  0.0000E+00  0.0000E+00  0.0000E+00
     -9.638  0.0000E+00  0.0000E+00  0.0000E+00
     -9.572  0.0000E+00  0.0000E+00  0.0000E+00
     -9.507  0.0000E+00  0.0000E+00  0.0000E+00
     -9.441  0.0000E+00  0.0000E+00  0.0000E+00
     -9.376  0.0000E+00  0.0000E+00  0.0000E+00
     -9.311  0.0000E+00  0.0000E+00  0.0000E+00
     -9.245  0.0000E+00  0.0000E+00  0.0000E+00
     -9.180  0.0000E+00  0.0000E+00  0.0000E+00
     -9.115  0.0000E+00  0.0000E+00  0.0000E+00
     -9.049  0.0000E+00  0.0000E+00  0.0000E+00
     -8.984  0.0000E+00  0.0000E+00  0.0000E+00
     -8.919  0.0000E+00  0.0000E+00  0.0000E+00
     -8.853  0.0000E+00  0.0000E+00  0.0000E+00
     -8.788  0.0000E+00  0.0000E+00  0.0000E+00
     -8.722  0.0000E+00  0.0000E+00  0.0000E+00
     -8.657  0.0000E+00  0.0000E+00  0.0000E+00
     -8.592  0.0000E+00  0.0000E+00  0.0000E+00
     -8.526  0.0000E+00  0.0000E+00  0.0000E+00
     -8.461  0.0000E+00  0.0000E+00  0.0000E+00
     -8.396  0.0000E+00  0.0000E+00  0.0000E+00
     -8.330  0.0000E+00  0.0000E+00  0.0000E+00
     -8.265  0.0000E+00  0.0000E+00  0.0000E+00
     -8.200  0.0000E+00  0.0000E+00  0.0000E+00
     -8.134  0.0000E+00  0.0000E+00  0.0000E+00
     -8.069  0.0000E+00  0.0000E+00  0.0000E+00
     -8.004  0.0000E+00  0.0000E+00  0.0000E+00
     -7.938  0.0000E+00  0.0000E+00  0.0000E+00
     -7.873  0.0000E+00  0.0000E+00  0.0000E+00
     -7.807  0.0000E+00  0.0000E+00  0.0000E+00
     -7.742  0.0000E+00  0.0000E+00  0.0000E+00
     -7.677  0.0000E+00  0.0000E+00  0.0000E+00
     -7.611  0.0000E+00  0.0000E+00  0.0000E+00
     -7.546  0.0000E+00  0.0000E+00  0.0000E+00
     -7.481  0.0000E+00  0.0000E+00  0.0000E+00
     -7.415  0.0000E+00  0.0000E+00  0.0000E+00
     -7.350  0.0000E+00  0.0000E+00  0.0000E+00
     -7.285  0.0000E+00  0.0000E+00  0.0000E+00
     -7.219  0.0000E+00  0.0000E+00  0.0000E+00
     -7.154  0.0000E+00  0.0000E+00  0.0000E+00
     -7.088  0.0000E+00  0.0000E+00  0.0000E+00
     -7.023  0.0000E+00  0.0000E+00  0.0000E+00
     -6.958  0.0000E+00  0.0000E+00  0.0000E+00
     -6.892  0.0000E+00  0.0000E+00  0.0000E+00
     -6.827  0.0000E+00  0.0000E+00  0.0000E+00
     -6.762  0.0000E+00  0.0000E+00  0.0000E+00
     -6.696  0.0000E+00  0.0000E+00  0.0000E+00
     -6.631  0.0000E+00  0.0000E+00  0.0000E+00
     -6.566  0.0000E+00  0.0000E+00  0.0000E+00
     -6.500  0.0000E+00  0.0000E+00  0.0000E+00
     -6.435  0.0000E+00  0.0000E+00  0.0000E+00
     -6.370  0.0000E+00  0.0000E+00  0.0000E+00
     -6.304  0.0000E+00  0.0000E+00  0.0000E+00
     -6.239  0.0000E+00  0.0000E+00  0.0000E+00